Generated by trjconv : CNT in water t= 167.00000
33518
    1C        C    1   2.847   2.773   4.747
    1C        C    2   2.900   2.721   4.867
    1C        C    3   2.843   2.773   4.984
    1C        C    4   2.849   2.773   4.260
    1C        C    5   2.905   2.733   4.383
    1C        C    6   2.852   2.779   4.506
    1C        C    7   3.017   2.643   4.625
    1C        C    8   2.904   2.727   4.626
    1C        C    9   3.081   2.609   4.746
    1C        C   10   3.013   2.636   4.867
    1C        C   11   3.181   2.492   4.974
    1C        C   12   3.060   2.563   4.977
    1C        C   13   2.850   2.773   3.772
    1C        C   14   2.901   2.724   3.894
    1C        C   15   2.849   2.775   4.015
    1C        C   16   3.026   2.659   4.136
    1C        C   17   2.906   2.733   4.138
    1C        C   18   3.087   2.621   4.257
    1C        C   19   3.023   2.655   4.379
    1C        C   20   3.210   2.558   4.503
    1C        C   21   3.080   2.613   4.501
    1C        C   22   3.279   2.534   4.624
    1C        C   23   3.206   2.543   4.745
    1C        C   24   3.414   2.487   4.862
    1C        C   25   3.272   2.499   4.863
    1C        C   26   3.490   2.480   4.979
    1C        C   27   2.846   2.767   3.283
    1C        C   28   2.906   2.727   3.405
    1C        C   29   2.852   2.774   3.527
    1C        C   30   3.018   2.645   3.648
    1C        C   31   2.901   2.724   3.650
    1C        C   32   3.081   2.613   3.770
    1C        C   33   3.018   2.644   3.892
    1C        C   34   3.214   2.562   4.014
    1C        C   35   3.085   2.619   4.014
    1C        C   36   3.280   2.535   4.136
    1C        C   37   3.215   2.561   4.259
    1C        C   38   3.417   2.508   4.380
    1C        C   39   3.280   2.539   4.382
    1C        C   40   3.489   2.500   4.502
    1C        C   41   3.416   2.501   4.623
    1C        C   42   3.632   2.480   4.744
    1C        C   43   3.490   2.481   4.742
    1C        C   44   3.706   2.483   4.865
    1C        C   45   3.629   2.475   4.982
    1C        C   46   2.836   2.752   2.794
    1C        C   47   2.893   2.709   2.916
    1C        C   48   2.846   2.763   3.038
    1C        C   49   3.018   2.642   3.160
    1C        C   50   2.900   2.719   3.161
    1C        C   51   3.082   2.610   3.282
    1C        C   52   3.023   2.648   3.404
    1C        C   53   3.212   2.556   3.526
    1C        C   54   3.082   2.610   3.527
    1C        C   55   3.279   2.533   3.648
    1C        C   56   3.212   2.558   3.769
    1C        C   57   3.417   2.505   3.893
    1C        C   58   3.280   2.538   3.891
    1C        C   59   3.489   2.495   4.014
    1C        C   60   3.418   2.505   4.136
    1C        C   61   3.630   2.499   4.259
    1C        C   62   3.489   2.499   4.259
    1C        C   63   3.701   2.500   4.381
    1C        C   64   3.630   2.493   4.503
    1C        C   65   3.840   2.531   4.618
    1C        C   66   3.704   2.493   4.623
    1C        C   67   3.907   2.556   4.740
    1C        C   68   3.841   2.523   4.860
    1C        C   69   4.056   2.579   4.974
    1C        C   70   3.926   2.526   4.971
    1C        C   71   2.829   2.736   2.307
    1C        C   72   2.885   2.695   2.430
    1C        C   73   2.829   2.743   2.550
    1C        C   74   3.007   2.627   2.676
    1C        C   75   2.888   2.703   2.672
    1C        C   76   3.072   2.594   2.797
    1C        C   77   3.010   2.629   2.919
    1C        C   78   3.207   2.543   3.039
    1C        C   79   3.080   2.603   3.039
    1C        C   80   3.276   2.525   3.161
    1C        C   81   3.212   2.553   3.284
    1C        C   82   3.417   2.494   3.402
    1C        C   83   3.279   2.526   3.405
    1C        C   84   3.488   2.489   3.524
    1C        C   85   3.417   2.500   3.645
    1C        C   86   3.626   2.494   3.767
    1C        C   87   3.485   2.498   3.769
    1C        C   88   3.697   2.504   3.889
    1C        C   89   3.630   2.500   4.013
    1C        C   90   3.838   2.535   4.131
    1C        C   91   3.700   2.503   4.136
    1C        C   92   3.904   2.560   4.253
    1C        C   93   3.838   2.532   4.376
    1C        C   94   4.030   2.626   4.497
    1C        C   95   3.907   2.556   4.497
    1C        C   96   4.093   2.664   4.617
    1C        C   97   4.032   2.624   4.738
    1C        C   98   4.185   2.768   4.862
    1C        C   99   4.098   2.655   4.860
    1C        C  100   4.212   2.841   4.978
    1C        C  101   2.823   2.729   2.072
    1C        C  102   2.998   2.595   2.190
    1C        C  103   2.879   2.675   2.189
    1C        C  104   3.064   2.571   2.314
    1C        C  105   3.002   2.614   2.432
    1C        C  106   3.198   2.534   2.553
    1C        C  107   3.069   2.591   2.555
    1C        C  108   3.270   2.516   2.673
    1C        C  109   3.201   2.536   2.795
    1C        C  110   3.412   2.499   2.915
    1C        C  111   3.273   2.520   2.915
    1C        C  112   3.485   2.493   3.036
    1C        C  113   3.414   2.500   3.159
    1C        C  114   3.628   2.492   3.277
    1C        C  115   3.487   2.488   3.280
    1C        C  116   3.698   2.501   3.399
    1C        C  117   3.630   2.492   3.523
    1C        C  118   3.837   2.527   3.648
    1C        C  119   3.699   2.496   3.646
    1C        C  120   3.904   2.561   3.767
    1C        C  121   3.834   2.538   3.888
    1C        C  122   4.026   2.631   4.012
    1C        C  123   3.904   2.560   4.009
    1C        C  124   4.085   2.671   4.134
    1C        C  125   4.027   2.629   4.256
    1C        C  126   4.192   2.766   4.377
    1C        C  127   4.086   2.673   4.376
    1C        C  128   4.244   2.817   4.498
    1C        C  129   4.197   2.760   4.618
    1C        C  130   4.317   2.937   4.737
    1C        C  131   4.238   2.819   4.740
    1C        C  132   4.352   3.002   4.858
    1C        C  133   4.287   2.958   4.974
    1C        C  134   3.181   2.474   2.079
    1C        C  135   3.045   2.507   2.087
    1C        C  136   3.263   2.483   2.192
    1C        C  137   3.198   2.521   2.311
    1C        C  138   3.408   2.489   2.428
    1C        C  139   3.267   2.507   2.433
    1C        C  140   3.480   2.485   2.549
    1C        C  141   3.410   2.492   2.671
    1C        C  142   3.623   2.490   2.788
    1C        C  143   3.482   2.489   2.792
    1C        C  144   3.694   2.495   2.910
    1C        C  145   3.626   2.489   3.034
    1C        C  146   3.836   2.527   3.155
    1C        C  147   3.699   2.493   3.155
    1C        C  148   3.901   2.556   3.276
    1C        C  149   3.835   2.535   3.399
    1C        C  150   4.026   2.615   3.523
    1C        C  151   3.899   2.554   3.524
    1C        C  152   4.089   2.657   3.642
    1C        C  153   4.028   2.629   3.766
    1C        C  154   4.193   2.760   3.889
    1C        C  155   4.082   2.672   3.889
    1C        C  156   4.244   2.811   4.011
    1C        C  157   4.195   2.760   4.133
    1C        C  158   4.339   2.918   4.251
    1C        C  159   4.246   2.812   4.254
    1C        C  160   4.373   2.983   4.372
    1C        C  161   4.326   2.932   4.495
    1C        C  162   4.430   3.118   4.616
    1C        C  163   4.360   2.995   4.616
    1C        C  164   4.458   3.186   4.737
    1C        C  165   4.426   3.122   4.859
    1C        C  166   4.511   3.319   4.974
    1C        C  167   4.476   3.185   4.974
    1C        C  168   3.474   2.432   2.071
    1C        C  169   3.402   2.459   2.188
    1C        C  170   3.619   2.470   2.305
    1C        C  171   3.477   2.464   2.307
    1C        C  172   3.693   2.493   2.423
    1C        C  173   3.621   2.490   2.544
    1C        C  174   3.830   2.533   2.667
    1C        C  175   3.693   2.501   2.665
    1C        C  176   3.896   2.557   2.789
    1C        C  177   3.831   2.531   2.911
    1C        C  178   4.025   2.621   3.032
    1C        C  179   3.901   2.552   3.032
    1C        C  180   4.085   2.660   3.154
    1C        C  181   4.027   2.621   3.277
    1C        C  182   4.194   2.745   3.399
    1C        C  183   4.086   2.654   3.401
    1C        C  184   4.243   2.800   3.519
    1C        C  185   4.197   2.748   3.642
    1C        C  186   4.325   2.918   3.763
    1C        C  187   4.244   2.802   3.764
    1C        C  188   4.368   2.978   3.883
    1C        C  189   4.331   2.921   4.008
    1C        C  190   4.441   3.104   4.129
    1C        C  191   4.374   2.980   4.129
    1C        C  192   4.467   3.173   4.249
    1C        C  193   4.437   3.109   4.372
    1C        C  194   4.497   3.316   4.492
    1C        C  195   4.459   3.180   4.492
    1C        C  196   4.521   3.386   4.612
    1C        C  197   4.508   3.319   4.736
    1C        C  198   4.555   3.533   4.853
    1C        C  199   4.529   3.392   4.855
    1C        C  200   4.582   3.619   4.964
    1C        C  201   3.613   2.420   2.073
    1C        C  202   3.829   2.509   2.181
    1C        C  203   3.693   2.465   2.183
    1C        C  204   3.902   2.538   2.300
    1C        C  205   3.832   2.522   2.421
    1C        C  206   4.024   2.614   2.544
    1C        C  207   3.896   2.553   2.543
    1C        C  208   4.081   2.656   2.666
    1C        C  209   4.024   2.618   2.789
    1C        C  210   4.195   2.746   2.907
    1C        C  211   4.087   2.655   2.910
    1C        C  212   4.246   2.793   3.030
    1C        C  213   4.196   2.747   3.154
    1C        C  214   4.329   2.910   3.271
    1C        C  215   4.245   2.796   3.277
    1C        C  216   4.368   2.968   3.394
    1C        C  217   4.329   2.912   3.518
    1C        C  218   4.431   3.099   3.638
    1C        C  219   4.362   2.976   3.639
    1C        C  220   4.458   3.167   3.759
    1C        C  221   4.433   3.103   3.882
    1C        C  222   4.499   3.304   4.003
    1C        C  223   4.466   3.166   4.004
    1C        C  224   4.507   3.379   4.123
    1C        C  225   4.500   3.310   4.246
    1C        C  226   4.514   3.523   4.366
    1C        C  227   4.511   3.382   4.368
    1C        C  228   4.514   3.596   4.487
    1C        C  229   4.530   3.527   4.610
    1C        C  230   4.504   3.739   4.725
    1C        C  231   4.541   3.602   4.729
    1C        C  232   4.491   3.817   4.842
    1C        C  233   4.546   3.754   4.954
    1C        C  234   4.019   2.609   2.064
    1C        C  235   3.896   2.545   2.063
    1C        C  236   4.089   2.643   2.180
    1C        C  237   4.031   2.598   2.301
    1C        C  238   4.201   2.729   2.421
    1C        C  239   4.090   2.641   2.422
    1C        C  240   4.251   2.784   2.542
    1C        C  241   4.194   2.741   2.663
    1C        C  242   4.331   2.905   2.784
    1C        C  243   4.247   2.791   2.784
    1C        C  244   4.374   2.962   2.906
    1C        C  245   4.335   2.903   3.029
    1C        C  246   4.435   3.094   3.149
    1C        C  247   4.370   2.968   3.149
    1C        C  248   4.457   3.160   3.272
    1C        C  249   4.424   3.097   3.394
    1C        C  250   4.492   3.301   3.514
    1C        C  251   4.452   3.166   3.515
    1C        C  252   4.504   3.370   3.637
    1C        C  253   4.490   3.304   3.762
    1C        C  254   4.518   3.517   3.879
    1C        C  255   4.510   3.376   3.882
    1C        C  256   4.518   3.591   3.999
    1C        C  257   4.515   3.520   4.121
    1C        C  258   4.492   3.731   4.242
    1C        C  259   4.512   3.591   4.243
    1C        C  260   4.471   3.802   4.362
    1C        C  261   4.488   3.735   4.485
    1C        C  262   4.427   3.940   4.602
    1C        C  263   4.480   3.809   4.605
    1C        C  264   4.402   4.011   4.721
    1C        C  265   4.432   3.945   4.842
    1C        C  266   4.316   4.127   4.956
    1C        C  267   4.394   4.012   4.959
    1C        C  268   4.262   2.780   2.065
    1C        C  269   4.198   2.732   2.180
    1C        C  270   4.346   2.889   2.301
    1C        C  271   4.253   2.781   2.300
    1C        C  272   4.381   2.956   2.420
    1C        C  273   4.338   2.895   2.540
    1C        C  274   4.442   3.084   2.660
    1C        C  275   4.374   2.960   2.661
    1C        C  276   4.468   3.151   2.782
    1C        C  277   4.440   3.086   2.904
    1C        C  278   4.500   3.292   3.024
    1C        C  279   4.463   3.156   3.026
    1C        C  280   4.504   3.365   3.145
    1C        C  281   4.488   3.298   3.268
    1C        C  282   4.514   3.509   3.389
    1C        C  283   4.502   3.368   3.390
    1C        C  284   4.509   3.580   3.511
    1C        C  285   4.514   3.511   3.634
    1C        C  286   4.485   3.722   3.751
    1C        C  287   4.516   3.584   3.755
    1C        C  288   4.470   3.793   3.873
    1C        C  289   4.492   3.730   3.997
    1C        C  290   4.432   3.933   4.116
    1C        C  291   4.479   3.800   4.119
    1C        C  292   4.401   4.000   4.236
    1C        C  293   4.426   3.936   4.359
    1C        C  294   4.326   4.126   4.479
    1C        C  295   4.394   4.003   4.480
    1C        C  296   4.281   4.185   4.599
    1C        C  297   4.324   4.130   4.722
    1C        C  298   4.196   4.312   4.841
    1C        C  299   4.281   4.197   4.840
    1C        C  300   4.164   4.399   4.951
    1C        C  301   4.359   2.879   2.066
    1C        C  302   4.470   3.071   2.173
    1C        C  303   4.399   2.946   2.183
    1C        C  304   4.487   3.142   2.295
    1C        C  305   4.451   3.078   2.416
    1C        C  306   4.503   3.285   2.537
    1C        C  307   4.475   3.146   2.538
    1C        C  308   4.509   3.357   2.659
    1C        C  309   4.496   3.289   2.782
    1C        C  310   4.517   3.504   2.898
    1C        C  311   4.508   3.363   2.902
    1C        C  312   4.516   3.574   3.021
    1C        C  313   4.511   3.506   3.145
    1C        C  314   4.485   3.717   3.261
    1C        C  315   4.510   3.578   3.266
    1C        C  316   4.478   3.788   3.383
    1C        C  317   4.494   3.720   3.506
    1C        C  318   4.427   3.923   3.627
    1C        C  319   4.474   3.790   3.628
    1C        C  320   4.393   3.987   3.748
    1C        C  321   4.427   3.928   3.872
    1C        C  322   4.325   4.114   3.991
    1C        C  323   4.402   3.996   3.993
    1C        C  324   4.279   4.170   4.112
    1C        C  325   4.326   4.121   4.236
    1C        C  326   4.185   4.283   4.353
    1C        C  327   4.284   4.182   4.356
    1C        C  328   4.136   4.337   4.473
    1C        C  329   4.188   4.292   4.596
    1C        C  330   4.025   4.433   4.713
    1C        C  331   4.138   4.347   4.716
    1C        C  332   3.970   4.493   4.829
    1C        C  333   4.053   4.484   4.941
    1C        C  334   4.548   3.269   2.059
    1C        C  335   4.533   3.129   2.059
    1C        C  336   4.540   3.350   2.173
    1C        C  337   4.516   3.281   2.293
    1C        C  338   4.522   3.494   2.411
    1C        C  339   4.522   3.353   2.415
    1C        C  340   4.514   3.567   2.531
    1C        C  341   4.517   3.498   2.655
    1C        C  342   4.491   3.712   2.770
    1C        C  343   4.512   3.573   2.775
    1C        C  344   4.482   3.783   2.892
    1C        C  345   4.494   3.713   3.014
    1C        C  346   4.426   3.915   3.135
    1C        C  347   4.473   3.782   3.136
    1C        C  348   4.391   3.976   3.257
    1C        C  349   4.429   3.921   3.382
    1C        C  350   4.320   4.103   3.502
    1C        C  351   4.399   3.986   3.504
    1C        C  352   4.276   4.163   3.622
    1C        C  353   4.319   4.108   3.745
    1C        C  354   4.177   4.264   3.867
    1C        C  355   4.278   4.165   3.867
    1C        C  356   4.118   4.309   3.987
    1C        C  357   4.175   4.266   4.108
    1C        C  358   4.013   4.403   4.230
    1C        C  359   4.128   4.321   4.229
    1C        C  360   3.955   4.447   4.351
    1C        C  361   4.020   4.418   4.473
    1C        C  362   3.828   4.517   4.591
    1C        C  363   3.957   4.460   4.592
    1C        C  364   3.764   4.553   4.712
    1C        C  365   3.840   4.547   4.831
    1C        C  366   3.629   4.588   4.947
    1C        C  367   3.767   4.571   4.948
    1C        C  368   4.514   3.564   2.052
    1C        C  369   4.527   3.491   2.171
    1C        C  370   4.498   3.707   2.284
    1C        C  371   4.519   3.567   2.290
    1C        C  372   4.486   3.778   2.405
    1C        C  373   4.500   3.707   2.527
    1C        C  374   4.425   3.910   2.647
    1C        C  375   4.479   3.779   2.646
    1C        C  376   4.398   3.975   2.770
    1C        C  377   4.437   3.917   2.893
    1C        C  378   4.328   4.102   3.012
    1C        C  379   4.405   3.983   3.013
    1C        C  380   4.276   4.152   3.133
    1C        C  381   4.313   4.094   3.257
    1C        C  382   4.176   4.256   3.379
    1C        C  383   4.274   4.154   3.379
    1C        C  384   4.121   4.304   3.499
    1C        C  385   4.178   4.264   3.622
    1C        C  386   4.007   4.390   3.743
    1C        C  387   4.124   4.312   3.745
    1C        C  388   3.945   4.430   3.864
    1C        C  389   4.003   4.391   3.987
    1C        C  390   3.816   4.488   4.108
    1C        C  391   3.945   4.431   4.109
    1C        C  392   3.750   4.516   4.230
    1C        C  393   3.824   4.500   4.350
    1C        C  394   3.617   4.552   4.473
    1C        C  395   3.756   4.530   4.470
    1C        C  396   3.546   4.566   4.595
    1C        C  397   3.624   4.569   4.713
    1C        C  398   3.410   4.549   4.838
    1C        C  399   3.549   4.573   4.833
    1C        C  400   3.343   4.517   4.957
    1C        C  401   4.506   3.703   2.047
    1C        C  402   4.450   3.914   2.164
    1C        C  403   4.489   3.779   2.163
    1C        C  404   4.411   3.979   2.283
    1C        C  405   4.438   3.911   2.404
    1C        C  406   4.321   4.092   2.524
    1C        C  407   4.398   3.974   2.524
    1C        C  408   4.278   4.150   2.646
    1C        C  409   4.320   4.093   2.768
    1C        C  410   4.174   4.247   2.888
    1C        C  411   4.279   4.153   2.890
    1C        C  412   4.121   4.294   3.010
    1C        C  413   4.177   4.252   3.133
    1C        C  414   4.005   4.375   3.252
    1C        C  415   4.125   4.302   3.255
    1C        C  416   3.943   4.414   3.373
    1C        C  417   4.003   4.382   3.497
    1C        C  418   3.815   4.476   3.619
    1C        C  419   3.945   4.420   3.620
    1C        C  420   3.752   4.509   3.741
    1C        C  421   3.814   4.484   3.865
    1C        C  422   3.609   4.534   3.985
    1C        C  423   3.749   4.513   3.987
    1C        C  424   3.540   4.539   4.108
    1C        C  425   3.611   4.539   4.230
    1C        C  426   3.401   4.546   4.354
    1C        C  427   3.542   4.553   4.353
    1C        C  428   3.332   4.546   4.477
    1C        C  429   3.406   4.555   4.597
    1C        C  430   3.195   4.517   4.724
    1C        C  431   3.334   4.546   4.719
    1C        C  432   3.125   4.490   4.844
    1C        C  433   3.205   4.496   4.959
    1C        C  434   4.387   4.127   2.051
    1C        C  435   4.446   4.000   2.053
    1C        C  436   4.304   4.166   2.162
    1C        C  437   4.336   4.100   2.284
    1C        C  438   4.178   4.249   2.402
    1C        C  439   4.279   4.150   2.403
    1C        C  440   4.126   4.300   2.523
    1C        C  441   4.178   4.250   2.644
    1C        C  442   4.006   4.376   2.765
    1C        C  443   4.122   4.295   2.766
    1C        C  444   3.942   4.409   2.886
    1C        C  445   4.005   4.374   3.008
    1C        C  446   3.811   4.462   3.131
    1C        C  447   3.941   4.407   3.129
    1C        C  448   3.746   4.484   3.254
    1C        C  449   3.815   4.474   3.376
    1C        C  450   3.606   4.517   3.495
    1C        C  451   3.745   4.494   3.497
    1C        C  452   3.541   4.534   3.619
    1C        C  453   3.613   4.532   3.740
    1C        C  454   3.399   4.539   3.862
    1C        C  455   3.541   4.542   3.861
    1C        C  456   3.330   4.534   3.985
    1C        C  457   3.399   4.539   4.108
    1C        C  458   3.194   4.498   4.235
    1C        C  459   3.331   4.533   4.232
    1C        C  460   3.128   4.483   4.359
    1C        C  461   3.196   4.511   4.480
    1C        C  462   2.999   4.432   4.604
    1C        C  463   3.127   4.492   4.603
    1C        C  464   2.931   4.401   4.724
    1C        C  465   2.991   4.439   4.847
    1C        C  466   2.801   4.334   4.962
    1C        C  467   2.907   4.425   4.962
    1C        C  468   4.119   4.282   2.042
    1C        C  469   4.186   4.246   2.159
    1C        C  470   4.009   4.374   2.278
    1C        C  471   4.129   4.298   2.279
    1C        C  472   3.941   4.400   2.399
    1C        C  473   4.006   4.375   2.522
    1C        C  474   3.810   4.457   2.643
    1C        C  475   3.943   4.410   2.643
    1C        C  476   3.743   4.485   2.765
    1C        C  477   3.813   4.467   2.886
    1C        C  478   3.606   4.510   3.007
    1C        C  479   3.746   4.488   3.008
    1C        C  480   3.536   4.522   3.130
    1C        C  481   3.608   4.515   3.251
    1C        C  482   3.395   4.526   3.374
    1C        C  483   3.537   4.529   3.372
    1C        C  484   3.328   4.523   3.498
    1C        C  485   3.399   4.538   3.619
    1C        C  486   3.190   4.500   3.743
    1C        C  487   3.328   4.532   3.741
    1C        C  488   3.128   4.476   3.867
    1C        C  489   3.193   4.502   3.990
    1C        C  490   3.001   4.414   4.116
    1C        C  491   3.126   4.481   4.113
    1C        C  492   2.941   4.380   4.239
    1C        C  493   3.000   4.424   4.360
    1C        C  494   2.829   4.302   4.483
    1C        C  495   2.940   4.389   4.483
    1C        C  496   2.776   4.256   4.605
    1C        C  497   2.822   4.310   4.727
    1C        C  498   2.666   4.162   4.844
    1C        C  499   2.758   4.269   4.846
    1C        C  500   2.591   4.120   4.954
    1C        C  501   4.001   4.355   2.040
    1C        C  502   3.814   4.464   2.159
    1C        C  503   3.940   4.401   2.157
    1C        C  504   3.740   4.477   2.279
    1C        C  505   3.808   4.447   2.398
    1C        C  506   3.603   4.501   2.522
    1C        C  507   3.742   4.475   2.520
    1C        C  508   3.531   4.514   2.643
    1C        C  509   3.604   4.508   2.763
    1C        C  510   3.394   4.528   2.887
    1C        C  511   3.534   4.516   2.886
    1C        C  512   3.322   4.524   3.008
    1C        C  513   3.395   4.530   3.129
    1C        C  514   3.188   4.491   3.256
    1C        C  515   3.326   4.521   3.251
    1C        C  516   3.122   4.468   3.378
    1C        C  517   3.189   4.495   3.499
    1C        C  518   2.998   4.406   3.624
    1C        C  519   3.122   4.473   3.622
    1C        C  520   2.940   4.371   3.748
    1C        C  521   3.003   4.409   3.869
    1C        C  522   2.841   4.279   3.996
    1C        C  523   2.947   4.372   3.993
    1C        C  524   2.787   4.235   4.119
    1C        C  525   2.833   4.289   4.241
    1C        C  526   2.694   4.132   4.363
    1C        C  527   2.779   4.245   4.364
    1C        C  528   2.653   4.077   4.486
    1C        C  529   2.688   4.145   4.605
    1C        C  530   2.582   3.960   4.732
    1C        C  531   2.638   4.090   4.725
    1C        C  532   2.543   3.899   4.855
    1C        C  533   2.530   3.995   4.961
    1C        C  534   3.615   4.552   2.040
    1C        C  535   3.748   4.509   2.044
    1C        C  536   3.533   4.532   2.155
    1C        C  537   3.601   4.507   2.277
    1C        C  538   3.391   4.512   2.399
    1C        C  539   3.532   4.509   2.400
    1C        C  540   3.319   4.508   2.521
    1C        C  541   3.390   4.516   2.643
    1C        C  542   3.183   4.485   2.766
    1C        C  543   3.321   4.517   2.766
    1C        C  544   3.117   4.465   2.889
    1C        C  545   3.185   4.487   3.011
    1C        C  546   2.999   4.393   3.131
    1C        C  547   3.122   4.462   3.134
    1C        C  548   2.940   4.361   3.255
    1C        C  549   2.997   4.402   3.378
    1C        C  550   2.829   4.277   3.506
    1C        C  551   2.938   4.367   3.502
    1C        C  552   2.782   4.228   3.629
    1C        C  553   2.834   4.278   3.750
    1C        C  554   2.701   4.118   3.875
    1C        C  555   2.787   4.231   3.875
    1C        C  556   2.665   4.058   3.998
    1C        C  557   2.704   4.120   4.118
    1C        C  558   2.605   3.937   4.249
    1C        C  559   2.663   4.066   4.242
    1C        C  560   2.572   3.878   4.372
    1C        C  561   2.585   3.953   4.491
    1C        C  562   2.531   3.750   4.615
    1C        C  563   2.555   3.889   4.613
    1C        C  564   2.519   3.680   4.737
    1C        C  565   2.522   3.758   4.856
    1C        C  566   2.529   3.546   4.976
    1C        C  567   2.528   3.685   4.976
    1C        C  568   3.326   4.473   2.037
    1C        C  569   3.392   4.508   2.154
    1C        C  570   3.181   4.480   2.278
    1C        C  571   3.320   4.511   2.277
    1C        C  572   3.112   4.458   2.399
    1C        C  573   3.180   4.481   2.521
    1C        C  574   2.990   4.396   2.643
    1C        C  575   3.114   4.463   2.644
    1C        C  576   2.932   4.358   2.767
    1C        C  577   2.994   4.396   2.888
    1C        C  578   2.825   4.268   3.013
    1C        C  579   2.936   4.355   3.010
    1C        C  580   2.778   4.219   3.137
    1C        C  581   2.833   4.269   3.257
    1C        C  582   2.700   4.111   3.385
    1C        C  583   2.788   4.222   3.383
    1C        C  584   2.666   4.051   3.509
    1C        C  585   2.698   4.114   3.631
    1C        C  586   2.594   3.932   3.755
    1C        C  587   2.661   4.057   3.754
    1C        C  588   2.568   3.870   3.879
    1C        C  589   2.600   3.933   4.002
    1C        C  590   2.535   3.737   4.127
    1C        C  591   2.575   3.872   4.127
    1C        C  592   2.520   3.672   4.252
    1C        C  593   2.529   3.743   4.373
    1C        C  594   2.511   3.533   4.497
    1C        C  595   2.517   3.674   4.496
    1C        C  596   2.511   3.463   4.620
    1C        C  597   2.510   3.538   4.739
    1C        C  598   2.527   3.326   4.863
    1C        C  599   2.521   3.467   4.860
    1C        C  600   2.529   3.246   4.978
    1C        C  601   3.193   4.437   2.041
    1C        C  602   2.980   4.395   2.158
    1C        C  603   3.116   4.440   2.159
    1C        C  604   2.922   4.360   2.283
    1C        C  605   2.986   4.395   2.403
    1C        C  606   2.811   4.273   2.527
    1C        C  607   2.923   4.360   2.524
    1C        C  608   2.766   4.222   2.651
    1C        C  609   2.821   4.271   2.771
    1C        C  610   2.685   4.107   2.897
    1C        C  611   2.770   4.219   2.892
    1C        C  612   2.647   4.048   3.020
    1C        C  613   2.691   4.108   3.140
    1C        C  614   2.591   3.927   3.264
    1C        C  615   2.654   4.053   3.265
    1C        C  616   2.568   3.863   3.388
    1C        C  617   2.601   3.926   3.511
    1C        C  618   2.533   3.727   3.636
    1C        C  619   2.568   3.864   3.634
    1C        C  620   2.520   3.661   3.760
    1C        C  621   2.531   3.734   3.881
    1C        C  622   2.508   3.527   4.011
    1C        C  623   2.520   3.668   4.005
    1C        C  624   2.512   3.456   4.133
    1C        C  625   2.514   3.531   4.254
    1C        C  626   2.538   3.321   4.378
    1C        C  627   2.516   3.460   4.376
    1C        C  628   2.551   3.252   4.501
    1C        C  629   2.529   3.323   4.622
    1C        C  630   2.589   3.118   4.745
    1C        C  631   2.544   3.253   4.744
    1C        C  632   2.616   3.049   4.866
    1C        C  633   2.562   3.110   4.984
    1C        C  634   2.784   4.301   2.050
    1C        C  635   2.891   4.391   2.045
    1C        C  636   2.747   4.231   2.165
    1C        C  637   2.809   4.273   2.285
    1C        C  638   2.671   4.111   2.410
    1C        C  639   2.760   4.220   2.406
    1C        C  640   2.636   4.050   2.533
    1C        C  641   2.681   4.109   2.653
    1C        C  642   2.585   3.919   2.774
    1C        C  643   2.647   4.046   2.775
    1C        C  644   2.555   3.856   2.897
    1C        C  645   2.586   3.921   3.018
    1C        C  646   2.529   3.722   3.147
    1C        C  647   2.564   3.858   3.143
    1C        C  648   2.517   3.654   3.270
    1C        C  649   2.531   3.727   3.390
    1C        C  650   2.510   3.518   3.518
    1C        C  651   2.518   3.659   3.513
    1C        C  652   2.513   3.451   3.643
    1C        C  653   2.511   3.520   3.766
    1C        C  654   2.530   3.314   3.890
    1C        C  655   2.510   3.454   3.890
    1C        C  656   2.551   3.247   4.013
    1C        C  657   2.534   3.317   4.134
    1C        C  658   2.602   3.118   4.260
    1C        C  659   2.549   3.249   4.257
    1C        C  660   2.636   3.056   4.382
    1C        C  661   2.602   3.120   4.504
    1C        C  662   2.709   2.939   4.626
    1C        C  663   2.627   3.054   4.625
    1C        C  664   2.754   2.880   4.747
    1C        C  665   2.699   2.932   4.867
    1C        C  666   2.740   2.866   4.984
    1C        C  667   2.684   4.022   2.057
    1C        C  668   2.688   4.103   2.171
    1C        C  669   2.585   3.914   2.293
    1C        C  670   2.638   4.046   2.290
    1C        C  671   2.553   3.848   2.414
    1C        C  672   2.578   3.921   2.533
    1C        C  673   2.518   3.715   2.658
    1C        C  674   2.556   3.851   2.654
    1C        C  675   2.507   3.648   2.782
    1C        C  676   2.520   3.719   2.903
    1C        C  677   2.509   3.508   3.029
    1C        C  678   2.514   3.650   3.026
    1C        C  679   2.510   3.440   3.153
    1C        C  680   2.506   3.513   3.274
    1C        C  681   2.526   3.305   3.403
    1C        C  682   2.508   3.445   3.397
    1C        C  683   2.549   3.240   3.526
    1C        C  684   2.533   3.311   3.647
    1C        C  685   2.598   3.111   3.772
    1C        C  686   2.547   3.242   3.770
    1C        C  687   2.632   3.049   3.895
    1C        C  688   2.599   3.114   4.016
    1C        C  689   2.707   2.934   4.141
    1C        C  690   2.630   3.052   4.139
    1C        C  691   2.753   2.877   4.262
    1C        C  692   2.717   2.941   4.383
    1C        C  693   2.756   2.882   4.506
    1C        C  694   2.634   3.891   2.063
    1C        C  695   2.523   3.703   2.176
    1C        C  696   2.575   3.835   2.177
    1C        C  697   2.510   3.636   2.299
    1C        C  698   2.524   3.710   2.418
    1C        C  699   2.496   3.500   2.541
    1C        C  700   2.500   3.641   2.539
    1C        C  701   2.508   3.433   2.665
    1C        C  702   2.505   3.507   2.785
    1C        C  703   2.522   3.296   2.910
    1C        C  704   2.506   3.436   2.908
    1C        C  705   2.540   3.230   3.034
    1C        C  706   2.526   3.300   3.155
    1C        C  707   2.597   3.106   3.278
    1C        C  708   2.542   3.236   3.281
    1C        C  709   2.628   3.045   3.402
    1C        C  710   2.603   3.109   3.526
    1C        C  711   2.707   2.929   3.649
    1C        C  712   2.631   3.048   3.650
    1C        C  713   2.755   2.878   3.772
    1C        C  714   2.714   2.933   3.895
    1C        C  715   2.757   2.882   4.020
    1C        C  716   2.449   3.499   2.063
    1C        C  717   2.497   3.631   2.059
    1C        C  718   2.466   3.419   2.180
    1C        C  719   2.486   3.495   2.299
    1C        C  720   2.509   3.286   2.423
    1C        C  721   2.487   3.425   2.421
    1C        C  722   2.536   3.221   2.546
    1C        C  723   2.524   3.293   2.667
    1C        C  724   2.595   3.094   2.791
    1C        C  725   2.541   3.225   2.789
    1C        C  726   2.621   3.030   2.915
    1C        C  727   2.589   3.097   3.035
    1C        C  728   2.705   2.921   3.160
    1C        C  729   2.627   3.039   3.158
    1C        C  730   2.753   2.873   3.284
    1C        C  731   2.709   2.930   3.406
    1C        C  732   2.751   2.873   3.528
    1C        C  733   2.487   3.195   2.068
    1C        C  734   2.487   3.278   2.181
    1C        C  735   2.573   3.080   2.303
    1C        C  736   2.526   3.215   2.302
    1C        C  737   2.613   3.022   2.425
    1C        C  738   2.585   3.088   2.546
    1C        C  739   2.695   2.909   2.670
    1C        C  740   2.618   3.027   2.669
    1C        C  741   2.739   2.854   2.793
    1C        C  742   2.697   2.912   2.915
    1C        C  743   2.749   2.865   3.038
    1C        C  744   2.541   3.066   2.072
    1C        C  745   2.681   2.892   2.187
    1C        C  746   2.596   3.005   2.186
    1C        C  747   2.729   2.837   2.307
    1C        C  748   2.691   2.904   2.426
    1C        C  749   2.736   2.849   2.548
    1C        C  750   2.731   2.833   2.070
    1C        C  751   3.655   2.302   1.993
    1C        O  752   3.644   2.187   2.042
    1C        O  753   3.703   2.321   1.863
    1C        C  754   4.634   3.056   1.979
    1C        O  755   4.627   3.055   1.853
    1C        O  756   4.771   3.050   2.009
    1C        C  757   4.454   4.226   1.965
    1C        O  758   4.551   4.293   2.010
    1C        O  759   4.432   4.235   1.827
    1C        C  760   3.598   4.663   1.944
    1C        O  761   3.613   4.784   1.978
    1C        O  762   3.630   4.653   1.808
    1C        C  763   2.878   4.513   1.963
    1C        O  764   2.831   4.514   1.846
    1C        O  765   2.875   4.640   2.022
    1C        C  766   2.334   3.474   1.974
    1C        O  767   2.357   3.453   1.852
    1C        O  768   2.199   3.495   2.007
    1C        C  769   4.681   3.581   5.068
    1C        O  770   4.641   3.570   5.187
    1C        O  771   4.814   3.622   5.063
    1C        C  772   4.239   4.414   5.078
    1C        O  773   4.183   4.372   5.183
    1C        O  774   4.319   4.527   5.101
    1C        C  775   4.155   2.496   5.046
    1C        O  776   4.235   2.411   4.998
    1C        O  777   4.175   2.514   5.184
    1C        C  778   2.888   4.546   5.046
    1C        O  779   2.791   4.623   5.021
    1C        O  780   2.944   4.561   5.173
    1C        C  781   2.486   3.031   5.083
    1C        O  782   2.365   3.004   5.064
    1C        O  783   2.550   2.970   5.191
    1C        C  784   2.396   4.002   5.024
    1C        O  785   2.287   3.999   4.961
    1C        O  786   2.375   4.007   5.163
    1C        C  787   2.958   2.402   2.030
    1C        O  788   2.935   2.389   1.907
    1C        O  789   2.923   2.286   2.097
    1C        C  790   3.184   2.371   5.060
    1C        O  791   3.157   2.257   5.015
    1C        O  792   3.220   2.372   5.196
    1C        H  793   4.244   3.038   5.030
    1C        H  794   4.214   2.784   5.069
    1C        H  795   4.500   3.118   5.053
    1C        H  796   4.549   3.357   5.067
    1C        H  797   4.593   3.817   5.027
    1C        H  798   4.469   4.020   5.036
    1C        H  799   4.310   4.174   5.052
    1C        H  800   4.030   4.545   5.026
    1C        H  801   3.808   4.547   5.044
    1C        H  802   3.584   4.630   5.035
    1C        H  803   3.398   4.470   5.036
    1C        H  804   3.163   4.461   5.051
    1C        H  805   3.889   2.475   5.058
    1C        H  806   3.677   2.450   5.074
    1C        H  807   2.997   2.553   5.063
    1C        H  808   3.445   2.512   5.071
    1C        H  809   2.910   2.768   5.068
    1C        H  810   2.662   2.838   5.051
    1C        H  811   2.527   3.300   5.070
    1C        H  812   2.526   3.499   5.072
    1C        H  813   2.475   3.727   5.059
    1C        H  814   2.559   4.195   5.024
    1C        H  815   2.784   4.289   5.057
    1C        H  816   2.703   2.870   1.974
    1C        H  817   2.805   2.653   1.998
    1C        H  818   3.225   2.458   1.983
    1C        H  819   3.422   2.362   2.008
    1C        H  820   3.844   2.535   1.970
    1C        H  821   4.039   2.663   1.973
    1C        H  822   4.253   2.725   1.973
    1C        H  823   4.408   2.905   1.974
    1C        H  824   4.561   3.313   1.963
    1C        H  825   4.524   3.518   1.956
    1C        H  826   4.463   3.749   1.960
    1C        H  827   3.795   4.504   1.948
    1C        H  828   3.944   4.343   1.950
    1C        H  829   4.169   4.270   1.947
    1C        H  830   4.469   3.959   1.957
    1C        H  831   2.694   3.820   2.009
    1C        H  832   2.692   4.069   1.961
    1C        H  833   2.713   4.319   1.972
    1C        H  834   3.347   4.538   1.955
    1C        H  835   3.161   4.370   1.964
    1C        H  836   2.530   3.003   1.987
    1C        H  837   2.414   3.211   1.992
    1C        H  838   2.560   3.646   1.974
    2V3OU   H29  839   2.799   3.546   1.713
    2V3OU   C27  840   2.779   3.502   1.814
    2V3OU   H27  841   2.720   3.571   1.880
    2V3OU   H28  842   2.732   3.400   1.808
    2V3OU   O11  843   2.906   3.484   1.877
    2V3OU   C15  844   2.921   3.397   1.983
    2V3OU   C13  845   3.048   3.374   2.040
    2V3OU   C14  846   3.073   3.270   2.131
    2V3OU   C16  847   2.969   3.192   2.179
    2V3OU    H6  848   2.991   3.102   2.238
    2V3OU   C12  849   3.208   3.231   2.178
    2V3OU    O2  850   3.234   3.124   2.237
    2V3OU   C10  851   3.325   3.308   2.134
    2V3OU    C8  852   3.454   3.270   2.168
    2V3OU   O10  853   3.485   3.155   2.235
    2V3OU   H26  854   3.401   3.111   2.251
    2V3OU    C6  855   3.563   3.351   2.123
    2V3OU    C5  856   3.532   3.465   2.051
    2V3OU    C4  857   3.701   3.295   2.134
    2V3OU    H4  858   3.725   3.228   2.222
    2V3OU    H5  859   3.711   3.230   2.042
    2V3OU    C2  860   3.815   3.397   2.133
    2V3OU    O6  861   3.805   3.472   2.254
    2V3OU   H21  862   3.754   3.554   2.245
    2V3OU    C3  863   3.783   3.496   2.022
    2V3OU    H2  864   3.867   3.570   2.021
    2V3OU    H3  865   3.787   3.435   1.929
    2V3OU   C25  866   3.948   3.322   2.114
    2V3OU    O7  867   4.000   3.290   2.008
    2V3OU   C26  868   4.028   3.288   2.239
    2V3OU   H22  869   4.057   3.383   2.292
    2V3OU   H23  870   4.119   3.229   2.210
    2V3OU    O8  871   3.967   3.211   2.340
    2V3OU   H24  872   3.921   3.264   2.408
    2V3OU    C1  873   3.646   3.562   2.036
    2V3OU    H1  874   3.626   3.618   1.940
    2V3OU    O3  875   3.655   3.654   2.145
    2V3OU   C19  876   3.622   3.793   2.135
    2V3OU    H9  877   3.521   3.795   2.084
    2V3OU    O4  878   3.722   3.847   2.052
    2V3OU   C20  879   3.847   3.876   2.113
    2V3OU   H10  880   3.895   3.774   2.122
    2V3OU   C24  881   3.611   3.855   2.275
    2V3OU   H16  882   3.543   3.790   2.336
    2V3OU   H17  883   3.565   3.956   2.258
    2V3OU   C23  884   3.749   3.870   2.339
    2V3OU   H15  885   3.789   3.764   2.353
    2V3OU    N1  886   3.743   3.953   2.458
    2V3OU   H19  887   3.809   3.935   2.530
    2V3OU   H20  888   3.650   3.932   2.490
    2V3OU   C21  889   3.849   3.948   2.248
    2V3OU   H11  890   3.949   3.933   2.300
    2V3OU    O5  891   3.824   4.088   2.247
    2V3OU   H18  892   3.782   4.100   2.333
    2V3OU   C22  893   3.915   3.948   1.997
    2V3OU   H12  894   3.867   4.047   1.981
    2V3OU   H13  895   3.907   3.887   1.904
    2V3OU   H14  896   4.024   3.963   2.019
    2V3OU   C11  897   3.160   3.469   2.027
    2V3OU    O1  898   3.136   3.590   2.007
    2V3OU    C9  899   3.297   3.426   2.060
    2V3OU    C7  900   3.400   3.509   2.018
    2V3OU    O9  901   3.386   3.614   1.929
    2V3OU   H25  902   3.291   3.632   1.920
    2V3OU   C17  903   2.817   3.322   2.040
    2V3OU    H7  904   2.711   3.347   2.027
    2V3OU   C18  905   2.841   3.223   2.135
    2V3OU    H8  906   2.765   3.161   2.184
    3SOL     OW  907   2.747   3.990   0.831
    3SOL    HW1  908   2.718   4.005   0.926
    3SOL    HW2  909   2.672   4.016   0.770
    4SOL     OW  910   6.364   5.555   2.011
    4SOL    HW1  911   6.334   5.550   1.915
    4SOL    HW2  912   6.323   5.479   2.062
    5SOL     OW  913   3.489   1.231   3.089
    5SOL    HW1  914   3.507   1.148   3.142
    5SOL    HW2  915   3.498   1.311   3.148
    6SOL     OW  916   4.253   1.569   1.675
    6SOL    HW1  917   4.229   1.633   1.602
    6SOL    HW2  918   4.345   1.589   1.708
    7SOL     OW  919   6.084   3.253   2.370
    7SOL    HW1  920   6.138   3.335   2.387
    7SOL    HW2  921   6.024   3.269   2.291
    8SOL     OW  922   2.568   6.725   5.334
    8SOL    HW1  923   2.574   6.806   5.274
    8SOL    HW2  924   2.651   6.719   5.389
    9SOL     OW  925   0.683   5.222   5.876
    9SOL    HW1  926   0.619   5.298   5.865
    9SOL    HW2  927   0.649   5.159   5.947
   10SOL     OW  928   1.249   4.399   5.545
   10SOL    HW1  929   1.176   4.437   5.488
   10SOL    HW2  930   1.212   4.372   5.633
   11SOL     OW  931   2.961   0.308   6.952
   11SOL    HW1  932   2.903   0.297   6.872
   11SOL    HW2  933   3.057   0.318   6.924
   12SOL     OW  934   4.148   6.128   4.134
   12SOL    HW1  935   4.204   6.086   4.063
   12SOL    HW2  936   4.207   6.168   4.204
   13SOL     OW  937   3.289   5.766   3.636
   13SOL    HW1  938   3.307   5.862   3.658
   13SOL    HW2  939   3.367   5.728   3.586
   14SOL     OW  940   4.930   5.604   6.587
   14SOL    HW1  941   4.851   5.575   6.641
   14SOL    HW2  942   4.955   5.698   6.611
   15SOL     OW  943   1.161   5.050   0.782
   15SOL    HW1  944   1.257   5.076   0.791
   15SOL    HW2  945   1.147   4.960   0.825
   16SOL     OW  946   5.565   2.534   5.708
   16SOL    HW1  947   5.605   2.605   5.766
   16SOL    HW2  948   5.574   2.561   5.612
   17SOL     OW  949   5.809   6.108   5.065
   17SOL    HW1  950   5.905   6.115   5.036
   17SOL    HW2  951   5.776   6.199   5.092
   18SOL     OW  952   2.966   1.114   6.637
   18SOL    HW1  953   2.957   1.131   6.539
   18SOL    HW2  954   2.945   1.018   6.656
   19SOL     OW  955   0.487   0.240   3.351
   19SOL    HW1  956   0.484   0.225   3.252
   19SOL    HW2  957   0.504   0.336   3.370
   20SOL     OW  958   4.161   1.729   4.126
   20SOL    HW1  959   4.119   1.820   4.132
   20SOL    HW2  960   4.126   1.682   4.045
   21SOL     OW  961   3.272   1.911   2.137
   21SOL    HW1  962   3.363   1.947   2.156
   21SOL    HW2  963   3.210   1.987   2.116
   22SOL     OW  964   2.642   7.004   0.705
   22SOL    HW1  965   2.692   6.976   0.623
   22SOL    HW2  966   2.704   7.003   0.783
   23SOL     OW  967   4.273   6.735   3.256
   23SOL    HW1  968   4.278   6.736   3.156
   23SOL    HW2  969   4.231   6.820   3.288
   24SOL     OW  970   5.051   1.271   3.678
   24SOL    HW1  971   5.067   1.279   3.777
   24SOL    HW2  972   4.954   1.252   3.662
   25SOL     OW  973   3.677   6.491   5.692
   25SOL    HW1  974   3.668   6.467   5.595
   25SOL    HW2  975   3.617   6.433   5.747
   26SOL     OW  976   6.590   1.015   0.512
   26SOL    HW1  977   6.603   1.087   0.444
   26SOL    HW2  978   6.674   1.003   0.565
   27SOL     OW  979   0.483   1.576   1.723
   27SOL    HW1  980   0.529   1.638   1.787
   27SOL    HW2  981   0.459   1.491   1.770
   28SOL     OW  982   3.944   1.114   7.019
   28SOL    HW1  983   3.911   1.158   6.936
   28SOL    HW2  984   3.871   1.059   0.038
   29SOL     OW  985   5.941   2.669   1.953
   29SOL    HW1  986   6.021   2.668   2.013
   29SOL    HW2  987   5.937   2.756   1.904
   30SOL     OW  988   4.352   0.355   5.240
   30SOL    HW1  989   4.356   0.307   5.152
   30SOL    HW2  990   4.366   0.453   5.225
   31SOL     OW  991   0.428   2.267   5.945
   31SOL    HW1  992   0.401   2.283   5.850
   31SOL    HW2  993   0.524   2.240   5.948
   32SOL     OW  994   6.885   1.184   3.001
   32SOL    HW1  995   6.841   1.231   3.077
   32SOL    HW2  996   6.951   1.118   3.036
   33SOL     OW  997   2.509   3.599   0.291
   33SOL    HW1  998   2.548   3.660   0.223
   33SOL    HW2  999   2.571   3.521   0.305
   34SOL     OW 1000   1.811   1.356   4.017
   34SOL    HW1 1001   1.806   1.378   3.919
   34SOL    HW2 1002   1.898   1.389   4.054
   35SOL     OW 1003   3.719   1.825   0.066
   35SOL    HW1 1004   3.703   1.728   0.088
   35SOL    HW2 1005   3.718   1.837   6.989
   36SOL     OW 1006   0.549   0.875   6.692
   36SOL    HW1 1007   0.578   0.783   6.666
   36SOL    HW2 1008   0.526   0.927   6.610
   37SOL     OW 1009   1.721   0.821   0.114
   37SOL    HW1 1010   1.818   0.821   0.138
   37SOL    HW2 1011   1.701   0.740   0.058
   38SOL     OW 1012   0.277   4.862   2.266
   38SOL    HW1 1013   0.189   4.832   2.303
   38SOL    HW2 1014   0.333   4.782   2.243
   39SOL     OW 1015   6.519   4.805   6.662
   39SOL    HW1 1016   6.469   4.795   6.576
   39SOL    HW2 1017   6.500   4.728   6.722
   40SOL     OW 1018   5.876   2.531   1.168
   40SOL    HW1 1019   5.898   2.510   1.263
   40SOL    HW2 1020   5.778   2.517   1.153
   41SOL     OW 1021   0.514   6.371   4.311
   41SOL    HW1 1022   0.463   6.294   4.274
   41SOL    HW2 1023   0.490   6.454   4.261
   42SOL     OW 1024   2.680   6.015   6.305
   42SOL    HW1 1025   2.704   6.064   6.222
   42SOL    HW2 1026   2.597   5.961   6.290
   43SOL     OW 1027   5.528   6.341   5.988
   43SOL    HW1 1028   5.502   6.420   6.042
   43SOL    HW2 1029   5.487   6.347   5.897
   44SOL     OW 1030   5.836   2.737   6.220
   44SOL    HW1 1031   5.849   2.771   6.313
   44SOL    HW2 1032   5.739   2.718   6.205
   45SOL     OW 1033   3.280   6.921   3.441
   45SOL    HW1 1034   3.211   6.990   3.416
   45SOL    HW2 1035   3.237   6.831   3.447
   46SOL     OW 1036   1.320   3.478   4.409
   46SOL    HW1 1037   1.420   3.484   4.417
   46SOL    HW2 1038   1.278   3.492   4.498
   47SOL     OW 1039   5.117   4.168   2.588
   47SOL    HW1 1040   5.093   4.136   2.497
   47SOL    HW2 1041   5.207   4.133   2.614
   48SOL     OW 1042   0.052   2.887   5.422
   48SOL    HW1 1043   0.012   2.916   5.509
   48SOL    HW2 1044   0.001   2.809   5.386
   49SOL     OW 1045   4.291   4.014   1.708
   49SOL    HW1 1046   4.192   4.009   1.696
   49SOL    HW2 1047   4.314   4.097   1.760
   50SOL     OW 1048   6.392   2.723   5.622
   50SOL    HW1 1049   6.428   2.814   5.600
   50SOL    HW2 1050   6.330   2.693   5.550
   51SOL     OW 1051   3.218   6.460   2.772
   51SOL    HW1 1052   3.162   6.536   2.736
   51SOL    HW2 1053   3.172   6.420   2.851
   52SOL     OW 1054   4.904   2.816   3.399
   52SOL    HW1 1055   4.883   2.906   3.359
   52SOL    HW2 1056   4.854   2.745   3.349
   53SOL     OW 1057   4.338   0.349   4.834
   53SOL    HW1 1058   4.351   0.448   4.844
   53SOL    HW2 1059   4.326   0.326   4.738
   54SOL     OW 1060   4.045   4.795   0.690
   54SOL    HW1 1061   4.078   4.722   0.630
   54SOL    HW2 1062   3.995   4.863   0.636
   55SOL     OW 1063   3.533   1.263   6.240
   55SOL    HW1 1064   3.496   1.351   6.269
   55SOL    HW2 1065   3.489   1.234   6.155
   56SOL     OW 1066   0.748   0.442   1.591
   56SOL    HW1 1067   0.717   0.424   1.497
   56SOL    HW2 1068   0.721   0.535   1.617
   57SOL     OW 1069   5.378   0.567   0.702
   57SOL    HW1 1070   5.452   0.567   0.770
   57SOL    HW2 1071   5.295   0.604   0.744
   58SOL     OW 1072   6.585   6.601   5.374
   58SOL    HW1 1073   6.640   6.671   5.327
   58SOL    HW2 1074   6.645   6.530   5.410
   59SOL     OW 1075   2.046   1.570   6.034
   59SOL    HW1 1076   2.076   1.637   6.102
   59SOL    HW2 1077   2.076   1.479   6.063
   60SOL     OW 1078   6.056   1.094   6.057
   60SOL    HW1 1079   6.031   1.008   6.101
   60SOL    HW2 1080   6.078   1.078   5.961
   61SOL     OW 1081   5.075   1.975   4.509
   61SOL    HW1 1082   5.026   2.058   4.486
   61SOL    HW2 1083   5.138   1.952   4.435
   62SOL     OW 1084   0.181   0.436   3.440
   62SOL    HW1 1085   0.221   0.345   3.454
   62SOL    HW2 1086   0.217   0.476   3.356
   63SOL     OW 1087   6.656   1.324   3.991
   63SOL    HW1 1088   6.560   1.324   4.019
   63SOL    HW2 1089   6.666   1.375   3.906
   64SOL     OW 1090   0.214   3.913   6.565
   64SOL    HW1 1091   0.173   3.965   6.640
   64SOL    HW2 1092   0.277   3.844   6.603
   65SOL     OW 1093   6.671   4.670   5.351
   65SOL    HW1 1094   6.751   4.690   5.294
   65SOL    HW2 1095   6.701   4.647   5.443
   66SOL     OW 1096   3.797   0.676   6.852
   66SOL    HW1 1097   3.755   0.766   6.860
   66SOL    HW2 1098   3.751   0.624   6.779
   67SOL     OW 1099   5.275   4.456   5.549
   67SOL    HW1 1100   5.265   4.554   5.565
   67SOL    HW2 1101   5.342   4.441   5.476
   68SOL     OW 1102   5.859   0.617   6.725
   68SOL    HW1 1103   5.957   0.637   6.718
   68SOL    HW2 1104   5.808   0.681   6.667
   69SOL     OW 1105   1.179   3.393   6.687
   69SOL    HW1 1106   1.244   3.469   6.696
   69SOL    HW2 1107   1.167   3.371   6.590
   70SOL     OW 1108   6.267   4.738   3.555
   70SOL    HW1 1109   6.176   4.757   3.593
   70SOL    HW2 1110   6.335   4.745   3.627
   71SOL     OW 1111   4.278   1.897   2.785
   71SOL    HW1 1112   4.375   1.873   2.780
   71SOL    HW2 1113   4.224   1.825   2.741
   72SOL     OW 1114   3.070   5.995   4.765
   72SOL    HW1 1115   2.996   5.947   4.814
   72SOL    HW2 1116   3.098   5.941   4.686
   73SOL     OW 1117   3.510   1.611   0.882
   73SOL    HW1 1118   3.586   1.546   0.882
   73SOL    HW2 1119   3.438   1.578   0.944
   74SOL     OW 1120   4.885   6.232   6.228
   74SOL    HW1 1121   4.932   6.195   6.148
   74SOL    HW2 1122   4.858   6.157   6.288
   75SOL     OW 1123   3.957   0.047   6.801
   75SOL    HW1 1124   3.936   6.978   6.837
   75SOL    HW2 1125   4.056   0.055   6.786
   76SOL     OW 1126   2.047   2.661   1.481
   76SOL    HW1 1127   2.134   2.634   1.439
   76SOL    HW2 1128   2.045   2.628   1.576
   77SOL     OW 1129   5.451   6.643   4.280
   77SOL    HW1 1130   5.402   6.704   4.218
   77SOL    HW2 1131   5.450   6.550   4.245
   78SOL     OW 1132   6.016   0.770   5.772
   78SOL    HW1 1133   5.952   0.731   5.705
   78SOL    HW2 1134   6.109   0.745   5.748
   79SOL     OW 1135   3.330   0.087   0.779
   79SOL    HW1 1136   3.353   7.021   0.737
   79SOL    HW2 1137   3.279   0.071   0.864
   80SOL     OW 1138   5.469   1.569   4.733
   80SOL    HW1 1139   5.445   1.662   4.703
   80SOL    HW2 1140   5.387   1.524   4.769
   81SOL     OW 1141   2.172   0.018   3.022
   81SOL    HW1 1142   2.179   0.107   3.067
   81SOL    HW2 1143   2.260   7.015   2.982
   82SOL     OW 1144   6.553   5.769   0.496
   82SOL    HW1 1145   6.543   5.749   0.593
   82SOL    HW2 1146   6.634   5.724   0.460
   83SOL     OW 1147   6.826   0.718   0.690
   83SOL    HW1 1148   6.914   0.698   0.733
   83SOL    HW2 1149   6.841   0.774   0.608
   84SOL     OW 1150   5.163   3.401   3.694
   84SOL    HW1 1151   5.250   3.441   3.724
   84SOL    HW2 1152   5.159   3.306   3.723
   85SOL     OW 1153   1.867   2.220   5.121
   85SOL    HW1 1154   1.929   2.277   5.068
   85SOL    HW2 1155   1.782   2.269   5.137
   86SOL     OW 1156   0.632   0.708   5.805
   86SOL    HW1 1157   0.656   0.787   5.863
   86SOL    HW2 1158   0.584   0.640   5.860
   87SOL     OW 1159   4.878   3.448   0.731
   87SOL    HW1 1160   4.894   3.540   0.697
   87SOL    HW2 1161   4.795   3.411   0.689
   88SOL     OW 1162   4.343   1.652   6.218
   88SOL    HW1 1163   4.335   1.699   6.306
   88SOL    HW2 1164   4.301   1.708   6.147
   89SOL     OW 1165   1.035   2.637   5.950
   89SOL    HW1 1166   1.012   2.723   5.996
   89SOL    HW2 1167   1.091   2.657   5.870
   90SOL     OW 1168   4.046   6.613   3.476
   90SOL    HW1 1169   4.019   6.529   3.523
   90SOL    HW2 1170   4.101   6.590   3.396
   91SOL     OW 1171   4.782   4.117   4.535
   91SOL    HW1 1172   4.868   4.152   4.496
   91SOL    HW2 1173   4.777   4.018   4.522
   92SOL     OW 1174   3.014   4.066   0.782
   92SOL    HW1 1175   2.926   4.021   0.774
   92SOL    HW2 1176   3.087   3.998   0.787
   93SOL     OW 1177   2.378   4.307   6.612
   93SOL    HW1 1178   2.377   4.264   6.702
   93SOL    HW2 1179   2.295   4.282   6.562
   94SOL     OW 1180   2.677   6.186   6.091
   94SOL    HW1 1181   2.578   6.173   6.085
   94SOL    HW2 1182   2.719   6.164   6.003
   95SOL     OW 1183   0.952   0.930   3.020
   95SOL    HW1 1184   0.987   0.985   2.944
   95SOL    HW2 1185   0.854   0.948   3.031
   96SOL     OW 1186   3.773   0.035   5.404
   96SOL    HW1 1187   3.764   6.996   5.325
   96SOL    HW2 1188   3.748   0.128   5.378
   97SOL     OW 1189   1.181   3.252   6.167
   97SOL    HW1 1190   1.106   3.198   6.130
   97SOL    HW2 1191   1.255   3.191   6.196
   98SOL     OW 1192   6.261   3.992   0.502
   98SOL    HW1 1193   6.175   4.035   0.474
   98SOL    HW2 1194   6.249   3.893   0.505
   99SOL     OW 1195   4.581   4.012   0.915
   99SOL    HW1 1196   4.597   4.049   1.006
   99SOL    HW2 1197   4.659   3.956   0.887
  100SOL     OW 1198   0.239   0.314   5.964
  100SOL    HW1 1199   0.187   0.278   5.886
  100SOL    HW2 1200   0.290   0.240   6.008
  101SOL     OW 1201   1.121   5.894   2.787
  101SOL    HW1 1202   1.083   5.802   2.780
  101SOL    HW2 1203   1.173   5.916   2.704
  102SOL     OW 1204   4.285   0.382   2.312
  102SOL    HW1 1205   4.307   0.437   2.231
  102SOL    HW2 1206   4.303   0.286   2.292
  103SOL     OW 1207   3.316   0.986   2.234
  103SOL    HW1 1208   3.336   0.952   2.143
  103SOL    HW2 1209   3.232   1.040   2.231
  104SOL     OW 1210   6.863   5.437   2.634
  104SOL    HW1 1211   6.799   5.360   2.634
  104SOL    HW2 1212   6.941   5.416   2.576
  105SOL     OW 1213   6.622   2.706   6.165
  105SOL    HW1 1214   6.707   2.749   6.137
  105SOL    HW2 1215   6.637   2.608   6.176
  106SOL     OW 1216   3.495   6.290   4.564
  106SOL    HW1 1217   3.577   6.234   4.554
  106SOL    HW2 1218   3.423   6.254   4.504
  107SOL     OW 1219   1.337   1.730   1.737
  107SOL    HW1 1220   1.278   1.658   1.698
  107SOL    HW2 1221   1.401   1.762   1.667
  108SOL     OW 1222   3.832   5.452   5.705
  108SOL    HW1 1223   3.796   5.534   5.662
  108SOL    HW2 1224   3.907   5.415   5.650
  109SOL     OW 1225   0.829   1.142   1.499
  109SOL    HW1 1226   0.765   1.203   1.544
  109SOL    HW2 1227   0.807   1.136   1.402
  110SOL     OW 1228   3.998   6.265   5.270
  110SOL    HW1 1229   4.096   6.248   5.277
  110SOL    HW2 1230   3.982   6.344   5.210
  111SOL     OW 1231   3.318   1.009   4.932
  111SOL    HW1 1232   3.259   0.994   5.012
  111SOL    HW2 1233   3.333   1.107   4.920
  112SOL     OW 1234   5.801   6.356   6.556
  112SOL    HW1 1235   5.887   6.365   6.607
  112SOL    HW2 1236   5.816   6.383   6.461
  113SOL     OW 1237   6.308   4.729   3.262
  113SOL    HW1 1238   6.281   4.731   3.359
  113SOL    HW2 1239   6.408   4.736   3.256
  114SOL     OW 1240   1.112   0.218   1.557
  114SOL    HW1 1241   1.090   0.132   1.603
  114SOL    HW2 1242   1.063   0.224   1.471
  115SOL     OW 1243   3.569   1.414   3.560
  115SOL    HW1 1244   3.657   1.442   3.521
  115SOL    HW2 1245   3.548   1.321   3.530
  116SOL     OW 1246   6.067   5.204   1.949
  116SOL    HW1 1247   6.033   5.201   2.043
  116SOL    HW2 1248   6.164   5.181   1.948
  117SOL     OW 1249   1.537   1.318   6.534
  117SOL    HW1 1250   1.484   1.363   6.462
  117SOL    HW2 1251   1.476   1.288   6.607
  118SOL     OW 1252   1.652   1.480   2.831
  118SOL    HW1 1253   1.586   1.423   2.782
  118SOL    HW2 1254   1.682   1.433   2.914
  119SOL     OW 1255   1.169   1.727   6.176
  119SOL    HW1 1256   1.133   1.672   6.251
  119SOL    HW2 1257   1.246   1.679   6.134
  120SOL     OW 1258   6.148   6.767   0.554
  120SOL    HW1 1259   6.090   6.817   0.618
  120SOL    HW2 1260   6.107   6.677   0.535
  121SOL     OW 1261   2.421   4.045   6.515
  121SOL    HW1 1262   2.496   4.008   6.459
  121SOL    HW2 1263   2.445   4.138   6.544
  122SOL     OW 1264   1.755   4.868   6.945
  122SOL    HW1 1265   1.813   4.872   6.864
  122SOL    HW2 1266   1.676   4.928   6.933
  123SOL     OW 1267   0.240   1.718   1.689
  123SOL    HW1 1268   0.330   1.675   1.700
  123SOL    HW2 1269   0.220   1.773   1.770
  124SOL     OW 1270   5.181   3.455   0.791
  124SOL    HW1 1271   5.085   3.437   0.811
  124SOL    HW2 1272   5.234   3.371   0.803
  125SOL     OW 1273   2.473   1.797   2.140
  125SOL    HW1 1274   2.567   1.771   2.162
  125SOL    HW2 1275   2.466   1.897   2.138
  126SOL     OW 1276   2.564   3.765   1.259
  126SOL    HW1 1277   2.617   3.771   1.344
  126SOL    HW2 1278   2.509   3.681   1.260
  127SOL     OW 1279   0.287   5.543   5.946
  127SOL    HW1 1280   0.344   5.469   5.908
  127SOL    HW2 1281   0.342   5.627   5.952
  128SOL     OW 1282   4.601   2.523   1.519
  128SOL    HW1 1283   4.528   2.475   1.470
  128SOL    HW2 1284   4.630   2.469   1.597
  129SOL     OW 1285   3.390   2.984   5.985
  129SOL    HW1 1286   3.451   3.061   5.965
  129SOL    HW2 1287   3.359   2.990   6.080
  130SOL     OW 1288   0.422   1.324   4.198
  130SOL    HW1 1289   0.510   1.369   4.209
  130SOL    HW2 1290   0.370   1.329   4.283
  131SOL     OW 1291   5.131   1.524   2.711
  131SOL    HW1 1292   5.087   1.490   2.794
  131SOL    HW2 1293   5.221   1.479   2.702
  132SOL     OW 1294   2.456   2.879   0.466
  132SOL    HW1 1295   2.367   2.924   0.466
  132SOL    HW2 1296   2.482   2.857   0.372
  133SOL     OW 1297   4.901   6.645   4.058
  133SOL    HW1 1298   4.830   6.689   4.112
  133SOL    HW2 1299   4.943   6.712   3.997
  134SOL     OW 1300   5.948   1.564   2.757
  134SOL    HW1 1301   5.922   1.537   2.664
  134SOL    HW2 1302   5.874   1.542   2.820
  135SOL     OW 1303   5.754   3.289   2.635
  135SOL    HW1 1304   5.732   3.344   2.555
  135SOL    HW2 1305   5.693   3.314   2.711
  136SOL     OW 1306   3.171   3.915   6.506
  136SOL    HW1 1307   3.189   3.823   6.472
  136SOL    HW2 1308   3.258   3.961   6.524
  137SOL     OW 1309   5.377   1.187   4.947
  137SOL    HW1 1310   5.411   1.099   4.981
  137SOL    HW2 1311   5.310   1.224   5.011
  138SOL     OW 1312   0.506   4.378   3.299
  138SOL    HW1 1313   0.430   4.340   3.247
  138SOL    HW2 1314   0.502   4.478   3.296
  139SOL     OW 1315   2.994   6.807   4.889
  139SOL    HW1 1316   2.936   6.831   4.812
  139SOL    HW2 1317   2.989   6.878   4.959
  140SOL     OW 1318   0.415   5.566   3.209
  140SOL    HW1 1319   0.486   5.635   3.190
  140SOL    HW2 1320   0.449   5.502   3.278
  141SOL     OW 1321   6.293   3.181   4.944
  141SOL    HW1 1322   6.374   3.221   4.900
  141SOL    HW2 1323   6.322   3.106   5.003
  142SOL     OW 1324   1.908   4.296   0.320
  142SOL    HW1 1325   1.923   4.205   0.280
  142SOL    HW2 1326   1.860   4.353   0.253
  143SOL     OW 1327   5.679   4.114   1.558
  143SOL    HW1 1328   5.677   4.148   1.651
  143SOL    HW2 1329   5.598   4.146   1.508
  144SOL     OW 1330   1.513   6.310   6.864
  144SOL    HW1 1331   1.451   6.371   6.814
  144SOL    HW2 1332   1.559   6.250   6.799
  145SOL     OW 1333   0.395   4.877   0.288
  145SOL    HW1 1334   0.457   4.893   0.365
  145SOL    HW2 1335   0.387   4.961   0.234
  146SOL     OW 1336   4.883   0.552   6.548
  146SOL    HW1 1337   4.934   0.499   6.615
  146SOL    HW2 1338   4.894   0.512   6.457
  147SOL     OW 1339   5.877   3.688   6.792
  147SOL    HW1 1340   5.913   3.772   6.750
  147SOL    HW2 1341   5.777   3.692   6.795
  148SOL     OW 1342   0.105   4.999   6.599
  148SOL    HW1 1343   0.085   4.987   6.502
  148SOL    HW2 1344   0.035   5.056   6.641
  149SOL     OW 1345   3.015   2.079   4.548
  149SOL    HW1 1346   2.981   1.988   4.570
  149SOL    HW2 1347   3.011   2.137   4.629
  150SOL     OW 1348   5.784   5.862   6.425
  150SOL    HW1 1349   5.867   5.867   6.370
  150SOL    HW2 1350   5.707   5.834   6.368
  151SOL     OW 1351   3.435   2.353   1.065
  151SOL    HW1 1352   3.339   2.335   1.082
  151SOL    HW2 1353   3.491   2.288   1.116
  152SOL     OW 1354   1.415   1.460   3.428
  152SOL    HW1 1355   1.374   1.523   3.494
  152SOL    HW2 1356   1.485   1.507   3.375
  153SOL     OW 1357   2.727   0.334   1.555
  153SOL    HW1 1358   2.743   0.433   1.562
  153SOL    HW2 1359   2.774   0.299   1.474
  154SOL     OW 1360   0.570   2.093   3.038
  154SOL    HW1 1361   0.559   2.167   2.972
  154SOL    HW2 1362   0.505   2.105   3.113
  155SOL     OW 1363   6.681   1.553   3.455
  155SOL    HW1 1364   6.721   1.638   3.424
  155SOL    HW2 1365   6.590   1.571   3.495
  156SOL     OW 1366   0.230   2.188   0.611
  156SOL    HW1 1367   0.288   2.262   0.577
  156SOL    HW2 1368   0.179   2.218   0.691
  157SOL     OW 1369   6.358   3.100   1.919
  157SOL    HW1 1370   6.305   3.087   2.003
  157SOL    HW2 1371   6.453   3.072   1.935
  158SOL     OW 1372   2.663   5.854   2.042
  158SOL    HW1 1373   2.597   5.930   2.044
  158SOL    HW2 1374   2.638   5.791   1.969
  159SOL     OW 1375   4.520   4.502   1.813
  159SOL    HW1 1376   4.490   4.479   1.720
  159SOL    HW2 1377   4.510   4.422   1.872
  160SOL     OW 1378   6.396   5.709   0.276
  160SOL    HW1 1379   6.443   5.721   0.363
  160SOL    HW2 1380   6.460   5.720   0.200
  161SOL     OW 1381   1.918   5.370   4.740
  161SOL    HW1 1382   2.011   5.334   4.733
  161SOL    HW2 1383   1.880   5.383   4.649
  162SOL     OW 1384   3.668   6.497   0.151
  162SOL    HW1 1385   3.679   6.422   0.086
  162SOL    HW2 1386   3.603   6.563   0.116
  163SOL     OW 1387   5.132   5.731   1.076
  163SOL    HW1 1388   5.182   5.650   1.044
  163SOL    HW2 1389   5.063   5.702   1.143
  164SOL     OW 1390   6.467   4.931   0.574
  164SOL    HW1 1391   6.523   4.857   0.537
  164SOL    HW2 1392   6.407   4.895   0.645
  165SOL     OW 1393   5.487   2.904   1.451
  165SOL    HW1 1394   5.479   3.003   1.443
  165SOL    HW2 1395   5.486   2.879   1.548
  166SOL     OW 1396   6.990   5.199   3.694
  166SOL    HW1 1397   6.973   5.216   3.597
  166SOL    HW2 1398   0.065   5.177   3.708
  167SOL     OW 1399   5.974   2.771   6.927
  167SOL    HW1 1400   5.920   2.794   6.846
  167SOL    HW2 1401   5.913   2.764   7.007
  168SOL     OW 1402   2.376   3.593   1.375
  168SOL    HW1 1403   2.336   3.502   1.384
  168SOL    HW2 1404   2.408   3.625   1.464
  169SOL     OW 1405   4.182   0.593   1.957
  169SOL    HW1 1406   4.213   0.674   2.007
  169SOL    HW2 1407   4.114   0.620   1.889
  170SOL     OW 1408   0.259   0.879   3.486
  170SOL    HW1 1409   0.345   0.851   3.530
  170SOL    HW2 1410   0.264   0.975   3.461
  171SOL     OW 1411   4.147   4.599   0.514
  171SOL    HW1 1412   4.184   4.541   0.586
  171SOL    HW2 1413   4.100   4.543   0.446
  172SOL     OW 1414   6.573   1.796   4.281
  172SOL    HW1 1415   6.503   1.741   4.325
  172SOL    HW2 1416   6.578   1.886   4.324
  173SOL     OW 1417   6.619   2.087   4.114
  173SOL    HW1 1418   6.653   2.000   4.077
  173SOL    HW2 1419   6.594   2.075   4.210
  174SOL     OW 1420   3.422   5.495   4.210
  174SOL    HW1 1421   3.411   5.486   4.111
  174SOL    HW2 1422   3.518   5.481   4.235
  175SOL     OW 1423   2.241   6.707   2.242
  175SOL    HW1 1424   2.164   6.663   2.196
  175SOL    HW2 1425   2.260   6.795   2.197
  176SOL     OW 1426   0.924   4.424   1.376
  176SOL    HW1 1427   0.918   4.520   1.346
  176SOL    HW2 1428   1.017   4.406   1.409
  177SOL     OW 1429   5.656   2.958   2.789
  177SOL    HW1 1430   5.623   2.867   2.765
  177SOL    HW2 1431   5.748   2.971   2.752
  178SOL     OW 1432   3.362   2.503   6.298
  178SOL    HW1 1433   3.385   2.415   6.340
  178SOL    HW2 1434   3.294   2.488   6.226
  179SOL     OW 1435   2.468   1.748   6.013
  179SOL    HW1 1436   2.377   1.785   5.991
  179SOL    HW2 1437   2.458   1.663   6.064
  180SOL     OW 1438   1.630   0.394   6.465
  180SOL    HW1 1439   1.535   0.364   6.470
  180SOL    HW2 1440   1.682   0.333   6.406
  181SOL     OW 1441   3.412   1.758   6.113
  181SOL    HW1 1442   3.453   1.678   6.068
  181SOL    HW2 1443   3.313   1.755   6.102
  182SOL     OW 1444   3.505   1.736   3.916
  182SOL    HW1 1445   3.505   1.661   3.982
  182SOL    HW2 1446   3.419   1.785   3.921
  183SOL     OW 1447   3.538   2.112   3.433
  183SOL    HW1 1448   3.574   2.094   3.342
  183SOL    HW2 1449   3.612   2.104   3.500
  184SOL     OW 1450   1.812   6.288   4.292
  184SOL    HW1 1451   1.846   6.368   4.242
  184SOL    HW2 1452   1.727   6.313   4.340
  185SOL     OW 1453   0.697   2.097   6.462
  185SOL    HW1 1454   0.626   2.109   6.392
  185SOL    HW2 1455   0.654   2.098   6.552
  186SOL     OW 1456   5.936   1.429   3.877
  186SOL    HW1 1457   6.021   1.375   3.872
  186SOL    HW2 1458   5.868   1.378   3.929
  187SOL     OW 1459   4.338   0.757   2.770
  187SOL    HW1 1460   4.330   0.659   2.788
  187SOL    HW2 1461   4.371   0.772   2.677
  188SOL     OW 1462   6.647   1.762   2.111
  188SOL    HW1 1463   6.555   1.735   2.139
  188SOL    HW2 1464   6.694   1.807   2.187
  189SOL     OW 1465   2.212   5.147   1.868
  189SOL    HW1 1466   2.155   5.127   1.947
  189SOL    HW2 1467   2.272   5.070   1.849
  190SOL     OW 1468   4.212   1.274   4.070
  190SOL    HW1 1469   4.184   1.197   4.013
  190SOL    HW2 1470   4.264   1.339   4.014
  191SOL     OW 1471   5.564   5.779   6.249
  191SOL    HW1 1472   5.542   5.696   6.198
  191SOL    HW2 1473   5.488   5.802   6.310
  192SOL     OW 1474   7.007   5.940   1.823
  192SOL    HW1 1475   0.004   6.008   1.894
  192SOL    HW2 1476   0.030   5.854   1.846
  193SOL     OW 1477   4.836   2.371   5.638
  193SOL    HW1 1478   4.893   2.444   5.674
  193SOL    HW2 1479   4.781   2.331   5.712
  194SOL     OW 1480   3.668   0.437   2.572
  194SOL    HW1 1481   3.669   0.464   2.668
  194SOL    HW2 1482   3.663   0.338   2.565
  195SOL     OW 1483   1.693   6.887   4.525
  195SOL    HW1 1484   1.632   6.812   4.552
  195SOL    HW2 1485   1.711   6.946   4.604
  196SOL     OW 1486   2.676   1.316   6.495
  196SOL    HW1 1487   2.669   1.401   6.547
  196SOL    HW2 1488   2.667   1.238   6.557
  197SOL     OW 1489   1.950   0.658   0.619
  197SOL    HW1 1490   2.028   0.619   0.570
  197SOL    HW2 1491   1.897   0.585   0.662
  198SOL     OW 1492   4.793   1.290   2.819
  198SOL    HW1 1493   4.759   1.271   2.911
  198SOL    HW2 1494   4.719   1.326   2.763
  199SOL     OW 1495   1.199   1.976   4.181
  199SOL    HW1 1496   1.197   1.927   4.268
  199SOL    HW2 1497   1.239   1.917   4.111
  200SOL     OW 1498   1.101   3.547   0.584
  200SOL    HW1 1499   1.165   3.531   0.659
  200SOL    HW2 1500   1.009   3.518   0.610
  201SOL     OW 1501   0.417   6.101   5.681
  201SOL    HW1 1502   0.487   6.053   5.734
  201SOL    HW2 1503   0.387   6.182   5.731
  202SOL     OW 1504   3.532   1.913   6.310
  202SOL    HW1 1505   3.612   1.860   6.283
  202SOL    HW2 1506   3.456   1.894   6.248
  203SOL     OW 1507   6.337   1.973   5.127
  203SOL    HW1 1508   6.323   1.917   5.045
  203SOL    HW2 1509   6.280   2.055   5.122
  204SOL     OW 1510   0.867   6.835   4.487
  204SOL    HW1 1511   0.778   6.789   4.479
  204SOL    HW2 1512   0.935   6.784   4.435
  205SOL     OW 1513   1.254   2.455   2.910
  205SOL    HW1 1514   1.261   2.410   2.999
  205SOL    HW2 1515   1.167   2.505   2.905
  206SOL     OW 1516   0.494   3.495   1.246
  206SOL    HW1 1517   0.433   3.470   1.321
  206SOL    HW2 1518   0.551   3.573   1.274
  207SOL     OW 1519   5.794   1.211   3.956
  207SOL    HW1 1520   5.761   1.131   3.907
  207SOL    HW2 1521   5.756   1.212   4.049
  208SOL     OW 1522   0.253   3.801   5.810
  208SOL    HW1 1523   0.191   3.760   5.877
  208SOL    HW2 1524   0.229   3.768   5.718
  209SOL     OW 1525   6.908   4.713   3.333
  209SOL    HW1 1526   6.821   4.679   3.299
  209SOL    HW2 1527   6.975   4.714   3.259
  210SOL     OW 1528   4.450   2.247   0.476
  210SOL    HW1 1529   4.512   2.268   0.401
  210SOL    HW2 1530   4.356   2.241   0.441
  211SOL     OW 1531   1.083   6.508   2.162
  211SOL    HW1 1532   1.059   6.547   2.251
  211SOL    HW2 1533   1.001   6.470   2.118
  212SOL     OW 1534   1.326   3.254   2.553
  212SOL    HW1 1535   1.290   3.167   2.520
  212SOL    HW2 1536   1.388   3.237   2.630
  213SOL     OW 1537   2.337   6.283   0.897
  213SOL    HW1 1538   2.251   6.332   0.911
  213SOL    HW2 1539   2.349   6.265   0.799
  214SOL     OW 1540   3.316   5.548   2.926
  214SOL    HW1 1541   3.385   5.516   2.861
  214SOL    HW2 1542   3.241   5.591   2.876
  215SOL     OW 1543   3.094   3.814   0.822
  215SOL    HW1 1544   3.146   3.765   0.752
  215SOL    HW2 1545   3.017   3.757   0.851
  216SOL     OW 1546   0.729   6.015   3.277
  216SOL    HW1 1547   0.690   6.093   3.229
  216SOL    HW2 1548   0.738   6.037   3.374
  217SOL     OW 1549   1.326   2.415   4.846
  217SOL    HW1 1550   1.323   2.325   4.804
  217SOL    HW2 1551   1.381   2.477   4.789
  218SOL     OW 1552   0.864   2.618   4.488
  218SOL    HW1 1553   0.937   2.573   4.437
  218SOL    HW2 1554   0.874   2.718   4.481
  219SOL     OW 1555   3.936   6.815   0.300
  219SOL    HW1 1556   3.995   6.862   0.366
  219SOL    HW2 1557   3.964   6.839   0.207
  220SOL     OW 1558   2.427   0.259   1.532
  220SOL    HW1 1559   2.503   0.234   1.592
  220SOL    HW2 1560   2.430   0.203   1.449
  221SOL     OW 1561   5.875   4.068   1.133
  221SOL    HW1 1562   5.947   4.129   1.166
  221SOL    HW2 1563   5.893   3.975   1.165
  222SOL     OW 1564   1.417   4.603   5.434
  222SOL    HW1 1565   1.509   4.565   5.423
  222SOL    HW2 1566   1.361   4.540   5.487
  223SOL     OW 1567   0.034   3.218   6.120
  223SOL    HW1 1568   0.116   3.272   6.100
  223SOL    HW2 1569   6.975   3.277   6.117
  224SOL     OW 1570   3.145   1.222   6.025
  224SOL    HW1 1571   3.184   1.174   6.103
  224SOL    HW2 1572   3.154   1.321   6.040
  225SOL     OW 1573   4.500   4.167   6.354
  225SOL    HW1 1574   4.551   4.089   6.318
  225SOL    HW2 1575   4.563   4.227   6.404
  226SOL     OW 1576   0.241   1.595   5.883
  226SOL    HW1 1577   0.221   1.574   5.787
  226SOL    HW2 1578   0.161   1.637   5.925
  227SOL     OW 1579   1.174   4.280   2.112
  227SOL    HW1 1580   1.163   4.183   2.132
  227SOL    HW2 1581   1.145   4.334   2.192
  228SOL     OW 1582   2.240   0.141   2.610
  228SOL    HW1 1583   2.148   0.166   2.579
  228SOL    HW2 1584   2.292   0.104   2.534
  229SOL     OW 1585   5.571   5.535   6.084
  229SOL    HW1 1586   5.548   5.438   6.077
  229SOL    HW2 1587   5.666   5.549   6.056
  230SOL     OW 1588   4.556   5.702   4.193
  230SOL    HW1 1589   4.474   5.741   4.152
  230SOL    HW2 1590   4.608   5.653   4.123
  231SOL     OW 1591   5.927   1.031   6.554
  231SOL    HW1 1592   5.980   1.079   6.624
  231SOL    HW2 1593   5.971   0.944   6.532
  232SOL     OW 1594   0.062   3.585   6.787
  232SOL    HW1 1595   7.018   3.549   6.853
  232SOL    HW2 1596   0.143   3.526   6.785
  233SOL     OW 1597   3.853   1.102   2.787
  233SOL    HW1 1598   3.927   1.161   2.757
  233SOL    HW2 1599   3.866   1.010   2.748
  234SOL     OW 1600   4.912   0.743   6.748
  234SOL    HW1 1601   4.900   0.662   6.690
  234SOL    HW2 1602   4.835   0.751   6.812
  235SOL     OW 1603   4.775   2.847   2.199
  235SOL    HW1 1604   4.789   2.768   2.139
  235SOL    HW2 1605   4.773   2.930   2.144
  236SOL     OW 1606   5.293   3.140   0.008
  236SOL    HW1 1607   5.220   3.108   6.970
  236SOL    HW2 1608   5.379   3.094   7.006
  237SOL     OW 1609   0.207   4.267   2.285
  237SOL    HW1 1610   0.153   4.349   2.305
  237SOL    HW2 1611   0.298   4.293   2.255
  238SOL     OW 1612   5.897   1.897   0.475
  238SOL    HW1 1613   5.815   1.933   0.519
  238SOL    HW2 1614   5.892   1.797   0.472
  239SOL     OW 1615   1.005   4.526   0.120
  239SOL    HW1 1616   1.015   4.554   0.215
  239SOL    HW2 1617   1.079   4.566   0.066
  240SOL     OW 1618   1.066   3.253   3.509
  240SOL    HW1 1619   1.074   3.316   3.432
  240SOL    HW2 1620   1.102   3.297   3.592
  241SOL     OW 1621   3.061   2.235   4.765
  241SOL    HW1 1622   3.020   2.324   4.744
  241SOL    HW2 1623   3.093   2.235   4.860
  242SOL     OW 1624   3.159   3.652   4.076
  242SOL    HW1 1625   3.075   3.641   4.023
  242SOL    HW2 1626   3.188   3.748   4.072
  243SOL     OW 1627   4.806   1.371   0.378
  243SOL    HW1 1628   4.721   1.359   0.430
  243SOL    HW2 1629   4.786   1.418   0.292
  244SOL     OW 1630   6.128   3.820   5.260
  244SOL    HW1 1631   6.225   3.797   5.265
  244SOL    HW2 1632   6.096   3.848   5.351
  245SOL     OW 1633   4.555   1.714   4.264
  245SOL    HW1 1634   4.597   1.746   4.178
  245SOL    HW2 1635   4.491   1.783   4.297
  246SOL     OW 1636   4.517   1.867   3.148
  246SOL    HW1 1637   4.438   1.923   3.124
  246SOL    HW2 1638   4.547   1.890   3.241
  247SOL     OW 1639   2.635   2.200   0.875
  247SOL    HW1 1640   2.671   2.264   0.807
  247SOL    HW2 1641   2.686   2.211   0.961
  248SOL     OW 1642   3.192   1.323   3.059
  248SOL    HW1 1643   3.207   1.225   3.051
  248SOL    HW2 1644   3.274   1.372   3.029
  249SOL     OW 1645   5.420   6.603   5.170
  249SOL    HW1 1646   5.439   6.663   5.247
  249SOL    HW2 1647   5.403   6.510   5.203
  250SOL     OW 1648   4.413   3.194   0.225
  250SOL    HW1 1649   4.348   3.260   0.263
  250SOL    HW2 1650   4.363   3.118   0.184
  251SOL     OW 1651   4.372   3.539   5.238
  251SOL    HW1 1652   4.327   3.626   5.215
  251SOL    HW2 1653   4.468   3.543   5.212
  252SOL     OW 1654   0.048   6.211   5.046
  252SOL    HW1 1655   0.106   6.230   5.125
  252SOL    HW2 1656   0.014   6.297   5.007
  253SOL     OW 1657   3.406   5.376   6.278
  253SOL    HW1 1658   3.425   5.334   6.190
  253SOL    HW2 1659   3.481   5.437   6.303
  254SOL     OW 1660   6.331   2.685   4.095
  254SOL    HW1 1661   6.396   2.713   4.024
  254SOL    HW2 1662   6.302   2.591   4.077
  255SOL     OW 1663   2.496   4.809   5.210
  255SOL    HW1 1664   2.409   4.846   5.176
  255SOL    HW2 1665   2.515   4.722   5.165
  256SOL     OW 1666   5.706   3.964   6.085
  256SOL    HW1 1667   5.765   3.999   6.012
  256SOL    HW2 1668   5.625   4.023   6.094
  257SOL     OW 1669   4.989   0.592   3.437
  257SOL    HW1 1670   4.911   0.649   3.462
  257SOL    HW2 1671   4.963   0.496   3.445
  258SOL     OW 1672   2.020   4.289   5.318
  258SOL    HW1 1673   2.107   4.261   5.276
  258SOL    HW2 1674   1.957   4.318   5.246
  259SOL     OW 1675   6.272   1.053   2.829
  259SOL    HW1 1676   6.367   1.083   2.841
  259SOL    HW2 1677   6.263   1.008   2.740
  260SOL     OW 1678   4.403   6.366   2.900
  260SOL    HW1 1679   4.451   6.330   2.980
  260SOL    HW2 1680   4.322   6.417   2.931
  261SOL     OW 1681   6.070   3.570   0.658
  261SOL    HW1 1682   6.099   3.597   0.567
  261SOL    HW2 1683   6.095   3.474   0.674
  262SOL     OW 1684   1.153   4.079   0.057
  262SOL    HW1 1685   1.054   4.069   0.051
  262SOL    HW2 1686   1.175   4.166   0.100
  263SOL     OW 1687   1.942   0.387   5.103
  263SOL    HW1 1688   1.968   0.396   5.007
  263SOL    HW2 1689   1.894   0.470   5.131
  264SOL     OW 1690   6.179   2.951   6.912
  264SOL    HW1 1691   6.123   2.877   6.950
  264SOL    HW2 1692   6.133   2.990   6.832
  265SOL     OW 1693   5.221   6.841   2.655
  265SOL    HW1 1694   5.210   6.921   2.714
  265SOL    HW2 1695   5.310   6.799   2.671
  266SOL     OW 1696   4.099   2.594   5.712
  266SOL    HW1 1697   4.110   2.501   5.677
  266SOL    HW2 1698   4.186   2.643   5.704
  267SOL     OW 1699   0.418   1.798   5.823
  267SOL    HW1 1700   0.369   1.720   5.861
  267SOL    HW2 1701   0.507   1.807   5.867
  268SOL     OW 1702   3.182   1.065   6.246
  268SOL    HW1 1703   3.116   1.045   6.318
  268SOL    HW2 1704   3.210   0.980   6.201
  269SOL     OW 1705   1.568   3.859   1.046
  269SOL    HW1 1706   1.587   3.771   1.090
  269SOL    HW2 1707   1.610   3.861   0.955
  270SOL     OW 1708   1.225   6.208   0.579
  270SOL    HW1 1709   1.307   6.160   0.610
  270SOL    HW2 1710   1.191   6.165   0.495
  271SOL     OW 1711   6.533   0.906   6.204
  271SOL    HW1 1712   6.509   0.998   6.174
  271SOL    HW2 1713   6.633   0.897   6.208
  272SOL     OW 1714   3.703   5.940   4.127
  272SOL    HW1 1715   3.802   5.939   4.143
  272SOL    HW2 1716   3.657   5.977   4.208
  273SOL     OW 1717   2.355   4.733   4.262
  273SOL    HW1 1718   2.377   4.767   4.171
  273SOL    HW2 1719   2.417   4.658   4.286
  274SOL     OW 1720   4.097   1.525   3.177
  274SOL    HW1 1721   4.099   1.552   3.080
  274SOL    HW2 1722   4.003   1.528   3.210
  275SOL     OW 1723   6.735   5.422   3.814
  275SOL    HW1 1724   6.789   5.343   3.841
  275SOL    HW2 1725   6.714   5.477   3.895
  276SOL     OW 1726   0.264   6.522   2.692
  276SOL    HW1 1727   0.345   6.471   2.720
  276SOL    HW2 1728   0.189   6.458   2.675
  277SOL     OW 1729   1.063   3.888   0.375
  277SOL    HW1 1730   1.119   3.931   0.304
  277SOL    HW2 1731   1.001   3.822   0.334
  278SOL     OW 1732   0.349   4.384   1.281
  278SOL    HW1 1733   0.298   4.459   1.239
  278SOL    HW2 1734   0.425   4.421   1.335
  279SOL     OW 1735   5.600   2.799   4.289
  279SOL    HW1 1736   5.553   2.725   4.242
  279SOL    HW2 1737   5.623   2.871   4.224
  280SOL     OW 1738   2.548   5.561   2.823
  280SOL    HW1 1739   2.593   5.649   2.840
  280SOL    HW2 1740   2.476   5.547   2.892
  281SOL     OW 1741   2.601   4.648   1.885
  281SOL    HW1 1742   2.599   4.740   1.846
  281SOL    HW2 1743   2.692   4.609   1.874
  282SOL     OW 1744   3.455   1.476   5.484
  282SOL    HW1 1745   3.371   1.490   5.432
  282SOL    HW2 1746   3.452   1.387   5.528
  283SOL     OW 1747   5.872   3.032   6.488
  283SOL    HW1 1748   5.943   2.990   6.431
  283SOL    HW2 1749   5.799   3.067   6.431
  284SOL     OW 1750   1.313   3.833   3.523
  284SOL    HW1 1751   1.341   3.746   3.564
  284SOL    HW2 1752   1.350   3.908   3.578
  285SOL     OW 1753   5.710   5.214   4.163
  285SOL    HW1 1754   5.800   5.193   4.123
  285SOL    HW2 1755   5.668   5.130   4.195
  286SOL     OW 1756   3.332   5.138   6.761
  286SOL    HW1 1757   3.402   5.206   6.740
  286SOL    HW2 1758   3.376   5.054   6.793
  287SOL     OW 1759   1.088   3.424   1.021
  287SOL    HW1 1760   0.996   3.397   0.993
  287SOL    HW2 1761   1.098   3.410   1.120
  288SOL     OW 1762   3.266   1.475   7.006
  288SOL    HW1 1763   3.242   1.521   6.920
  288SOL    HW2 1764   3.183   1.458   0.037
  289SOL     OW 1765   2.148   4.336   5.903
  289SOL    HW1 1766   2.235   4.368   5.865
  289SOL    HW2 1767   2.074   4.393   5.869
  290SOL     OW 1768   6.589   2.066   4.624
  290SOL    HW1 1769   6.553   2.127   4.693
  290SOL    HW2 1770   6.643   1.994   4.668
  291SOL     OW 1771   1.061   2.087   4.669
  291SOL    HW1 1772   1.151   2.121   4.697
  291SOL    HW2 1773   1.023   2.146   4.597
  292SOL     OW 1774   1.751   2.052   3.198
  292SOL    HW1 1775   1.825   2.103   3.241
  292SOL    HW2 1776   1.735   2.087   3.105
  293SOL     OW 1777   4.338   6.115   3.206
  293SOL    HW1 1778   4.429   6.152   3.188
  293SOL    HW2 1779   4.271   6.164   3.151
  294SOL     OW 1780   0.334   6.127   6.950
  294SOL    HW1 1781   0.242   6.138   6.913
  294SOL    HW2 1782   0.349   6.193   0.001
  295SOL     OW 1783   3.792   1.086   3.426
  295SOL    HW1 1784   3.823   1.169   3.381
  295SOL    HW2 1785   3.731   1.110   3.502
  296SOL     OW 1786   3.357   1.600   3.027
  296SOL    HW1 1787   3.292   1.674   3.010
  296SOL    HW2 1788   3.420   1.591   2.949
  297SOL     OW 1789   2.626   4.610   3.909
  297SOL    HW1 1790   2.538   4.656   3.901
  297SOL    HW2 1791   2.667   4.598   3.819
  298SOL     OW 1792   4.349   5.786   2.156
  298SOL    HW1 1793   4.429   5.807   2.101
  298SOL    HW2 1794   4.266   5.814   2.107
  299SOL     OW 1795   5.247   3.333   6.008
  299SOL    HW1 1796   5.214   3.359   6.098
  299SOL    HW2 1797   5.170   3.303   5.951
  300SOL     OW 1798   6.205   0.833   2.620
  300SOL    HW1 1799   6.232   0.797   2.531
  300SOL    HW2 1800   6.229   0.767   2.691
  301SOL     OW 1801   4.931   3.816   1.128
  301SOL    HW1 1802   4.835   3.818   1.099
  301SOL    HW2 1803   4.942   3.749   1.201
  302SOL     OW 1804   1.227   0.477   2.974
  302SOL    HW1 1805   1.248   0.551   2.909
  302SOL    HW2 1806   1.178   0.404   2.926
  303SOL     OW 1807   5.977   0.541   2.592
  303SOL    HW1 1808   5.980   0.611   2.663
  303SOL    HW2 1809   6.066   0.533   2.548
  304SOL     OW 1810   1.768   0.084   3.069
  304SOL    HW1 1811   1.672   0.108   3.056
  304SOL    HW2 1812   1.791   0.090   3.166
  305SOL     OW 1813   0.237   3.373   6.796
  305SOL    HW1 1814   0.318   3.346   6.849
  305SOL    HW2 1815   0.262   3.381   6.700
  306SOL     OW 1816   1.400   1.071   3.281
  306SOL    HW1 1817   1.450   1.087   3.196
  306SOL    HW2 1818   1.318   1.016   3.262
  307SOL     OW 1819   4.770   6.500   1.142
  307SOL    HW1 1820   4.704   6.571   1.166
  307SOL    HW2 1821   4.854   6.514   1.195
  308SOL     OW 1822   6.979   3.988   4.758
  308SOL    HW1 1823   6.963   3.982   4.857
  308SOL    HW2 1824   6.969   4.083   4.728
  309SOL     OW 1825   3.751   4.503   5.573
  309SOL    HW1 1826   3.844   4.487   5.606
  309SOL    HW2 1827   3.715   4.418   5.534
  310SOL     OW 1828   6.347   6.584   5.896
  310SOL    HW1 1829   6.427   6.558   5.842
  310SOL    HW2 1830   6.358   6.679   5.927
  311SOL     OW 1831   6.365   4.917   1.721
  311SOL    HW1 1832   6.318   4.946   1.638
  311SOL    HW2 1833   6.419   4.835   1.702
  312SOL     OW 1834   4.792   2.017   5.956
  312SOL    HW1 1835   4.701   2.009   5.916
  312SOL    HW2 1836   4.840   1.929   5.946
  313SOL     OW 1837   2.824   4.290   1.685
  313SOL    HW1 1838   2.829   4.368   1.748
  313SOL    HW2 1839   2.733   4.288   1.643
  314SOL     OW 1840   3.617   5.467   0.423
  314SOL    HW1 1841   3.544   5.534   0.409
  314SOL    HW2 1842   3.695   5.512   0.468
  315SOL     OW 1843   0.961   2.089   3.733
  315SOL    HW1 1844   1.060   2.074   3.735
  315SOL    HW2 1845   0.921   2.040   3.655
  316SOL     OW 1846   1.965   2.491   4.484
  316SOL    HW1 1847   2.021   2.456   4.409
  316SOL    HW2 1848   2.024   2.535   4.552
  317SOL     OW 1849   0.465   1.516   0.230
  317SOL    HW1 1850   0.393   1.505   0.300
  317SOL    HW2 1851   0.552   1.482   0.266
  318SOL     OW 1852   1.148   4.800   0.917
  318SOL    HW1 1853   1.153   4.703   0.942
  318SOL    HW2 1854   1.117   4.853   0.996
  319SOL     OW 1855   0.272   0.367   2.260
  319SOL    HW1 1856   0.331   0.312   2.319
  319SOL    HW2 1857   0.296   0.464   2.270
  320SOL     OW 1858   5.530   2.251   6.963
  320SOL    HW1 1859   5.551   2.260   0.039
  320SOL    HW2 1860   5.431   2.250   6.951
  321SOL     OW 1861   2.432   1.376   2.112
  321SOL    HW1 1862   2.390   1.440   2.176
  321SOL    HW2 1863   2.364   1.308   2.083
  322SOL     OW 1864   2.911   3.501   4.516
  322SOL    HW1 1865   2.912   3.597   4.543
  322SOL    HW2 1866   2.913   3.495   4.416
  323SOL     OW 1867   0.994   4.251   6.801
  323SOL    HW1 1868   1.012   4.293   6.712
  323SOL    HW2 1869   0.911   4.196   6.796
  324SOL     OW 1870   1.687   2.887   4.165
  324SOL    HW1 1871   1.654   2.977   4.194
  324SOL    HW2 1872   1.681   2.880   4.066
  325SOL     OW 1873   2.079   3.019   1.358
  325SOL    HW1 1874   2.141   2.946   1.329
  325SOL    HW2 1875   2.101   3.045   1.452
  326SOL     OW 1876   1.674   5.992   7.019
  326SOL    HW1 1877   1.665   5.907   6.968
  326SOL    HW2 1878   1.763   6.034   6.999
  327SOL     OW 1879   0.765   5.386   3.732
  327SOL    HW1 1880   0.847   5.359   3.784
  327SOL    HW2 1881   0.687   5.333   3.765
  328SOL     OW 1882   3.040   5.216   2.370
  328SOL    HW1 1883   2.975   5.224   2.295
  328SOL    HW2 1884   3.050   5.304   2.415
  329SOL     OW 1885   3.165   4.048   3.864
  329SOL    HW1 1886   3.088   4.058   3.801
  329SOL    HW2 1887   3.236   3.992   3.821
  330SOL     OW 1888   3.399   6.059   1.957
  330SOL    HW1 1889   3.480   6.110   1.988
  330SOL    HW2 1890   3.382   6.080   1.861
  331SOL     OW 1891   4.815   5.100   6.527
  331SOL    HW1 1892   4.817   5.025   6.460
  331SOL    HW2 1893   4.818   5.188   6.479
  332SOL     OW 1894   3.592   2.054   3.892
  332SOL    HW1 1895   3.600   2.089   3.986
  332SOL    HW2 1896   3.527   1.978   3.891
  333SOL     OW 1897   3.932   0.279   0.203
  333SOL    HW1 1898   3.996   0.354   0.186
  333SOL    HW2 1899   3.907   0.277   0.299
  334SOL     OW 1900   2.681   6.768   1.251
  334SOL    HW1 1901   2.737   6.697   1.208
  334SOL    HW2 1902   2.612   6.725   1.309
  335SOL     OW 1903   3.025   6.118   3.698
  335SOL    HW1 1904   2.942   6.152   3.654
  335SOL    HW2 1905   3.104   6.170   3.667
  336SOL     OW 1906   2.185   1.003   3.628
  336SOL    HW1 1907   2.111   1.070   3.632
  336SOL    HW2 1908   2.266   1.045   3.586
  337SOL     OW 1909   0.081   3.749   1.169
  337SOL    HW1 1910   0.095   3.691   1.089
  337SOL    HW2 1911   0.077   3.845   1.141
  338SOL     OW 1912   3.048   3.099   1.705
  338SOL    HW1 1913   2.971   3.036   1.701
  338SOL    HW2 1914   3.133   3.051   1.685
  339SOL     OW 1915   4.070   0.064   3.594
  339SOL    HW1 1916   4.084   6.991   3.621
  339SOL    HW2 1917   4.042   0.068   3.498
  340SOL     OW 1918   5.449   4.213   5.043
  340SOL    HW1 1919   5.496   4.135   5.084
  340SOL    HW2 1920   5.494   4.238   4.957
  341SOL     OW 1921   6.215   6.483   4.150
  341SOL    HW1 1922   6.147   6.417   4.180
  341SOL    HW2 1923   6.178   6.575   4.157
  342SOL     OW 1924   5.847   4.275   0.338
  342SOL    HW1 1925   5.822   4.265   0.242
  342SOL    HW2 1926   5.821   4.193   0.388
  343SOL     OW 1927   3.324   5.835   1.623
  343SOL    HW1 1928   3.237   5.857   1.578
  343SOL    HW2 1929   3.341   5.737   1.618
  344SOL     OW 1930   2.289   5.160   1.203
  344SOL    HW1 1931   2.264   5.082   1.145
  344SOL    HW2 1932   2.293   5.243   1.147
  345SOL     OW 1933   0.322   0.586   5.939
  345SOL    HW1 1934   0.412   0.588   5.982
  345SOL    HW2 1935   0.285   0.493   5.945
  346SOL     OW 1936   1.820   0.060   2.249
  346SOL    HW1 1937   1.721   0.077   2.253
  346SOL    HW2 1938   1.840   6.992   2.287
  347SOL     OW 1939   4.842   0.211   6.637
  347SOL    HW1 1940   4.919   0.275   6.642
  347SOL    HW2 1941   4.849   0.157   6.553
  348SOL     OW 1942   4.245   4.926   1.897
  348SOL    HW1 1943   4.208   4.966   1.813
  348SOL    HW2 1944   4.219   4.830   1.903
  349SOL     OW 1945   0.050   4.777   2.389
  349SOL    HW1 1946   7.005   4.751   2.459
  349SOL    HW2 1947   0.007   4.839   2.323
  350SOL     OW 1948   3.706   3.945   1.633
  350SOL    HW1 1949   3.736   3.855   1.665
  350SOL    HW2 1950   3.681   4.002   1.711
  351SOL     OW 1951   2.659   2.452   0.766
  351SOL    HW1 1952   2.666   2.484   0.860
  351SOL    HW2 1953   2.612   2.520   0.710
  352SOL     OW 1954   3.782   0.242   4.845
  352SOL    HW1 1955   3.725   0.321   4.867
  352SOL    HW2 1956   3.728   0.175   4.793
  353SOL     OW 1957   2.437   0.359   0.760
  353SOL    HW1 1958   2.395   0.415   0.832
  353SOL    HW2 1959   2.459   0.269   0.797
  354SOL     OW 1960   4.125   2.524   0.737
  354SOL    HW1 1961   4.032   2.494   0.715
  354SOL    HW2 1962   4.145   2.608   0.687
  355SOL     OW 1963   6.691   3.215   2.583
  355SOL    HW1 1964   6.620   3.167   2.635
  355SOL    HW2 1965   6.704   3.168   2.496
  356SOL     OW 1966   4.105   5.797   4.810
  356SOL    HW1 1967   4.171   5.770   4.881
  356SOL    HW2 1968   4.070   5.889   4.831
  357SOL     OW 1969   0.118   6.297   5.284
  357SOL    HW1 1970   0.045   6.291   5.352
  357SOL    HW2 1971   0.109   6.383   5.233
  358SOL     OW 1972   6.557   0.037   1.277
  358SOL    HW1 1973   6.511   6.995   1.216
  358SOL    HW2 1974   6.504   0.121   1.283
  359SOL     OW 1975   1.581   2.693   2.086
  359SOL    HW1 1976   1.611   2.786   2.109
  359SOL    HW2 1977   1.540   2.650   2.166
  360SOL     OW 1978   3.077   6.103   6.319
  360SOL    HW1 1979   3.122   6.179   6.273
  360SOL    HW2 1980   3.055   6.032   6.252
  361SOL     OW 1981   5.978   5.794   3.229
  361SOL    HW1 1982   6.023   5.727   3.169
  361SOL    HW2 1983   5.882   5.804   3.202
  362SOL     OW 1984   3.306   4.028   0.427
  362SOL    HW1 1985   3.207   4.031   0.444
  362SOL    HW2 1986   3.335   4.114   0.386
  363SOL     OW 1987   3.719   5.133   4.030
  363SOL    HW1 1988   3.646   5.117   4.096
  363SOL    HW2 1989   3.735   5.049   3.977
  364SOL     OW 1990   0.636   5.747   5.538
  364SOL    HW1 1991   0.650   5.648   5.541
  364SOL    HW2 1992   0.713   5.790   5.491
  365SOL     OW 1993   4.527   6.675   3.003
  365SOL    HW1 1994   4.529   6.679   3.102
  365SOL    HW2 1995   4.610   6.715   2.965
  366SOL     OW 1996   5.248   1.349   0.304
  366SOL    HW1 1997   5.163   1.303   0.329
  366SOL    HW2 1998   5.295   1.379   0.387
  367SOL     OW 1999   4.857   2.883   0.700
  367SOL    HW1 2000   4.823   2.896   0.607
  367SOL    HW2 2001   4.833   2.792   0.732
  368SOL     OW 2002   1.323   4.611   4.693
  368SOL    HW1 2003   1.421   4.628   4.688
  368SOL    HW2 2004   1.306   4.513   4.699
  369SOL     OW 2005   6.193   4.949   1.926
  369SOL    HW1 2006   6.240   4.965   2.013
  369SOL    HW2 2007   6.259   4.955   1.851
  370SOL     OW 2008   2.517   0.999   5.131
  370SOL    HW1 2009   2.419   0.994   5.110
  370SOL    HW2 2010   2.549   1.093   5.120
  371SOL     OW 2011   2.212   3.852   6.657
  371SOL    HW1 2012   2.242   3.947   6.671
  371SOL    HW2 2013   2.290   3.791   6.666
  372SOL     OW 2014   6.785   0.194   4.974
  372SOL    HW1 2015   6.761   0.189   5.072
  372SOL    HW2 2016   6.883   0.179   4.963
  373SOL     OW 2017   0.233   6.697   6.099
  373SOL    HW1 2018   0.330   6.680   6.078
  373SOL    HW2 2019   0.226   6.741   6.189
  374SOL     OW 2020   4.184   6.992   2.050
  374SOL    HW1 2021   4.132   6.919   2.094
  374SOL    HW2 2022   4.136   0.057   2.063
  375SOL     OW 2023   6.783   4.834   4.009
  375SOL    HW1 2024   6.824   4.806   4.096
  375SOL    HW2 2025   6.855   4.852   3.942
  376SOL     OW 2026   1.437   3.164   3.714
  376SOL    HW1 2027   1.442   3.172   3.814
  376SOL    HW2 2028   1.428   3.067   3.689
  377SOL     OW 2029   5.675   2.646   2.747
  377SOL    HW1 2030   5.711   2.638   2.654
  377SOL    HW2 2031   5.608   2.573   2.762
  378SOL     OW 2032   3.883   3.085   5.614
  378SOL    HW1 2033   3.918   2.992   5.605
  378SOL    HW2 2034   3.947   3.149   5.571
  379SOL     OW 2035   5.859   3.283   1.296
  379SOL    HW1 2036   5.800   3.364   1.300
  379SOL    HW2 2037   5.953   3.310   1.316
  380SOL     OW 2038   2.167   1.709   1.480
  380SOL    HW1 2039   2.106   1.767   1.426
  380SOL    HW2 2040   2.137   1.614   1.473
  381SOL     OW 2041   2.204   4.783   1.560
  381SOL    HW1 2042   2.235   4.872   1.593
  381SOL    HW2 2043   2.120   4.795   1.507
  382SOL     OW 2044   3.765   6.004   0.150
  382SOL    HW1 2045   3.743   5.982   0.055
  382SOL    HW2 2046   3.863   6.026   0.157
  383SOL     OW 2047   6.475   2.727   6.455
  383SOL    HW1 2048   6.550   2.738   6.390
  383SOL    HW2 2049   6.498   2.658   6.523
  384SOL     OW 2050   1.381   4.665   4.963
  384SOL    HW1 2051   1.414   4.760   4.968
  384SOL    HW2 2052   1.328   4.652   4.880
  385SOL     OW 2053   5.188   6.592   0.041
  385SOL    HW1 2054   5.129   6.672   0.052
  385SOL    HW2 2055   5.169   6.526   0.114
  386SOL     OW 2056   4.193   0.169   5.830
  386SOL    HW1 2057   4.238   0.085   5.797
  386SOL    HW2 2058   4.094   0.161   5.816
  387SOL     OW 2059   0.341   7.015   4.090
  387SOL    HW1 2060   0.384   0.063   4.146
  387SOL    HW2 2061   0.277   6.962   4.145
  388SOL     OW 2062   6.856   2.337   5.452
  388SOL    HW1 2063   6.843   2.238   5.448
  388SOL    HW2 2064   6.832   2.370   5.544
  389SOL     OW 2065   4.221   4.442   1.727
  389SOL    HW1 2066   4.144   4.381   1.705
  389SOL    HW2 2067   4.282   4.396   1.791
  390SOL     OW 2068   3.631   1.008   0.731
  390SOL    HW1 2069   3.581   1.087   0.766
  390SOL    HW2 2070   3.588   0.924   0.765
  391SOL     OW 2071   2.917   4.084   5.680
  391SOL    HW1 2072   2.859   4.012   5.642
  391SOL    HW2 2073   2.905   4.167   5.626
  392SOL     OW 2074   1.662   3.334   2.191
  392SOL    HW1 2075   1.719   3.408   2.155
  392SOL    HW2 2076   1.721   3.257   2.218
  393SOL     OW 2077   0.657   4.455   0.794
  393SOL    HW1 2078   0.628   4.496   0.707
  393SOL    HW2 2079   0.722   4.516   0.839
  394SOL     OW 2080   6.895   3.425   0.283
  394SOL    HW1 2081   6.940   3.350   0.234
  394SOL    HW2 2082   6.813   3.390   0.330
  395SOL     OW 2083   5.351   4.171   2.344
  395SOL    HW1 2084   5.299   4.255   2.359
  395SOL    HW2 2085   5.313   4.121   2.265
  396SOL     OW 2086   2.751   2.129   1.947
  396SOL    HW1 2087   2.695   2.185   1.886
  396SOL    HW2 2088   2.821   2.186   1.990
  397SOL     OW 2089   4.735   1.313   5.476
  397SOL    HW1 2090   4.658   1.275   5.425
  397SOL    HW2 2091   4.706   1.338   5.568
  398SOL     OW 2092   0.842   0.175   4.201
  398SOL    HW1 2093   0.902   0.177   4.121
  398SOL    HW2 2094   0.748   0.193   4.172
  399SOL     OW 2095   5.682   6.049   4.037
  399SOL    HW1 2096   5.680   6.129   3.976
  399SOL    HW2 2097   5.670   6.078   4.131
  400SOL     OW 2098   6.452   0.337   4.790
  400SOL    HW1 2099   6.538   0.294   4.761
  400SOL    HW2 2100   6.389   0.267   4.821
  401SOL     OW 2101   6.551   0.578   5.897
  401SOL    HW1 2102   6.491   0.623   5.963
  401SOL    HW2 2103   6.615   0.645   5.859
  402SOL     OW 2104   6.453   0.370   2.485
  402SOL    HW1 2105   6.482   0.466   2.492
  402SOL    HW2 2106   6.529   0.314   2.454
  403SOL     OW 2107   2.678   0.359   5.615
  403SOL    HW1 2108   2.614   0.385   5.688
  403SOL    HW2 2109   2.681   0.259   5.609
  404SOL     OW 2110   3.676   6.568   6.015
  404SOL    HW1 2111   3.675   6.516   5.930
  404SOL    HW2 2112   3.596   6.628   6.020
  405SOL     OW 2113   1.814   3.806   3.498
  405SOL    HW1 2114   1.754   3.825   3.421
  405SOL    HW2 2115   1.894   3.866   3.494
  406SOL     OW 2116   0.735   5.246   5.301
  406SOL    HW1 2117   0.721   5.340   5.332
  406SOL    HW2 2118   0.768   5.246   5.207
  407SOL     OW 2119   1.630   3.312   3.546
  407SOL    HW1 2120   1.728   3.318   3.564
  407SOL    HW2 2121   1.594   3.228   3.586
  408SOL     OW 2122   3.550   1.591   2.838
  408SOL    HW1 2123   3.605   1.651   2.897
  408SOL    HW2 2124   3.534   1.636   2.751
  409SOL     OW 2125   0.848   3.720   2.253
  409SOL    HW1 2126   0.863   3.671   2.166
  409SOL    HW2 2127   0.787   3.797   2.238
  410SOL     OW 2128   1.402   2.505   1.100
  410SOL    HW1 2129   1.466   2.551   1.162
  410SOL    HW2 2130   1.441   2.418   1.071
  411SOL     OW 2131   0.068   1.985   2.201
  411SOL    HW1 2132   0.103   1.893   2.220
  411SOL    HW2 2133   0.142   2.052   2.216
  412SOL     OW 2134   2.520   4.676   3.075
  412SOL    HW1 2135   2.524   4.711   2.981
  412SOL    HW2 2136   2.501   4.752   3.138
  413SOL     OW 2137   3.655   4.883   2.615
  413SOL    HW1 2138   3.746   4.848   2.594
  413SOL    HW2 2139   3.597   4.878   2.534
  414SOL     OW 2140   2.620   6.904   3.771
  414SOL    HW1 2141   2.581   6.917   3.862
  414SOL    HW2 2142   2.694   6.970   3.757
  415SOL     OW 2143   6.631   1.257   0.399
  415SOL    HW1 2144   6.587   1.325   0.341
  415SOL    HW2 2145   6.729   1.276   0.406
  416SOL     OW 2146   5.148   4.033   4.954
  416SOL    HW1 2147   5.124   4.117   5.003
  416SOL    HW2 2148   5.114   3.954   5.005
  417SOL     OW 2149   2.548   2.219   6.850
  417SOL    HW1 2150   2.591   2.306   6.873
  417SOL    HW2 2151   2.552   2.158   6.928
  418SOL     OW 2152   3.492   6.871   4.210
  418SOL    HW1 2153   3.468   6.865   4.307
  418SOL    HW2 2154   3.480   6.781   4.167
  419SOL     OW 2155   0.383   6.743   1.577
  419SOL    HW1 2156   0.464   6.741   1.635
  419SOL    HW2 2157   0.359   6.837   1.556
  420SOL     OW 2158   5.627   0.529   6.817
  420SOL    HW1 2159   5.630   0.453   6.881
  420SOL    HW2 2160   5.719   0.548   6.783
  421SOL     OW 2161   5.158   4.330   4.433
  421SOL    HW1 2162   5.235   4.267   4.428
  421SOL    HW2 2163   5.134   4.346   4.528
  422SOL     OW 2164   4.906   2.358   1.358
  422SOL    HW1 2165   4.958   2.379   1.440
  422SOL    HW2 2166   4.843   2.433   1.338
  423SOL     OW 2167   2.911   1.109   6.046
  423SOL    HW1 2168   3.002   1.150   6.048
  423SOL    HW2 2169   2.881   1.099   5.951
  424SOL     OW 2170   1.279   4.604   3.021
  424SOL    HW1 2171   1.312   4.519   3.062
  424SOL    HW2 2172   1.320   4.681   3.070
  425SOL     OW 2173   4.386   0.650   5.195
  425SOL    HW1 2174   4.470   0.654   5.248
  425SOL    HW2 2175   4.313   0.697   5.244
  426SOL     OW 2176   2.642   1.992   4.797
  426SOL    HW1 2177   2.708   1.917   4.790
  426SOL    HW2 2178   2.689   2.079   4.782
  427SOL     OW 2179   4.535   1.528   3.447
  427SOL    HW1 2180   4.574   1.488   3.530
  427SOL    HW2 2181   4.586   1.611   3.423
  428SOL     OW 2182   3.030   0.905   5.071
  428SOL    HW1 2183   3.030   0.981   5.006
  428SOL    HW2 2184   2.939   0.863   5.073
  429SOL     OW 2185   1.437   6.370   3.667
  429SOL    HW1 2186   1.400   6.306   3.734
  429SOL    HW2 2187   1.430   6.330   3.576
  430SOL     OW 2188   1.653   7.016   4.072
  430SOL    HW1 2189   1.564   0.037   4.058
  430SOL    HW2 2190   1.656   6.929   4.023
  431SOL     OW 2191   2.741   2.222   1.118
  431SOL    HW1 2192   2.691   2.189   1.198
  431SOL    HW2 2193   2.837   2.237   1.142
  432SOL     OW 2194   4.425   1.961   1.557
  432SOL    HW1 2195   4.379   2.018   1.489
  432SOL    HW2 2196   4.437   2.013   1.642
  433SOL     OW 2197   2.875   6.468   6.627
  433SOL    HW1 2198   2.956   6.526   6.631
  433SOL    HW2 2199   2.902   6.374   6.605
  434SOL     OW 2200   4.174   6.587   3.790
  434SOL    HW1 2201   4.158   6.496   3.828
  434SOL    HW2 2202   4.254   6.584   3.730
  435SOL     OW 2203   3.643   1.906   5.967
  435SOL    HW1 2204   3.666   1.974   6.038
  435SOL    HW2 2205   3.549   1.875   5.980
  436SOL     OW 2206   3.977   6.160   3.734
  436SOL    HW1 2207   3.969   6.061   3.732
  436SOL    HW2 2208   3.886   6.200   3.749
  437SOL     OW 2209   0.175   0.389   4.183
  437SOL    HW1 2210   0.252   0.425   4.235
  437SOL    HW2 2211   0.099   0.369   4.245
  438SOL     OW 2212   1.112   5.166   2.573
  438SOL    HW1 2213   1.152   5.074   2.572
  438SOL    HW2 2214   1.183   5.234   2.558
  439SOL     OW 2215   5.829   0.525   3.054
  439SOL    HW1 2216   5.924   0.554   3.046
  439SOL    HW2 2217   5.818   0.434   3.013
  440SOL     OW 2218   4.477   0.451   0.044
  440SOL    HW1 2219   4.453   0.548   0.043
  440SOL    HW2 2220   4.394   0.395   0.051
  441SOL     OW 2221   6.839   4.231   2.647
  441SOL    HW1 2222   6.859   4.133   2.649
  441SOL    HW2 2223   6.746   4.245   2.612
  442SOL     OW 2224   5.398   3.311   5.618
  442SOL    HW1 2225   5.428   3.333   5.711
  442SOL    HW2 2226   5.314   3.361   5.597
  443SOL     OW 2227   4.859   4.102   3.316
  443SOL    HW1 2228   4.912   4.028   3.357
  443SOL    HW2 2229   4.807   4.150   3.387
  444SOL     OW 2230   3.824   1.266   1.163
  444SOL    HW1 2231   3.759   1.200   1.126
  444SOL    HW2 2232   3.871   1.313   1.088
  445SOL     OW 2233   2.112   5.414   2.518
  445SOL    HW1 2234   2.087   5.507   2.545
  445SOL    HW2 2235   2.200   5.390   2.561
  446SOL     OW 2236   5.766   6.000   2.743
  446SOL    HW1 2237   5.801   5.950   2.663
  446SOL    HW2 2238   5.782   6.097   2.730
  447SOL     OW 2239   6.234   3.952   6.847
  447SOL    HW1 2240   6.242   3.996   6.757
  447SOL    HW2 2241   6.241   3.853   6.835
  448SOL     OW 2242   3.094   1.152   2.384
  448SOL    HW1 2243   3.145   1.145   2.470
  448SOL    HW2 2244   3.024   1.081   2.381
  449SOL     OW 2245   1.723   2.480   4.045
  449SOL    HW1 2246   1.665   2.508   3.968
  449SOL    HW2 2247   1.700   2.534   4.126
  450SOL     OW 2248   1.071   4.375   2.876
  450SOL    HW1 2249   1.050   4.472   2.870
  450SOL    HW2 2250   1.109   4.355   2.966
  451SOL     OW 2251   0.804   1.979   3.523
  451SOL    HW1 2252   0.837   2.049   3.460
  451SOL    HW2 2253   0.833   1.889   3.490
  452SOL     OW 2254   3.843   6.376   3.296
  452SOL    HW1 2255   3.865   6.346   3.203
  452SOL    HW2 2256   3.864   6.303   3.361
  453SOL     OW 2257   3.925   6.447   0.193
  453SOL    HW1 2258   3.827   6.460   0.208
  453SOL    HW2 2259   3.954   6.506   0.118
  454SOL     OW 2260   6.922   4.789   6.386
  454SOL    HW1 2261   6.993   4.855   6.363
  454SOL    HW2 2262   6.862   4.827   6.456
  455SOL     OW 2263   6.651   4.439   5.585
  455SOL    HW1 2264   6.573   4.472   5.639
  455SOL    HW2 2265   6.736   4.461   5.634
  456SOL     OW 2266   2.433   1.099   2.938
  456SOL    HW1 2267   2.393   1.091   2.847
  456SOL    HW2 2268   2.479   1.187   2.947
  457SOL     OW 2269   2.247   6.129   5.855
  457SOL    HW1 2270   2.217   6.152   5.763
  457SOL    HW2 2271   2.168   6.107   5.912
  458SOL     OW 2272   2.188   1.504   3.189
  458SOL    HW1 2273   2.153   1.414   3.161
  458SOL    HW2 2274   2.222   1.553   3.109
  459SOL     OW 2275   2.319   0.039   4.827
  459SOL    HW1 2276   2.381   0.118   4.825
  459SOL    HW2 2277   2.244   0.057   4.890
  460SOL     OW 2278   1.885   1.885   5.007
  460SOL    HW1 2279   1.916   1.884   5.102
  460SOL    HW2 2280   1.793   1.848   5.001
  461SOL     OW 2281   0.520   5.017   5.707
  461SOL    HW1 2282   0.604   4.978   5.746
  461SOL    HW2 2283   0.491   5.095   5.762
  462SOL     OW 2284   3.469   3.543   4.443
  462SOL    HW1 2285   3.445   3.545   4.540
  462SOL    HW2 2286   3.430   3.462   4.401
  463SOL     OW 2287   6.143   6.544   2.412
  463SOL    HW1 2288   6.116   6.549   2.316
  463SOL    HW2 2289   6.242   6.551   2.419
  464SOL     OW 2290   3.457   6.263   6.223
  464SOL    HW1 2291   3.472   6.202   6.145
  464SOL    HW2 2292   3.542   6.311   6.244
  465SOL     OW 2293   1.193   2.217   0.744
  465SOL    HW1 2294   1.286   2.195   0.712
  465SOL    HW2 2295   1.126   2.178   0.680
  466SOL     OW 2296   3.399   6.320   4.822
  466SOL    HW1 2297   3.431   6.299   4.730
  466SOL    HW2 2298   3.300   6.310   4.826
  467SOL     OW 2299   6.527   1.286   2.601
  467SOL    HW1 2300   6.601   1.345   2.570
  467SOL    HW2 2301   6.440   1.334   2.595
  468SOL     OW 2302   3.846   0.515   6.587
  468SOL    HW1 2303   3.908   0.557   6.520
  468SOL    HW2 2304   3.886   0.429   6.620
  469SOL     OW 2305   2.786   4.253   6.113
  469SOL    HW1 2306   2.815   4.330   6.057
  469SOL    HW2 2307   2.758   4.177   6.055
  470SOL     OW 2308   2.651   5.114   3.168
  470SOL    HW1 2309   2.734   5.058   3.169
  470SOL    HW2 2310   2.579   5.066   3.218
  471SOL     OW 2311   2.757   2.386   3.973
  471SOL    HW1 2312   2.751   2.288   3.954
  471SOL    HW2 2313   2.699   2.437   3.910
  472SOL     OW 2314   6.474   4.182   5.903
  472SOL    HW1 2315   6.493   4.107   5.839
  472SOL    HW2 2316   6.382   4.218   5.886
  473SOL     OW 2317   0.156   2.118   2.818
  473SOL    HW1 2318   0.129   2.023   2.803
  473SOL    HW2 2319   0.094   2.161   2.883
  474SOL     OW 2320   6.450   6.423   4.353
  474SOL    HW1 2321   6.445   6.523   4.358
  474SOL    HW2 2322   6.378   6.389   4.292
  475SOL     OW 2323   6.195   1.327   0.655
  475SOL    HW1 2324   6.167   1.421   0.640
  475SOL    HW2 2325   6.195   1.278   0.568
  476SOL     OW 2326   0.926   4.099   1.764
  476SOL    HW1 2327   0.876   4.126   1.682
  476SOL    HW2 2328   1.009   4.154   1.772
  477SOL     OW 2329   1.900   4.809   3.518
  477SOL    HW1 2330   1.960   4.747   3.468
  477SOL    HW2 2331   1.810   4.767   3.529
  478SOL     OW 2332   4.691   5.677   2.939
  478SOL    HW1 2333   4.774   5.690   2.884
  478SOL    HW2 2334   4.661   5.765   2.975
  479SOL     OW 2335   4.062   3.601   3.654
  479SOL    HW1 2336   4.094   3.539   3.582
  479SOL    HW2 2337   4.061   3.554   3.742
  480SOL     OW 2338   1.480   0.134   2.765
  480SOL    HW1 2339   1.485   0.234   2.765
  480SOL    HW2 2340   1.569   0.097   2.737
  481SOL     OW 2341   0.863   6.495   0.641
  481SOL    HW1 2342   0.862   6.423   0.572
  481SOL    HW2 2343   0.852   6.454   0.732
  482SOL     OW 2344   5.271   4.448   2.469
  482SOL    HW1 2345   5.233   4.531   2.509
  482SOL    HW2 2346   5.339   4.409   2.531
  483SOL     OW 2347   6.027   2.432   3.746
  483SOL    HW1 2348   6.107   2.446   3.688
  483SOL    HW2 2349   6.056   2.425   3.841
  484SOL     OW 2350   2.287   4.204   4.264
  484SOL    HW1 2351   2.200   4.242   4.234
  484SOL    HW2 2352   2.290   4.106   4.243
  485SOL     OW 2353   5.048   2.872   2.661
  485SOL    HW1 2354   5.045   2.957   2.608
  485SOL    HW2 2355   4.975   2.811   2.630
  486SOL     OW 2356   6.669   6.204   5.775
  486SOL    HW1 2357   6.660   6.113   5.815
  486SOL    HW2 2358   6.610   6.268   5.824
  487SOL     OW 2359   0.335   6.176   4.239
  487SOL    HW1 2360   0.382   6.105   4.185
  487SOL    HW2 2361   0.248   6.140   4.272
  488SOL     OW 2362   1.596   6.482   3.183
  488SOL    HW1 2363   1.497   6.483   3.197
  488SOL    HW2 2364   1.641   6.463   3.270
  489SOL     OW 2365   0.264   5.737   5.209
  489SOL    HW1 2366   0.307   5.809   5.155
  489SOL    HW2 2367   0.331   5.697   5.271
  490SOL     OW 2368   1.487   4.771   5.727
  490SOL    HW1 2369   1.523   4.850   5.776
  490SOL    HW2 2370   1.388   4.767   5.739
  491SOL     OW 2371   0.139   2.409   0.971
  491SOL    HW1 2372   0.124   2.322   0.923
  491SOL    HW2 2373   0.219   2.454   0.932
  492SOL     OW 2374   1.732   1.699   5.647
  492SOL    HW1 2375   1.714   1.608   5.609
  492SOL    HW2 2376   1.814   1.696   5.703
  493SOL     OW 2377   2.330   6.514   4.759
  493SOL    HW1 2378   2.295   6.519   4.852
  493SOL    HW2 2379   2.429   6.500   4.760
  494SOL     OW 2380   2.369   0.310   4.913
  494SOL    HW1 2381   2.324   0.311   5.003
  494SOL    HW2 2382   2.394   0.403   4.887
  495SOL     OW 2383   4.261   5.950   5.221
  495SOL    HW1 2384   4.197   5.875   5.202
  495SOL    HW2 2385   4.336   5.915   5.278
  496SOL     OW 2386   5.326   2.252   2.773
  496SOL    HW1 2387   5.233   2.233   2.741
  496SOL    HW2 2388   5.330   2.346   2.807
  497SOL     OW 2389   3.314   1.275   6.423
  497SOL    HW1 2390   3.294   1.315   6.512
  497SOL    HW2 2391   3.245   1.302   6.357
  498SOL     OW 2392   0.729   5.867   2.066
  498SOL    HW1 2393   0.734   5.884   1.967
  498SOL    HW2 2394   0.702   5.773   2.082
  499SOL     OW 2395   3.839   5.435   6.995
  499SOL    HW1 2396   3.820   5.351   0.024
  499SOL    HW2 2397   3.767   5.450   6.927
  500SOL     OW 2398   5.738   2.048   6.942
  500SOL    HW1 2399   5.643   2.069   6.920
  500SOL    HW2 2400   5.741   1.985   7.019
  501SOL     OW 2401   0.879   0.136   3.202
  501SOL    HW1 2402   0.827   0.219   3.181
  501SOL    HW2 2403   0.957   0.129   3.141
  502SOL     OW 2404   1.980   5.069   6.749
  502SOL    HW1 2405   2.027   5.062   6.661
  502SOL    HW2 2406   2.008   4.994   6.809
  503SOL     OW 2407   3.807   5.063   6.844
  503SOL    HW1 2408   3.800   5.112   6.931
  503SOL    HW2 2409   3.731   4.998   6.835
  504SOL     OW 2410   6.097   6.054   1.995
  504SOL    HW1 2411   6.172   5.989   2.004
  504SOL    HW2 2412   6.058   6.047   1.903
  505SOL     OW 2413   5.150   6.581   5.408
  505SOL    HW1 2414   5.145   6.507   5.476
  505SOL    HW2 2415   5.159   6.669   5.454
  506SOL     OW 2416   3.036   5.913   3.004
  506SOL    HW1 2417   3.034   5.843   2.933
  506SOL    HW2 2418   3.124   5.959   3.003
  507SOL     OW 2419   3.687   1.200   1.484
  507SOL    HW1 2420   3.709   1.221   1.389
  507SOL    HW2 2421   3.629   1.273   1.522
  508SOL     OW 2422   0.830   4.596   4.572
  508SOL    HW1 2423   0.731   4.590   4.583
  508SOL    HW2 2424   0.869   4.650   4.646
  509SOL     OW 2425   4.284   0.582   6.134
  509SOL    HW1 2426   4.194   0.596   6.176
  509SOL    HW2 2427   4.332   0.509   6.182
  510SOL     OW 2428   6.142   4.203   6.209
  510SOL    HW1 2429   6.161   4.297   6.235
  510SOL    HW2 2430   6.225   4.160   6.174
  511SOL     OW 2431   1.390   1.611   0.314
  511SOL    HW1 2432   1.375   1.565   0.227
  511SOL    HW2 2433   1.321   1.683   0.326
  512SOL     OW 2434   6.108   2.003   0.094
  512SOL    HW1 2435   6.024   1.963   0.057
  512SOL    HW2 2436   6.134   2.082   0.039
  513SOL     OW 2437   5.722   0.598   2.731
  513SOL    HW1 2438   5.762   0.584   2.640
  513SOL    HW2 2439   5.742   0.519   2.789
  514SOL     OW 2440   6.948   0.022   4.115
  514SOL    HW1 2441   6.917   0.059   4.203
  514SOL    HW2 2442   6.949   6.944   4.120
  515SOL     OW 2443   3.586   6.798   6.786
  515SOL    HW1 2444   3.645   6.759   6.716
  515SOL    HW2 2445   3.549   6.885   6.754
  516SOL     OW 2446   2.587   4.885   1.542
  516SOL    HW1 2447   2.574   4.860   1.446
  516SOL    HW2 2448   2.654   4.824   1.584
  517SOL     OW 2449   2.602   4.919   2.382
  517SOL    HW1 2450   2.670   4.846   2.376
  517SOL    HW2 2451   2.573   4.931   2.477
  518SOL     OW 2452   1.978   2.718   3.644
  518SOL    HW1 2453   1.984   2.729   3.545
  518SOL    HW2 2454   1.971   2.621   3.666
  519SOL     OW 2455   0.300   6.351   3.562
  519SOL    HW1 2456   0.226   6.321   3.502
  519SOL    HW2 2457   0.304   6.451   3.561
  520SOL     OW 2458   1.178   2.782   0.138
  520SOL    HW1 2459   1.151   2.838   0.059
  520SOL    HW2 2460   1.272   2.752   0.127
  521SOL     OW 2461   4.931   4.890   5.051
  521SOL    HW1 2462   5.020   4.935   5.053
  521SOL    HW2 2463   4.893   4.895   4.959
  522SOL     OW 2464   4.166   3.744   1.102
  522SOL    HW1 2465   4.174   3.668   1.036
  522SOL    HW2 2466   4.070   3.764   1.118
  523SOL     OW 2467   6.923   6.263   1.760
  523SOL    HW1 2468   6.848   6.229   1.816
  523SOL    HW2 2469   6.946   6.196   1.690
  524SOL     OW 2470   0.145   2.495   2.402
  524SOL    HW1 2471   0.207   2.566   2.436
  524SOL    HW2 2472   0.097   2.527   2.321
  525SOL     OW 2473   1.254   3.369   6.963
  525SOL    HW1 2474   1.249   3.367   6.863
  525SOL    HW2 2475   1.301   3.453   6.992
  526SOL     OW 2476   3.000   0.190   4.744
  526SOL    HW1 2477   2.988   0.201   4.842
  526SOL    HW2 2478   2.994   0.280   4.699
  527SOL     OW 2479   1.463   2.261   6.604
  527SOL    HW1 2480   1.561   2.268   6.586
  527SOL    HW2 2481   1.419   2.348   6.580
  528SOL     OW 2482   0.109   3.207   4.071
  528SOL    HW1 2483   0.091   3.273   4.145
  528SOL    HW2 2484   0.201   3.169   4.082
  529SOL     OW 2485   2.312   0.009   5.493
  529SOL    HW1 2486   2.346   7.018   5.400
  529SOL    HW2 2487   2.224   6.985   5.504
  530SOL     OW 2488   3.510   3.309   1.761
  530SOL    HW1 2489   3.534   3.404   1.780
  530SOL    HW2 2490   3.593   3.257   1.740
  531SOL     OW 2491   2.533   0.605   2.180
  531SOL    HW1 2492   2.577   0.541   2.244
  531SOL    HW2 2493   2.589   0.615   2.099
  532SOL     OW 2494   2.881   2.736   0.081
  532SOL    HW1 2495   2.853   2.643   0.105
  532SOL    HW2 2496   2.895   2.789   0.165
  533SOL     OW 2497   3.762   0.293   3.698
  533SOL    HW1 2498   3.701   0.290   3.776
  533SOL    HW2 2499   3.837   0.228   3.711
  534SOL     OW 2500   0.917   5.637   0.929
  534SOL    HW1 2501   0.951   5.639   0.835
  534SOL    HW2 2502   0.817   5.637   0.928
  535SOL     OW 2503   5.272   4.012   3.335
  535SOL    HW1 2504   5.262   4.052   3.243
  535SOL    HW2 2505   5.218   3.929   3.341
  536SOL     OW 2506   6.645   6.253   3.187
  536SOL    HW1 2507   6.683   6.309   3.261
  536SOL    HW2 2508   6.617   6.164   3.223
  537SOL     OW 2509   3.201   0.193   3.906
  537SOL    HW1 2510   3.245   0.279   3.878
  537SOL    HW2 2511   3.184   0.195   4.004
  538SOL     OW 2512   2.508   4.932   5.660
  538SOL    HW1 2513   2.598   4.901   5.691
  538SOL    HW2 2514   2.442   4.858   5.669
  539SOL     OW 2515   0.960   5.933   0.458
  539SOL    HW1 2516   0.898   5.901   0.386
  539SOL    HW2 2517   0.992   5.855   0.511
  540SOL     OW 2518   1.522   0.522   3.353
  540SOL    HW1 2519   1.546   0.559   3.443
  540SOL    HW2 2520   1.466   0.440   3.366
  541SOL     OW 2521   4.194   6.558   4.314
  541SOL    HW1 2522   4.270   6.541   4.251
  541SOL    HW2 2523   4.229   6.595   4.400
  542SOL     OW 2524   3.350   6.062   6.388
  542SOL    HW1 2525   3.255   6.060   6.359
  542SOL    HW2 2526   3.401   6.127   6.332
  543SOL     OW 2527   5.879   2.759   4.059
  543SOL    HW1 2528   5.831   2.846   4.056
  543SOL    HW2 2529   5.967   2.770   4.107
  544SOL     OW 2530   0.107   5.011   6.972
  544SOL    HW1 2531   0.033   5.071   6.943
  544SOL    HW2 2532   0.088   4.978   0.043
  545SOL     OW 2533   5.109   1.524   1.170
  545SOL    HW1 2534   5.012   1.522   1.196
  545SOL    HW2 2535   5.117   1.526   1.070
  546SOL     OW 2536   0.493   4.323   2.193
  546SOL    HW1 2537   0.479   4.388   2.268
  546SOL    HW2 2538   0.561   4.255   2.220
  547SOL     OW 2539   3.345   1.181   0.128
  547SOL    HW1 2540   3.265   1.242   0.125
  547SOL    HW2 2541   3.393   1.193   0.215
  548SOL     OW 2542   3.858   2.988   0.247
  548SOL    HW1 2543   3.869   2.950   0.339
  548SOL    HW2 2544   3.761   3.001   0.228
  549SOL     OW 2545   5.764   2.308   0.634
  549SOL    HW1 2546   5.788   2.270   0.545
  549SOL    HW2 2547   5.676   2.354   0.628
  550SOL     OW 2548   0.356   4.245   3.147
  550SOL    HW1 2549   0.302   4.164   3.167
  550SOL    HW2 2550   0.385   4.244   3.052
  551SOL     OW 2551   0.100   1.269   0.243
  551SOL    HW1 2552   0.113   1.176   0.210
  551SOL    HW2 2553   0.186   1.304   0.280
  552SOL     OW 2554   5.675   5.456   5.818
  552SOL    HW1 2555   5.586   5.499   5.834
  552SOL    HW2 2556   5.663   5.358   5.808
  553SOL     OW 2557   3.341   1.004   5.463
  553SOL    HW1 2558   3.255   1.016   5.415
  553SOL    HW2 2559   3.371   1.091   5.502
  554SOL     OW 2560   5.534   5.869   0.761
  554SOL    HW1 2561   5.505   5.964   0.773
  554SOL    HW2 2562   5.466   5.808   0.802
  555SOL     OW 2563   2.797   5.595   5.314
  555SOL    HW1 2564   2.739   5.569   5.391
  555SOL    HW2 2565   2.821   5.513   5.261
  556SOL     OW 2566   4.767   1.694   3.743
  556SOL    HW1 2567   4.829   1.616   3.745
  556SOL    HW2 2568   4.743   1.716   3.648
  557SOL     OW 2569   0.104   4.909   5.713
  557SOL    HW1 2570   0.116   4.880   5.808
  557SOL    HW2 2571   0.014   4.881   5.680
  558SOL     OW 2572   3.959   3.406   2.880
  558SOL    HW1 2573   3.868   3.367   2.893
  558SOL    HW2 2574   4.021   3.371   2.951
  559SOL     OW 2575   6.458   6.098   5.951
  559SOL    HW1 2576   6.362   6.079   5.972
  559SOL    HW2 2577   6.507   6.116   6.036
  560SOL     OW 2578   6.778   2.776   3.355
  560SOL    HW1 2579   6.869   2.782   3.314
  560SOL    HW2 2580   6.731   2.695   3.320
  561SOL     OW 2581   0.151   3.518   6.279
  561SOL    HW1 2582   0.183   3.444   6.221
  561SOL    HW2 2583   0.192   3.604   6.249
  562SOL     OW 2584   4.691   6.488   5.818
  562SOL    HW1 2585   4.751   6.500   5.897
  562SOL    HW2 2586   4.622   6.560   5.818
  563SOL     OW 2587   1.821   1.801   4.526
  563SOL    HW1 2588   1.731   1.759   4.512
  563SOL    HW2 2589   1.874   1.745   4.590
  564SOL     OW 2590   0.356   1.343   6.017
  564SOL    HW1 2591   0.452   1.372   6.025
  564SOL    HW2 2592   0.303   1.416   5.976
  565SOL     OW 2593   3.458   2.872   3.836
  565SOL    HW1 2594   3.428   2.911   3.748
  565SOL    HW2 2595   3.487   2.946   3.897
  566SOL     OW 2596   3.141   5.335   2.753
  566SOL    HW1 2597   3.207   5.341   2.827
  566SOL    HW2 2598   3.142   5.421   2.701
  567SOL     OW 2599   2.641   2.531   0.376
  567SOL    HW1 2600   2.645   2.588   0.458
  567SOL    HW2 2601   2.545   2.510   0.355
  568SOL     OW 2602   5.533   6.835   0.635
  568SOL    HW1 2603   5.551   6.838   0.537
  568SOL    HW2 2604   5.607   6.786   0.681
  569SOL     OW 2605   0.371   1.881   6.868
  569SOL    HW1 2606   0.287   1.927   6.839
  569SOL    HW2 2607   0.369   1.869   6.967
  570SOL     OW 2608   2.610   0.525   5.924
  570SOL    HW1 2609   2.554   0.449   5.891
  570SOL    HW2 2610   2.703   0.492   5.942
  571SOL     OW 2611   2.484   5.055   2.937
  571SOL    HW1 2612   2.530   5.071   3.025
  571SOL    HW2 2613   2.522   4.973   2.894
  572SOL     OW 2614   1.860   6.022   4.417
  572SOL    HW1 2615   1.857   6.112   4.373
  572SOL    HW2 2616   1.932   6.021   4.486
  573SOL     OW 2617   6.318   2.130   5.834
  573SOL    HW1 2618   6.338   2.060   5.766
  573SOL    HW2 2619   6.282   2.087   5.917
  574SOL     OW 2620   3.209   1.674   5.038
  574SOL    HW1 2621   3.174   1.721   5.119
  574SOL    HW2 2622   3.292   1.623   5.062
  575SOL     OW 2623   3.429   3.122   0.807
  575SOL    HW1 2624   3.402   3.211   0.771
  575SOL    HW2 2625   3.416   3.121   0.906
  576SOL     OW 2626   2.228   2.858   2.827
  576SOL    HW1 2627   2.185   2.803   2.899
  576SOL    HW2 2628   2.276   2.797   2.764
  577SOL     OW 2629   0.885   0.846   2.241
  577SOL    HW1 2630   0.957   0.784   2.211
  577SOL    HW2 2631   0.801   0.795   2.256
  578SOL     OW 2632   1.629   5.538   0.292
  578SOL    HW1 2633   1.698   5.586   0.239
  578SOL    HW2 2634   1.552   5.514   0.233
  579SOL     OW 2635   2.848   4.765   2.354
  579SOL    HW1 2636   2.867   4.852   2.400
  579SOL    HW2 2637   2.836   4.781   2.256
  580SOL     OW 2638   4.460   5.298   5.138
  580SOL    HW1 2639   4.531   5.228   5.132
  580SOL    HW2 2640   4.485   5.376   5.080
  581SOL     OW 2641   0.974   2.865   3.298
  581SOL    HW1 2642   0.937   2.943   3.248
  581SOL    HW2 2643   1.001   2.894   3.390
  582SOL     OW 2644   5.379   5.381   3.366
  582SOL    HW1 2645   5.440   5.424   3.433
  582SOL    HW2 2646   5.369   5.441   3.287
  583SOL     OW 2647   2.954   5.359   5.435
  583SOL    HW1 2648   3.024   5.374   5.506
  583SOL    HW2 2649   2.992   5.382   5.346
  584SOL     OW 2650   3.466   0.151   6.052
  584SOL    HW1 2651   3.557   0.165   6.090
  584SOL    HW2 2652   3.472   0.143   5.953
  585SOL     OW 2653   3.209   0.022   1.674
  585SOL    HW1 2654   3.212   6.988   1.592
  585SOL    HW2 2655   3.116   0.024   1.710
  586SOL     OW 2656   4.197   0.430   1.417
  586SOL    HW1 2657   4.274   0.471   1.465
  586SOL    HW2 2658   4.129   0.500   1.396
  587SOL     OW 2659   5.466   1.896   1.748
  587SOL    HW1 2660   5.559   1.871   1.723
  587SOL    HW2 2661   5.468   1.972   1.812
  588SOL     OW 2662   1.443   5.544   0.845
  588SOL    HW1 2663   1.404   5.465   0.798
  588SOL    HW2 2664   1.393   5.561   0.929
  589SOL     OW 2665   3.478   6.109   1.265
  589SOL    HW1 2666   3.383   6.079   1.267
  589SOL    HW2 2667   3.538   6.029   1.272
  590SOL     OW 2668   6.039   1.868   0.818
  590SOL    HW1 2669   5.964   1.895   0.879
  590SOL    HW2 2670   6.037   1.925   0.736
  591SOL     OW 2671   4.107   5.902   4.383
  591SOL    HW1 2672   4.107   5.948   4.472
  591SOL    HW2 2673   4.193   5.853   4.371
  592SOL     OW 2674   4.898   1.037   3.944
  592SOL    HW1 2675   4.994   1.011   3.955
  592SOL    HW2 2676   4.848   1.015   4.028
  593SOL     OW 2677   4.113   2.163   4.937
  593SOL    HW1 2678   4.061   2.183   4.854
  593SOL    HW2 2679   4.121   2.246   4.992
  594SOL     OW 2680   5.903   2.061   1.397
  594SOL    HW1 2681   5.851   2.128   1.449
  594SOL    HW2 2682   5.940   2.103   1.314
  595SOL     OW 2683   5.153   6.795   3.106
  595SOL    HW1 2684   5.220   6.780   3.179
  595SOL    HW2 2685   5.089   6.867   3.133
  596SOL     OW 2686   7.004   4.782   3.860
  596SOL    HW1 2687   0.005   4.746   3.951
  596SOL    HW2 2688   0.011   4.716   3.791
  597SOL     OW 2689   3.113   6.775   5.700
  597SOL    HW1 2690   3.099   6.795   5.603
  597SOL    HW2 2691   3.184   6.834   5.737
  598SOL     OW 2692   2.966   3.834   4.862
  598SOL    HW1 2693   2.908   3.876   4.932
  598SOL    HW2 2694   2.940   3.738   4.851
  599SOL     OW 2695   1.629   6.008   2.043
  599SOL    HW1 2696   1.694   5.998   1.969
  599SOL    HW2 2697   1.538   6.026   2.005
  600SOL     OW 2698   0.385   3.841   5.387
  600SOL    HW1 2699   0.391   3.936   5.356
  600SOL    HW2 2700   0.345   3.785   5.315
  601SOL     OW 2701   1.570   0.634   4.946
  601SOL    HW1 2702   1.554   0.717   4.893
  601SOL    HW2 2703   1.654   0.644   5.000
  602SOL     OW 2704   2.959   7.000   5.109
  602SOL    HW1 2705   2.899   0.000   5.186
  602SOL    HW2 2706   3.050   0.015   5.127
  603SOL     OW 2707   1.563   1.310   5.408
  603SOL    HW1 2708   1.498   1.382   5.382
  603SOL    HW2 2709   1.611   1.338   5.491
  604SOL     OW 2710   0.015   2.216   1.796
  604SOL    HW1 2711   0.041   2.311   1.776
  604SOL    HW2 2712   6.966   2.187   1.731
  605SOL     OW 2713   0.452   4.497   2.429
  605SOL    HW1 2714   0.538   4.505   2.479
  605SOL    HW2 2715   0.376   4.491   2.494
  606SOL     OW 2716   4.334   6.595   5.264
  606SOL    HW1 2717   4.294   6.558   5.347
  606SOL    HW2 2718   4.323   6.530   5.189
  607SOL     OW 2719   1.386   5.373   5.972
  607SOL    HW1 2720   1.439   5.406   6.050
  607SOL    HW2 2721   1.396   5.438   5.896
  608SOL     OW 2722   3.857   6.805   6.884
  608SOL    HW1 2723   3.757   6.808   6.885
  608SOL    HW2 2724   3.889   6.801   6.789
  609SOL     OW 2725   3.913   2.363   1.649
  609SOL    HW1 2726   3.945   2.457   1.633
  609SOL    HW2 2727   3.836   2.366   1.713
  610SOL     OW 2728   4.600   2.349   0.285
  610SOL    HW1 2729   4.580   2.307   0.196
  610SOL    HW2 2730   4.693   2.325   0.314
  611SOL     OW 2731   3.968   6.675   2.445
  611SOL    HW1 2732   3.946   6.596   2.503
  611SOL    HW2 2733   3.943   6.759   2.493
  612SOL     OW 2734   3.188   4.708   5.602
  612SOL    HW1 2735   3.188   4.792   5.548
  612SOL    HW2 2736   3.094   4.680   5.620
  613SOL     OW 2737   5.749   5.711   5.033
  613SOL    HW1 2738   5.662   5.668   5.010
  613SOL    HW2 2739   5.812   5.642   5.069
  614SOL     OW 2740   5.052   5.225   5.263
  614SOL    HW1 2741   4.966   5.271   5.282
  614SOL    HW2 2742   5.091   5.191   5.348
  615SOL     OW 2743   0.033   4.601   0.814
  615SOL    HW1 2744   0.018   4.628   0.719
  615SOL    HW2 2745   0.089   4.519   0.817
  616SOL     OW 2746   6.581   2.954   3.400
  616SOL    HW1 2747   6.591   3.014   3.479
  616SOL    HW2 2748   6.660   2.893   3.393
  617SOL     OW 2749   2.201   5.523   5.858
  617SOL    HW1 2750   2.123   5.573   5.896
  617SOL    HW2 2751   2.286   5.564   5.889
  618SOL     OW 2752   1.824   1.682   1.742
  618SOL    HW1 2753   1.743   1.671   1.685
  618SOL    HW2 2754   1.803   1.742   1.820
  619SOL     OW 2755   1.736   1.781   6.884
  619SOL    HW1 2756   1.719   1.740   6.794
  619SOL    HW2 2757   1.649   1.800   6.929
  620SOL     OW 2758   4.967   2.396   0.548
  620SOL    HW1 2759   5.016   2.414   0.634
  620SOL    HW2 2760   4.881   2.446   0.548
  621SOL     OW 2761   6.143   5.134   6.855
  621SOL    HW1 2762   6.154   5.216   6.798
  621SOL    HW2 2763   6.095   5.157   6.939
  622SOL     OW 2764   1.984   1.073   0.137
  622SOL    HW1 2765   1.982   0.979   0.103
  622SOL    HW2 2766   1.893   1.099   0.169
  623SOL     OW 2767   0.646   5.492   6.097
  623SOL    HW1 2768   0.647   5.504   5.998
  623SOL    HW2 2769   0.597   5.568   6.140
  624SOL     OW 2770   0.388   2.509   2.621
  624SOL    HW1 2771   0.389   2.585   2.686
  624SOL    HW2 2772   0.359   2.426   2.669
  625SOL     OW 2773   3.035   1.669   1.906
  625SOL    HW1 2774   2.956   1.711   1.860
  625SOL    HW2 2775   3.110   1.735   1.909
  626SOL     OW 2776   2.210   5.831   3.489
  626SOL    HW1 2777   2.140   5.902   3.486
  626SOL    HW2 2778   2.190   5.762   3.420
  627SOL     OW 2779   5.553   0.824   0.420
  627SOL    HW1 2780   5.533   0.911   0.465
  627SOL    HW2 2781   5.468   0.782   0.389
  628SOL     OW 2782   4.970   5.373   4.897
  628SOL    HW1 2783   4.942   5.385   4.802
  628SOL    HW2 2784   5.023   5.289   4.906
  629SOL     OW 2785   0.658   0.357   1.343
  629SOL    HW1 2786   0.613   0.269   1.360
  629SOL    HW2 2787   0.656   0.377   1.245
  630SOL     OW 2788   4.932   1.919   1.929
  630SOL    HW1 2789   4.895   1.901   2.020
  630SOL    HW2 2790   5.029   1.898   1.928
  631SOL     OW 2791   2.867   0.606   5.211
  631SOL    HW1 2792   2.929   0.564   5.146
  631SOL    HW2 2793   2.844   0.699   5.180
  632SOL     OW 2794   2.430   1.219   0.248
  632SOL    HW1 2795   2.466   1.141   0.197
  632SOL    HW2 2796   2.341   1.245   0.210
  633SOL     OW 2797   3.070   5.353   0.750
  633SOL    HW1 2798   3.088   5.272   0.807
  633SOL    HW2 2799   3.035   5.324   0.661
  634SOL     OW 2800   4.230   4.930   1.573
  634SOL    HW1 2801   4.327   4.920   1.591
  634SOL    HW2 2802   4.200   5.022   1.598
  635SOL     OW 2803   3.531   0.020   3.318
  635SOL    HW1 2804   3.545   0.111   3.357
  635SOL    HW2 2805   3.441   7.009   3.344
  636SOL     OW 2806   4.759   5.386   6.409
  636SOL    HW1 2807   4.777   5.415   6.503
  636SOL    HW2 2808   4.681   5.438   6.373
  637SOL     OW 2809   4.950   4.992   1.835
  637SOL    HW1 2810   4.884   4.957   1.901
  637SOL    HW2 2811   4.912   4.984   1.743
  638SOL     OW 2812   5.086   1.361   2.031
  638SOL    HW1 2813   5.089   1.427   1.956
  638SOL    HW2 2814   5.169   1.369   2.086
  639SOL     OW 2815   4.854   4.508   1.815
  639SOL    HW1 2816   4.815   4.420   1.841
  639SOL    HW2 2817   4.798   4.582   1.854
  640SOL     OW 2818   2.354   4.107   6.072
  640SOL    HW1 2819   2.289   4.031   6.076
  640SOL    HW2 2820   2.376   4.127   5.977
  641SOL     OW 2821   0.835   5.039   4.603
  641SOL    HW1 2822   0.930   5.042   4.571
  641SOL    HW2 2823   0.773   5.054   4.526
  642SOL     OW 2824   0.320   4.472   5.014
  642SOL    HW1 2825   0.373   4.503   5.092
  642SOL    HW2 2826   0.246   4.536   4.996
  643SOL     OW 2827   6.527   6.028   4.693
  643SOL    HW1 2828   6.537   6.058   4.788
  643SOL    HW2 2829   6.431   6.011   4.673
  644SOL     OW 2830   1.027   5.924   3.345
  644SOL    HW1 2831   0.934   5.942   3.313
  644SOL    HW2 2832   1.088   5.913   3.267
  645SOL     OW 2833   4.512   2.384   4.577
  645SOL    HW1 2834   4.475   2.417   4.490
  645SOL    HW2 2835   4.437   2.369   4.641
  646SOL     OW 2836   1.816   1.630   3.748
  646SOL    HW1 2837   1.864   1.678   3.821
  646SOL    HW2 2838   1.772   1.696   3.688
  647SOL     OW 2839   6.165   3.138   0.099
  647SOL    HW1 2840   6.258   3.130   0.135
  647SOL    HW2 2841   6.154   3.077   0.020
  648SOL     OW 2842   5.828   3.716   2.719
  648SOL    HW1 2843   5.751   3.662   2.753
  648SOL    HW2 2844   5.897   3.655   2.680
  649SOL     OW 2845   3.548   4.282   0.765
  649SOL    HW1 2846   3.477   4.232   0.815
  649SOL    HW2 2847   3.556   4.245   0.672
  650SOL     OW 2848   4.729   4.509   0.581
  650SOL    HW1 2849   4.803   4.551   0.633
  650SOL    HW2 2850   4.714   4.559   0.496
  651SOL     OW 2851   0.663   6.218   0.927
  651SOL    HW1 2852   0.700   6.132   0.893
  651SOL    HW2 2853   0.737   6.282   0.946
  652SOL     OW 2854   4.610   7.016   2.868
  652SOL    HW1 2855   4.662   6.939   2.907
  652SOL    HW2 2856   4.673   0.060   2.827
  653SOL     OW 2857   3.423   5.262   4.367
  653SOL    HW1 2858   3.356   5.269   4.441
  653SOL    HW2 2859   3.409   5.337   4.302
  654SOL     OW 2860   6.924   5.616   6.269
  654SOL    HW1 2861   6.934   5.702   6.319
  654SOL    HW2 2862   6.841   5.618   6.214
  655SOL     OW 2863   0.424   0.189   1.786
  655SOL    HW1 2864   0.521   0.166   1.795
  655SOL    HW2 2865   0.413   0.258   1.715
  656SOL     OW 2866   2.417   5.962   2.135
  656SOL    HW1 2867   2.347   6.032   2.120
  656SOL    HW2 2868   2.484   5.996   2.202
  657SOL     OW 2869   2.709   1.951   0.936
  657SOL    HW1 2870   2.668   2.035   0.901
  657SOL    HW2 2871   2.637   1.889   0.969
  658SOL     OW 2872   3.395   3.811   6.720
  658SOL    HW1 2873   3.319   3.820   6.784
  658SOL    HW2 2874   3.423   3.902   6.689
  659SOL     OW 2875   2.803   6.378   6.222
  659SOL    HW1 2876   2.754   6.311   6.167
  659SOL    HW2 2877   2.841   6.333   6.303
  660SOL     OW 2878   3.744   5.865   1.829
  660SOL    HW1 2879   3.679   5.805   1.875
  660SOL    HW2 2880   3.835   5.853   1.870
  661SOL     OW 2881   4.709   5.985   3.491
  661SOL    HW1 2882   4.767   6.041   3.431
  661SOL    HW2 2883   4.728   6.009   3.587
  662SOL     OW 2884   3.537   1.231   5.552
  662SOL    HW1 2885   3.611   1.188   5.605
  662SOL    HW2 2886   3.541   1.198   5.457
  663SOL     OW 2887   2.034   4.288   4.534
  663SOL    HW1 2888   1.971   4.362   4.556
  663SOL    HW2 2889   2.041   4.226   4.612
  664SOL     OW 2890   0.395   6.277   6.220
  664SOL    HW1 2891   0.389   6.327   6.306
  664SOL    HW2 2892   0.357   6.333   6.146
  665SOL     OW 2893   3.861   5.143   3.585
  665SOL    HW1 2894   3.845   5.217   3.519
  665SOL    HW2 2895   3.949   5.157   3.631
  666SOL     OW 2896   4.239   0.826   2.096
  666SOL    HW1 2897   4.193   0.871   2.172
  666SOL    HW2 2898   4.307   0.888   2.056
  667SOL     OW 2899   0.865   5.034   1.753
  667SOL    HW1 2900   0.920   5.001   1.830
  667SOL    HW2 2901   0.824   5.122   1.776
  668SOL     OW 2902   5.606   5.165   5.939
  668SOL    HW1 2903   5.534   5.155   6.007
  668SOL    HW2 2904   5.695   5.154   5.983
  669SOL     OW 2905   5.620   1.305   3.233
  669SOL    HW1 2906   5.685   1.279   3.163
  669SOL    HW2 2907   5.549   1.235   3.240
  670SOL     OW 2908   2.238   1.629   2.882
  670SOL    HW1 2909   2.260   1.623   2.785
  670SOL    HW2 2910   2.309   1.681   2.929
  671SOL     OW 2911   2.691   6.485   1.598
  671SOL    HW1 2912   2.785   6.497   1.565
  671SOL    HW2 2913   2.684   6.401   1.651
  672SOL     OW 2914   0.305   5.550   1.809
  672SOL    HW1 2915   0.242   5.500   1.749
  672SOL    HW2 2916   0.302   5.511   1.901
  673SOL     OW 2917   5.128   6.917   0.994
  673SOL    HW1 2918   5.115   6.838   0.934
  673SOL    HW2 2919   5.226   6.934   1.006
  674SOL     OW 2920   6.917   2.064   4.841
  674SOL    HW1 2921   6.973   2.134   4.885
  674SOL    HW2 2922   6.877   2.004   4.911
  675SOL     OW 2923   6.189   2.159   1.924
  675SOL    HW1 2924   6.206   2.199   2.015
  675SOL    HW2 2925   6.213   2.062   1.926
  676SOL     OW 2926   2.551   4.875   4.735
  676SOL    HW1 2927   2.478   4.815   4.768
  676SOL    HW2 2928   2.635   4.822   4.722
  677SOL     OW 2929   4.931   0.974   1.535
  677SOL    HW1 2930   5.023   0.952   1.502
  677SOL    HW2 2931   4.901   0.902   1.597
  678SOL     OW 2932   2.755   4.622   5.347
  678SOL    HW1 2933   2.681   4.673   5.303
  678SOL    HW2 2934   2.819   4.590   5.278
  679SOL     OW 2935   5.410   2.018   5.026
  679SOL    HW1 2936   5.336   2.070   4.983
  679SOL    HW2 2937   5.454   1.960   4.957
  680SOL     OW 2938   4.962   6.398   4.450
  680SOL    HW1 2939   4.988   6.425   4.543
  680SOL    HW2 2940   5.028   6.437   4.385
  681SOL     OW 2941   4.802   5.803   2.574
  681SOL    HW1 2942   4.711   5.778   2.606
  681SOL    HW2 2943   4.848   5.721   2.540
  682SOL     OW 2944   6.896   1.245   1.784
  682SOL    HW1 2945   6.899   1.213   1.689
  682SOL    HW2 2946   6.854   1.335   1.788
  683SOL     OW 2947   4.144   3.049   1.298
  683SOL    HW1 2948   4.049   3.051   1.329
  683SOL    HW2 2949   4.200   3.107   1.357
  684SOL     OW 2950   6.106   0.330   0.092
  684SOL    HW1 2951   6.171   0.283   0.151
  684SOL    HW2 2952   6.020   0.344   0.141
  685SOL     OW 2953   2.969   1.093   3.630
  685SOL    HW1 2954   3.059   1.132   3.610
  685SOL    HW2 2955   2.970   0.995   3.610
  686SOL     OW 2956   4.404   1.123   3.828
  686SOL    HW1 2957   4.345   1.042   3.832
  686SOL    HW2 2958   4.452   1.133   3.915
  687SOL     OW 2959   1.171   1.864   4.519
  687SOL    HW1 2960   1.151   1.961   4.534
  687SOL    HW2 2961   1.190   1.819   4.607
  688SOL     OW 2962   0.107   0.705   5.782
  688SOL    HW1 2963   0.158   0.643   5.842
  688SOL    HW2 2964   0.028   0.740   5.830
  689SOL     OW 2965   1.027   4.383   5.725
  689SOL    HW1 2966   0.965   4.399   5.801
  689SOL    HW2 2967   1.053   4.470   5.683
  690SOL     OW 2968   6.714   3.584   3.297
  690SOL    HW1 2969   6.624   3.544   3.316
  690SOL    HW2 2970   6.776   3.566   3.374
  691SOL     OW 2971   4.340   1.716   0.698
  691SOL    HW1 2972   4.286   1.788   0.742
  691SOL    HW2 2973   4.346   1.734   0.600
  692SOL     OW 2974   3.186   1.883   5.246
  692SOL    HW1 2975   3.177   1.982   5.255
  692SOL    HW2 2976   3.283   1.859   5.241
  693SOL     OW 2977   4.546   6.583   3.946
  693SOL    HW1 2978   4.640   6.554   3.935
  693SOL    HW2 2979   4.503   6.594   3.856
  694SOL     OW 2980   3.820   6.164   4.347
  694SOL    HW1 2981   3.760   6.226   4.296
  694SOL    HW2 2982   3.871   6.107   4.283
  695SOL     OW 2983   3.210   5.575   4.523
  695SOL    HW1 2984   3.224   5.578   4.424
  695SOL    HW2 2985   3.234   5.484   4.557
  696SOL     OW 2986   4.812   4.216   3.569
  696SOL    HW1 2987   4.754   4.257   3.639
  696SOL    HW2 2988   4.907   4.217   3.599
  697SOL     OW 2989   0.867   3.785   1.740
  697SOL    HW1 2990   0.869   3.767   1.641
  697SOL    HW2 2991   0.941   3.849   1.763
  698SOL     OW 2992   4.857   6.548   1.710
  698SOL    HW1 2993   4.832   6.458   1.746
  698SOL    HW2 2994   4.955   6.563   1.723
  699SOL     OW 2995   2.129   3.277   6.505
  699SOL    HW1 2996   2.208   3.333   6.532
  699SOL    HW2 2997   2.155   3.221   6.426
  700SOL     OW 2998   3.450   0.118   2.441
  700SOL    HW1 2999   3.373   0.100   2.503
  700SOL    HW2 3000   3.451   0.048   2.370
  701SOL     OW 3001   6.064   4.733   1.040
  701SOL    HW1 3002   6.018   4.745   1.128
  701SOL    HW2 3003   6.140   4.798   1.033
  702SOL     OW 3004   2.472   0.271   4.031
  702SOL    HW1 3005   2.545   0.221   4.077
  702SOL    HW2 3006   2.388   0.265   4.086
  703SOL     OW 3007   3.031   3.356   5.798
  703SOL    HW1 3008   3.051   3.276   5.741
  703SOL    HW2 3009   3.054   3.440   5.749
  704SOL     OW 3010   1.702   2.931   6.136
  704SOL    HW1 3011   1.737   2.855   6.191
  704SOL    HW2 3012   1.777   2.993   6.114
  705SOL     OW 3013   6.960   6.380   3.696
  705SOL    HW1 3014   6.867   6.353   3.671
  705SOL    HW2 3015   7.010   6.301   3.730
  706SOL     OW 3016   4.128   1.335   5.052
  706SOL    HW1 3017   4.212   1.334   4.997
  706SOL    HW2 3018   4.098   1.429   5.066
  707SOL     OW 3019   4.344   5.466   3.292
  707SOL    HW1 3020   4.298   5.513   3.217
  707SOL    HW2 3021   4.311   5.501   3.380
  708SOL     OW 3022   2.439   1.372   3.648
  708SOL    HW1 3023   2.495   1.452   3.668
  708SOL    HW2 3024   2.349   1.382   3.692
  709SOL     OW 3025   1.864   6.681   1.777
  709SOL    HW1 3026   1.909   6.608   1.728
  709SOL    HW2 3027   1.928   6.756   1.794
  710SOL     OW 3028   4.998   2.514   1.816
  710SOL    HW1 3029   4.950   2.490   1.900
  710SOL    HW2 3030   5.088   2.551   1.838
  711SOL     OW 3031   6.667   2.994   5.910
  711SOL    HW1 3032   6.611   3.062   5.863
  711SOL    HW2 3033   6.760   3.029   5.921
  712SOL     OW 3034   4.951   2.834   1.116
  712SOL    HW1 3035   4.999   2.871   1.196
  712SOL    HW2 3036   4.871   2.782   1.147
  713SOL     OW 3037   4.246   2.687   5.365
  713SOL    HW1 3038   4.221   2.783   5.352
  713SOL    HW2 3039   4.216   2.633   5.286
  714SOL     OW 3040   6.132   5.173   3.812
  714SOL    HW1 3041   6.160   5.252   3.867
  714SOL    HW2 3042   6.141   5.195   3.715
  715SOL     OW 3043   6.485   5.028   5.324
  715SOL    HW1 3044   6.455   4.973   5.401
  715SOL    HW2 3045   6.421   5.105   5.311
  716SOL     OW 3046   2.168   0.773   2.894
  716SOL    HW1 3047   2.148   0.782   2.796
  716SOL    HW2 3048   2.118   0.695   2.931
  717SOL     OW 3049   5.733   4.896   4.487
  717SOL    HW1 3050   5.726   4.835   4.567
  717SOL    HW2 3051   5.799   4.969   4.507
  718SOL     OW 3052   4.643   2.641   4.527
  718SOL    HW1 3053   4.619   2.550   4.561
  718SOL    HW2 3054   4.655   2.704   4.604
  719SOL     OW 3055   6.629   0.471   2.228
  719SOL    HW1 3056   6.635   0.396   2.294
  719SOL    HW2 3057   6.646   0.558   2.275
  720SOL     OW 3058   2.476   0.647   5.634
  720SOL    HW1 3059   2.392   0.634   5.687
  720SOL    HW2 3060   2.551   0.669   5.697
  721SOL     OW 3061   0.601   1.738   1.893
  721SOL    HW1 3062   0.565   1.832   1.895
  721SOL    HW2 3063   0.686   1.734   1.946
  722SOL     OW 3064   4.037   0.715   6.222
  722SOL    HW1 3065   4.102   0.756   6.286
  722SOL    HW2 3066   3.950   0.765   6.225
  723SOL     OW 3067   1.952   6.057   3.309
  723SOL    HW1 3068   1.971   5.977   3.253
  723SOL    HW2 3069   1.998   6.137   3.270
  724SOL     OW 3070   6.818   1.074   3.302
  724SOL    HW1 3071   6.737   1.100   3.250
  724SOL    HW2 3072   6.791   1.024   3.384
  725SOL     OW 3073   2.024   4.538   1.963
  725SOL    HW1 3074   2.020   4.454   2.017
  725SOL    HW2 3075   1.955   4.535   1.891
  726SOL     OW 3076   2.469   5.074   0.792
  726SOL    HW1 3077   2.477   4.985   0.837
  726SOL    HW2 3078   2.553   5.092   0.741
  727SOL     OW 3079   4.371   5.553   6.082
  727SOL    HW1 3080   4.336   5.487   6.015
  727SOL    HW2 3081   4.448   5.513   6.131
  728SOL     OW 3082   0.092   3.172   4.377
  728SOL    HW1 3083   0.120   3.264   4.351
  728SOL    HW2 3084   0.078   3.168   4.476
  729SOL     OW 3085   0.276   3.110   1.064
  729SOL    HW1 3086   0.248   3.023   1.103
  729SOL    HW2 3087   0.223   3.184   1.105
  730SOL     OW 3088   5.279   0.447   2.642
  730SOL    HW1 3089   5.214   0.496   2.699
  730SOL    HW2 3090   5.346   0.511   2.605
  731SOL     OW 3091   5.029   4.573   6.347
  731SOL    HW1 3092   5.005   4.579   6.250
  731SOL    HW2 3093   5.046   4.477   6.371
  732SOL     OW 3094   5.438   2.001   2.270
  732SOL    HW1 3095   5.411   1.913   2.230
  732SOL    HW2 3096   5.400   2.010   2.362
  733SOL     OW 3097   5.700   0.135   4.227
  733SOL    HW1 3098   5.673   0.082   4.147
  733SOL    HW2 3099   5.621   0.149   4.286
  734SOL     OW 3100   6.343   4.279   2.489
  734SOL    HW1 3101   6.287   4.322   2.559
  734SOL    HW2 3102   6.285   4.222   2.430
  735SOL     OW 3103   5.748   0.459   1.578
  735SOL    HW1 3104   5.776   0.478   1.672
  735SOL    HW2 3105   5.650   0.439   1.576
  736SOL     OW 3106   1.279   1.345   4.407
  736SOL    HW1 3107   1.186   1.326   4.378
  736SOL    HW2 3108   1.340   1.342   4.327
  737SOL     OW 3109   5.837   1.867   5.566
  737SOL    HW1 3110   5.742   1.882   5.595
  737SOL    HW2 3111   5.851   1.771   5.545
  738SOL     OW 3112   2.867   4.062   1.258
  738SOL    HW1 3113   2.939   4.103   1.202
  738SOL    HW2 3114   2.907   4.024   1.341
  739SOL     OW 3115   3.478   0.319   5.243
  739SOL    HW1 3116   3.468   0.281   5.151
  739SOL    HW2 3117   3.387   0.334   5.282
  740SOL     OW 3118   5.915   2.408   2.786
  740SOL    HW1 3119   5.818   2.390   2.802
  740SOL    HW2 3120   5.970   2.359   2.854
  741SOL     OW 3121   1.780   0.934   4.568
  741SOL    HW1 3122   1.726   0.960   4.648
  741SOL    HW2 3123   1.719   0.919   4.490
  742SOL     OW 3124   2.047   6.061   1.278
  742SOL    HW1 3125   2.010   5.968   1.291
  742SOL    HW2 3126   1.993   6.126   1.332
  743SOL     OW 3127   0.534   6.281   3.643
  743SOL    HW1 3128   0.582   6.368   3.653
  743SOL    HW2 3129   0.450   6.295   3.592
  744SOL     OW 3130   6.789   1.078   0.733
  744SOL    HW1 3131   6.864   1.092   0.669
  744SOL    HW2 3132   6.815   1.109   0.824
  745SOL     OW 3133   2.013   6.157   5.291
  745SOL    HW1 3134   2.071   6.204   5.224
  745SOL    HW2 3135   2.069   6.127   5.369
  746SOL     OW 3136   5.728   3.978   5.126
  746SOL    HW1 3137   5.731   3.945   5.220
  746SOL    HW2 3138   5.636   3.964   5.089
  747SOL     OW 3139   5.341   5.497   3.735
  747SOL    HW1 3140   5.344   5.506   3.834
  747SOL    HW2 3141   5.296   5.411   3.710
  748SOL     OW 3142   5.357   4.899   2.611
  748SOL    HW1 3143   5.345   4.975   2.676
  748SOL    HW2 3144   5.453   4.895   2.582
  749SOL     OW 3145   5.270   3.515   3.472
  749SOL    HW1 3146   5.198   3.466   3.521
  749SOL    HW2 3147   5.270   3.486   3.376
  750SOL     OW 3148   2.955   0.946   1.314
  750SOL    HW1 3149   3.017   1.009   1.361
  750SOL    HW2 3150   2.898   0.899   1.382
  751SOL     OW 3151   5.079   2.487   0.800
  751SOL    HW1 3152   5.050   2.399   0.840
  751SOL    HW2 3153   5.092   2.553   0.874
  752SOL     OW 3154   3.485   2.191   6.103
  752SOL    HW1 3155   3.578   2.165   6.128
  752SOL    HW2 3156   3.488   2.269   6.040
  753SOL     OW 3157   2.737   3.825   5.350
  753SOL    HW1 3158   2.775   3.768   5.424
  753SOL    HW2 3159   2.790   3.812   5.267
  754SOL     OW 3160   5.479   0.964   0.063
  754SOL    HW1 3161   5.570   1.003   0.076
  754SOL    HW2 3162   5.411   1.038   0.060
  755SOL     OW 3163   3.116   4.414   5.310
  755SOL    HW1 3164   3.203   4.457   5.335
  755SOL    HW2 3165   3.059   4.480   5.262
  756SOL     OW 3166   3.171   5.368   6.883
  756SOL    HW1 3167   3.222   5.294   6.841
  756SOL    HW2 3168   3.211   5.391   6.972
  757SOL     OW 3169   1.849   6.886   2.435
  757SOL    HW1 3170   1.778   6.849   2.495
  757SOL    HW2 3171   1.932   6.829   2.443
  758SOL     OW 3172   3.853   1.273   3.872
  758SOL    HW1 3173   3.806   1.303   3.955
  758SOL    HW2 3174   3.887   1.353   3.822
  759SOL     OW 3175   0.405   2.112   3.281
  759SOL    HW1 3176   0.429   2.176   3.353
  759SOL    HW2 3177   0.322   2.143   3.235
  760SOL     OW 3178   6.500   6.836   3.579
  760SOL    HW1 3179   6.480   6.826   3.482
  760SOL    HW2 3180   6.506   6.745   3.621
  761SOL     OW 3181   5.501   4.085   5.633
  761SOL    HW1 3182   5.421   4.121   5.680
  761SOL    HW2 3183   5.577   4.151   5.641
  762SOL     OW 3184   2.803   6.328   5.561
  762SOL    HW1 3185   2.850   6.413   5.539
  762SOL    HW2 3186   2.862   6.271   5.618
  763SOL     OW 3187   5.330   0.459   6.428
  763SOL    HW1 3188   5.361   0.474   6.521
  763SOL    HW2 3189   5.336   0.362   6.406
  764SOL     OW 3190   5.849   1.360   5.715
  764SOL    HW1 3191   5.904   1.296   5.662
  764SOL    HW2 3192   5.752   1.348   5.692
  765SOL     OW 3193   1.494   6.875   0.843
  765SOL    HW1 3194   1.540   6.829   0.767
  765SOL    HW2 3195   1.395   6.876   0.827
  766SOL     OW 3196   2.565   2.127   5.433
  766SOL    HW1 3197   2.599   2.179   5.512
  766SOL    HW2 3198   2.467   2.112   5.443
  767SOL     OW 3199   6.757   6.679   3.362
  767SOL    HW1 3200   6.847   6.688   3.320
  767SOL    HW2 3201   6.757   6.726   3.451
  768SOL     OW 3202   2.237   6.256   2.851
  768SOL    HW1 3203   2.210   6.303   2.935
  768SOL    HW2 3204   2.315   6.196   2.869
  769SOL     OW 3205   3.413   1.636   5.221
  769SOL    HW1 3206   3.484   1.677   5.165
  769SOL    HW2 3207   3.425   1.664   5.316
  770SOL     OW 3208   1.606   4.606   4.336
  770SOL    HW1 3209   1.691   4.553   4.334
  770SOL    HW2 3210   1.584   4.638   4.244
  771SOL     OW 3211   1.192   5.362   3.463
  771SOL    HW1 3212   1.210   5.329   3.371
  771SOL    HW2 3213   1.165   5.285   3.522
  772SOL     OW 3214   5.683   4.975   6.982
  772SOL    HW1 3215   5.649   5.060   0.001
  772SOL    HW2 3216   5.606   4.917   6.956
  773SOL     OW 3217   1.062   3.573   3.103
  773SOL    HW1 3218   0.965   3.585   3.080
  773SOL    HW2 3219   1.111   3.659   3.088
  774SOL     OW 3220   2.242   1.920   3.460
  774SOL    HW1 3221   2.207   1.886   3.373
  774SOL    HW2 3222   2.261   1.843   3.521
  775SOL     OW 3223   2.122   3.301   4.113
  775SOL    HW1 3224   2.140   3.339   4.022
  775SOL    HW2 3225   2.086   3.208   4.103
  776SOL     OW 3226   0.738   6.942   6.279
  776SOL    HW1 3227   0.836   6.954   6.293
  776SOL    HW2 3228   0.695   6.920   6.367
  777SOL     OW 3229   1.510   3.407   0.398
  777SOL    HW1 3230   1.437   3.369   0.340
  777SOL    HW2 3231   1.490   3.389   0.494
  778SOL     OW 3232   2.945   0.006   1.765
  778SOL    HW1 3233   2.893   0.091   1.773
  778SOL    HW2 3234   2.891   6.961   1.715
  779SOL     OW 3235   0.366   2.477   1.644
  779SOL    HW1 3236   0.460   2.463   1.612
  779SOL    HW2 3237   0.350   2.574   1.659
  780SOL     OW 3238   1.487   2.364   4.430
  780SOL    HW1 3239   1.566   2.408   4.473
  780SOL    HW2 3240   1.519   2.299   4.361
  781SOL     OW 3241   6.931   4.443   7.008
  781SOL    HW1 3242   6.833   4.425   7.018
  781SOL    HW2 3243   6.944   4.526   6.953
  782SOL     OW 3244   1.809   4.293   5.756
  782SOL    HW1 3245   1.888   4.342   5.793
  782SOL    HW2 3246   1.841   4.216   5.701
  783SOL     OW 3247   5.535   5.648   6.593
  783SOL    HW1 3248   5.552   5.702   6.676
  783SOL    HW2 3249   5.565   5.554   6.608
  784SOL     OW 3250   2.515   6.040   1.802
  784SOL    HW1 3251   2.444   6.110   1.795
  784SOL    HW2 3252   2.487   5.959   1.750
  785SOL     OW 3253   0.805   0.104   3.890
  785SOL    HW1 3254   0.773   0.188   3.845
  785SOL    HW2 3255   0.830   0.037   3.821
  786SOL     OW 3256   5.891   0.365   3.383
  786SOL    HW1 3257   5.952   0.435   3.348
  786SOL    HW2 3258   5.820   0.345   3.315
  787SOL     OW 3259   2.672   0.919   0.478
  787SOL    HW1 3260   2.637   1.012   0.483
  787SOL    HW2 3261   2.597   0.854   0.485
  788SOL     OW 3262   3.711   2.963   1.591
  788SOL    HW1 3263   3.697   2.875   1.636
  788SOL    HW2 3264   3.626   2.991   1.546
  789SOL     OW 3265   4.532   5.451   1.975
  789SOL    HW1 3266   4.592   5.371   1.976
  789SOL    HW2 3267   4.524   5.488   2.067
  790SOL     OW 3268   0.909   2.581   1.502
  790SOL    HW1 3269   0.990   2.613   1.552
  790SOL    HW2 3270   0.909   2.481   1.499
  791SOL     OW 3271   2.994   5.717   5.454
  791SOL    HW1 3272   2.966   5.812   5.451
  791SOL    HW2 3273   2.926   5.661   5.407
  792SOL     OW 3274   0.272   1.636   0.446
  792SOL    HW1 3275   0.300   1.658   0.539
  792SOL    HW2 3276   0.172   1.636   0.440
  793SOL     OW 3277   4.680   5.768   4.563
  793SOL    HW1 3278   4.634   5.697   4.511
  793SOL    HW2 3279   4.669   5.856   4.517
  794SOL     OW 3280   3.173   3.385   4.191
  794SOL    HW1 3281   3.258   3.383   4.244
  794SOL    HW2 3282   3.160   3.477   4.154
  795SOL     OW 3283   3.789   0.597   5.522
  795SOL    HW1 3284   3.738   0.679   5.548
  795SOL    HW2 3285   3.754   0.518   5.572
  796SOL     OW 3286   1.797   2.719   6.309
  796SOL    HW1 3287   1.877   2.720   6.369
  796SOL    HW2 3288   1.790   2.629   6.265
  797SOL     OW 3289   4.366   0.095   1.389
  797SOL    HW1 3290   4.456   0.111   1.428
  797SOL    HW2 3291   4.362   0.132   1.296
  798SOL     OW 3292   2.457   6.595   1.402
  798SOL    HW1 3293   2.535   6.534   1.415
  798SOL    HW2 3294   2.449   6.656   1.481
  799SOL     OW 3295   0.167   2.336   6.355
  799SOL    HW1 3296   0.235   2.354   6.284
  799SOL    HW2 3297   0.117   2.421   6.375
  800SOL     OW 3298   5.968   1.306   1.885
  800SOL    HW1 3299   5.905   1.372   1.845
  800SOL    HW2 3300   5.937   1.213   1.865
  801SOL     OW 3301   2.147   5.269   5.771
  801SOL    HW1 3302   2.235   5.231   5.744
  801SOL    HW2 3303   2.160   5.360   5.809
  802SOL     OW 3304   5.255   2.433   6.555
  802SOL    HW1 3305   5.200   2.423   6.638
  802SOL    HW2 3306   5.284   2.528   6.544
  803SOL     OW 3307   2.812   0.095   5.969
  803SOL    HW1 3308   2.771   0.056   5.886
  803SOL    HW2 3309   2.754   0.073   6.048
  804SOL     OW 3310   6.116   0.239   1.301
  804SOL    HW1 3311   6.062   0.244   1.385
  804SOL    HW2 3312   6.152   0.146   1.291
  805SOL     OW 3313   2.101   0.501   3.682
  805SOL    HW1 3314   2.175   0.467   3.739
  805SOL    HW2 3315   2.137   0.529   3.593
  806SOL     OW 3316   0.584   0.216   5.866
  806SOL    HW1 3317   0.618   0.239   5.775
  806SOL    HW2 3318   0.653   0.163   5.915
  807SOL     OW 3319   0.672   6.408   4.644
  807SOL    HW1 3320   0.625   6.453   4.568
  807SOL    HW2 3321   0.736   6.473   4.687
  808SOL     OW 3322   5.795   2.808   0.414
  808SOL    HW1 3323   5.784   2.836   0.318
  808SOL    HW2 3324   5.736   2.865   0.471
  809SOL     OW 3325   0.274   5.301   6.704
  809SOL    HW1 3326   0.307   5.284   6.612
  809SOL    HW2 3327   0.298   5.224   6.763
  810SOL     OW 3328   2.560   3.030   0.724
  810SOL    HW1 3329   2.530   2.969   0.650
  810SOL    HW2 3330   2.482   3.083   0.758
  811SOL     OW 3331   5.310   5.151   4.584
  811SOL    HW1 3332   5.300   5.185   4.490
  811SOL    HW2 3333   5.305   5.227   4.648
  812SOL     OW 3334   0.857   1.997   2.270
  812SOL    HW1 3335   0.915   2.026   2.194
  812SOL    HW2 3336   0.894   2.033   2.356
  813SOL     OW 3337   2.294   0.711   4.240
  813SOL    HW1 3338   2.333   0.625   4.209
  813SOL    HW2 3339   2.367   0.778   4.255
  814SOL     OW 3340   6.786   6.001   2.563
  814SOL    HW1 3341   6.723   6.058   2.616
  814SOL    HW2 3342   6.758   6.000   2.468
  815SOL     OW 3343   4.786   2.563   3.337
  815SOL    HW1 3344   4.693   2.538   3.363
  815SOL    HW2 3345   4.818   2.501   3.265
  816SOL     OW 3346   5.001   4.164   0.183
  816SOL    HW1 3347   5.001   4.246   0.239
  816SOL    HW2 3348   5.086   4.160   0.129
  817SOL     OW 3349   1.073   5.420   1.008
  817SOL    HW1 3350   1.158   5.454   1.047
  817SOL    HW2 3351   1.023   5.495   0.964
  818SOL     OW 3352   5.427   2.677   3.465
  818SOL    HW1 3353   5.465   2.590   3.497
  818SOL    HW2 3354   5.478   2.708   3.385
  819SOL     OW 3355   5.972   2.844   1.199
  819SOL    HW1 3356   5.927   2.907   1.262
  819SOL    HW2 3357   5.916   2.761   1.188
  820SOL     OW 3358   2.666   1.857   4.518
  820SOL    HW1 3359   2.704   1.948   4.501
  820SOL    HW2 3360   2.594   1.863   4.587
  821SOL     OW 3361   5.810   4.696   4.650
  821SOL    HW1 3362   5.870   4.680   4.572
  821SOL    HW2 3363   5.863   4.694   4.735
  822SOL     OW 3364   0.717   4.358   3.107
  822SOL    HW1 3365   0.646   4.389   3.170
  822SOL    HW2 3366   0.705   4.260   3.090
  823SOL     OW 3367   0.706   3.602   5.988
  823SOL    HW1 3368   0.767   3.582   5.911
  823SOL    HW2 3369   0.650   3.682   5.966
  824SOL     OW 3370   5.558   1.281   5.255
  824SOL    HW1 3371   5.536   1.245   5.345
  824SOL    HW2 3372   5.555   1.206   5.188
  825SOL     OW 3373   6.267   6.360   1.014
  825SOL    HW1 3374   6.364   6.340   1.013
  825SOL    HW2 3375   6.225   6.317   1.094
  826SOL     OW 3376   3.895   1.843   5.886
  826SOL    HW1 3377   3.951   1.918   5.922
  826SOL    HW2 3378   3.799   1.860   5.909
  827SOL     OW 3379   3.535   4.194   4.624
  827SOL    HW1 3380   3.545   4.292   4.603
  827SOL    HW2 3381   3.452   4.180   4.677
  828SOL     OW 3382   6.396   5.606   4.282
  828SOL    HW1 3383   6.408   5.672   4.208
  828SOL    HW2 3384   6.313   5.553   4.268
  829SOL     OW 3385   3.262   2.932   2.416
  829SOL    HW1 3386   3.229   2.998   2.348
  829SOL    HW2 3387   3.270   2.842   2.373
  830SOL     OW 3388   5.969   4.772   6.633
  830SOL    HW1 3389   6.036   4.846   6.630
  830SOL    HW2 3390   5.925   4.771   6.723
  831SOL     OW 3391   5.662   6.539   1.517
  831SOL    HW1 3392   5.712   6.465   1.562
  831SOL    HW2 3393   5.608   6.502   1.442
  832SOL     OW 3394   3.891   1.653   4.320
  832SOL    HW1 3395   3.949   1.572   4.310
  832SOL    HW2 3396   3.845   1.673   4.233
  833SOL     OW 3397   1.217   3.856   6.461
  833SOL    HW1 3398   1.292   3.790   6.455
  833SOL    HW2 3399   1.233   3.931   6.396
  834SOL     OW 3400   4.684   3.539   6.675
  834SOL    HW1 3401   4.678   3.624   6.727
  834SOL    HW2 3402   4.632   3.550   6.590
  835SOL     OW 3403   1.776   0.662   4.632
  835SOL    HW1 3404   1.804   0.756   4.612
  835SOL    HW2 3405   1.694   0.639   4.580
  836SOL     OW 3406   3.399   1.838   5.793
  836SOL    HW1 3407   3.497   1.826   5.778
  836SOL    HW2 3408   3.350   1.758   5.759
  837SOL     OW 3409   1.550   0.666   1.330
  837SOL    HW1 3410   1.492   0.690   1.409
  837SOL    HW2 3411   1.534   0.731   1.256
  838SOL     OW 3412   2.230   5.454   4.322
  838SOL    HW1 3413   2.219   5.417   4.415
  838SOL    HW2 3414   2.284   5.390   4.267
  839SOL     OW 3415   1.906   1.056   1.301
  839SOL    HW1 3416   1.882   0.963   1.277
  839SOL    HW2 3417   1.941   1.103   1.220
  840SOL     OW 3418   5.987   5.944   0.278
  840SOL    HW1 3419   5.982   5.989   0.189
  840SOL    HW2 3420   6.038   5.858   0.269
  841SOL     OW 3421   4.550   5.529   5.680
  841SOL    HW1 3422   4.566   5.447   5.625
  841SOL    HW2 3423   4.635   5.581   5.689
  842SOL     OW 3424   3.203   0.033   6.935
  842SOL    HW1 3425   3.272   0.074   6.994
  842SOL    HW2 3426   3.121   0.011   6.988
  843SOL     OW 3427   2.303   2.267   1.646
  843SOL    HW1 3428   2.204   2.282   1.654
  843SOL    HW2 3429   2.321   2.169   1.637
  844SOL     OW 3430   0.529   6.225   1.164
  844SOL    HW1 3431   0.576   6.213   1.077
  844SOL    HW2 3432   0.530   6.139   1.215
  845SOL     OW 3433   4.327   2.024   3.040
  845SOL    HW1 3434   4.287   1.969   2.966
  845SOL    HW2 3435   4.268   2.102   3.059
  846SOL     OW 3436   3.280   1.482   5.967
  846SOL    HW1 3437   3.276   1.540   5.886
  846SOL    HW2 3438   3.239   1.529   6.045
  847SOL     OW 3439   2.174   3.189   1.578
  847SOL    HW1 3440   2.150   3.276   1.620
  847SOL    HW2 3441   2.204   3.125   1.648
  848SOL     OW 3442   6.079   6.647   6.270
  848SOL    HW1 3443   6.162   6.605   6.307
  848SOL    HW2 3444   6.058   6.605   6.181
  849SOL     OW 3445   5.715   3.788   0.247
  849SOL    HW1 3446   5.676   3.726   0.179
  849SOL    HW2 3447   5.815   3.785   0.242
  850SOL     OW 3448   6.708   0.255   4.721
  850SOL    HW1 3449   6.662   0.170   4.696
  850SOL    HW2 3450   6.738   0.249   4.817
  851SOL     OW 3451   6.671   3.342   0.367
  851SOL    HW1 3452   6.630   3.340   0.458
  851SOL    HW2 3453   6.601   3.320   0.299
  852SOL     OW 3454   0.049   4.855   0.955
  852SOL    HW1 3455   0.008   4.765   0.937
  852SOL    HW2 3456   0.139   4.842   0.996
  853SOL     OW 3457   2.358   4.247   6.879
  853SOL    HW1 3458   2.261   4.236   6.900
  853SOL    HW2 3459   2.392   4.331   6.920
  854SOL     OW 3460   6.219   6.536   6.895
  854SOL    HW1 3461   6.127   6.531   6.855
  854SOL    HW2 3462   6.230   6.624   6.941
  855SOL     OW 3463   6.776   0.783   0.315
  855SOL    HW1 3464   6.868   0.802   0.352
  855SOL    HW2 3465   6.780   0.784   0.215
  856SOL     OW 3466   1.915   6.986   6.325
  856SOL    HW1 3467   1.992   7.003   6.385
  856SOL    HW2 3468   1.881   6.893   6.338
  857SOL     OW 3469   0.150   4.442   3.138
  857SOL    HW1 3470   0.135   4.540   3.149
  857SOL    HW2 3471   0.249   4.424   3.133
  858SOL     OW 3472   3.039   4.132   1.055
  858SOL    HW1 3473   3.117   4.070   1.058
  858SOL    HW2 3474   2.994   4.125   0.966
  859SOL     OW 3475   4.955   6.114   5.402
  859SOL    HW1 3476   5.016   6.046   5.442
  859SOL    HW2 3477   4.877   6.068   5.360
  860SOL     OW 3478   5.669   3.318   6.496
  860SOL    HW1 3479   5.760   3.358   6.509
  860SOL    HW2 3480   5.599   3.386   6.518
  861SOL     OW 3481   1.526   5.449   2.894
  861SOL    HW1 3482   1.440   5.483   2.933
  861SOL    HW2 3483   1.540   5.490   2.804
  862SOL     OW 3484   1.720   4.805   3.852
  862SOL    HW1 3485   1.734   4.894   3.809
  862SOL    HW2 3486   1.633   4.766   3.820
  863SOL     OW 3487   6.159   0.544   5.964
  863SOL    HW1 3488   6.218   0.585   5.895
  863SOL    HW2 3489   6.130   0.453   5.934
  864SOL     OW 3490   4.803   0.229   5.349
  864SOL    HW1 3491   4.706   0.252   5.357
  864SOL    HW2 3492   4.812   0.140   5.305
  865SOL     OW 3493   2.101   6.728   4.872
  865SOL    HW1 3494   2.121   6.646   4.927
  865SOL    HW2 3495   2.004   6.750   4.880
  866SOL     OW 3496   3.279   6.700   1.042
  866SOL    HW1 3497   3.366   6.739   1.013
  866SOL    HW2 3498   3.218   6.691   0.963
  867SOL     OW 3499   5.888   2.635   0.623
  867SOL    HW1 3500   5.843   2.706   0.568
  867SOL    HW2 3501   5.982   2.663   0.642
  868SOL     OW 3502   0.333   2.272   2.406
  868SOL    HW1 3503   0.334   2.225   2.318
  868SOL    HW2 3504   0.257   2.337   2.408
  869SOL     OW 3505   6.874   3.580   4.064
  869SOL    HW1 3506   6.939   3.512   4.029
  869SOL    HW2 3507   6.907   3.671   4.041
  870SOL     OW 3508   3.779   4.780   1.270
  870SOL    HW1 3509   3.797   4.705   1.334
  870SOL    HW2 3510   3.730   4.745   1.190
  871SOL     OW 3511   4.893   2.136   3.925
  871SOL    HW1 3512   4.925   2.174   4.012
  871SOL    HW2 3513   4.970   2.091   3.879
  872SOL     OW 3514   6.997   1.973   4.604
  872SOL    HW1 3515   6.958   2.010   4.689
  872SOL    HW2 3516   0.073   1.960   4.615
  873SOL     OW 3517   4.595   6.258   5.725
  873SOL    HW1 3518   4.648   6.227   5.646
  873SOL    HW2 3519   4.628   6.348   5.755
  874SOL     OW 3520   6.260   4.098   6.598
  874SOL    HW1 3521   6.207   4.176   6.633
  874SOL    HW2 3522   6.357   4.114   6.615
  875SOL     OW 3523   5.580   5.375   1.330
  875SOL    HW1 3524   5.586   5.419   1.240
  875SOL    HW2 3525   5.484   5.363   1.354
  876SOL     OW 3526   0.584   5.465   1.786
  876SOL    HW1 3527   0.492   5.502   1.799
  876SOL    HW2 3528   0.617   5.490   1.696
  877SOL     OW 3529   2.532   4.434   6.443
  877SOL    HW1 3530   2.484   4.397   6.522
  877SOL    HW2 3531   2.507   4.381   6.362
  878SOL     OW 3532   4.499   6.791   4.224
  878SOL    HW1 3533   4.441   6.825   4.299
  878SOL    HW2 3534   4.451   6.717   4.176
  879SOL     OW 3535   3.978   0.663   1.792
  879SOL    HW1 3536   3.879   0.669   1.803
  879SOL    HW2 3537   4.007   0.722   1.717
  880SOL     OW 3538   3.451   4.024   3.935
  880SOL    HW1 3539   3.492   3.999   4.023
  880SOL    HW2 3540   3.371   4.081   3.952
  881SOL     OW 3541   4.812   3.084   4.726
  881SOL    HW1 3542   4.766   3.101   4.813
  881SOL    HW2 3543   4.880   3.011   4.738
  882SOL     OW 3544   0.947   3.134   4.391
  882SOL    HW1 3545   0.933   3.081   4.308
  882SOL    HW2 3546   0.881   3.209   4.395
  883SOL     OW 3547   3.442   0.765   2.358
  883SOL    HW1 3548   3.402   0.851   2.327
  883SOL    HW2 3549   3.475   0.713   2.279
  884SOL     OW 3550   5.020   3.243   5.866
  884SOL    HW1 3551   5.009   3.194   5.779
  884SOL    HW2 3552   4.974   3.331   5.861
  885SOL     OW 3553   3.793   1.005   5.042
  885SOL    HW1 3554   3.780   0.909   5.067
  885SOL    HW2 3555   3.870   1.013   4.979
  886SOL     OW 3556   3.396   0.510   0.676
  886SOL    HW1 3557   3.489   0.545   0.690
  886SOL    HW2 3558   3.391   0.463   0.588
  887SOL     OW 3559   3.815   6.804   3.811
  887SOL    HW1 3560   3.788   6.866   3.885
  887SOL    HW2 3561   3.834   6.714   3.849
  888SOL     OW 3562   0.465   6.161   3.181
  888SOL    HW1 3563   0.373   6.145   3.148
  888SOL    HW2 3564   0.481   6.260   3.189
  889SOL     OW 3565   0.617   3.766   0.965
  889SOL    HW1 3566   0.584   3.846   0.914
  889SOL    HW2 3567   0.540   3.706   0.986
  890SOL     OW 3568   1.258   5.253   3.211
  890SOL    HW1 3569   1.318   5.175   3.200
  890SOL    HW2 3570   1.218   5.278   3.123
  891SOL     OW 3571   5.247   5.682   0.480
  891SOL    HW1 3572   5.190   5.600   0.471
  891SOL    HW2 3573   5.334   5.658   0.523
  892SOL     OW 3574   2.217   3.804   5.198
  892SOL    HW1 3575   2.274   3.884   5.183
  892SOL    HW2 3576   2.192   3.763   5.110
  893SOL     OW 3577   1.881   6.465   2.554
  893SOL    HW1 3578   1.946   6.540   2.551
  893SOL    HW2 3579   1.805   6.489   2.614
  894SOL     OW 3580   1.064   3.315   1.697
  894SOL    HW1 3581   1.103   3.244   1.754
  894SOL    HW2 3582   0.966   3.321   1.713
  895SOL     OW 3583   0.341   4.527   3.528
  895SOL    HW1 3584   0.331   4.474   3.444
  895SOL    HW2 3585   0.375   4.467   3.601
  896SOL     OW 3586   5.688   4.685   0.422
  896SOL    HW1 3587   5.634   4.735   0.490
  896SOL    HW2 3588   5.690   4.588   0.445
  897SOL     OW 3589   4.738   1.385   6.886
  897SOL    HW1 3590   4.659   1.388   6.824
  897SOL    HW2 3591   4.821   1.367   6.833
  898SOL     OW 3592   3.228   6.184   2.490
  898SOL    HW1 3593   3.243   6.260   2.426
  898SOL    HW2 3594   3.276   6.203   2.576
  899SOL     OW 3595   0.051   6.299   6.616
  899SOL    HW1 3596   0.135   6.246   6.603
  899SOL    HW2 3597   0.001   6.304   6.530
  900SOL     OW 3598   5.808   6.471   0.357
  900SOL    HW1 3599   5.857   6.531   0.421
  900SOL    HW2 3600   5.712   6.465   0.384
  901SOL     OW 3601   2.240   0.529   3.197
  901SOL    HW1 3602   2.297   0.570   3.126
  901SOL    HW2 3603   2.232   0.592   3.274
  902SOL     OW 3604   0.329   2.432   0.471
  902SOL    HW1 3605   0.328   2.531   0.480
  902SOL    HW2 3606   0.270   2.405   0.395
  903SOL     OW 3607   6.753   2.598   6.773
  903SOL    HW1 3608   6.778   2.556   6.861
  903SOL    HW2 3609   6.700   2.533   6.719
  904SOL     OW 3610   2.540   2.262   2.946
  904SOL    HW1 3611   2.492   2.341   2.909
  904SOL    HW2 3612   2.610   2.232   2.881
  905SOL     OW 3613   4.994   1.832   6.908
  905SOL    HW1 3614   4.983   1.929   6.885
  905SOL    HW2 3615   4.938   1.810   6.988
  906SOL     OW 3616   0.160   2.191   5.996
  906SOL    HW1 3617   0.188   2.138   5.916
  906SOL    HW2 3618   0.241   2.218   6.048
  907SOL     OW 3619   5.273   3.803   0.328
  907SOL    HW1 3620   5.183   3.824   0.366
  907SOL    HW2 3621   5.266   3.725   0.266
  908SOL     OW 3622   2.672   4.695   2.558
  908SOL    HW1 3623   2.602   4.639   2.514
  908SOL    HW2 3624   2.757   4.692   2.504
  909SOL     OW 3625   4.350   5.648   0.803
  909SOL    HW1 3626   4.292   5.598   0.868
  909SOL    HW2 3627   4.434   5.596   0.787
  910SOL     OW 3628   2.898   2.342   1.449
  910SOL    HW1 3629   2.802   2.370   1.451
  910SOL    HW2 3630   2.910   2.264   1.511
  911SOL     OW 3631   1.025   5.825   6.595
  911SOL    HW1 3632   1.110   5.824   6.647
  911SOL    HW2 3633   1.046   5.812   6.498
  912SOL     OW 3634   5.685   2.295   2.829
  912SOL    HW1 3635   5.714   2.214   2.779
  912SOL    HW2 3636   5.665   2.270   2.924
  913SOL     OW 3637   4.257   6.648   2.981
  913SOL    HW1 3638   4.356   6.661   2.969
  913SOL    HW2 3639   4.211   6.663   2.894
  914SOL     OW 3640   2.407   0.005   6.449
  914SOL    HW1 3641   2.426   0.068   6.374
  914SOL    HW2 3642   2.492   7.007   6.498
  915SOL     OW 3643   5.900   4.242   6.363
  915SOL    HW1 3644   5.995   4.225   6.338
  915SOL    HW2 3645   5.897   4.313   6.434
  916SOL     OW 3646   1.705   2.333   1.945
  916SOL    HW1 3647   1.774   2.333   2.018
  916SOL    HW2 3648   1.702   2.242   1.903
  917SOL     OW 3649   0.278   6.337   0.382
  917SOL    HW1 3650   0.329   6.338   0.468
  917SOL    HW2 3651   0.183   6.312   0.399
  918SOL     OW 3652   2.777   0.253   0.441
  918SOL    HW1 3653   2.679   0.232   0.443
  918SOL    HW2 3654   2.803   0.296   0.527
  919SOL     OW 3655   5.617   1.502   3.421
  919SOL    HW1 3656   5.603   1.419   3.367
  919SOL    HW2 3657   5.696   1.490   3.481
  920SOL     OW 3658   2.441   4.225   1.633
  920SOL    HW1 3659   2.427   4.132   1.668
  920SOL    HW2 3660   2.419   4.292   1.704
  921SOL     OW 3661   4.949   5.857   4.367
  921SOL    HW1 3662   4.862   5.904   4.353
  921SOL    HW2 3663   4.998   5.850   4.279
  922SOL     OW 3664   3.946   3.871   4.442
  922SOL    HW1 3665   3.952   3.792   4.503
  922SOL    HW2 3666   3.909   3.949   4.492
  923SOL     OW 3667   2.469   2.421   6.437
  923SOL    HW1 3668   2.453   2.496   6.502
  923SOL    HW2 3669   2.402   2.426   6.363
  924SOL     OW 3670   6.062   3.822   1.954
  924SOL    HW1 3671   6.008   3.739   1.966
  924SOL    HW2 3672   6.114   3.841   2.037
  925SOL     OW 3673   6.776   2.482   7.012
  925SOL    HW1 3674   6.814   2.427   0.065
  925SOL    HW2 3675   6.746   2.570   0.026
  926SOL     OW 3676   6.786   1.487   1.170
  926SOL    HW1 3677   6.701   1.512   1.122
  926SOL    HW2 3678   6.859   1.550   1.145
  927SOL     OW 3679   5.873   3.590   3.989
  927SOL    HW1 3680   5.868   3.644   3.905
  927SOL    HW2 3681   5.945   3.521   3.981
  928SOL     OW 3682   2.851   6.221   0.740
  928SOL    HW1 3683   2.847   6.315   0.775
  928SOL    HW2 3684   2.820   6.157   0.810
  929SOL     OW 3685   7.000   0.606   0.020
  929SOL    HW1 3686   6.982   0.523   0.073
  929SOL    HW2 3687   6.915   0.658   0.009
  930SOL     OW 3688   4.346   5.609   6.406
  930SOL    HW1 3689   4.304   5.660   6.482
  930SOL    HW2 3690   4.274   5.567   6.351
  931SOL     OW 3691   6.444   2.240   3.961
  931SOL    HW1 3692   6.512   2.205   4.026
  931SOL    HW2 3693   6.387   2.164   3.929
  932SOL     OW 3694   2.582   1.746   3.324
  932SOL    HW1 3695   2.577   1.846   3.324
  932SOL    HW2 3696   2.658   1.717   3.381
  933SOL     OW 3697   1.288   4.957   2.461
  933SOL    HW1 3698   1.362   4.893   2.482
  933SOL    HW2 3699   1.327   5.041   2.424
  934SOL     OW 3700   2.682   5.935   5.622
  934SOL    HW1 3701   2.724   5.850   5.655
  934SOL    HW2 3702   2.595   5.914   5.577
  935SOL     OW 3703   4.811   3.995   3.835
  935SOL    HW1 3704   4.868   3.918   3.808
  935SOL    HW2 3705   4.757   4.026   3.757
  936SOL     OW 3706   1.710   0.405   6.113
  936SOL    HW1 3707   1.749   0.364   6.196
  936SOL    HW2 3708   1.612   0.417   6.125
  937SOL     OW 3709   4.993   1.529   5.504
  937SOL    HW1 3710   5.064   1.585   5.547
  937SOL    HW2 3711   4.962   1.573   5.421
  938SOL     OW 3712   6.708   5.535   4.064
  938SOL    HW1 3713   6.776   5.602   4.095
  938SOL    HW2 3714   6.667   5.489   4.143
  939SOL     OW 3715   0.549   6.654   4.539
  939SOL    HW1 3716   0.564   6.699   4.452
  939SOL    HW2 3717   0.466   6.598   4.534
  940SOL     OW 3718   1.155   4.280   0.483
  940SOL    HW1 3719   1.221   4.335   0.432
  940SOL    HW2 3720   1.121   4.333   0.561
  941SOL     OW 3721   5.071   0.378   6.959
  941SOL    HW1 3722   4.988   0.434   6.949
  941SOL    HW2 3723   5.084   0.353   0.033
  942SOL     OW 3724   6.567   6.411   1.412
  942SOL    HW1 3725   6.609   6.326   1.380
  942SOL    HW2 3726   6.632   6.486   1.398
  943SOL     OW 3727   2.272   4.919   2.573
  943SOL    HW1 3728   2.282   4.988   2.501
  943SOL    HW2 3729   2.229   4.837   2.534
  944SOL     OW 3730   0.713   5.088   4.377
  944SOL    HW1 3731   0.775   5.147   4.325
  944SOL    HW2 3732   0.628   5.076   4.327
  945SOL     OW 3733   0.912   5.030   5.379
  945SOL    HW1 3734   0.862   5.116   5.366
  945SOL    HW2 3735   0.992   5.047   5.437
  946SOL     OW 3736   4.705   4.744   4.559
  946SOL    HW1 3737   4.764   4.668   4.531
  946SOL    HW2 3738   4.760   4.812   4.608
  947SOL     OW 3739   3.851   3.695   3.317
  947SOL    HW1 3740   3.766   3.650   3.287
  947SOL    HW2 3741   3.843   3.718   3.414
  948SOL     OW 3742   5.252   0.952   2.467
  948SOL    HW1 3743   5.162   0.985   2.495
  948SOL    HW2 3744   5.259   0.854   2.484
  949SOL     OW 3745   3.027   6.566   0.009
  949SOL    HW1 3746   2.933   6.539   7.011
  949SOL    HW2 3747   3.046   6.654   6.987
  950SOL     OW 3748   6.218   5.708   2.177
  950SOL    HW1 3749   6.287   5.664   2.120
  950SOL    HW2 3750   6.129   5.703   2.131
  951SOL     OW 3751   1.133   6.871   3.465
  951SOL    HW1 3752   1.077   6.947   3.432
  951SOL    HW2 3753   1.075   6.795   3.493
  952SOL     OW 3754   4.201   2.159   2.696
  952SOL    HW1 3755   4.251   2.086   2.743
  952SOL    HW2 3756   4.266   2.218   2.648
  953SOL     OW 3757   6.239   5.956   5.042
  953SOL    HW1 3758   6.273   5.897   4.968
  953SOL    HW2 3759   6.205   6.042   5.003
  954SOL     OW 3760   4.480   6.140   2.396
  954SOL    HW1 3761   4.424   6.169   2.319
  954SOL    HW2 3762   4.457   6.194   2.477
  955SOL     OW 3763   1.840   4.094   6.944
  955SOL    HW1 3764   1.766   4.100   6.877
  955SOL    HW2 3765   1.886   4.006   6.935
  956SOL     OW 3766   0.385   1.124   1.116
  956SOL    HW1 3767   0.461   1.187   1.132
  956SOL    HW2 3768   0.395   1.082   1.026
  957SOL     OW 3769   6.163   1.369   2.064
  957SOL    HW1 3770   6.251   1.332   2.032
  957SOL    HW2 3771   6.093   1.351   1.996
  958SOL     OW 3772   5.274   6.350   2.250
  958SOL    HW1 3773   5.212   6.342   2.172
  958SOL    HW2 3774   5.224   6.328   2.334
  959SOL     OW 3775   3.385   6.746   4.429
  959SOL    HW1 3776   3.351   6.702   4.346
  959SOL    HW2 3777   3.484   6.731   4.437
  960SOL     OW 3778   1.056   0.693   1.030
  960SOL    HW1 3779   1.011   0.621   0.976
  960SOL    HW2 3780   1.078   0.770   0.971
  961SOL     OW 3781   3.346   6.508   3.390
  961SOL    HW1 3782   3.390   6.549   3.310
  961SOL    HW2 3783   3.415   6.471   3.451
  962SOL     OW 3784   5.798   0.480   5.043
  962SOL    HW1 3785   5.757   0.389   5.050
  962SOL    HW2 3786   5.882   0.483   5.098
  963SOL     OW 3787   4.348   1.321   1.294
  963SOL    HW1 3788   4.267   1.380   1.297
  963SOL    HW2 3789   4.427   1.371   1.331
  964SOL     OW 3790   4.618   4.623   5.372
  964SOL    HW1 3791   4.603   4.595   5.277
  964SOL    HW2 3792   4.715   4.614   5.395
  965SOL     OW 3793   6.405   2.432   2.580
  965SOL    HW1 3794   6.475   2.362   2.565
  965SOL    HW2 3795   6.320   2.405   2.534
  966SOL     OW 3796   4.751   2.222   3.526
  966SOL    HW1 3797   4.807   2.302   3.547
  966SOL    HW2 3798   4.759   2.155   3.600
  967SOL     OW 3799   3.531   4.667   6.515
  967SOL    HW1 3800   3.619   4.675   6.560
  967SOL    HW2 3801   3.535   4.710   6.425
  968SOL     OW 3802   3.382   0.381   1.581
  968SOL    HW1 3803   3.360   0.478   1.571
  968SOL    HW2 3804   3.480   0.369   1.596
  969SOL     OW 3805   2.786   5.125   5.479
  969SOL    HW1 3806   2.831   5.211   5.455
  969SOL    HW2 3807   2.688   5.135   5.466
  970SOL     OW 3808   6.142   1.354   6.085
  970SOL    HW1 3809   6.123   1.258   6.105
  970SOL    HW2 3810   6.119   1.410   6.165
  971SOL     OW 3811   6.938   3.546   2.564
  971SOL    HW1 3812   6.877   3.601   2.507
  971SOL    HW2 3813   6.926   3.571   2.660
  972SOL     OW 3814   6.513   2.418   0.964
  972SOL    HW1 3815   6.607   2.386   0.972
  972SOL    HW2 3816   6.471   2.423   1.055
  973SOL     OW 3817   0.230   4.008   6.172
  973SOL    HW1 3818   0.167   3.930   6.166
  973SOL    HW2 3819   0.201   4.067   6.248
  974SOL     OW 3820   0.641   4.950   2.678
  974SOL    HW1 3821   0.626   4.852   2.691
  974SOL    HW2 3822   0.716   4.980   2.738
  975SOL     OW 3823   2.601   6.871   1.001
  975SOL    HW1 3824   2.590   6.781   0.960
  975SOL    HW2 3825   2.601   6.863   1.101
  976SOL     OW 3826   6.000   3.965   1.665
  976SOL    HW1 3827   6.034   3.955   1.759
  976SOL    HW2 3828   5.906   3.998   1.667
  977SOL     OW 3829   0.876   1.301   2.031
  977SOL    HW1 3830   0.919   1.264   1.949
  977SOL    HW2 3831   0.878   1.232   2.103
  978SOL     OW 3832   5.696   2.147   0.973
  978SOL    HW1 3833   5.643   2.199   1.040
  978SOL    HW2 3834   5.636   2.115   0.901
  979SOL     OW 3835   6.921   2.942   6.619
  979SOL    HW1 3836   6.839   2.959   6.673
  979SOL    HW2 3837   6.980   3.024   6.621
  980SOL     OW 3838   3.999   1.030   4.864
  980SOL    HW1 3839   4.065   1.013   4.937
  980SOL    HW2 3840   4.016   1.121   4.825
  981SOL     OW 3841   0.002   0.060   4.956
  981SOL    HW1 3842   7.009   0.011   5.042
  981SOL    HW2 3843   0.081   0.121   4.966
  982SOL     OW 3844   0.314   1.659   5.452
  982SOL    HW1 3845   0.272   1.615   5.531
  982SOL    HW2 3846   0.293   1.756   5.453
  983SOL     OW 3847   6.629   3.005   3.146
  983SOL    HW1 3848   6.630   3.105   3.140
  983SOL    HW2 3849   6.596   2.977   3.236
  984SOL     OW 3850   1.689   2.158   2.968
  984SOL    HW1 3851   1.589   2.160   2.973
  984SOL    HW2 3852   1.724   2.251   2.969
  985SOL     OW 3853   5.911   3.860   4.731
  985SOL    HW1 3854   5.923   3.814   4.819
  985SOL    HW2 3855   5.949   3.803   4.659
  986SOL     OW 3856   5.038   4.286   1.465
  986SOL    HW1 3857   5.094   4.234   1.401
  986SOL    HW2 3858   5.089   4.299   1.550
  987SOL     OW 3859   5.537   6.386   3.379
  987SOL    HW1 3860   5.590   6.468   3.356
  987SOL    HW2 3861   5.525   6.331   3.296
  988SOL     OW 3862   3.279   3.804   2.224
  988SOL    HW1 3863   3.272   3.901   2.248
  988SOL    HW2 3864   3.300   3.796   2.126
  989SOL     OW 3865   6.791   2.085   0.374
  989SOL    HW1 3866   6.882   2.094   0.416
  989SOL    HW2 3867   6.782   2.154   0.302
  990SOL     OW 3868   3.072   0.176   2.876
  990SOL    HW1 3869   3.135   0.251   2.858
  990SOL    HW2 3870   3.039   0.181   2.971
  991SOL     OW 3871   6.622   4.509   3.428
  991SOL    HW1 3872   6.555   4.442   3.459
  991SOL    HW2 3873   6.641   4.574   3.502
  992SOL     OW 3874   0.528   2.752   1.444
  992SOL    HW1 3875   0.515   2.724   1.540
  992SOL    HW2 3876   0.489   2.843   1.431
  993SOL     OW 3877   1.194   4.020   1.179
  993SOL    HW1 3878   1.201   3.959   1.100
  993SOL    HW2 3879   1.100   4.018   1.214
  994SOL     OW 3880   4.032   5.759   1.074
  994SOL    HW1 3881   3.948   5.750   1.021
  994SOL    HW2 3882   4.033   5.689   1.146
  995SOL     OW 3883   4.300   3.496   5.501
  995SOL    HW1 3884   4.381   3.499   5.560
  995SOL    HW2 3885   4.328   3.493   5.405
  996SOL     OW 3886   4.343   5.643   5.107
  996SOL    HW1 3887   4.405   5.646   5.185
  996SOL    HW2 3888   4.248   5.652   5.138
  997SOL     OW 3889   1.490   6.963   3.251
  997SOL    HW1 3890   1.467   7.013   3.334
  997SOL    HW2 3891   1.493   0.004   3.173
  998SOL     OW 3892   6.113   0.277   5.875
  998SOL    HW1 3893   6.026   0.232   5.854
  998SOL    HW2 3894   6.185   0.241   5.815
  999SOL     OW 3895   4.719   3.531   1.575
  999SOL    HW1 3896   4.632   3.482   1.586
  999SOL    HW2 3897   4.718   3.613   1.632
 1000SOL     OW 3898   4.157   1.511   1.246
 1000SOL    HW1 3899   4.171   1.608   1.266
 1000SOL    HW2 3900   4.089   1.474   1.309
 1001SOL     OW 3901   2.570   6.108   2.344
 1001SOL    HW1 3902   2.577   6.190   2.288
 1001SOL    HW2 3903   2.534   6.131   2.434
 1002SOL     OW 3904   5.242   2.035   1.634
 1002SOL    HW1 3905   5.314   1.977   1.671
 1002SOL    HW2 3906   5.215   2.103   1.703
 1003SOL     OW 3907   1.577   6.014   2.731
 1003SOL    HW1 3908   1.650   6.004   2.664
 1003SOL    HW2 3909   1.527   6.098   2.713
 1004SOL     OW 3910   6.390   1.532   2.395
 1004SOL    HW1 3911   6.370   1.596   2.468
 1004SOL    HW2 3912   6.319   1.461   2.392
 1005SOL     OW 3913   1.530   4.122   3.671
 1005SOL    HW1 3914   1.523   4.199   3.734
 1005SOL    HW2 3915   1.625   4.094   3.662
 1006SOL     OW 3916   2.345   3.629   0.522
 1006SOL    HW1 3917   2.381   3.623   0.428
 1006SOL    HW2 3918   2.246   3.616   0.520
 1007SOL     OW 3919   4.742   1.338   6.469
 1007SOL    HW1 3920   4.647   1.333   6.437
 1007SOL    HW2 3921   4.754   1.421   6.524
 1008SOL     OW 3922   0.546   3.714   5.571
 1008SOL    HW1 3923   0.480   3.777   5.530
 1008SOL    HW2 3924   0.523   3.620   5.549
 1009SOL     OW 3925   5.963   4.988   5.289
 1009SOL    HW1 3926   6.024   4.913   5.313
 1009SOL    HW2 3927   5.934   4.979   5.194
 1010SOL     OW 3928   2.405   2.317   1.907
 1010SOL    HW1 3929   2.502   2.344   1.906
 1010SOL    HW2 3930   2.370   2.315   1.814
 1011SOL     OW 3931   0.869   5.457   3.027
 1011SOL    HW1 3932   0.840   5.551   3.004
 1011SOL    HW2 3933   0.903   5.455   3.121
 1012SOL     OW 3934   6.818   6.841   2.589
 1012SOL    HW1 3935   6.747   6.858   2.521
 1012SOL    HW2 3936   6.817   6.915   2.657
 1013SOL     OW 3937   6.459   0.899   5.893
 1013SOL    HW1 3938   6.421   0.856   5.974
 1013SOL    HW2 3939   6.415   0.987   5.877
 1014SOL     OW 3940   1.177   4.201   4.514
 1014SOL    HW1 3941   1.205   4.229   4.423
 1014SOL    HW2 3942   1.257   4.168   4.565
 1015SOL     OW 3943   3.197   0.195   6.131
 1015SOL    HW1 3944   3.191   0.183   6.230
 1015SOL    HW2 3945   3.292   0.194   6.103
 1016SOL     OW 3946   4.695   4.282   1.370
 1016SOL    HW1 3947   4.756   4.356   1.398
 1016SOL    HW2 3948   4.660   4.235   1.451
 1017SOL     OW 3949   2.771   1.350   1.797
 1017SOL    HW1 3950   2.783   1.312   1.705
 1017SOL    HW2 3951   2.673   1.355   1.818
 1018SOL     OW 3952   0.148   4.398   3.930
 1018SOL    HW1 3953   0.149   4.386   3.830
 1018SOL    HW2 3954   0.167   4.493   3.952
 1019SOL     OW 3955   6.674   5.306   0.283
 1019SOL    HW1 3956   6.729   5.274   0.360
 1019SOL    HW2 3957   6.730   5.308   0.200
 1020SOL     OW 3958   6.553   0.668   1.111
 1020SOL    HW1 3959   6.457   0.688   1.091
 1020SOL    HW2 3960   6.612   0.724   1.053
 1021SOL     OW 3961   6.208   5.612   2.680
 1021SOL    HW1 3962   6.210   5.665   2.596
 1021SOL    HW2 3963   6.137   5.647   2.741
 1022SOL     OW 3964   2.837   5.882   5.934
 1022SOL    HW1 3965   2.835   5.835   5.846
 1022SOL    HW2 3966   2.833   5.981   5.920
 1023SOL     OW 3967   6.971   0.919   2.531
 1023SOL    HW1 3968   0.043   0.885   2.529
 1023SOL    HW2 3969   6.954   0.975   2.450
 1024SOL     OW 3970   0.807   1.240   4.531
 1024SOL    HW1 3971   0.792   1.336   4.552
 1024SOL    HW2 3972   0.797   1.185   4.615
 1025SOL     OW 3973   4.566   3.075   0.537
 1025SOL    HW1 3974   4.509   3.078   0.620
 1025SOL    HW2 3975   4.507   3.081   0.456
 1026SOL     OW 3976   3.106   2.418   1.683
 1026SOL    HW1 3977   3.074   2.400   1.776
 1026SOL    HW2 3978   3.037   2.386   1.618
 1027SOL     OW 3979   1.378   6.119   1.912
 1027SOL    HW1 3980   1.417   6.185   1.848
 1027SOL    HW2 3981   1.307   6.065   1.865
 1028SOL     OW 3982   1.322   6.495   3.270
 1028SOL    HW1 3983   1.235   6.461   3.236
 1028SOL    HW2 3984   1.322   6.595   3.268
 1029SOL     OW 3985   0.953   1.859   6.124
 1029SOL    HW1 3986   0.928   1.905   6.209
 1029SOL    HW2 3987   1.038   1.808   6.136
 1030SOL     OW 3988   3.240   3.344   1.665
 1030SOL    HW1 3989   3.187   3.269   1.626
 1030SOL    HW2 3990   3.337   3.330   1.646
 1031SOL     OW 3991   3.726   3.130   1.814
 1031SOL    HW1 3992   3.709   3.074   1.895
 1031SOL    HW2 3993   3.725   3.073   1.732
 1032SOL     OW 3994   2.244   0.916   5.054
 1032SOL    HW1 3995   2.161   0.867   5.031
 1032SOL    HW2 3996   2.227   1.015   5.050
 1033SOL     OW 3997   1.770   5.981   2.526
 1033SOL    HW1 3998   1.740   5.961   2.433
 1033SOL    HW2 3999   1.830   6.062   2.525
 1034SOL     OW 4000   2.171   6.353   4.322
 1034SOL    HW1 4001   2.229   6.407   4.383
 1034SOL    HW2 4002   2.148   6.408   4.242
 1035SOL     OW 4003   0.916   2.382   5.942
 1035SOL    HW1 4004   0.816   2.388   5.946
 1035SOL    HW2 4005   0.955   2.474   5.953
 1036SOL     OW 4006   5.277   1.339   1.691
 1036SOL    HW1 4007   5.195   1.390   1.716
 1036SOL    HW2 4008   5.325   1.387   1.617
 1037SOL     OW 4009   1.260   2.111   2.648
 1037SOL    HW1 4010   1.303   2.081   2.563
 1037SOL    HW2 4011   1.299   2.199   2.676
 1038SOL     OW 4012   2.004   1.492   6.520
 1038SOL    HW1 4013   1.930   1.457   6.577
 1038SOL    HW2 4014   2.032   1.582   6.552
 1039SOL     OW 4015   3.146   2.971   3.915
 1039SOL    HW1 4016   3.114   2.923   3.997
 1039SOL    HW2 4017   3.186   2.905   3.852
 1040SOL     OW 4018   5.169   0.708   3.256
 1040SOL    HW1 4019   5.107   0.644   3.302
 1040SOL    HW2 4020   5.154   0.800   3.291
 1041SOL     OW 4021   6.856   6.805   3.879
 1041SOL    HW1 4022   6.955   6.817   3.892
 1041SOL    HW2 4023   6.825   6.728   3.935
 1042SOL     OW 4024   4.799   4.878   2.988
 1042SOL    HW1 4025   4.876   4.833   2.945
 1042SOL    HW2 4026   4.728   4.811   3.010
 1043SOL     OW 4027   3.678   1.820   3.243
 1043SOL    HW1 4028   3.597   1.763   3.258
 1043SOL    HW2 4029   3.651   1.906   3.200
 1044SOL     OW 4030   6.080   5.904   1.156
 1044SOL    HW1 4031   6.005   5.841   1.141
 1044SOL    HW2 4032   6.056   5.967   1.230
 1045SOL     OW 4033   2.688   0.100   3.143
 1045SOL    HW1 4034   2.784   0.125   3.152
 1045SOL    HW2 4035   2.658   0.117   3.050
 1046SOL     OW 4036   2.684   1.298   1.157
 1046SOL    HW1 4037   2.664   1.289   1.255
 1046SOL    HW2 4038   2.639   1.224   1.107
 1047SOL     OW 4039   3.023   6.723   3.940
 1047SOL    HW1 4040   3.067   6.650   3.888
 1047SOL    HW2 4041   2.924   6.708   3.941
 1048SOL     OW 4042   2.757   5.456   2.389
 1048SOL    HW1 4043   2.768   5.434   2.486
 1048SOL    HW2 4044   2.712   5.380   2.342
 1049SOL     OW 4045   4.644   6.942   4.047
 1049SOL    HW1 4046   4.614   6.877   4.117
 1049SOL    HW2 4047   4.587   0.001   4.051
 1050SOL     OW 4048   4.071   5.417   2.985
 1050SOL    HW1 4049   4.017   5.490   3.026
 1050SOL    HW2 4050   4.168   5.437   2.997
 1051SOL     OW 4051   6.945   5.976   0.254
 1051SOL    HW1 4052   6.894   5.987   0.339
 1051SOL    HW2 4053   0.019   5.997   0.270
 1052SOL     OW 4054   4.411   0.444   5.629
 1052SOL    HW1 4055   4.336   0.433   5.564
 1052SOL    HW2 4056   4.377   0.430   5.722
 1053SOL     OW 4057   5.975   3.729   2.314
 1053SOL    HW1 4058   5.971   3.685   2.404
 1053SOL    HW2 4059   5.896   3.789   2.304
 1054SOL     OW 4060   2.940   3.610   0.891
 1054SOL    HW1 4061   3.006   3.558   0.945
 1054SOL    HW2 4062   2.852   3.612   0.938
 1055SOL     OW 4063   5.173   5.884   6.293
 1055SOL    HW1 4064   5.108   5.809   6.304
 1055SOL    HW2 4065   5.251   5.870   6.354
 1056SOL     OW 4066   1.358   3.838   0.249
 1056SOL    HW1 4067   1.321   3.775   0.318
 1056SOL    HW2 4068   1.449   3.809   0.221
 1057SOL     OW 4069   3.564   2.002   1.865
 1057SOL    HW1 4070   3.594   2.020   1.772
 1057SOL    HW2 4071   3.591   2.079   1.924
 1058SOL     OW 4072   4.024   2.222   3.051
 1058SOL    HW1 4073   3.954   2.225   2.980
 1058SOL    HW2 4074   3.981   2.209   3.140
 1059SOL     OW 4075   2.520   6.589   1.963
 1059SOL    HW1 4076   2.438   6.561   2.013
 1059SOL    HW2 4077   2.575   6.508   1.942
 1060SOL     OW 4078   0.232   4.887   4.007
 1060SOL    HW1 4079   0.166   4.919   4.074
 1060SOL    HW2 4080   0.237   4.953   3.932
 1061SOL     OW 4081   6.216   4.055   0.073
 1061SOL    HW1 4082   6.209   4.032   6.998
 1061SOL    HW2 4083   6.312   4.046   0.102
 1062SOL     OW 4084   4.227   6.832   5.527
 1062SOL    HW1 4085   4.300   6.895   5.499
 1062SOL    HW2 4086   4.166   6.816   5.449
 1063SOL     OW 4087   0.529   0.104   6.263
 1063SOL    HW1 4088   0.610   0.047   6.257
 1063SOL    HW2 4089   0.454   0.051   6.304
 1064SOL     OW 4090   0.560   4.315   1.669
 1064SOL    HW1 4091   0.528   4.224   1.646
 1064SOL    HW2 4092   0.560   4.372   1.587
 1065SOL     OW 4093   3.619   1.123   3.642
 1065SOL    HW1 4094   3.695   1.094   3.699
 1065SOL    HW2 4095   3.535   1.126   3.696
 1066SOL     OW 4096   4.886   6.856   1.945
 1066SOL    HW1 4097   4.888   6.891   2.038
 1066SOL    HW2 4098   4.800   6.809   1.928
 1067SOL     OW 4099   2.911   1.034   6.944
 1067SOL    HW1 4100   2.941   1.122   6.907
 1067SOL    HW2 4101   2.956   0.960   6.894
 1068SOL     OW 4102   6.119   3.846   1.357
 1068SOL    HW1 4103   6.158   3.811   1.272
 1068SOL    HW2 4104   6.193   3.866   1.421
 1069SOL     OW 4105   5.766   4.998   0.889
 1069SOL    HW1 4106   5.725   5.002   0.980
 1069SOL    HW2 4107   5.840   4.931   0.888
 1070SOL     OW 4108   2.403   0.232   2.897
 1070SOL    HW1 4109   2.502   0.219   2.889
 1070SOL    HW2 4110   2.358   0.189   2.818
 1071SOL     OW 4111   0.427   2.026   4.752
 1071SOL    HW1 4112   0.432   2.024   4.852
 1071SOL    HW2 4113   0.384   2.111   4.723
 1072SOL     OW 4114   1.853   0.797   1.534
 1072SOL    HW1 4115   1.908   0.718   1.508
 1072SOL    HW2 4116   1.809   0.780   1.622
 1073SOL     OW 4117   6.041   1.896   3.262
 1073SOL    HW1 4118   6.117   1.890   3.198
 1073SOL    HW2 4119   5.957   1.862   3.219
 1074SOL     OW 4120   2.791   5.443   1.563
 1074SOL    HW1 4121   2.762   5.501   1.639
 1074SOL    HW2 4122   2.780   5.492   1.477
 1075SOL     OW 4123   6.140   1.169   4.692
 1075SOL    HW1 4124   6.072   1.233   4.656
 1075SOL    HW2 4125   6.123   1.078   4.653
 1076SOL     OW 4126   1.892   3.742   5.426
 1076SOL    HW1 4127   1.832   3.663   5.441
 1076SOL    HW2 4128   1.852   3.823   5.470
 1077SOL     OW 4129   0.160   6.902   0.087
 1077SOL    HW1 4130   0.167   6.929   7.013
 1077SOL    HW2 4131   0.090   6.832   0.097
 1078SOL     OW 4132   6.604   0.196   3.030
 1078SOL    HW1 4133   6.566   0.197   3.123
 1078SOL    HW2 4134   6.702   0.175   3.035
 1079SOL     OW 4135   1.289   5.511   2.313
 1079SOL    HW1 4136   1.251   5.434   2.262
 1079SOL    HW2 4137   1.389   5.506   2.312
 1080SOL     OW 4138   2.218   5.722   5.131
 1080SOL    HW1 4139   2.316   5.737   5.118
 1080SOL    HW2 4140   2.175   5.703   5.043
 1081SOL     OW 4141   0.236   5.659   4.448
 1081SOL    HW1 4142   0.304   5.648   4.520
 1081SOL    HW2 4143   0.159   5.713   4.482
 1082SOL     OW 4144   6.116   1.506   6.315
 1082SOL    HW1 4145   6.124   1.462   6.405
 1082SOL    HW2 4146   6.020   1.527   6.297
 1083SOL     OW 4147   4.468   4.375   0.310
 1083SOL    HW1 4148   4.478   4.431   0.392
 1083SOL    HW2 4149   4.534   4.300   0.314
 1084SOL     OW 4150   6.311   0.014   6.872
 1084SOL    HW1 4151   6.336   0.091   6.813
 1084SOL    HW2 4152   6.370   0.013   6.953
 1085SOL     OW 4153   2.009   3.608   3.947
 1085SOL    HW1 4154   1.938   3.591   4.014
 1085SOL    HW2 4155   2.044   3.701   3.958
 1086SOL     OW 4156   6.494   4.676   6.186
 1086SOL    HW1 4157   6.475   4.579   6.173
 1086SOL    HW2 4158   6.588   4.688   6.217
 1087SOL     OW 4159   1.405   1.796   5.383
 1087SOL    HW1 4160   1.308   1.790   5.407
 1087SOL    HW2 4161   1.427   1.727   5.314
 1088SOL     OW 4162   0.314   5.161   3.140
 1088SOL    HW1 4163   0.367   5.169   3.224
 1088SOL    HW2 4164   0.221   5.194   3.156
 1089SOL     OW 4165   0.638   5.518   4.916
 1089SOL    HW1 4166   0.644   5.462   4.999
 1089SOL    HW2 4167   0.726   5.563   4.900
 1090SOL     OW 4168   5.525   1.913   3.335
 1090SOL    HW1 4169   5.541   1.840   3.269
 1090SOL    HW2 4170   5.595   1.983   3.326
 1091SOL     OW 4171   1.885   3.349   3.327
 1091SOL    HW1 4172   1.868   3.441   3.362
 1091SOL    HW2 4173   1.980   3.323   3.344
 1092SOL     OW 4174   0.827   4.648   0.913
 1092SOL    HW1 4175   0.905   4.617   0.967
 1092SOL    HW2 4176   0.812   4.745   0.929
 1093SOL     OW 4177   3.028   0.136   1.452
 1093SOL    HW1 4178   3.071   0.226   1.439
 1093SOL    HW2 4179   2.977   0.135   1.538
 1094SOL     OW 4180   0.801   0.028   2.895
 1094SOL    HW1 4181   0.856   0.009   2.977
 1094SOL    HW2 4182   0.709   7.015   2.908
 1095SOL     OW 4183   0.375   2.778   6.453
 1095SOL    HW1 4184   0.413   2.870   6.442
 1095SOL    HW2 4185   0.401   2.722   6.374
 1096SOL     OW 4186   2.726   5.281   0.881
 1096SOL    HW1 4187   2.710   5.239   0.970
 1096SOL    HW2 4188   2.709   5.379   0.887
 1097SOL     OW 4189   2.204   5.577   3.350
 1097SOL    HW1 4190   2.247   5.540   3.268
 1097SOL    HW2 4191   2.115   5.534   3.363
 1098SOL     OW 4192   5.866   4.011   6.633
 1098SOL    HW1 4193   5.814   4.001   6.548
 1098SOL    HW2 4194   5.955   4.053   6.613
 1099SOL     OW 4195   4.799   1.021   6.017
 1099SOL    HW1 4196   4.745   1.088   5.967
 1099SOL    HW2 4197   4.747   0.986   6.094
 1100SOL     OW 4198   3.338   1.489   3.906
 1100SOL    HW1 4199   3.413   1.468   3.968
 1100SOL    HW2 4200   3.253   1.499   3.958
 1101SOL     OW 4201   5.659   3.406   5.323
 1101SOL    HW1 4202   5.579   3.345   5.323
 1101SOL    HW2 4203   5.663   3.456   5.410
 1102SOL     OW 4204   2.533   0.893   4.351
 1102SOL    HW1 4205   2.458   0.934   4.403
 1102SOL    HW2 4206   2.588   0.835   4.412
 1103SOL     OW 4207   3.014   1.722   6.872
 1103SOL    HW1 4208   3.101   1.754   6.834
 1103SOL    HW2 4209   2.992   1.633   6.834
 1104SOL     OW 4210   1.388   3.952   3.268
 1104SOL    HW1 4211   1.373   3.963   3.366
 1104SOL    HW2 4212   1.390   3.855   3.245
 1105SOL     OW 4213   5.100   2.723   4.447
 1105SOL    HW1 4214   5.003   2.710   4.425
 1105SOL    HW2 4215   5.120   2.821   4.451
 1106SOL     OW 4216   0.331   1.293   0.386
 1106SOL    HW1 4217   0.308   1.298   0.483
 1106SOL    HW2 4218   0.429   1.307   0.374
 1107SOL     OW 4219   1.170   0.488   6.737
 1107SOL    HW1 4220   1.112   0.513   6.659
 1107SOL    HW2 4221   1.265   0.510   6.716
 1108SOL     OW 4222   3.618   6.336   4.263
 1108SOL    HW1 4223   3.576   6.295   4.182
 1108SOL    HW2 4224   3.549   6.345   4.335
 1109SOL     OW 4225   6.015   2.026   3.699
 1109SOL    HW1 4226   5.985   1.931   3.683
 1109SOL    HW2 4227   5.937   2.081   3.726
 1110SOL     OW 4228   3.241   1.070   3.027
 1110SOL    HW1 4229   3.242   1.010   3.107
 1110SOL    HW2 4230   3.257   1.016   2.945
 1111SOL     OW 4231   4.888   4.175   6.341
 1111SOL    HW1 4232   4.968   4.187   6.282
 1111SOL    HW2 4233   4.816   4.127   6.291
 1112SOL     OW 4234   6.319   6.996   3.717
 1112SOL    HW1 4235   6.385   6.928   3.687
 1112SOL    HW2 4236   6.278   6.968   3.804
 1113SOL     OW 4237   6.361   3.909   1.842
 1113SOL    HW1 4238   6.281   3.922   1.900
 1113SOL    HW2 4239   6.433   3.973   1.870
 1114SOL     OW 4240   3.910   2.280   5.818
 1114SOL    HW1 4241   4.008   2.288   5.799
 1114SOL    HW2 4242   3.875   2.369   5.849
 1115SOL     OW 4243   4.041   4.456   5.538
 1115SOL    HW1 4244   4.016   4.409   5.454
 1115SOL    HW2 4245   4.141   4.464   5.544
 1116SOL     OW 4246   5.252   0.961   0.338
 1116SOL    HW1 4247   5.184   0.955   0.410
 1116SOL    HW2 4248   5.247   0.880   0.280
 1117SOL     OW 4249   0.891   2.327   1.457
 1117SOL    HW1 4250   0.852   2.236   1.472
 1117SOL    HW2 4251   0.918   2.337   1.362
 1118SOL     OW 4252   2.404   5.845   6.820
 1118SOL    HW1 4253   2.460   5.888   6.750
 1118SOL    HW2 4254   2.333   5.908   6.850
 1119SOL     OW 4255   4.474   4.499   2.458
 1119SOL    HW1 4256   4.381   4.522   2.487
 1119SOL    HW2 4257   4.479   4.500   2.359
 1120SOL     OW 4258   6.325   5.805   1.213
 1120SOL    HW1 4259   6.233   5.841   1.196
 1120SOL    HW2 4260   6.383   5.878   1.249
 1121SOL     OW 4261   0.942   4.945   4.265
 1121SOL    HW1 4262   0.864   5.001   4.291
 1121SOL    HW2 4263   0.952   4.946   4.165
 1122SOL     OW 4264   6.410   2.758   1.840
 1122SOL    HW1 4265   6.468   2.831   1.876
 1122SOL    HW2 4266   6.314   2.786   1.847
 1123SOL     OW 4267   4.428   2.086   3.615
 1123SOL    HW1 4268   4.372   2.003   3.615
 1123SOL    HW2 4269   4.473   2.096   3.526
 1124SOL     OW 4270   1.262   3.346   5.156
 1124SOL    HW1 4271   1.281   3.250   5.135
 1124SOL    HW2 4272   1.286   3.364   5.252
 1125SOL     OW 4273   1.844   3.050   4.621
 1125SOL    HW1 4274   1.750   3.047   4.655
 1125SOL    HW2 4275   1.874   3.146   4.615
 1126SOL     OW 4276   3.872   6.235   5.511
 1126SOL    HW1 4277   3.908   6.304   5.574
 1126SOL    HW2 4278   3.886   6.265   5.417
 1127SOL     OW 4279   6.007   6.622   4.356
 1127SOL    HW1 4280   6.038   6.580   4.441
 1127SOL    HW2 4281   5.973   6.715   4.374
 1128SOL     OW 4282   5.747   1.235   4.706
 1128SOL    HW1 4283   5.649   1.251   4.714
 1128SOL    HW2 4284   5.791   1.249   4.795
 1129SOL     OW 4285   1.917   6.829   0.403
 1129SOL    HW1 4286   1.914   6.926   0.380
 1129SOL    HW2 4287   1.952   6.819   0.496
 1130SOL     OW 4288   1.680   5.075   1.602
 1130SOL    HW1 4289   1.622   5.072   1.521
 1130SOL    HW2 4290   1.660   5.158   1.655
 1131SOL     OW 4291   1.657   0.139   4.727
 1131SOL    HW1 4292   1.620   0.195   4.801
 1131SOL    HW2 4293   1.730   0.189   4.681
 1132SOL     OW 4294   4.820   0.523   2.485
 1132SOL    HW1 4295   4.848   0.572   2.403
 1132SOL    HW2 4296   4.746   0.460   2.464
 1133SOL     OW 4297   1.439   0.352   6.187
 1133SOL    HW1 4298   1.464   0.278   6.249
 1133SOL    HW2 4299   1.340   0.349   6.170
 1134SOL     OW 4300   5.298   6.936   1.843
 1134SOL    HW1 4301   5.215   6.882   1.831
 1134SOL    HW2 4302   5.275   0.011   1.848
 1135SOL     OW 4303   2.380   6.067   3.884
 1135SOL    HW1 4304   2.476   6.053   3.862
 1135SOL    HW2 4305   2.364   6.041   3.979
 1136SOL     OW 4306   3.399   5.544   3.348
 1136SOL    HW1 4307   3.329   5.615   3.338
 1136SOL    HW2 4308   3.457   5.542   3.266
 1137SOL     OW 4309   1.054   5.904   6.899
 1137SOL    HW1 4310   1.035   5.806   6.890
 1137SOL    HW2 4311   0.987   5.955   6.845
 1138SOL     OW 4312   1.754   2.821   5.324
 1138SOL    HW1 4313   1.816   2.893   5.355
 1138SOL    HW2 4314   1.662   2.840   5.357
 1139SOL     OW 4315   2.446   4.822   4.003
 1139SOL    HW1 4316   2.452   4.813   3.904
 1139SOL    HW2 4317   2.420   4.915   4.027
 1140SOL     OW 4318   1.685   0.838   2.136
 1140SOL    HW1 4319   1.723   0.825   2.228
 1140SOL    HW2 4320   1.685   0.935   2.113
 1141SOL     OW 4321   6.039   5.134   6.269
 1141SOL    HW1 4322   6.095   5.076   6.327
 1141SOL    HW2 4323   6.034   5.226   6.309
 1142SOL     OW 4324   2.437   6.938   3.505
 1142SOL    HW1 4325   2.457   6.958   3.409
 1142SOL    HW2 4326   2.521   6.910   3.552
 1143SOL     OW 4327   1.320   2.795   2.293
 1143SOL    HW1 4328   1.381   2.872   2.275
 1143SOL    HW2 4329   1.375   2.712   2.306
 1144SOL     OW 4330   5.469   4.211   2.875
 1144SOL    HW1 4331   5.410   4.154   2.818
 1144SOL    HW2 4332   5.564   4.178   2.867
 1145SOL     OW 4333   0.997   2.683   0.541
 1145SOL    HW1 4334   0.933   2.639   0.604
 1145SOL    HW2 4335   0.960   2.680   0.448
 1146SOL     OW 4336   0.792   2.098   1.278
 1146SOL    HW1 4337   0.811   2.139   1.189
 1146SOL    HW2 4338   0.717   2.148   1.323
 1147SOL     OW 4339   3.129   5.877   0.753
 1147SOL    HW1 4340   3.128   5.845   0.848
 1147SOL    HW2 4341   3.153   5.974   0.751
 1148SOL     OW 4342   3.843   6.425   1.761
 1148SOL    HW1 4343   3.822   6.500   1.699
 1148SOL    HW2 4344   3.804   6.340   1.725
 1149SOL     OW 4345   6.129   3.069   1.689
 1149SOL    HW1 4346   6.165   3.141   1.749
 1149SOL    HW2 4347   6.199   3.043   1.623
 1150SOL     OW 4348   1.232   4.363   6.915
 1150SOL    HW1 4349   1.159   4.302   6.883
 1150SOL    HW2 4350   1.233   4.365   7.015
 1151SOL     OW 4351   6.057   5.085   4.192
 1151SOL    HW1 4352   6.114   5.165   4.176
 1151SOL    HW2 4353   5.988   5.105   4.261
 1152SOL     OW 4354   4.436   6.710   0.316
 1152SOL    HW1 4355   4.522   6.688   0.268
 1152SOL    HW2 4356   4.421   6.809   0.312
 1153SOL     OW 4357   6.970   6.823   1.124
 1153SOL    HW1 4358   6.972   6.830   1.025
 1153SOL    HW2 4359   6.934   6.908   1.163
 1154SOL     OW 4360   0.673   3.917   1.981
 1154SOL    HW1 4361   0.645   3.859   1.905
 1154SOL    HW2 4362   0.773   3.926   1.981
 1155SOL     OW 4363   2.305   6.730   5.234
 1155SOL    HW1 4364   2.388   6.742   5.288
 1155SOL    HW2 4365   2.311   6.782   5.150
 1156SOL     OW 4366   4.441   1.853   5.153
 1156SOL    HW1 4367   4.420   1.755   5.144
 1156SOL    HW2 4368   4.513   1.878   5.088
 1157SOL     OW 4369   5.101   1.211   5.474
 1157SOL    HW1 4370   5.021   1.153   5.460
 1157SOL    HW2 4371   5.114   1.271   5.396
 1158SOL     OW 4372   5.665   6.139   4.323
 1158SOL    HW1 4373   5.763   6.159   4.312
 1158SOL    HW2 4374   5.646   6.117   4.418
 1159SOL     OW 4375   6.151   6.714   3.185
 1159SOL    HW1 4376   6.213   6.668   3.121
 1159SOL    HW2 4377   6.181   6.808   3.198
 1160SOL     OW 4378   4.150   5.971   1.389
 1160SOL    HW1 4379   4.053   5.993   1.374
 1160SOL    HW2 4380   4.198   5.973   1.301
 1161SOL     OW 4381   0.052   5.461   6.060
 1161SOL    HW1 4382   0.023   5.528   6.129
 1161SOL    HW2 4383   0.124   5.502   6.003
 1162SOL     OW 4384   2.157   3.002   5.691
 1162SOL    HW1 4385   2.087   2.930   5.687
 1162SOL    HW2 4386   2.230   2.975   5.753
 1163SOL     OW 4387   5.923   4.755   1.531
 1163SOL    HW1 4388   6.005   4.702   1.506
 1163SOL    HW2 4389   5.867   4.702   1.594
 1164SOL     OW 4390   5.574   2.208   4.664
 1164SOL    HW1 4391   5.508   2.283   4.672
 1164SOL    HW2 4392   5.556   2.141   4.736
 1165SOL     OW 4393   4.487   6.410   3.392
 1165SOL    HW1 4394   4.578   6.445   3.411
 1165SOL    HW2 4395   4.484   6.312   3.412
 1166SOL     OW 4396   1.910   6.442   0.254
 1166SOL    HW1 4397   1.961   6.507   0.198
 1166SOL    HW2 4398   1.872   6.370   0.195
 1167SOL     OW 4399   5.235   4.091   1.675
 1167SOL    HW1 4400   5.252   4.173   1.620
 1167SOL    HW2 4401   5.321   4.060   1.715
 1168SOL     OW 4402   6.178   1.870   1.905
 1168SOL    HW1 4403   6.233   1.876   1.822
 1168SOL    HW2 4404   6.203   1.788   1.957
 1169SOL     OW 4405   5.914   1.582   5.508
 1169SOL    HW1 4406   5.894   1.529   5.590
 1169SOL    HW2 4407   5.884   1.531   5.427
 1170SOL     OW 4408   4.454   0.294   2.638
 1170SOL    HW1 4409   4.387   0.225   2.611
 1170SOL    HW2 4410   4.495   0.335   2.557
 1171SOL     OW 4411   2.526   0.172   0.498
 1171SOL    HW1 4412   2.561   0.120   0.577
 1171SOL    HW2 4413   2.428   0.153   0.487
 1172SOL     OW 4414   5.452   4.081   1.065
 1172SOL    HW1 4415   5.369   4.136   1.055
 1172SOL    HW2 4416   5.428   3.984   1.071
 1173SOL     OW 4417   2.082   1.449   1.419
 1173SOL    HW1 4418   2.074   1.424   1.322
 1173SOL    HW2 4419   2.093   1.366   1.473
 1174SOL     OW 4420   3.571   4.082   1.856
 1174SOL    HW1 4421   3.600   4.085   1.951
 1174SOL    HW2 4422   3.485   4.133   1.845
 1175SOL     OW 4423   4.520   3.454   5.684
 1175SOL    HW1 4424   4.581   3.529   5.709
 1175SOL    HW2 4425   4.571   3.385   5.633
 1176SOL     OW 4426   4.809   3.458   6.253
 1176SOL    HW1 4427   4.808   3.463   6.153
 1176SOL    HW2 4428   4.832   3.364   6.280
 1177SOL     OW 4429   6.771   3.557   5.012
 1177SOL    HW1 4430   6.871   3.551   5.015
 1177SOL    HW2 4431   6.732   3.491   5.077
 1178SOL     OW 4432   2.800   3.167   0.711
 1178SOL    HW1 4433   2.768   3.255   0.677
 1178SOL    HW2 4434   2.722   3.109   0.735
 1179SOL     OW 4435   2.295   6.023   0.428
 1179SOL    HW1 4436   2.247   6.057   0.509
 1179SOL    HW2 4437   2.315   5.926   0.440
 1180SOL     OW 4438   2.662   6.283   3.172
 1180SOL    HW1 4439   2.709   6.320   3.092
 1180SOL    HW2 4440   2.690   6.188   3.186
 1181SOL     OW 4441   0.397   5.315   5.814
 1181SOL    HW1 4442   0.316   5.266   5.847
 1181SOL    HW2 4443   0.382   5.344   5.720
 1182SOL     OW 4444   4.233   5.579   3.515
 1182SOL    HW1 4445   4.248   5.677   3.499
 1182SOL    HW2 4446   4.138   5.564   3.541
 1183SOL     OW 4447   1.884   4.396   0.588
 1183SOL    HW1 4448   1.824   4.328   0.631
 1183SOL    HW2 4449   1.863   4.401   0.491
 1184SOL     OW 4450   0.513   0.314   4.829
 1184SOL    HW1 4451   0.456   0.370   4.890
 1184SOL    HW2 4452   0.603   0.301   4.871
 1185SOL     OW 4453   0.592   1.146   0.087
 1185SOL    HW1 4454   0.548   1.229   0.052
 1185SOL    HW2 4455   0.634   1.096   0.012
 1186SOL     OW 4456   5.087   5.697   5.572
 1186SOL    HW1 4457   5.052   5.604   5.582
 1186SOL    HW2 4458   5.113   5.712   5.476
 1187SOL     OW 4459   6.475   6.429   6.881
 1187SOL    HW1 4460   6.527   6.512   6.863
 1187SOL    HW2 4461   6.395   6.450   6.938
 1188SOL     OW 4462   3.504   6.009   4.934
 1188SOL    HW1 4463   3.590   6.044   4.972
 1188SOL    HW2 4464   3.433   6.079   4.941
 1189SOL     OW 4465   6.561   2.634   2.912
 1189SOL    HW1 4466   6.610   2.720   2.901
 1189SOL    HW2 4467   6.565   2.581   2.827
 1190SOL     OW 4468   2.523   5.755   3.951
 1190SOL    HW1 4469   2.560   5.841   3.917
 1190SOL    HW2 4470   2.465   5.772   4.031
 1191SOL     OW 4471   4.757   5.135   3.840
 1191SOL    HW1 4472   4.792   5.044   3.817
 1191SOL    HW2 4473   4.748   5.189   3.757
 1192SOL     OW 4474   3.810   5.529   3.135
 1192SOL    HW1 4475   3.711   5.530   3.125
 1192SOL    HW2 4476   3.851   5.594   3.071
 1193SOL     OW 4477   6.342   3.707   4.733
 1193SOL    HW1 4478   6.393   3.743   4.811
 1193SOL    HW2 4479   6.271   3.773   4.706
 1194SOL     OW 4480   5.270   6.989   1.503
 1194SOL    HW1 4481   5.333   6.989   1.425
 1194SOL    HW2 4482   5.320   6.967   1.586
 1195SOL     OW 4483   6.483   4.639   1.666
 1195SOL    HW1 4484   6.455   4.564   1.607
 1195SOL    HW2 4485   6.575   4.621   1.702
 1196SOL     OW 4486   7.003   5.713   3.096
 1196SOL    HW1 4487   7.005   5.613   3.092
 1196SOL    HW2 4488   0.050   5.745   3.161
 1197SOL     OW 4489   4.113   0.582   5.673
 1197SOL    HW1 4490   4.130   0.583   5.575
 1197SOL    HW2 4491   4.055   0.504   5.696
 1198SOL     OW 4492   1.506   3.013   1.571
 1198SOL    HW1 4493   1.527   2.948   1.496
 1198SOL    HW2 4494   1.590   3.061   1.596
 1199SOL     OW 4495   4.492   4.741   1.916
 1199SOL    HW1 4496   4.504   4.647   1.886
 1199SOL    HW2 4497   4.415   4.746   1.981
 1200SOL     OW 4498   3.553   3.507   3.512
 1200SOL    HW1 4499   3.615   3.500   3.591
 1200SOL    HW2 4500   3.486   3.433   3.516
 1201SOL     OW 4501   1.237   0.981   4.442
 1201SOL    HW1 4502   1.251   1.071   4.483
 1201SOL    HW2 4503   1.304   0.917   4.478
 1202SOL     OW 4504   1.014   5.720   6.054
 1202SOL    HW1 4505   0.934   5.710   5.995
 1202SOL    HW2 4506   1.093   5.747   5.999
 1203SOL     OW 4507   6.125   6.367   0.106
 1203SOL    HW1 4508   6.147   6.407   0.017
 1203SOL    HW2 4509   6.030   6.389   0.130
 1204SOL     OW 4510   2.862   6.564   1.169
 1204SOL    HW1 4511   2.935   6.629   1.192
 1204SOL    HW2 4512   2.888   6.472   1.197
 1205SOL     OW 4513   5.622   3.733   1.257
 1205SOL    HW1 4514   5.667   3.808   1.210
 1205SOL    HW2 4515   5.691   3.664   1.283
 1206SOL     OW 4516   3.112   2.791   5.377
 1206SOL    HW1 4517   3.128   2.888   5.358
 1206SOL    HW2 4518   3.024   2.781   5.423
 1207SOL     OW 4519   2.016   6.485   1.652
 1207SOL    HW1 4520   2.116   6.484   1.649
 1207SOL    HW2 4521   1.984   6.420   1.721
 1208SOL     OW 4522   3.190   3.634   0.569
 1208SOL    HW1 4523   3.288   3.638   0.583
 1208SOL    HW2 4524   3.166   3.681   0.484
 1209SOL     OW 4525   4.225   0.775   4.781
 1209SOL    HW1 4526   4.211   0.835   4.860
 1209SOL    HW2 4527   4.242   0.830   4.699
 1210SOL     OW 4528   2.823   0.459   3.119
 1210SOL    HW1 4529   2.775   0.539   3.153
 1210SOL    HW2 4530   2.858   0.477   3.027
 1211SOL     OW 4531   1.274   3.666   1.460
 1211SOL    HW1 4532   1.196   3.639   1.402
 1211SOL    HW2 4533   1.291   3.764   1.448
 1212SOL     OW 4534   6.322   0.242   6.680
 1212SOL    HW1 4535   6.275   0.302   6.615
 1212SOL    HW2 4536   6.373   0.297   6.746
 1213SOL     OW 4537   6.261   2.387   0.482
 1213SOL    HW1 4538   6.342   2.413   0.535
 1213SOL    HW2 4539   6.221   2.305   0.521
 1214SOL     OW 4540   0.420   2.946   0.282
 1214SOL    HW1 4541   0.416   3.005   0.363
 1214SOL    HW2 4542   0.513   2.909   0.273
 1215SOL     OW 4543   1.535   3.870   3.751
 1215SOL    HW1 4544   1.529   3.965   3.782
 1215SOL    HW2 4545   1.630   3.848   3.729
 1216SOL     OW 4546   5.086   0.825   1.308
 1216SOL    HW1 4547   4.998   0.864   1.280
 1216SOL    HW2 4548   5.071   0.733   1.344
 1217SOL     OW 4549   1.542   4.719   0.775
 1217SOL    HW1 4550   1.591   4.739   0.859
 1217SOL    HW2 4551   1.607   4.713   0.699
 1218SOL     OW 4552   2.064   4.331   4.154
 1218SOL    HW1 4553   2.086   4.398   4.225
 1218SOL    HW2 4554   2.104   4.361   4.067
 1219SOL     OW 4555   5.441   5.104   2.237
 1219SOL    HW1 4556   5.486   5.138   2.319
 1219SOL    HW2 4557   5.362   5.049   2.262
 1220SOL     OW 4558   0.757   5.024   3.255
 1220SOL    HW1 4559   0.667   5.046   3.293
 1220SOL    HW2 4560   0.781   5.092   3.185
 1221SOL     OW 4561   4.948   3.530   5.762
 1221SOL    HW1 4562   4.890   3.565   5.689
 1221SOL    HW2 4563   5.041   3.567   5.750
 1222SOL     OW 4564   6.455   6.916   6.653
 1222SOL    HW1 4565   6.554   6.904   6.647
 1222SOL    HW2 4566   6.431   6.949   6.745
 1223SOL     OW 4567   3.740   0.632   1.064
 1223SOL    HW1 4568   3.827   0.591   1.091
 1223SOL    HW2 4569   3.752   0.685   0.980
 1224SOL     OW 4570   2.421   6.481   0.573
 1224SOL    HW1 4571   2.359   6.560   0.574
 1224SOL    HW2 4572   2.514   6.512   0.594
 1225SOL     OW 4573   3.584   3.886   6.351
 1225SOL    HW1 4574   3.636   3.959   6.307
 1225SOL    HW2 4575   3.530   3.837   6.282
 1226SOL     OW 4576   2.377   5.335   0.992
 1226SOL    HW1 4577   2.322   5.417   1.009
 1226SOL    HW2 4578   2.473   5.355   1.010
 1227SOL     OW 4579   6.837   3.990   0.064
 1227SOL    HW1 4580   6.923   4.028   0.030
 1227SOL    HW2 4581   6.829   3.895   0.035
 1228SOL     OW 4582   4.301   2.593   6.660
 1228SOL    HW1 4583   4.360   2.513   6.659
 1228SOL    HW2 4584   4.235   2.585   6.736
 1229SOL     OW 4585   3.540   4.757   6.250
 1229SOL    HW1 4586   3.551   4.715   6.160
 1229SOL    HW2 4587   3.581   4.849   6.248
 1230SOL     OW 4588   4.520   6.954   3.593
 1230SOL    HW1 4589   4.461   0.002   3.633
 1230SOL    HW2 4590   4.492   6.937   3.498
 1231SOL     OW 4591   1.316   3.850   4.296
 1231SOL    HW1 4592   1.362   3.804   4.220
 1231SOL    HW2 4593   1.365   3.832   4.381
 1232SOL     OW 4594   0.876   1.983   5.846
 1232SOL    HW1 4595   0.934   1.934   5.911
 1232SOL    HW2 4596   0.916   1.978   5.755
 1233SOL     OW 4597   1.963   3.151   4.356
 1233SOL    HW1 4598   1.935   3.201   4.438
 1233SOL    HW2 4599   2.031   3.082   4.381
 1234SOL     OW 4600   6.572   4.073   4.735
 1234SOL    HW1 4601   6.567   3.979   4.702
 1234SOL    HW2 4602   6.492   4.124   4.703
 1235SOL     OW 4603   0.023   5.969   2.639
 1235SOL    HW1 4604   6.956   5.996   2.605
 1235SOL    HW2 4605   0.028   5.986   2.738
 1236SOL     OW 4606   5.603   1.462   0.172
 1236SOL    HW1 4607   5.531   1.403   0.207
 1236SOL    HW2 4608   5.586   1.484   0.076
 1237SOL     OW 4609   2.688   5.174   6.824
 1237SOL    HW1 4610   2.688   5.134   6.732
 1237SOL    HW2 4611   2.779   5.168   6.863
 1238SOL     OW 4612   1.924   0.880   0.801
 1238SOL    HW1 4613   1.842   0.934   0.782
 1238SOL    HW2 4614   1.937   0.813   0.728
 1239SOL     OW 4615   6.775   6.465   6.420
 1239SOL    HW1 4616   6.786   6.514   6.507
 1239SOL    HW2 4617   6.789   6.530   6.345
 1240SOL     OW 4618   5.790   5.980   2.139
 1240SOL    HW1 4619   5.761   5.885   2.135
 1240SOL    HW2 4620   5.880   5.985   2.183
 1241SOL     OW 4621   6.733   3.419   4.223
 1241SOL    HW1 4622   6.649   3.465   4.251
 1241SOL    HW2 4623   6.790   3.483   4.171
 1242SOL     OW 4624   1.697   3.288   1.126
 1242SOL    HW1 4625   1.601   3.265   1.112
 1242SOL    HW2 4626   1.753   3.240   1.058
 1243SOL     OW 4627   1.205   6.301   5.164
 1243SOL    HW1 4628   1.223   6.381   5.220
 1243SOL    HW2 4629   1.291   6.264   5.129
 1244SOL     OW 4630   0.393   5.897   3.305
 1244SOL    HW1 4631   0.467   5.867   3.367
 1244SOL    HW2 4632   0.410   5.991   3.277
 1245SOL     OW 4633   4.341   3.707   6.501
 1245SOL    HW1 4634   4.412   3.673   6.439
 1245SOL    HW2 4635   4.377   3.784   6.554
 1246SOL     OW 4636   2.211   6.150   2.150
 1246SOL    HW1 4637   2.118   6.149   2.114
 1246SOL    HW2 4638   2.219   6.221   2.220
 1247SOL     OW 4639   2.782   0.292   6.702
 1247SOL    HW1 4640   2.833   0.315   6.619
 1247SOL    HW2 4641   2.703   0.351   6.710
 1248SOL     OW 4642   2.285   6.925   3.957
 1248SOL    HW1 4643   2.383   6.944   3.963
 1248SOL    HW2 4644   2.267   6.867   3.878
 1249SOL     OW 4645   5.727   2.530   2.247
 1249SOL    HW1 4646   5.756   2.571   2.160
 1249SOL    HW2 4647   5.698   2.436   2.231
 1250SOL     OW 4648   0.204   4.699   4.888
 1250SOL    HW1 4649   0.215   4.676   4.791
 1250SOL    HW2 4650   0.177   4.795   4.897
 1251SOL     OW 4651   3.395   0.248   4.421
 1251SOL    HW1 4652   3.382   0.165   4.475
 1251SOL    HW2 4653   3.448   0.226   4.339
 1252SOL     OW 4654   3.461   3.686   6.185
 1252SOL    HW1 4655   3.523   3.622   6.231
 1252SOL    HW2 4656   3.491   3.699   6.090
 1253SOL     OW 4657   4.009   5.696   1.876
 1253SOL    HW1 4658   3.994   5.669   1.781
 1253SOL    HW2 4659   4.020   5.615   1.933
 1254SOL     OW 4660   6.366   3.267   2.742
 1254SOL    HW1 4661   6.433   3.333   2.706
 1254SOL    HW2 4662   6.305   3.238   2.668
 1255SOL     OW 4663   6.894   1.326   4.738
 1255SOL    HW1 4664   6.923   1.409   4.785
 1255SOL    HW2 4665   6.795   1.314   4.751
 1256SOL     OW 4666   6.896   0.188   3.030
 1256SOL    HW1 4667   6.911   0.275   2.982
 1256SOL    HW2 4668   6.969   0.173   3.097
 1257SOL     OW 4669   0.107   0.050   3.678
 1257SOL    HW1 4670   0.138   6.979   3.694
 1257SOL    HW2 4671   0.142   0.110   3.750
 1258SOL     OW 4672   0.550   4.954   3.503
 1258SOL    HW1 4673   0.541   4.964   3.602
 1258SOL    HW2 4674   0.544   4.857   3.479
 1259SOL     OW 4675   3.948   1.959   4.338
 1259SOL    HW1 4676   3.915   1.912   4.420
 1259SOL    HW2 4677   3.900   1.924   4.258
 1260SOL     OW 4678   0.901   1.748   0.187
 1260SOL    HW1 4679   0.968   1.750   0.261
 1260SOL    HW2 4680   0.942   1.708   0.105
 1261SOL     OW 4681   0.244   5.562   6.766
 1261SOL    HW1 4682   0.287   5.583   6.854
 1261SOL    HW2 4683   0.246   5.463   6.751
 1262SOL     OW 4684   5.140   5.313   2.291
 1262SOL    HW1 4685   5.139   5.396   2.235
 1262SOL    HW2 4686   5.069   5.251   2.261
 1263SOL     OW 4687   0.398   1.203   2.551
 1263SOL    HW1 4688   0.353   1.120   2.584
 1263SOL    HW2 4689   0.440   1.251   2.629
 1264SOL     OW 4690   1.226   3.498   6.058
 1264SOL    HW1 4691   1.320   3.528   6.076
 1264SOL    HW2 4692   1.214   3.404   6.092
 1265SOL     OW 4693   6.659   5.570   4.341
 1265SOL    HW1 4694   6.690   5.649   4.395
 1265SOL    HW2 4695   6.560   5.574   4.331
 1266SOL     OW 4696   0.599   0.558   4.664
 1266SOL    HW1 4697   0.614   0.593   4.571
 1266SOL    HW2 4698   0.597   0.458   4.662
 1267SOL     OW 4699   5.075   0.948   2.008
 1267SOL    HW1 4700   5.129   0.945   2.092
 1267SOL    HW2 4701   5.135   0.929   1.930
 1268SOL     OW 4702   3.800   2.544   5.858
 1268SOL    HW1 4703   3.865   2.614   5.829
 1268SOL    HW2 4704   3.707   2.573   5.834
 1269SOL     OW 4705   5.191   2.532   4.289
 1269SOL    HW1 4706   5.166   2.579   4.204
 1269SOL    HW2 4707   5.162   2.587   4.367
 1270SOL     OW 4708   1.717   4.858   2.062
 1270SOL    HW1 4709   1.783   4.802   2.113
 1270SOL    HW2 4710   1.633   4.805   2.048
 1271SOL     OW 4711   1.825   0.777   1.249
 1271SOL    HW1 4712   1.790   0.777   1.343
 1271SOL    HW2 4713   1.775   0.712   1.194
 1272SOL     OW 4714   6.543   3.948   6.289
 1272SOL    HW1 4715   6.622   3.937   6.230
 1272SOL    HW2 4716   6.480   3.871   6.276
 1273SOL     OW 4717   1.428   3.774   4.770
 1273SOL    HW1 4718   1.521   3.790   4.736
 1273SOL    HW2 4719   1.402   3.848   4.832
 1274SOL     OW 4720   0.346   4.691   1.593
 1274SOL    HW1 4721   0.263   4.742   1.567
 1274SOL    HW2 4722   0.424   4.754   1.593
 1275SOL     OW 4723   2.812   0.281   3.406
 1275SOL    HW1 4724   2.766   0.345   3.343
 1275SOL    HW2 4725   2.744   0.217   3.442
 1276SOL     OW 4726   5.509   4.589   4.605
 1276SOL    HW1 4727   5.601   4.628   4.612
 1276SOL    HW2 4728   5.441   4.662   4.603
 1277SOL     OW 4729   1.146   5.382   0.185
 1277SOL    HW1 4730   1.061   5.409   0.140
 1277SOL    HW2 4731   1.158   5.283   0.179
 1278SOL     OW 4732   0.868   6.945   3.678
 1278SOL    HW1 4733   0.874   6.954   3.579
 1278SOL    HW2 4734   0.901   6.855   3.706
 1279SOL     OW 4735   2.234   3.631   6.040
 1279SOL    HW1 4736   2.271   3.631   6.133
 1279SOL    HW2 4737   2.139   3.661   6.043
 1280SOL     OW 4738   3.409   0.594   3.679
 1280SOL    HW1 4739   3.428   0.586   3.581
 1280SOL    HW2 4740   3.493   0.620   3.727
 1281SOL     OW 4741   2.690   6.126   4.128
 1281SOL    HW1 4742   2.630   6.074   4.188
 1281SOL    HW2 4743   2.775   6.074   4.114
 1282SOL     OW 4744   6.925   2.819   0.364
 1282SOL    HW1 4745   6.934   2.837   0.462
 1282SOL    HW2 4746   7.012   2.838   0.318
 1283SOL     OW 4747   6.488   4.180   5.447
 1283SOL    HW1 4748   6.586   4.183   5.429
 1283SOL    HW2 4749   6.445   4.262   5.408
 1284SOL     OW 4750   3.814   0.933   1.305
 1284SOL    HW1 4751   3.781   0.957   1.214
 1284SOL    HW2 4752   3.899   0.981   1.324
 1285SOL     OW 4753   3.768   1.521   5.173
 1285SOL    HW1 4754   3.725   1.436   5.202
 1285SOL    HW2 4755   3.700   1.578   5.127
 1286SOL     OW 4756   4.766   3.065   1.212
 1286SOL    HW1 4757   4.676   3.078   1.171
 1286SOL    HW2 4758   4.823   3.145   1.194
 1287SOL     OW 4759   5.685   4.871   5.247
 1287SOL    HW1 4760   5.736   4.851   5.331
 1287SOL    HW2 4761   5.733   4.831   5.169
 1288SOL     OW 4762   4.696   4.676   6.188
 1288SOL    HW1 4763   4.714   4.767   6.150
 1288SOL    HW2 4764   4.681   4.683   6.286
 1289SOL     OW 4765   6.365   0.676   1.667
 1289SOL    HW1 4766   6.276   0.643   1.637
 1289SOL    HW2 4767   6.437   0.614   1.634
 1290SOL     OW 4768   1.401   0.564   0.402
 1290SOL    HW1 4769   1.345   0.642   0.372
 1290SOL    HW2 4770   1.392   0.553   0.501
 1291SOL     OW 4771   6.345   4.844   4.449
 1291SOL    HW1 4772   6.355   4.871   4.545
 1291SOL    HW2 4773   6.404   4.765   4.431
 1292SOL     OW 4774   7.021   5.551   2.362
 1292SOL    HW1 4775   0.030   5.613   2.435
 1292SOL    HW2 4776   0.043   5.462   2.374
 1293SOL     OW 4777   2.347   1.753   0.112
 1293SOL    HW1 4778   2.409   1.693   0.163
 1293SOL    HW2 4779   2.345   1.725   0.016
 1294SOL     OW 4780   1.778   4.116   6.597
 1294SOL    HW1 4781   1.716   4.138   6.523
 1294SOL    HW2 4782   1.822   4.028   6.580
 1295SOL     OW 4783   0.212   3.975   1.352
 1295SOL    HW1 4784   0.167   3.944   1.436
 1295SOL    HW2 4785   0.214   4.075   1.350
 1296SOL     OW 4786   5.162   0.050   5.544
 1296SOL    HW1 4787   5.187   0.090   5.456
 1296SOL    HW2 4788   5.063   0.055   5.557
 1297SOL     OW 4789   0.945   6.620   1.778
 1297SOL    HW1 4790   0.998   6.536   1.771
 1297SOL    HW2 4791   0.941   6.663   1.688
 1298SOL     OW 4792   5.057   6.232   3.071
 1298SOL    HW1 4793   4.988   6.286   3.021
 1298SOL    HW2 4794   5.135   6.291   3.092
 1299SOL     OW 4795   1.906   2.712   3.919
 1299SOL    HW1 4796   1.935   2.702   3.824
 1299SOL    HW2 4797   1.895   2.622   3.961
 1300SOL     OW 4798   2.054   3.950   1.196
 1300SOL    HW1 4799   2.146   3.987   1.210
 1300SOL    HW2 4800   2.057   3.881   1.124
 1301SOL     OW 4801   0.693   0.183   1.781
 1301SOL    HW1 4802   0.742   0.096   1.785
 1301SOL    HW2 4803   0.715   0.230   1.696
 1302SOL     OW 4804   5.715   0.378   5.488
 1302SOL    HW1 4805   5.801   0.422   5.462
 1302SOL    HW2 4806   5.662   0.440   5.546
 1303SOL     OW 4807   4.165   0.172   1.787
 1303SOL    HW1 4808   4.222   0.229   1.728
 1303SOL    HW2 4809   4.133   0.225   1.865
 1304SOL     OW 4810   1.077   1.310   1.256
 1304SOL    HW1 4811   1.151   1.342   1.197
 1304SOL    HW2 4812   1.075   1.365   1.339
 1305SOL     OW 4813   5.502   4.192   6.142
 1305SOL    HW1 4814   5.537   4.254   6.211
 1305SOL    HW2 4815   5.488   4.241   6.056
 1306SOL     OW 4816   0.692   6.152   4.760
 1306SOL    HW1 4817   0.682   6.185   4.854
 1306SOL    HW2 4818   0.688   6.230   4.697
 1307SOL     OW 4819   1.837   3.178   3.682
 1307SOL    HW1 4820   1.831   3.108   3.611
 1307SOL    HW2 4821   1.792   3.145   3.765
 1308SOL     OW 4822   6.561   6.281   6.357
 1308SOL    HW1 4823   6.596   6.358   6.409
 1308SOL    HW2 4824   6.595   6.286   6.263
 1309SOL     OW 4825   5.118   4.728   5.710
 1309SOL    HW1 4826   5.084   4.820   5.689
 1309SOL    HW2 4827   5.045   4.673   5.749
 1310SOL     OW 4828   0.728   4.168   4.143
 1310SOL    HW1 4829   0.823   4.153   4.168
 1310SOL    HW2 4830   0.698   4.257   4.177
 1311SOL     OW 4831   6.350   5.670   6.383
 1311SOL    HW1 4832   6.320   5.602   6.317
 1311SOL    HW2 4833   6.390   5.749   6.335
 1312SOL     OW 4834   1.319   0.931   5.905
 1312SOL    HW1 4835   1.336   0.953   5.809
 1312SOL    HW2 4836   1.400   0.953   5.959
 1313SOL     OW 4837   6.390   5.514   2.911
 1313SOL    HW1 4838   6.377   5.555   2.821
 1313SOL    HW2 4839   6.481   5.539   2.946
 1314SOL     OW 4840   2.967   1.794   4.655
 1314SOL    HW1 4841   3.058   1.771   4.690
 1314SOL    HW2 4842   2.898   1.768   4.723
 1315SOL     OW 4843   6.506   0.758   3.970
 1315SOL    HW1 4844   6.600   0.784   3.991
 1315SOL    HW2 4845   6.504   0.664   3.937
 1316SOL     OW 4846   3.737   0.301   5.301
 1316SOL    HW1 4847   3.804   0.287   5.228
 1316SOL    HW2 4848   3.647   0.317   5.261
 1317SOL     OW 4849   2.018   4.522   5.464
 1317SOL    HW1 4850   2.108   4.563   5.448
 1317SOL    HW2 4851   2.006   4.443   5.405
 1318SOL     OW 4852   2.146   3.129   0.155
 1318SOL    HW1 4853   2.223   3.184   0.123
 1318SOL    HW2 4854   2.136   3.049   0.097
 1319SOL     OW 4855   0.068   6.151   6.896
 1319SOL    HW1 4856   7.010   6.169   6.837
 1319SOL    HW2 4857   0.042   6.162   6.992
 1320SOL     OW 4858   3.234   2.931   6.520
 1320SOL    HW1 4859   3.212   2.835   6.504
 1320SOL    HW2 4860   3.181   2.965   6.597
 1321SOL     OW 4861   4.920   2.351   6.627
 1321SOL    HW1 4862   4.900   2.260   6.589
 1321SOL    HW2 4863   4.905   2.420   6.556
 1322SOL     OW 4864   3.661   1.360   4.806
 1322SOL    HW1 4865   3.679   1.275   4.758
 1322SOL    HW2 4866   3.692   1.438   4.750
 1323SOL     OW 4867   3.585   6.683   0.866
 1323SOL    HW1 4868   3.534   6.606   0.828
 1323SOL    HW2 4869   3.652   6.649   0.932
 1324SOL     OW 4870   1.353   3.642   0.471
 1324SOL    HW1 4871   1.427   3.584   0.436
 1324SOL    HW2 4872   1.274   3.586   0.493
 1325SOL     OW 4873   3.945   6.592   5.440
 1325SOL    HW1 4874   3.883   6.565   5.366
 1325SOL    HW2 4875   3.990   6.678   5.415
 1326SOL     OW 4876   4.702   4.219   5.057
 1326SOL    HW1 4877   4.720   4.223   4.958
 1326SOL    HW2 4878   4.769   4.158   5.100
 1327SOL     OW 4879   0.360   6.730   1.133
 1327SOL    HW1 4880   0.313   6.773   1.210
 1327SOL    HW2 4881   0.344   6.632   1.135
 1328SOL     OW 4882   1.937   3.274   5.889
 1328SOL    HW1 4883   2.034   3.296   5.900
 1328SOL    HW2 4884   1.888   3.356   5.857
 1329SOL     OW 4885   6.919   1.615   2.704
 1329SOL    HW1 4886   6.930   1.673   2.623
 1329SOL    HW2 4887   6.991   1.545   2.704
 1330SOL     OW 4888   0.542   2.269   0.876
 1330SOL    HW1 4889   0.544   2.290   0.779
 1330SOL    HW2 4890   0.592   2.338   0.927
 1331SOL     OW 4891   4.640   2.405   2.509
 1331SOL    HW1 4892   4.662   2.498   2.538
 1331SOL    HW2 4893   4.662   2.394   2.412
 1332SOL     OW 4894   2.268   6.963   0.478
 1332SOL    HW1 4895   2.312   6.904   0.410
 1332SOL    HW2 4896   2.316   6.955   0.565
 1333SOL     OW 4897   3.114   3.938   2.851
 1333SOL    HW1 4898   3.192   3.935   2.789
 1333SOL    HW2 4899   3.125   4.014   2.915
 1334SOL     OW 4900   6.892   2.075   3.412
 1334SOL    HW1 4901   6.934   2.073   3.503
 1334SOL    HW2 4902   6.874   2.169   3.386
 1335SOL     OW 4903   1.875   2.431   2.215
 1335SOL    HW1 4904   1.855   2.523   2.247
 1335SOL    HW2 4905   1.824   2.365   2.270
 1336SOL     OW 4906   4.004   1.473   5.585
 1336SOL    HW1 4907   3.911   1.440   5.572
 1336SOL    HW2 4908   4.029   1.536   5.512
 1337SOL     OW 4909   6.751   1.413   2.511
 1337SOL    HW1 4910   6.765   1.469   2.429
 1337SOL    HW2 4911   6.839   1.399   2.557
 1338SOL     OW 4912   6.061   4.228   4.253
 1338SOL    HW1 4913   5.972   4.222   4.298
 1338SOL    HW2 4914   6.102   4.136   4.249
 1339SOL     OW 4915   6.973   0.413   0.194
 1339SOL    HW1 4916   0.001   0.337   0.151
 1339SOL    HW2 4917   6.937   0.383   0.282
 1340SOL     OW 4918   5.095   1.957   2.489
 1340SOL    HW1 4919   5.036   2.017   2.542
 1340SOL    HW2 4920   5.102   1.991   2.395
 1341SOL     OW 4921   4.375   6.536   0.566
 1341SOL    HW1 4922   4.457   6.592   0.576
 1341SOL    HW2 4923   4.321   6.568   0.488
 1342SOL     OW 4924   3.055   5.443   6.640
 1342SOL    HW1 4925   3.094   5.447   6.732
 1342SOL    HW2 4926   2.957   5.422   6.646
 1343SOL     OW 4927   6.029   5.397   3.145
 1343SOL    HW1 4928   6.113   5.370   3.096
 1343SOL    HW2 4929   6.003   5.324   3.208
 1344SOL     OW 4930   0.761   6.449   4.213
 1344SOL    HW1 4931   0.812   6.364   4.199
 1344SOL    HW2 4932   0.681   6.431   4.270
 1345SOL     OW 4933   0.992   4.598   2.038
 1345SOL    HW1 4934   0.952   4.530   2.099
 1345SOL    HW2 4935   0.998   4.561   1.946
 1346SOL     OW 4936   1.885   5.403   6.234
 1346SOL    HW1 4937   1.857   5.328   6.293
 1346SOL    HW2 4938   1.958   5.455   6.278
 1347SOL     OW 4939   2.447   0.240   6.285
 1347SOL    HW1 4940   2.365   0.290   6.313
 1347SOL    HW2 4941   2.526   0.275   6.336
 1348SOL     OW 4942   0.464   6.012   5.412
 1348SOL    HW1 4943   0.561   6.011   5.387
 1348SOL    HW2 4944   0.450   6.074   5.490
 1349SOL     OW 4945   5.527   2.371   3.980
 1349SOL    HW1 4946   5.621   2.338   3.991
 1349SOL    HW2 4947   5.465   2.293   3.973
 1350SOL     OW 4948   3.971   4.513   0.280
 1350SOL    HW1 4949   3.919   4.558   0.208
 1350SOL    HW2 4950   4.056   4.476   0.242
 1351SOL     OW 4951   5.841   2.216   3.822
 1351SOL    HW1 4952   5.835   2.211   3.922
 1351SOL    HW2 4953   5.915   2.278   3.796
 1352SOL     OW 4954   6.928   6.601   2.652
 1352SOL    HW1 4955   6.897   6.696   2.645
 1352SOL    HW2 4956   6.919   6.570   2.746
 1353SOL     OW 4957   0.960   1.904   0.448
 1353SOL    HW1 4958   0.899   1.892   0.525
 1353SOL    HW2 4959   0.960   2.000   0.419
 1354SOL     OW 4960   6.821   3.674   2.337
 1354SOL    HW1 4961   6.865   3.764   2.338
 1354SOL    HW2 4962   6.723   3.684   2.350
 1355SOL     OW 4963   6.343   3.418   4.659
 1355SOL    HW1 4964   6.250   3.389   4.679
 1355SOL    HW2 4965   6.355   3.513   4.687
 1356SOL     OW 4966   3.853   2.969   2.177
 1356SOL    HW1 4967   3.906   2.887   2.155
 1356SOL    HW2 4968   3.912   3.032   2.228
 1357SOL     OW 4969   6.308   3.628   5.706
 1357SOL    HW1 4970   6.279   3.533   5.719
 1357SOL    HW2 4971   6.401   3.639   5.741
 1358SOL     OW 4972   5.870   0.041   0.421
 1358SOL    HW1 4973   5.898   0.107   0.491
 1358SOL    HW2 4974   5.936   0.043   0.346
 1359SOL     OW 4975   6.270   4.656   1.820
 1359SOL    HW1 4976   6.350   4.662   1.760
 1359SOL    HW2 4977   6.244   4.748   1.850
 1360SOL     OW 4978   3.436   3.349   6.959
 1360SOL    HW1 4979   3.437   3.411   6.880
 1360SOL    HW2 4980   3.348   3.354   7.004
 1361SOL     OW 4981   6.922   4.730   5.225
 1361SOL    HW1 4982   6.958   4.637   5.234
 1361SOL    HW2 4983   6.976   4.780   5.157
 1362SOL     OW 4984   4.117   3.492   2.541
 1362SOL    HW1 4985   4.032   3.441   2.527
 1362SOL    HW2 4986   4.118   3.531   2.633
 1363SOL     OW 4987   0.013   5.180   4.899
 1363SOL    HW1 4988   6.954   5.181   4.841
 1363SOL    HW2 4989   7.008   5.175   4.995
 1364SOL     OW 4990   4.438   4.265   6.865
 1364SOL    HW1 4991   4.538   4.262   6.864
 1364SOL    HW2 4992   4.406   4.343   6.812
 1365SOL     OW 4993   0.349   4.301   6.610
 1365SOL    HW1 4994   0.348   4.381   6.670
 1365SOL    HW2 4995   0.351   4.330   6.515
 1366SOL     OW 4996   1.954   6.813   5.412
 1366SOL    HW1 4997   2.008   6.832   5.494
 1366SOL    HW2 4998   2.003   6.749   5.354
 1367SOL     OW 4999   1.768   1.873   2.411
 1367SOL    HW1 5000   1.711   1.931   2.470
 1367SOL    HW2 5001   1.734   1.877   2.317
 1368SOL     OW 5002   5.529   6.691   4.788
 1368SOL    HW1 5003   5.561   6.720   4.698
 1368SOL    HW2 5004   5.515   6.592   4.787
 1369SOL     OW 5005   1.161   6.193   3.059
 1369SOL    HW1 5006   1.084   6.207   3.121
 1369SOL    HW2 5007   1.172   6.274   3.001
 1370SOL     OW 5008   3.280   0.990   1.573
 1370SOL    HW1 5009   3.370   0.967   1.536
 1370SOL    HW2 5010   3.238   0.907   1.612
 1371SOL     OW 5011   4.186   0.765   5.306
 1371SOL    HW1 5012   4.125   0.686   5.315
 1371SOL    HW2 5013   4.137   0.848   5.332
 1372SOL     OW 5014   1.866   2.385   0.865
 1372SOL    HW1 5015   1.954   2.430   0.878
 1372SOL    HW2 5016   1.871   2.291   0.898
 1373SOL     OW 5017   0.234   4.950   0.713
 1373SOL    HW1 5018   0.167   4.911   0.777
 1373SOL    HW2 5019   0.210   5.045   0.695
 1374SOL     OW 5020   4.311   2.131   1.023
 1374SOL    HW1 5021   4.323   2.217   1.072
 1374SOL    HW2 5022   4.215   2.119   1.000
 1375SOL     OW 5023   0.216   5.135   5.934
 1375SOL    HW1 5024   0.130   5.182   5.915
 1375SOL    HW2 5025   0.198   5.039   5.953
 1376SOL     OW 5026   4.511   2.248   3.826
 1376SOL    HW1 5027   4.488   2.161   3.782
 1376SOL    HW2 5028   4.465   2.323   3.778
 1377SOL     OW 5029   0.481   4.537   5.269
 1377SOL    HW1 5030   0.481   4.632   5.300
 1377SOL    HW2 5031   0.550   4.524   5.199
 1378SOL     OW 5032   0.942   2.357   6.624
 1378SOL    HW1 5033   0.948   2.340   6.722
 1378SOL    HW2 5034   0.899   2.279   6.579
 1379SOL     OW 5035   3.207   5.729   3.257
 1379SOL    HW1 5036   3.118   5.773   3.246
 1379SOL    HW2 5037   3.280   5.798   3.250
 1380SOL     OW 5038   6.650   6.958   2.377
 1380SOL    HW1 5039   6.627   6.889   2.309
 1380SOL    HW2 5040   6.579   6.961   2.447
 1381SOL     OW 5041   5.878   3.435   0.140
 1381SOL    HW1 5042   5.902   3.424   0.236
 1381SOL    HW2 5043   5.784   3.467   0.132
 1382SOL     OW 5044   6.067   5.126   5.943
 1382SOL    HW1 5045   6.125   5.182   6.001
 1382SOL    HW2 5046   6.110   5.115   5.853
 1383SOL     OW 5047   0.382   0.418   0.179
 1383SOL    HW1 5048   0.328   0.483   0.233
 1383SOL    HW2 5049   0.333   0.331   0.174
 1384SOL     OW 5050   3.881   0.961   3.066
 1384SOL    HW1 5051   3.912   0.933   2.975
 1384SOL    HW2 5052   3.932   1.042   3.095
 1385SOL     OW 5053   6.334   2.769   2.955
 1385SOL    HW1 5054   6.410   2.705   2.965
 1385SOL    HW2 5055   6.358   2.837   2.885
 1386SOL     OW 5056   2.205   2.969   4.250
 1386SOL    HW1 5057   2.204   2.890   4.188
 1386SOL    HW2 5058   2.254   2.945   4.334
 1387SOL     OW 5059   3.506   0.485   4.462
 1387SOL    HW1 5060   3.467   0.394   4.443
 1387SOL    HW2 5061   3.460   0.553   4.405
 1388SOL     OW 5062   6.531   0.967   4.351
 1388SOL    HW1 5063   6.587   0.939   4.429
 1388SOL    HW2 5064   6.558   1.059   4.321
 1389SOL     OW 5065   5.903   6.880   4.266
 1389SOL    HW1 5066   5.910   6.928   4.353
 1389SOL    HW2 5067   5.812   6.893   4.227
 1390SOL     OW 5068   4.230   1.778   1.490
 1390SOL    HW1 5069   4.295   1.849   1.517
 1390SOL    HW2 5070   4.188   1.803   1.403
 1391SOL     OW 5071   6.703   0.526   4.764
 1391SOL    HW1 5072   6.700   0.434   4.725
 1391SOL    HW2 5073   6.635   0.583   4.719
 1392SOL     OW 5074   4.629   5.749   6.750
 1392SOL    HW1 5075   4.723   5.760   6.781
 1392SOL    HW2 5076   4.590   5.839   6.731
 1393SOL     OW 5077   6.526   1.402   6.486
 1393SOL    HW1 5078   6.528   1.414   6.387
 1393SOL    HW2 5079   6.585   1.470   6.529
 1394SOL     OW 5080   4.007   6.846   3.369
 1394SOL    HW1 5081   3.968   6.787   3.298
 1394SOL    HW2 5082   4.046   6.790   3.442
 1395SOL     OW 5083   1.441   5.223   2.735
 1395SOL    HW1 5084   1.477   5.135   2.766
 1395SOL    HW2 5085   1.453   5.291   2.808
 1396SOL     OW 5086   2.729   1.017   4.593
 1396SOL    HW1 5087   2.631   1.003   4.578
 1396SOL    HW2 5088   2.778   1.004   4.507
 1397SOL     OW 5089   0.428   5.123   4.317
 1397SOL    HW1 5090   0.432   5.181   4.398
 1397SOL    HW2 5091   0.342   5.139   4.268
 1398SOL     OW 5092   0.850   1.853   0.895
 1398SOL    HW1 5093   0.907   1.911   0.952
 1398SOL    HW2 5094   0.903   1.772   0.868
 1399SOL     OW 5095   3.755   0.340   0.728
 1399SOL    HW1 5096   3.848   0.371   0.747
 1399SOL    HW2 5097   3.740   0.251   0.771
 1400SOL     OW 5098   6.221   0.661   4.456
 1400SOL    HW1 5099   6.219   0.585   4.521
 1400SOL    HW2 5100   6.302   0.652   4.397
 1401SOL     OW 5101   5.481   0.675   3.403
 1401SOL    HW1 5102   5.521   0.727   3.327
 1401SOL    HW2 5103   5.383   0.660   3.384
 1402SOL     OW 5104   6.235   3.715   1.650
 1402SOL    HW1 5105   6.277   3.802   1.677
 1402SOL    HW2 5106   6.136   3.721   1.661
 1403SOL     OW 5107   3.664   2.628   0.067
 1403SOL    HW1 5108   3.645   2.668   0.156
 1403SOL    HW2 5109   3.639   2.693   7.017
 1404SOL     OW 5110   4.416   0.053   1.122
 1404SOL    HW1 5111   4.412   0.149   1.095
 1404SOL    HW2 5112   4.511   0.026   1.139
 1405SOL     OW 5113   2.282   3.323   1.341
 1405SOL    HW1 5114   2.239   3.270   1.414
 1405SOL    HW2 5115   2.336   3.262   1.284
 1406SOL     OW 5116   2.841   3.224   1.007
 1406SOL    HW1 5117   2.864   3.168   0.927
 1406SOL    HW2 5118   2.743   3.245   1.005
 1407SOL     OW 5119   0.471   3.029   1.316
 1407SOL    HW1 5120   0.524   3.036   1.232
 1407SOL    HW2 5121   0.505   3.096   1.382
 1408SOL     OW 5122   6.063   6.027   6.535
 1408SOL    HW1 5123   6.070   6.003   6.438
 1408SOL    HW2 5124   5.974   6.000   6.570
 1409SOL     OW 5125   6.851   1.030   5.808
 1409SOL    HW1 5126   6.884   0.971   5.881
 1409SOL    HW2 5127   6.928   1.061   5.752
 1410SOL     OW 5128   2.975   2.618   6.017
 1410SOL    HW1 5129   3.004   2.643   5.925
 1410SOL    HW2 5130   2.898   2.555   6.012
 1411SOL     OW 5131   4.000   5.406   0.358
 1411SOL    HW1 5132   4.096   5.410   0.386
 1411SOL    HW2 5133   3.974   5.494   0.318
 1412SOL     OW 5134   1.642   2.495   0.746
 1412SOL    HW1 5135   1.644   2.594   0.759
 1412SOL    HW2 5136   1.712   2.453   0.805
 1413SOL     OW 5137   2.110   1.602   5.231
 1413SOL    HW1 5138   2.210   1.607   5.238
 1413SOL    HW2 5139   2.080   1.510   5.253
 1414SOL     OW 5140   1.197   3.416   2.175
 1414SOL    HW1 5141   1.156   3.450   2.259
 1414SOL    HW2 5142   1.172   3.320   2.161
 1415SOL     OW 5143   2.479   1.933   3.706
 1415SOL    HW1 5144   2.466   1.888   3.794
 1415SOL    HW2 5145   2.485   1.864   3.633
 1416SOL     OW 5146   4.065   0.304   6.117
 1416SOL    HW1 5147   3.997   0.373   6.091
 1416SOL    HW2 5148   4.035   0.214   6.086
 1417SOL     OW 5149   3.719   2.741   6.162
 1417SOL    HW1 5150   3.646   2.783   6.107
 1417SOL    HW2 5151   3.711   2.641   6.156
 1418SOL     OW 5152   3.834   3.832   7.017
 1418SOL    HW1 5153   3.906   3.841   6.949
 1418SOL    HW2 5154   3.744   3.847   6.975
 1419SOL     OW 5155   2.147   4.551   3.606
 1419SOL    HW1 5156   2.079   4.561   3.679
 1419SOL    HW2 5157   2.100   4.538   3.518
 1420SOL     OW 5158   3.537   5.528   3.114
 1420SOL    HW1 5159   3.533   5.429   3.108
 1420SOL    HW2 5160   3.467   5.568   3.054
 1421SOL     OW 5161   1.307   5.556   5.714
 1421SOL    HW1 5162   1.283   5.643   5.670
 1421SOL    HW2 5163   1.224   5.514   5.751
 1422SOL     OW 5164   2.708   3.096   5.857
 1422SOL    HW1 5165   2.689   3.040   5.776
 1422SOL    HW2 5166   2.716   3.192   5.830
 1423SOL     OW 5167   4.547   0.986   4.675
 1423SOL    HW1 5168   4.503   0.898   4.692
 1423SOL    HW2 5169   4.629   0.994   4.731
 1424SOL     OW 5170   5.406   3.139   6.481
 1424SOL    HW1 5171   5.372   3.085   6.558
 1424SOL    HW2 5172   5.426   3.232   6.512
 1425SOL     OW 5173   4.090   6.837   3.712
 1425SOL    HW1 5174   3.999   6.842   3.753
 1425SOL    HW2 5175   4.124   6.743   3.718
 1426SOL     OW 5176   2.614   1.931   6.956
 1426SOL    HW1 5177   2.623   1.920   0.034
 1426SOL    HW2 5178   2.702   1.956   6.917
 1427SOL     OW 5179   1.374   1.318   3.000
 1427SOL    HW1 5180   1.368   1.405   3.049
 1427SOL    HW2 5181   1.364   1.335   2.902
 1428SOL     OW 5182   6.587   3.408   3.937
 1428SOL    HW1 5183   6.601   3.474   4.012
 1428SOL    HW2 5184   6.674   3.363   3.917
 1429SOL     OW 5185   6.473   1.244   0.675
 1429SOL    HW1 5186   6.379   1.270   0.657
 1429SOL    HW2 5187   6.519   1.223   0.588
 1430SOL     OW 5188   2.151   3.267   3.401
 1430SOL    HW1 5189   2.185   3.228   3.486
 1430SOL    HW2 5190   2.204   3.349   3.379
 1431SOL     OW 5191   2.244   1.885   5.917
 1431SOL    HW1 5192   2.175   1.868   5.988
 1431SOL    HW2 5193   2.256   1.983   5.906
 1432SOL     OW 5194   2.667   1.486   1.437
 1432SOL    HW1 5195   2.699   1.559   1.376
 1432SOL    HW2 5196   2.567   1.480   1.432
 1433SOL     OW 5197   3.065   0.382   4.115
 1433SOL    HW1 5198   2.981   0.387   4.060
 1433SOL    HW2 5199   3.131   0.449   4.082
 1434SOL     OW 5200   6.917   3.493   6.981
 1434SOL    HW1 5201   6.935   3.452   0.048
 1434SOL    HW2 5202   6.852   3.437   6.931
 1435SOL     OW 5203   0.689   6.969   5.183
 1435SOL    HW1 5204   0.788   6.973   5.165
 1435SOL    HW2 5205   0.642   6.930   5.104
 1436SOL     OW 5206   5.467   2.060   0.834
 1436SOL    HW1 5207   5.448   1.978   0.888
 1436SOL    HW2 5208   5.386   2.118   0.832
 1437SOL     OW 5209   4.496   0.790   6.056
 1437SOL    HW1 5210   4.549   0.798   6.141
 1437SOL    HW2 5211   4.405   0.755   6.077
 1438SOL     OW 5212   2.387   0.777   1.780
 1438SOL    HW1 5213   2.384   0.863   1.832
 1438SOL    HW2 5214   2.294   0.751   1.755
 1439SOL     OW 5215   6.789   5.018   0.058
 1439SOL    HW1 5216   6.714   5.017   7.014
 1439SOL    HW2 5217   6.840   4.932   0.053
 1440SOL     OW 5218   2.880   3.432   3.399
 1440SOL    HW1 5219   2.909   3.399   3.309
 1440SOL    HW2 5220   2.930   3.515   3.422
 1441SOL     OW 5221   7.021   2.520   3.614
 1441SOL    HW1 5222   6.961   2.600   3.613
 1441SOL    HW2 5223   0.019   2.495   3.708
 1442SOL     OW 5224   4.826   4.313   0.436
 1442SOL    HW1 5225   4.746   4.261   0.410
 1442SOL    HW2 5226   4.801   4.381   0.506
 1443SOL     OW 5227   0.793   1.584   3.665
 1443SOL    HW1 5228   0.774   1.670   3.713
 1443SOL    HW2 5229   0.811   1.603   3.569
 1444SOL     OW 5230   4.248   0.692   3.699
 1444SOL    HW1 5231   4.279   0.618   3.639
 1444SOL    HW2 5232   4.159   0.725   3.667
 1445SOL     OW 5233   6.670   2.349   1.925
 1445SOL    HW1 5234   6.650   2.390   1.837
 1445SOL    HW2 5235   6.652   2.251   1.922
 1446SOL     OW 5236   3.795   2.035   1.561
 1446SOL    HW1 5237   3.892   2.054   1.572
 1446SOL    HW2 5238   3.742   2.104   1.611
 1447SOL     OW 5239   6.534   1.240   4.556
 1447SOL    HW1 5240   6.462   1.177   4.587
 1447SOL    HW2 5241   6.597   1.258   4.631
 1448SOL     OW 5242   5.623   1.185   6.289
 1448SOL    HW1 5243   5.689   1.225   6.353
 1448SOL    HW2 5244   5.537   1.236   6.295
 1449SOL     OW 5245   4.870   5.462   1.095
 1449SOL    HW1 5246   4.834   5.551   1.124
 1449SOL    HW2 5247   4.966   5.455   1.119
 1450SOL     OW 5248   5.583   2.775   3.250
 1450SOL    HW1 5249   5.678   2.803   3.234
 1450SOL    HW2 5250   5.544   2.740   3.165
 1451SOL     OW 5251   1.206   6.418   2.860
 1451SOL    HW1 5252   1.142   6.432   2.784
 1451SOL    HW2 5253   1.223   6.505   2.906
 1452SOL     OW 5254   5.095   0.600   5.126
 1452SOL    HW1 5255   5.046   0.666   5.184
 1452SOL    HW2 5256   5.191   0.627   5.119
 1453SOL     OW 5257   5.117   4.350   4.714
 1453SOL    HW1 5258   5.075   4.259   4.719
 1453SOL    HW2 5259   5.217   4.340   4.717
 1454SOL     OW 5260   4.917   3.177   1.824
 1454SOL    HW1 5261   4.918   3.109   1.751
 1454SOL    HW2 5262   4.872   3.139   1.905
 1455SOL     OW 5263   1.174   1.741   1.508
 1455SOL    HW1 5264   1.234   1.809   1.466
 1455SOL    HW2 5265   1.114   1.787   1.574
 1456SOL     OW 5266   6.784   6.432   4.197
 1456SOL    HW1 5267   6.869   6.432   4.250
 1456SOL    HW2 5268   6.742   6.523   4.203
 1457SOL     OW 5269   1.662   0.416   3.657
 1457SOL    HW1 5270   1.656   0.515   3.643
 1457SOL    HW2 5271   1.754   0.392   3.687
 1458SOL     OW 5272   5.700   6.082   6.280
 1458SOL    HW1 5273   5.608   6.046   6.267
 1458SOL    HW2 5274   5.737   6.050   6.367
 1459SOL     OW 5275   3.302   6.050   6.679
 1459SOL    HW1 5276   3.350   6.086   6.599
 1459SOL    HW2 5277   3.217   6.101   6.693
 1460SOL     OW 5278   1.415   0.110   6.797
 1460SOL    HW1 5279   1.387   0.117   6.893
 1460SOL    HW2 5280   1.502   0.062   6.791
 1461SOL     OW 5281   5.481   4.447   2.657
 1461SOL    HW1 5282   5.522   4.362   2.688
 1461SOL    HW2 5283   5.543   4.494   2.594
 1462SOL     OW 5284   5.945   0.706   0.444
 1462SOL    HW1 5285   5.901   0.717   0.355
 1462SOL    HW2 5286   5.968   0.796   0.481
 1463SOL     OW 5287   1.156   1.200   5.097
 1463SOL    HW1 5288   1.234   1.196   5.034
 1463SOL    HW2 5289   1.126   1.107   5.118
 1464SOL     OW 5290   0.078   6.488   1.031
 1464SOL    HW1 5291   0.158   6.487   1.091
 1464SOL    HW2 5292   0.103   6.528   0.943
 1465SOL     OW 5293   0.227   0.201   4.962
 1465SOL    HW1 5294   0.262   0.294   4.976
 1465SOL    HW2 5295   0.295   0.135   4.994
 1466SOL     OW 5296   6.058   5.204   3.344
 1466SOL    HW1 5297   5.994   5.147   3.395
 1466SOL    HW2 5298   6.140   5.219   3.399
 1467SOL     OW 5299   0.979   1.158   3.813
 1467SOL    HW1 5300   0.995   1.197   3.903
 1467SOL    HW2 5301   0.934   1.226   3.755
 1468SOL     OW 5302   5.060   6.043   3.702
 1468SOL    HW1 5303   5.144   5.989   3.701
 1468SOL    HW2 5304   5.064   6.110   3.776
 1469SOL     OW 5305   0.859   1.138   2.264
 1469SOL    HW1 5306   0.861   1.039   2.255
 1469SOL    HW2 5307   0.887   1.164   2.357
 1470SOL     OW 5308   1.390   1.335   2.730
 1470SOL    HW1 5309   1.307   1.326   2.674
 1470SOL    HW2 5310   1.458   1.269   2.698
 1471SOL     OW 5311   0.546   0.124   0.110
 1471SOL    HW1 5312   0.532   0.212   0.155
 1471SOL    HW2 5313   0.629   0.081   0.145
 1472SOL     OW 5314   4.896   0.357   6.326
 1472SOL    HW1 5315   4.951   0.377   6.244
 1472SOL    HW2 5316   4.915   0.264   6.357
 1473SOL     OW 5317   6.173   4.412   2.950
 1473SOL    HW1 5318   6.239   4.458   3.010
 1473SOL    HW2 5319   6.125   4.481   2.896
 1474SOL     OW 5320   5.629   5.443   4.283
 1474SOL    HW1 5321   5.659   5.354   4.251
 1474SOL    HW2 5322   5.654   5.513   4.216
 1475SOL     OW 5323   6.618   0.688   2.385
 1475SOL    HW1 5324   6.640   0.669   2.480
 1475SOL    HW2 5325   6.695   0.737   2.343
 1476SOL     OW 5326   0.330   2.115   2.200
 1476SOL    HW1 5327   0.394   2.039   2.185
 1476SOL    HW2 5328   0.292   2.143   2.112
 1477SOL     OW 5329   2.893   6.521   5.171
 1477SOL    HW1 5330   2.810   6.476   5.203
 1477SOL    HW2 5331   2.953   6.539   5.248
 1478SOL     OW 5332   5.925   4.760   0.816
 1478SOL    HW1 5333   5.991   4.740   0.888
 1478SOL    HW2 5334   5.893   4.675   0.774
 1479SOL     OW 5335   1.764   4.528   0.247
 1479SOL    HW1 5336   1.693   4.551   0.314
 1479SOL    HW2 5337   1.824   4.607   0.234
 1480SOL     OW 5338   2.652   1.392   0.661
 1480SOL    HW1 5339   2.619   1.478   0.700
 1480SOL    HW2 5340   2.748   1.402   0.635
 1481SOL     OW 5341   5.752   2.378   6.016
 1481SOL    HW1 5342   5.813   2.389   6.094
 1481SOL    HW2 5343   5.786   2.432   5.939
 1482SOL     OW 5344   5.975   0.811   0.068
 1482SOL    HW1 5345   5.893   0.791   0.122
 1482SOL    HW2 5346   5.950   0.865   7.010
 1483SOL     OW 5347   6.062   2.525   0.338
 1483SOL    HW1 5348   6.117   2.540   0.255
 1483SOL    HW2 5349   6.117   2.476   0.406
 1484SOL     OW 5350   6.611   5.284   3.039
 1484SOL    HW1 5351   6.649   5.373   3.014
 1484SOL    HW2 5352   6.604   5.278   3.139
 1485SOL     OW 5353   5.145   2.374   3.922
 1485SOL    HW1 5354   5.226   2.315   3.919
 1485SOL    HW2 5355   5.103   2.376   3.831
 1486SOL     OW 5356   4.687   1.986   2.747
 1486SOL    HW1 5357   4.737   2.061   2.704
 1486SOL    HW2 5358   4.648   1.927   2.676
 1487SOL     OW 5359   6.184   1.441   5.726
 1487SOL    HW1 5360   6.163   1.480   5.815
 1487SOL    HW2 5361   6.124   1.363   5.709
 1488SOL     OW 5362   4.645   1.266   3.098
 1488SOL    HW1 5363   4.611   1.358   3.115
 1488SOL    HW2 5364   4.568   1.205   3.079
 1489SOL     OW 5365   3.679   5.074   5.060
 1489SOL    HW1 5366   3.656   5.085   4.963
 1489SOL    HW2 5367   3.766   5.121   5.079
 1490SOL     OW 5368   1.258   2.557   0.382
 1490SOL    HW1 5369   1.292   2.591   0.471
 1490SOL    HW2 5370   1.166   2.593   0.366
 1491SOL     OW 5371   0.224   2.940   3.657
 1491SOL    HW1 5372   0.137   2.974   3.692
 1491SOL    HW2 5373   0.253   2.861   3.712
 1492SOL     OW 5374   4.846   1.563   1.526
 1492SOL    HW1 5375   4.833   1.490   1.594
 1492SOL    HW2 5376   4.890   1.641   1.570
 1493SOL     OW 5377   4.848   6.996   5.274
 1493SOL    HW1 5378   4.924   6.983   5.210
 1493SOL    HW2 5379   4.784   6.920   5.265
 1494SOL     OW 5380   4.189   2.349   5.617
 1494SOL    HW1 5381   4.201   2.315   5.524
 1494SOL    HW2 5382   4.195   2.272   5.681
 1495SOL     OW 5383   0.671   3.288   2.482
 1495SOL    HW1 5384   0.735   3.365   2.484
 1495SOL    HW2 5385   0.578   3.323   2.467
 1496SOL     OW 5386   0.154   0.234   2.541
 1496SOL    HW1 5387   0.095   0.154   2.529
 1496SOL    HW2 5388   0.246   0.214   2.506
 1497SOL     OW 5389   6.331   5.118   4.352
 1497SOL    HW1 5390   6.292   5.188   4.293
 1497SOL    HW2 5391   6.343   5.033   4.301
 1498SOL     OW 5392   1.716   5.190   6.771
 1498SOL    HW1 5393   1.663   5.171   6.688
 1498SOL    HW2 5394   1.805   5.145   6.766
 1499SOL     OW 5395   1.168   3.907   5.108
 1499SOL    HW1 5396   1.204   3.957   5.187
 1499SOL    HW2 5397   1.129   3.820   5.139
 1500SOL     OW 5398   5.206   6.425   0.280
 1500SOL    HW1 5399   5.221   6.505   0.338
 1500SOL    HW2 5400   5.113   6.390   0.295
 1501SOL     OW 5401   3.947   0.229   6.576
 1501SOL    HW1 5402   3.938   0.178   6.662
 1501SOL    HW2 5403   4.032   0.203   6.530
 1502SOL     OW 5404   6.280   6.547   0.275
 1502SOL    HW1 5405   6.366   6.501   0.299
 1502SOL    HW2 5406   6.226   6.486   0.217
 1503SOL     OW 5407   3.188   2.994   6.828
 1503SOL    HW1 5408   3.169   3.076   6.881
 1503SOL    HW2 5409   3.222   2.922   6.889
 1504SOL     OW 5410   3.580   6.539   4.835
 1504SOL    HW1 5411   3.660   6.479   4.826
 1504SOL    HW2 5412   3.496   6.486   4.821
 1505SOL     OW 5413   5.777   6.269   6.096
 1505SOL    HW1 5414   5.751   6.187   6.147
 1505SOL    HW2 5415   5.703   6.297   6.036
 1506SOL     OW 5416   0.886   5.955   4.222
 1506SOL    HW1 5417   0.791   5.933   4.245
 1506SOL    HW2 5418   0.941   5.954   4.305
 1507SOL     OW 5419   2.012   1.331   5.355
 1507SOL    HW1 5420   1.949   1.324   5.278
 1507SOL    HW2 5421   2.105   1.311   5.324
 1508SOL     OW 5422   4.536   6.960   0.707
 1508SOL    HW1 5423   4.440   6.937   0.723
 1508SOL    HW2 5424   4.591   6.928   0.784
 1509SOL     OW 5425   4.291   2.974   7.005
 1509SOL    HW1 5426   4.192   2.965   7.006
 1509SOL    HW2 5427   4.318   3.043   6.937
 1510SOL     OW 5428   6.988   1.865   4.183
 1510SOL    HW1 5429   0.012   1.922   4.115
 1510SOL    HW2 5430   6.952   1.923   4.256
 1511SOL     OW 5431   2.620   2.210   0.421
 1511SOL    HW1 5432   2.553   2.245   0.486
 1511SOL    HW2 5433   2.574   2.188   0.335
 1512SOL     OW 5434   0.064   0.872   1.650
 1512SOL    HW1 5435   0.020   0.895   1.737
 1512SOL    HW2 5436   0.122   0.948   1.620
 1513SOL     OW 5437   3.435   7.015   3.841
 1513SOL    HW1 5438   3.345   0.028   3.867
 1513SOL    HW2 5439   3.424   6.947   3.768
 1514SOL     OW 5440   5.988   1.413   4.625
 1514SOL    HW1 5441   6.003   1.511   4.617
 1514SOL    HW2 5442   5.892   1.395   4.645
 1515SOL     OW 5443   0.200   4.468   5.430
 1515SOL    HW1 5444   0.264   4.462   5.353
 1515SOL    HW2 5445   0.242   4.427   5.511
 1516SOL     OW 5446   0.268   1.350   0.690
 1516SOL    HW1 5447   0.366   1.344   0.711
 1516SOL    HW2 5448   0.227   1.259   0.693
 1517SOL     OW 5449   4.774   6.138   3.234
 1517SOL    HW1 5450   4.852   6.108   3.290
 1517SOL    HW2 5451   4.796   6.126   3.137
 1518SOL     OW 5452   6.660   4.577   1.113
 1518SOL    HW1 5453   6.590   4.510   1.089
 1518SOL    HW2 5454   6.625   4.670   1.097
 1519SOL     OW 5455   6.114   4.461   0.999
 1519SOL    HW1 5456   6.082   4.426   0.911
 1519SOL    HW2 5457   6.077   4.552   1.015
 1520SOL     OW 5458   2.103   3.701   2.671
 1520SOL    HW1 5459   2.111   3.603   2.654
 1520SOL    HW2 5460   2.096   3.717   2.769
 1521SOL     OW 5461   2.105   3.180   6.776
 1521SOL    HW1 5462   2.191   3.195   6.824
 1521SOL    HW2 5463   2.113   3.215   6.683
 1522SOL     OW 5464   5.703   1.939   6.652
 1522SOL    HW1 5465   5.658   1.851   6.636
 1522SOL    HW2 5466   5.773   1.927   6.722
 1523SOL     OW 5467   6.217   2.741   1.195
 1523SOL    HW1 5468   6.228   2.671   1.265
 1523SOL    HW2 5469   6.133   2.792   1.211
 1524SOL     OW 5470   0.167   1.113   1.579
 1524SOL    HW1 5471   0.169   1.146   1.674
 1524SOL    HW2 5472   0.252   1.140   1.533
 1525SOL     OW 5473   4.239   1.851   6.071
 1525SOL    HW1 5474   4.299   1.913   6.120
 1525SOL    HW2 5475   4.257   1.856   5.973
 1526SOL     OW 5476   6.872   2.160   1.593
 1526SOL    HW1 5477   6.943   2.194   1.531
 1526SOL    HW2 5478   6.889   2.064   1.614
 1527SOL     OW 5479   3.561   2.016   5.090
 1527SOL    HW1 5480   3.548   2.032   5.188
 1527SOL    HW2 5481   3.481   2.048   5.039
 1528SOL     OW 5482   4.534   6.690   3.278
 1528SOL    HW1 5483   4.584   6.650   3.355
 1528SOL    HW2 5484   4.437   6.696   3.301
 1529SOL     OW 5485   3.593   6.943   6.226
 1529SOL    HW1 5486   3.587   6.918   6.129
 1529SOL    HW2 5487   3.662   7.013   6.238
 1530SOL     OW 5488   3.004   6.543   2.313
 1530SOL    HW1 5489   2.939   6.500   2.376
 1530SOL    HW2 5490   3.092   6.555   2.358
 1531SOL     OW 5491   6.651   0.288   4.285
 1531SOL    HW1 5492   6.707   0.332   4.216
 1531SOL    HW2 5493   6.649   0.345   4.368
 1532SOL     OW 5494   3.457   2.281   5.284
 1532SOL    HW1 5495   3.540   2.311   5.238
 1532SOL    HW2 5496   3.379   2.292   5.222
 1533SOL     OW 5497   6.097   3.374   6.680
 1533SOL    HW1 5498   6.196   3.389   6.678
 1533SOL    HW2 5499   6.059   3.419   6.761
 1534SOL     OW 5500   0.812   6.016   0.842
 1534SOL    HW1 5501   0.793   5.949   0.914
 1534SOL    HW2 5502   0.905   6.002   0.807
 1535SOL     OW 5503   4.819   4.431   4.076
 1535SOL    HW1 5504   4.816   4.332   4.064
 1535SOL    HW2 5505   4.727   4.466   4.093
 1536SOL     OW 5506   2.858   5.858   4.879
 1536SOL    HW1 5507   2.881   5.766   4.845
 1536SOL    HW2 5508   2.841   5.853   4.978
 1537SOL     OW 5509   1.616   5.311   4.821
 1537SOL    HW1 5510   1.590   5.270   4.734
 1537SOL    HW2 5511   1.609   5.411   4.814
 1538SOL     OW 5512   2.502   4.984   0.327
 1538SOL    HW1 5513   2.592   5.027   0.323
 1538SOL    HW2 5514   2.435   5.052   0.358
 1539SOL     OW 5515   3.727   4.954   1.562
 1539SOL    HW1 5516   3.767   4.893   1.493
 1539SOL    HW2 5517   3.630   4.932   1.573
 1540SOL     OW 5518   0.748   0.231   5.223
 1540SOL    HW1 5519   0.698   0.148   5.247
 1540SOL    HW2 5520   0.754   0.239   5.124
 1541SOL     OW 5521   4.690   2.779   1.188
 1541SOL    HW1 5522   4.714   2.870   1.151
 1541SOL    HW2 5523   4.623   2.790   1.261
 1542SOL     OW 5524   0.382   6.279   1.615
 1542SOL    HW1 5525   0.471   6.255   1.653
 1542SOL    HW2 5526   0.309   6.237   1.670
 1543SOL     OW 5527   3.415   3.635   3.851
 1543SOL    HW1 5528   3.422   3.666   3.946
 1543SOL    HW2 5529   3.506   3.612   3.817
 1544SOL     OW 5530   3.230   4.062   2.514
 1544SOL    HW1 5531   3.136   4.052   2.481
 1544SOL    HW2 5532   3.248   3.995   2.586
 1545SOL     OW 5533   6.536   0.692   4.632
 1545SOL    HW1 5534   6.584   0.776   4.606
 1545SOL    HW2 5535   6.443   0.715   4.662
 1546SOL     OW 5536   6.676   5.956   6.277
 1546SOL    HW1 5537   6.715   5.982   6.189
 1546SOL    HW2 5538   6.727   5.999   6.351
 1547SOL     OW 5539   2.705   5.345   2.667
 1547SOL    HW1 5540   2.628   5.373   2.725
 1547SOL    HW2 5541   2.707   5.245   2.660
 1548SOL     OW 5542   4.838   4.199   4.794
 1548SOL    HW1 5543   4.798   4.168   4.708
 1548SOL    HW2 5544   4.852   4.298   4.790
 1549SOL     OW 5545   6.548   2.490   1.242
 1549SOL    HW1 5546   6.591   2.407   1.277
 1549SOL    HW2 5547   6.616   2.562   1.234
 1550SOL     OW 5548   2.045   6.078   4.759
 1550SOL    HW1 5549   1.968   6.105   4.817
 1550SOL    HW2 5550   2.081   6.159   4.713
 1551SOL     OW 5551   1.926   3.126   1.055
 1551SOL    HW1 5552   1.920   3.033   1.090
 1551SOL    HW2 5553   2.009   3.169   1.089
 1552SOL     OW 5554   1.206   0.962   1.128
 1552SOL    HW1 5555   1.265   0.897   1.176
 1552SOL    HW2 5556   1.123   0.978   1.182
 1553SOL     OW 5557   5.888   1.632   6.678
 1553SOL    HW1 5558   5.831   1.631   6.596
 1553SOL    HW2 5559   5.952   1.708   6.674
 1554SOL     OW 5560   4.049   1.850   2.314
 1554SOL    HW1 5561   4.034   1.924   2.379
 1554SOL    HW2 5562   3.979   1.853   2.243
 1555SOL     OW 5563   3.701   1.266   5.068
 1555SOL    HW1 5564   3.740   1.175   5.053
 1555SOL    HW2 5565   3.700   1.316   4.982
 1556SOL     OW 5566   3.995   0.485   0.782
 1556SOL    HW1 5567   3.990   0.491   0.881
 1556SOL    HW2 5568   4.057   0.556   0.747
 1557SOL     OW 5569   1.703   2.047   1.373
 1557SOL    HW1 5570   1.694   1.975   1.304
 1557SOL    HW2 5571   1.613   2.071   1.408
 1558SOL     OW 5572   6.247   3.458   5.299
 1558SOL    HW1 5573   6.179   3.496   5.362
 1558SOL    HW2 5574   6.213   3.463   5.205
 1559SOL     OW 5575   1.591   4.394   2.884
 1559SOL    HW1 5576   1.677   4.439   2.909
 1559SOL    HW2 5577   1.598   4.359   2.790
 1560SOL     OW 5578   3.688   1.505   1.296
 1560SOL    HW1 5579   3.729   1.439   1.234
 1560SOL    HW2 5580   3.588   1.495   1.294
 1561SOL     OW 5581   5.413   6.146   1.838
 1561SOL    HW1 5582   5.387   6.104   1.751
 1561SOL    HW2 5583   5.372   6.237   1.844
 1562SOL     OW 5584   3.163   0.029   2.041
 1562SOL    HW1 5585   3.088   7.002   1.998
 1562SOL    HW2 5586   3.197   6.999   2.120
 1563SOL     OW 5587   3.995   2.213   4.147
 1563SOL    HW1 5588   4.025   2.119   4.162
 1563SOL    HW2 5589   3.982   2.259   4.235
 1564SOL     OW 5590   1.095   1.802   2.456
 1564SOL    HW1 5591   1.057   1.841   2.541
 1564SOL    HW2 5592   1.142   1.873   2.405
 1565SOL     OW 5593   3.595   0.259   3.445
 1565SOL    HW1 5594   3.600   0.272   3.544
 1565SOL    HW2 5595   3.682   0.287   3.403
 1566SOL     OW 5596   4.813   4.409   2.851
 1566SOL    HW1 5597   4.875   4.473   2.895
 1566SOL    HW2 5598   4.799   4.329   2.910
 1567SOL     OW 5599   5.196   5.700   5.278
 1567SOL    HW1 5600   5.225   5.608   5.251
 1567SOL    HW2 5601   5.116   5.727   5.225
 1568SOL     OW 5602   1.927   6.188   2.506
 1568SOL    HW1 5603   1.950   6.246   2.427
 1568SOL    HW2 5604   1.895   6.246   2.581
 1569SOL     OW 5605   2.415   0.046   3.220
 1569SOL    HW1 5606   2.511   0.075   3.210
 1569SOL    HW2 5607   2.356   0.126   3.218
 1570SOL     OW 5608   3.493   0.070   0.310
 1570SOL    HW1 5609   3.424   0.141   0.326
 1570SOL    HW2 5610   3.542   0.051   0.395
 1571SOL     OW 5611   1.008   2.551   3.815
 1571SOL    HW1 5612   1.023   2.628   3.876
 1571SOL    HW2 5613   1.000   2.467   3.869
 1572SOL     OW 5614   1.622   5.286   1.753
 1572SOL    HW1 5615   1.523   5.295   1.736
 1572SOL    HW2 5616   1.651   5.356   1.818
 1573SOL     OW 5617   4.575   4.692   1.268
 1573SOL    HW1 5618   4.511   4.665   1.339
 1573SOL    HW2 5619   4.535   4.766   1.213
 1574SOL     OW 5620   6.539   3.268   2.162
 1574SOL    HW1 5621   6.612   3.334   2.146
 1574SOL    HW2 5622   6.510   3.230   2.074
 1575SOL     OW 5623   0.448   1.021   0.872
 1575SOL    HW1 5624   0.505   0.950   0.829
 1575SOL    HW2 5625   0.429   1.093   0.805
 1576SOL     OW 5626   0.528   6.199   1.881
 1576SOL    HW1 5627   0.622   6.211   1.851
 1576SOL    HW2 5628   0.504   6.270   1.948
 1577SOL     OW 5629   4.192   6.914   6.412
 1577SOL    HW1 5630   4.280   6.868   6.398
 1577SOL    HW2 5631   4.209   7.010   6.435
 1578SOL     OW 5632   4.591   0.683   0.374
 1578SOL    HW1 5633   4.684   0.654   0.353
 1578SOL    HW2 5634   4.532   0.603   0.380
 1579SOL     OW 5635   2.018   2.429   1.975
 1579SOL    HW1 5636   2.088   2.362   1.998
 1579SOL    HW2 5637   1.955   2.438   2.052
 1580SOL     OW 5638   3.263   4.147   2.984
 1580SOL    HW1 5639   3.324   4.154   2.905
 1580SOL    HW2 5640   3.307   4.093   3.056
 1581SOL     OW 5641   0.043   4.195   6.024
 1581SOL    HW1 5642   0.109   4.140   6.074
 1581SOL    HW2 5643   7.019   4.138   5.955
 1582SOL     OW 5644   4.256   6.365   6.046
 1582SOL    HW1 5645   4.335   6.385   6.104
 1582SOL    HW2 5646   4.214   6.451   6.017
 1583SOL     OW 5647   0.939   5.820   5.549
 1583SOL    HW1 5648   0.941   5.920   5.546
 1583SOL    HW2 5649   0.961   5.784   5.458
 1584SOL     OW 5650   0.662   5.205   6.467
 1584SOL    HW1 5651   0.683   5.248   6.555
 1584SOL    HW2 5652   0.571   5.163   6.471
 1585SOL     OW 5653   3.990   0.012   3.038
 1585SOL    HW1 5654   3.933   0.024   3.119
 1585SOL    HW2 5655   3.970   6.945   2.997
 1586SOL     OW 5656   2.975   5.780   4.034
 1586SOL    HW1 5657   3.007   5.722   3.958
 1586SOL    HW2 5658   2.896   5.738   4.077
 1587SOL     OW 5659   2.064   6.185   6.159
 1587SOL    HW1 5660   2.162   6.191   6.173
 1587SOL    HW2 5661   2.022   6.273   6.181
 1588SOL     OW 5662   6.213   7.012   2.242
 1588SOL    HW1 5663   6.290   0.027   2.190
 1588SOL    HW2 5664   6.218   0.022   2.337
 1589SOL     OW 5665   6.489   4.097   2.807
 1589SOL    HW1 5666   6.486   4.196   2.820
 1589SOL    HW2 5667   6.443   4.074   2.721
 1590SOL     OW 5668   6.736   1.829   3.363
 1590SOL    HW1 5669   6.653   1.875   3.333
 1590SOL    HW2 5670   6.802   1.897   3.394
 1591SOL     OW 5671   0.337   5.699   0.955
 1591SOL    HW1 5672   0.262   5.673   1.016
 1591SOL    HW2 5673   0.349   5.629   0.885
 1592SOL     OW 5674   1.521   4.355   6.920
 1592SOL    HW1 5675   1.422   4.364   6.921
 1592SOL    HW2 5676   1.554   4.331   7.012
 1593SOL     OW 5677   0.826   6.878   6.679
 1593SOL    HW1 5678   0.901   6.824   6.716
 1593SOL    HW2 5679   0.743   6.861   6.732
 1594SOL     OW 5680   6.814   0.419   1.656
 1594SOL    HW1 5681   6.799   0.320   1.658
 1594SOL    HW2 5682   6.896   0.442   1.708
 1595SOL     OW 5683   1.380   3.581   6.717
 1595SOL    HW1 5684   1.412   3.655   6.776
 1595SOL    HW2 5685   1.447   3.507   6.717
 1596SOL     OW 5686   5.847   4.372   2.371
 1596SOL    HW1 5687   5.887   4.287   2.405
 1596SOL    HW2 5688   5.914   4.418   2.313
 1597SOL     OW 5689   3.478   6.022   0.868
 1597SOL    HW1 5690   3.417   5.943   0.861
 1597SOL    HW2 5691   3.450   6.092   0.802
 1598SOL     OW 5692   1.424   5.734   0.034
 1598SOL    HW1 5693   1.399   5.831   0.037
 1598SOL    HW2 5694   1.368   5.688   6.987
 1599SOL     OW 5695   4.018   5.049   3.959
 1599SOL    HW1 5696   3.990   4.954   3.950
 1599SOL    HW2 5697   4.065   5.062   4.046
 1600SOL     OW 5698   3.237   0.462   2.885
 1600SOL    HW1 5699   3.300   0.388   2.904
 1600SOL    HW2 5700   3.278   0.549   2.913
 1601SOL     OW 5701   6.641   0.005   3.948
 1601SOL    HW1 5702   6.633   6.932   3.920
 1601SOL    HW2 5703   6.738   0.029   3.958
 1602SOL     OW 5704   4.414   5.249   4.317
 1602SOL    HW1 5705   4.341   5.314   4.298
 1602SOL    HW2 5706   4.459   5.224   4.231
 1603SOL     OW 5707   2.899   6.325   4.053
 1603SOL    HW1 5708   2.848   6.259   4.108
 1603SOL    HW2 5709   2.877   6.313   3.956
 1604SOL     OW 5710   3.726   4.873   2.194
 1604SOL    HW1 5711   3.688   4.827   2.115
 1604SOL    HW2 5712   3.825   4.883   2.182
 1605SOL     OW 5713   4.821   4.885   2.042
 1605SOL    HW1 5714   4.894   4.886   2.110
 1605SOL    HW2 5715   4.742   4.834   2.077
 1606SOL     OW 5716   4.472   6.262   4.337
 1606SOL    HW1 5717   4.542   6.253   4.266
 1606SOL    HW2 5718   4.514   6.299   4.420
 1607SOL     OW 5719   4.473   6.524   2.705
 1607SOL    HW1 5720   4.394   6.565   2.660
 1607SOL    HW2 5721   4.442   6.461   2.777
 1608SOL     OW 5722   6.774   0.564   3.081
 1608SOL    HW1 5723   6.759   0.663   3.086
 1608SOL    HW2 5724   6.839   0.536   3.152
 1609SOL     OW 5725   3.150   6.652   0.816
 1609SOL    HW1 5726   3.147   6.585   0.742
 1609SOL    HW2 5727   3.110   6.738   0.784
 1610SOL     OW 5728   4.045   6.827   0.057
 1610SOL    HW1 5729   4.084   6.736   0.068
 1610SOL    HW2 5730   3.969   6.824   7.014
 1611SOL     OW 5731   0.555   4.102   1.485
 1611SOL    HW1 5732   0.611   4.180   1.511
 1611SOL    HW2 5733   0.593   4.059   1.403
 1612SOL     OW 5734   3.168   6.088   1.047
 1612SOL    HW1 5735   3.153   5.989   1.049
 1612SOL    HW2 5736   3.107   6.129   0.980
 1613SOL     OW 5737   0.323   5.699   2.412
 1613SOL    HW1 5738   0.228   5.690   2.444
 1613SOL    HW2 5739   0.385   5.696   2.491
 1614SOL     OW 5740   5.545   2.729   6.707
 1614SOL    HW1 5741   5.541   2.711   6.805
 1614SOL    HW2 5742   5.622   2.789   6.687
 1615SOL     OW 5743   0.395   5.110   6.457
 1615SOL    HW1 5744   0.337   5.039   6.497
 1615SOL    HW2 5745   0.349   5.152   6.379
 1616SOL     OW 5746   2.958   0.921   5.565
 1616SOL    HW1 5747   2.868   0.882   5.583
 1616SOL    HW2 5748   3.012   0.921   5.650
 1617SOL     OW 5749   4.822   6.800   3.540
 1617SOL    HW1 5750   4.892   6.748   3.587
 1617SOL    HW2 5751   4.806   6.886   3.589
 1618SOL     OW 5752   2.542   5.851   3.112
 1618SOL    HW1 5753   2.450   5.875   3.143
 1618SOL    HW2 5754   2.590   5.802   3.185
 1619SOL     OW 5755   0.954   5.357   6.831
 1619SOL    HW1 5756   0.862   5.348   6.792
 1619SOL    HW2 5757   0.954   5.320   6.924
 1620SOL     OW 5758   3.182   5.281   1.086
 1620SOL    HW1 5759   3.154   5.222   1.010
 1620SOL    HW2 5760   3.266   5.329   1.060
 1621SOL     OW 5761   5.947   6.387   1.413
 1621SOL    HW1 5762   5.985   6.476   1.390
 1621SOL    HW2 5763   5.888   6.355   1.340
 1622SOL     OW 5764   0.955   3.718   4.939
 1622SOL    HW1 5765   1.040   3.728   4.990
 1622SOL    HW2 5766   0.972   3.739   4.842
 1623SOL     OW 5767   0.360   2.529   4.670
 1623SOL    HW1 5768   0.358   2.535   4.770
 1623SOL    HW2 5769   0.450   2.557   4.636
 1624SOL     OW 5770   4.100   1.282   0.515
 1624SOL    HW1 5771   4.138   1.372   0.538
 1624SOL    HW2 5772   4.095   1.226   0.598
 1625SOL     OW 5773   1.877   5.009   0.621
 1625SOL    HW1 5774   1.860   4.912   0.636
 1625SOL    HW2 5775   1.894   5.026   0.524
 1626SOL     OW 5776   3.199   2.154   1.307
 1626SOL    HW1 5777   3.125   2.209   1.269
 1626SOL    HW2 5778   3.178   2.131   1.402
 1627SOL     OW 5779   4.706   2.354   4.309
 1627SOL    HW1 5780   4.712   2.366   4.210
 1627SOL    HW2 5781   4.773   2.412   4.354
 1628SOL     OW 5782   4.921   6.160   6.603
 1628SOL    HW1 5783   4.856   6.208   6.662
 1628SOL    HW2 5784   5.012   6.199   6.615
 1629SOL     OW 5785   3.110   2.070   3.048
 1629SOL    HW1 5786   3.048   2.016   2.991
 1629SOL    HW2 5787   3.058   2.136   3.102
 1630SOL     OW 5788   0.403   4.128   0.177
 1630SOL    HW1 5789   0.477   4.183   0.217
 1630SOL    HW2 5790   0.347   4.089   0.250
 1631SOL     OW 5791   0.110   3.300   1.153
 1631SOL    HW1 5792   0.098   3.338   1.245
 1631SOL    HW2 5793   0.139   3.372   1.090
 1632SOL     OW 5794   5.776   4.405   2.806
 1632SOL    HW1 5795   5.725   4.445   2.882
 1632SOL    HW2 5796   5.811   4.477   2.747
 1633SOL     OW 5797   4.969   3.778   3.765
 1633SOL    HW1 5798   4.947   3.683   3.742
 1633SOL    HW2 5799   5.041   3.811   3.704
 1634SOL     OW 5800   4.567   0.706   4.702
 1634SOL    HW1 5801   4.515   0.682   4.785
 1634SOL    HW2 5802   4.579   0.624   4.646
 1635SOL     OW 5803   3.738   4.722   5.421
 1635SOL    HW1 5804   3.739   4.640   5.477
 1635SOL    HW2 5805   3.645   4.738   5.387
 1636SOL     OW 5806   4.736   5.860   1.555
 1636SOL    HW1 5807   4.744   5.939   1.616
 1636SOL    HW2 5808   4.739   5.776   1.608
 1637SOL     OW 5809   0.112   6.656   2.462
 1637SOL    HW1 5810   0.035   6.651   2.526
 1637SOL    HW2 5811   0.193   6.616   2.505
 1638SOL     OW 5812   6.681   3.391   1.879
 1638SOL    HW1 5813   6.631   3.462   1.830
 1638SOL    HW2 5814   6.695   3.312   1.819
 1639SOL     OW 5815   5.790   3.928   2.283
 1639SOL    HW1 5816   5.694   3.903   2.276
 1639SOL    HW2 5817   5.818   3.977   2.201
 1640SOL     OW 5818   6.312   0.164   0.978
 1640SOL    HW1 5819   6.380   0.235   0.961
 1640SOL    HW2 5820   6.349   0.097   1.042
 1641SOL     OW 5821   0.186   2.622   3.052
 1641SOL    HW1 5822   0.235   2.579   3.127
 1641SOL    HW2 5823   0.089   2.627   3.073
 1642SOL     OW 5824   5.721   2.734   5.833
 1642SOL    HW1 5825   5.715   2.718   5.932
 1642SOL    HW2 5826   5.761   2.825   5.817
 1643SOL     OW 5827   3.678   5.283   4.460
 1643SOL    HW1 5828   3.586   5.275   4.421
 1643SOL    HW2 5829   3.682   5.232   4.546
 1644SOL     OW 5830   5.881   3.190   0.568
 1644SOL    HW1 5831   5.874   3.181   0.667
 1644SOL    HW2 5832   5.790   3.204   0.529
 1645SOL     OW 5833   2.918   0.863   6.149
 1645SOL    HW1 5834   2.864   0.801   6.093
 1645SOL    HW2 5835   2.900   0.958   6.122
 1646SOL     OW 5836   1.086   5.708   0.145
 1646SOL    HW1 5837   1.131   5.795   0.126
 1646SOL    HW2 5838   1.063   5.663   0.058
 1647SOL     OW 5839   6.362   2.916   4.730
 1647SOL    HW1 5840   6.461   2.931   4.736
 1647SOL    HW2 5841   6.344   2.828   4.688
 1648SOL     OW 5842   4.934   5.961   0.649
 1648SOL    HW1 5843   4.944   6.037   0.713
 1648SOL    HW2 5844   4.898   5.995   0.562
 1649SOL     OW 5845   3.374   0.585   3.249
 1649SOL    HW1 5846   3.393   0.626   3.160
 1649SOL    HW2 5847   3.279   0.603   3.275
 1650SOL     OW 5848   2.339   5.389   6.528
 1650SOL    HW1 5849   2.310   5.435   6.445
 1650SOL    HW2 5850   2.343   5.290   6.512
 1651SOL     OW 5851   0.768   2.737   4.036
 1651SOL    HW1 5852   0.691   2.761   4.094
 1651SOL    HW2 5853   0.755   2.778   3.945
 1652SOL     OW 5854   1.186   2.690   1.460
 1652SOL    HW1 5855   1.249   2.753   1.505
 1652SOL    HW2 5856   1.235   2.608   1.432
 1653SOL     OW 5857   6.662   5.223   2.540
 1653SOL    HW1 5858   6.621   5.132   2.547
 1653SOL    HW2 5859   6.592   5.293   2.553
 1654SOL     OW 5860   0.562   2.815   1.724
 1654SOL    HW1 5861   0.618   2.888   1.765
 1654SOL    HW2 5862   0.572   2.731   1.777
 1655SOL     OW 5863   6.873   1.235   4.465
 1655SOL    HW1 5864   6.872   1.256   4.562
 1655SOL    HW2 5865   6.945   1.289   4.420
 1656SOL     OW 5866   2.608   5.465   4.336
 1656SOL    HW1 5867   2.543   5.539   4.319
 1656SOL    HW2 5868   2.594   5.392   4.269
 1657SOL     OW 5869   0.160   0.545   5.501
 1657SOL    HW1 5870   0.128   0.628   5.454
 1657SOL    HW2 5871   0.157   0.560   5.600
 1658SOL     OW 5872   6.769   6.892   0.438
 1658SOL    HW1 5873   6.775   6.991   0.447
 1658SOL    HW2 5874   6.694   6.869   0.376
 1659SOL     OW 5875   4.213   0.032   6.782
 1659SOL    HW1 5876   4.273   6.974   6.781
 1659SOL    HW2 5877   4.265   0.111   6.816
 1660SOL     OW 5878   1.439   6.331   2.166
 1660SOL    HW1 5879   1.383   6.328   2.249
 1660SOL    HW2 5880   1.410   6.409   2.110
 1661SOL     OW 5881   3.278   5.069   2.177
 1661SOL    HW1 5882   3.224   4.999   2.224
 1661SOL    HW2 5883   3.297   5.144   2.240
 1662SOL     OW 5884   6.766   1.606   5.735
 1662SOL    HW1 5885   6.786   1.519   5.691
 1662SOL    HW2 5886   6.800   1.605   5.829
 1663SOL     OW 5887   4.499   4.874   1.669
 1663SOL    HW1 5888   4.559   4.807   1.626
 1663SOL    HW2 5889   4.494   4.856   1.767
 1664SOL     OW 5890   0.672   0.214   5.601
 1664SOL    HW1 5891   0.601   0.272   5.561
 1664SOL    HW2 5892   0.744   0.198   5.534
 1665SOL     OW 5893   1.799   3.699   0.864
 1665SOL    HW1 5894   1.821   3.794   0.842
 1665SOL    HW2 5895   1.736   3.664   0.795
 1666SOL     OW 5896   5.408   0.213   6.421
 1666SOL    HW1 5897   5.346   0.188   6.495
 1666SOL    HW2 5898   5.498   0.174   6.439
 1667SOL     OW 5899   0.345   6.799   0.835
 1667SOL    HW1 5900   0.428   6.752   0.806
 1667SOL    HW2 5901   0.349   6.816   0.934
 1668SOL     OW 5902   5.127   4.820   3.940
 1668SOL    HW1 5903   5.116   4.885   3.865
 1668SOL    HW2 5904   5.041   4.813   3.992
 1669SOL     OW 5905   0.530   3.457   5.779
 1669SOL    HW1 5906   0.552   3.540   5.830
 1669SOL    HW2 5907   0.519   3.478   5.682
 1670SOL     OW 5908   1.781   4.766   6.044
 1670SOL    HW1 5909   1.760   4.776   5.947
 1670SOL    HW2 5910   1.862   4.820   6.066
 1671SOL     OW 5911   4.863   1.603   2.227
 1671SOL    HW1 5912   4.955   1.581   2.259
 1671SOL    HW2 5913   4.846   1.557   2.140
 1672SOL     OW 5914   0.841   2.986   0.051
 1672SOL    HW1 5915   0.885   2.910   0.002
 1672SOL    HW2 5916   0.895   3.069   0.038
 1673SOL     OW 5917   2.442   1.493   4.400
 1673SOL    HW1 5918   2.449   1.395   4.379
 1673SOL    HW2 5919   2.398   1.504   4.489
 1674SOL     OW 5920   5.050   2.908   2.226
 1674SOL    HW1 5921   4.995   2.827   2.244
 1674SOL    HW2 5922   5.110   2.892   2.148
 1675SOL     OW 5923   5.822   0.904   1.196
 1675SOL    HW1 5924   5.904   0.856   1.227
 1675SOL    HW2 5925   5.827   0.917   1.097
 1676SOL     OW 5926   1.800   2.413   2.890
 1676SOL    HW1 5927   1.811   2.453   2.982
 1676SOL    HW2 5928   1.886   2.371   2.862
 1677SOL     OW 5929   3.756   3.690   2.977
 1677SOL    HW1 5930   3.789   3.632   3.051
 1677SOL    HW2 5931   3.830   3.749   2.945
 1678SOL     OW 5932   0.462   6.335   0.598
 1678SOL    HW1 5933   0.496   6.423   0.631
 1678SOL    HW2 5934   0.533   6.265   0.609
 1679SOL     OW 5935   1.999   1.838   5.294
 1679SOL    HW1 5936   2.033   1.747   5.270
 1679SOL    HW2 5937   1.914   1.829   5.345
 1680SOL     OW 5938   5.269   2.954   4.468
 1680SOL    HW1 5939   5.345   2.891   4.452
 1680SOL    HW2 5940   5.277   3.033   4.407
 1681SOL     OW 5941   1.718   5.720   3.905
 1681SOL    HW1 5942   1.815   5.740   3.917
 1681SOL    HW2 5943   1.698   5.630   3.944
 1682SOL     OW 5944   2.837   0.032   5.385
 1682SOL    HW1 5945   2.853   6.977   5.447
 1682SOL    HW2 5946   2.743   0.030   5.353
 1683SOL     OW 5947   5.839   4.922   2.704
 1683SOL    HW1 5948   5.926   4.966   2.680
 1683SOL    HW2 5949   5.817   4.942   2.799
 1684SOL     OW 5950   1.764   4.587   1.561
 1684SOL    HW1 5951   1.773   4.506   1.504
 1684SOL    HW2 5952   1.835   4.586   1.631
 1685SOL     OW 5953   1.405   1.559   5.759
 1685SOL    HW1 5954   1.402   1.644   5.707
 1685SOL    HW2 5955   1.320   1.508   5.745
 1686SOL     OW 5956   4.878   5.496   3.643
 1686SOL    HW1 5957   4.849   5.592   3.638
 1686SOL    HW2 5958   4.974   5.489   3.616
 1687SOL     OW 5959   0.251   3.560   2.437
 1687SOL    HW1 5960   0.275   3.529   2.528
 1687SOL    HW2 5961   0.334   3.569   2.382
 1688SOL     OW 5962   2.178   2.173   3.444
 1688SOL    HW1 5963   2.267   2.210   3.418
 1688SOL    HW2 5964   2.187   2.075   3.461
 1689SOL     OW 5965   6.332   1.110   2.222
 1689SOL    HW1 5966   6.388   1.098   2.303
 1689SOL    HW2 5967   6.325   1.023   2.173
 1690SOL     OW 5968   0.876   3.900   4.055
 1690SOL    HW1 5969   0.787   3.859   4.078
 1690SOL    HW2 5970   0.861   3.987   4.008
 1691SOL     OW 5971   4.838   3.196   4.478
 1691SOL    HW1 5972   4.807   3.146   4.559
 1691SOL    HW2 5973   4.834   3.135   4.398
 1692SOL     OW 5974   5.669   5.161   2.062
 1692SOL    HW1 5975   5.575   5.154   2.096
 1692SOL    HW2 5976   5.715   5.073   2.074
 1693SOL     OW 5977   6.849   1.495   5.472
 1693SOL    HW1 5978   6.866   1.593   5.456
 1693SOL    HW2 5979   6.923   1.458   5.528
 1694SOL     OW 5980   6.122   1.110   4.959
 1694SOL    HW1 5981   6.105   1.188   5.020
 1694SOL    HW2 5982   6.111   1.140   4.864
 1695SOL     OW 5983   3.817   0.734   0.155
 1695SOL    HW1 5984   3.747   0.798   0.184
 1695SOL    HW2 5985   3.807   0.715   0.057
 1696SOL     OW 5986   4.290   5.504   0.444
 1696SOL    HW1 5987   4.316   5.591   0.403
 1696SOL    HW2 5988   4.362   5.436   0.426
 1697SOL     OW 5989   6.106   2.478   1.014
 1697SOL    HW1 5990   6.049   2.404   0.980
 1697SOL    HW2 5991   6.048   2.547   1.058
 1698SOL     OW 5992   3.483   0.874   2.013
 1698SOL    HW1 5993   3.573   0.883   1.970
 1698SOL    HW2 5994   3.464   0.777   2.030
 1699SOL     OW 5995   2.639   1.087   6.663
 1699SOL    HW1 5996   2.615   1.108   6.758
 1699SOL    HW2 5997   2.713   1.020   6.662
 1700SOL     OW 5998   5.838   3.757   3.774
 1700SOL    HW1 5999   5.876   3.831   3.721
 1700SOL    HW2 6000   5.756   3.721   3.728
 1701SOL     OW 6001   6.466   4.689   4.735
 1701SOL    HW1 6002   6.565   4.686   4.751
 1701SOL    HW2 6003   6.448   4.686   4.636
 1702SOL     OW 6004   2.132   1.782   6.152
 1702SOL    HW1 6005   2.066   1.833   6.206
 1702SOL    HW2 6006   2.225   1.803   6.184
 1703SOL     OW 6007   2.943   1.135   6.374
 1703SOL    HW1 6008   2.897   1.223   6.361
 1703SOL    HW2 6009   2.898   1.066   6.318
 1704SOL     OW 6010   2.570   1.590   0.832
 1704SOL    HW1 6011   2.570   1.583   0.932
 1704SOL    HW2 6012   2.496   1.652   0.804
 1705SOL     OW 6013   3.643   1.756   1.901
 1705SOL    HW1 6014   3.612   1.851   1.904
 1705SOL    HW2 6015   3.621   1.711   1.988
 1706SOL     OW 6016   4.639   1.992   0.854
 1706SOL    HW1 6017   4.607   1.905   0.818
 1706SOL    HW2 6018   4.593   2.067   0.807
 1707SOL     OW 6019   4.661   1.580   2.569
 1707SOL    HW1 6020   4.655   1.484   2.596
 1707SOL    HW2 6021   4.616   1.593   2.481
 1708SOL     OW 6022   3.139   5.490   2.124
 1708SOL    HW1 6023   3.194   5.482   2.040
 1708SOL    HW2 6024   3.074   5.565   2.114
 1709SOL     OW 6025   5.051   5.690   0.719
 1709SOL    HW1 6026   5.021   5.786   0.713
 1709SOL    HW2 6027   5.039   5.646   0.630
 1710SOL     OW 6028   4.476   5.220   3.248
 1710SOL    HW1 6029   4.405   5.287   3.271
 1710SOL    HW2 6030   4.566   5.257   3.270
 1711SOL     OW 6031   3.663   6.081   5.832
 1711SOL    HW1 6032   3.673   5.982   5.822
 1711SOL    HW2 6033   3.744   6.119   5.876
 1712SOL     OW 6034   0.249   2.276   4.823
 1712SOL    HW1 6035   0.307   2.357   4.822
 1712SOL    HW2 6036   0.209   2.265   4.914
 1713SOL     OW 6037   3.952   0.617   2.873
 1713SOL    HW1 6038   3.958   0.693   2.808
 1713SOL    HW2 6039   3.876   0.557   2.849
 1714SOL     OW 6040   3.895   2.697   6.951
 1714SOL    HW1 6041   3.874   2.643   0.010
 1714SOL    HW2 6042   3.855   2.653   6.870
 1715SOL     OW 6043   1.197   6.318   2.348
 1715SOL    HW1 6044   1.199   6.340   2.445
 1715SOL    HW2 6045   1.193   6.403   2.295
 1716SOL     OW 6046   5.124   0.743   4.426
 1716SOL    HW1 6047   5.211   0.713   4.387
 1716SOL    HW2 6048   5.057   0.757   4.353
 1717SOL     OW 6049   4.258   6.238   5.400
 1717SOL    HW1 6050   4.252   6.146   5.438
 1717SOL    HW2 6051   4.312   6.296   5.461
 1718SOL     OW 6052   2.200   2.230   2.105
 1718SOL    HW1 6053   2.292   2.215   2.067
 1718SOL    HW2 6054   2.208   2.263   2.199
 1719SOL     OW 6055   1.152   4.433   1.498
 1719SOL    HW1 6056   1.158   4.417   1.597
 1719SOL    HW2 6057   1.240   4.467   1.465
 1720SOL     OW 6058   6.758   2.757   5.837
 1720SOL    HW1 6059   6.705   2.838   5.862
 1720SOL    HW2 6060   6.697   2.678   5.828
 1721SOL     OW 6061   1.278   1.322   1.849
 1721SOL    HW1 6062   1.354   1.262   1.875
 1721SOL    HW2 6063   1.201   1.266   1.817
 1722SOL     OW 6064   3.317   2.135   2.693
 1722SOL    HW1 6065   3.334   2.146   2.595
 1722SOL    HW2 6066   3.221   2.156   2.712
 1723SOL     OW 6067   5.020   2.127   6.913
 1723SOL    HW1 6068   5.038   2.225   6.916
 1723SOL    HW2 6069   5.100   2.077   6.946
 1724SOL     OW 6070   6.277   2.511   1.348
 1724SOL    HW1 6071   6.222   2.433   1.318
 1724SOL    HW2 6072   6.369   2.506   1.308
 1725SOL     OW 6073   2.268   4.993   6.671
 1725SOL    HW1 6074   2.306   5.005   6.763
 1725SOL    HW2 6075   2.252   4.896   6.653
 1726SOL     OW 6076   5.552   4.880   3.768
 1726SOL    HW1 6077   5.595   4.824   3.838
 1726SOL    HW2 6078   5.513   4.820   3.697
 1727SOL     OW 6079   2.971   3.669   3.218
 1727SOL    HW1 6080   3.020   3.728   3.283
 1727SOL    HW2 6081   2.955   3.719   3.133
 1728SOL     OW 6082   4.819   3.658   5.561
 1728SOL    HW1 6083   4.754   3.727   5.591
 1728SOL    HW2 6084   4.849   3.678   5.468
 1729SOL     OW 6085   1.813   4.005   2.095
 1729SOL    HW1 6086   1.759   4.035   2.016
 1729SOL    HW2 6087   1.752   3.980   2.170
 1730SOL     OW 6088   2.527   5.040   5.362
 1730SOL    HW1 6089   2.519   4.950   5.319
 1730SOL    HW2 6090   2.528   5.030   5.461
 1731SOL     OW 6091   5.747   4.703   3.944
 1731SOL    HW1 6092   5.817   4.641   3.908
 1731SOL    HW2 6093   5.683   4.651   4.001
 1732SOL     OW 6094   2.061   4.852   6.892
 1732SOL    HW1 6095   2.059   4.755   6.867
 1732SOL    HW2 6096   2.049   4.861   6.991
 1733SOL     OW 6097   2.647   3.971   0.266
 1733SOL    HW1 6098   2.644   4.063   0.227
 1733SOL    HW2 6099   2.576   3.961   0.336
 1734SOL     OW 6100   6.755   3.088   1.402
 1734SOL    HW1 6101   6.785   3.145   1.325
 1734SOL    HW2 6102   6.685   3.137   1.453
 1735SOL     OW 6103   4.514   5.148   6.511
 1735SOL    HW1 6104   4.604   5.164   6.551
 1735SOL    HW2 6105   4.466   5.235   6.501
 1736SOL     OW 6106   4.619   3.734   1.159
 1736SOL    HW1 6107   4.620   3.637   1.185
 1736SOL    HW2 6108   4.552   3.783   1.214
 1737SOL     OW 6109   4.363   1.183   4.583
 1737SOL    HW1 6110   4.358   1.280   4.606
 1737SOL    HW2 6111   4.450   1.145   4.616
 1738SOL     OW 6112   1.356   3.853   3.945
 1738SOL    HW1 6113   1.340   3.765   3.989
 1738SOL    HW2 6114   1.427   3.843   3.875
 1739SOL     OW 6115   5.598   0.184   3.914
 1739SOL    HW1 6116   5.511   0.181   3.964
 1739SOL    HW2 6117   5.655   0.258   3.951
 1740SOL     OW 6118   6.894   2.050   4.386
 1740SOL    HW1 6119   6.930   2.019   4.474
 1740SOL    HW2 6120   6.952   2.124   4.352
 1741SOL     OW 6121   1.541   1.991   4.719
 1741SOL    HW1 6122   1.585   2.016   4.805
 1741SOL    HW2 6123   1.596   2.024   4.642
 1742SOL     OW 6124   6.313   6.240   6.231
 1742SOL    HW1 6125   6.409   6.253   6.255
 1742SOL    HW2 6126   6.292   6.291   6.148
 1743SOL     OW 6127   1.555   1.114   3.063
 1743SOL    HW1 6128   1.485   1.176   3.029
 1743SOL    HW2 6129   1.644   1.161   3.064
 1744SOL     OW 6130   5.029   2.494   3.471
 1744SOL    HW1 6131   4.939   2.537   3.467
 1744SOL    HW2 6132   5.090   2.539   3.405
 1745SOL     OW 6133   6.303   6.478   1.356
 1745SOL    HW1 6134   6.281   6.392   1.310
 1745SOL    HW2 6135   6.397   6.474   1.390
 1746SOL     OW 6136   1.807   3.628   3.235
 1746SOL    HW1 6137   1.799   3.626   3.135
 1746SOL    HW2 6138   1.894   3.671   3.261
 1747SOL     OW 6139   3.254   1.394   2.320
 1747SOL    HW1 6140   3.203   1.311   2.346
 1747SOL    HW2 6141   3.207   1.438   2.243
 1748SOL     OW 6142   7.010   1.711   4.473
 1748SOL    HW1 6143   6.918   1.688   4.441
 1748SOL    HW2 6144   7.005   1.787   4.538
 1749SOL     OW 6145   2.713   5.532   0.896
 1749SOL    HW1 6146   2.805   5.566   0.915
 1749SOL    HW2 6147   2.646   5.588   0.944
 1750SOL     OW 6148   4.313   0.887   5.693
 1750SOL    HW1 6149   4.263   0.808   5.729
 1750SOL    HW2 6150   4.400   0.896   5.742
 1751SOL     OW 6151   5.960   2.723   5.322
 1751SOL    HW1 6152   5.916   2.718   5.412
 1751SOL    HW2 6153   5.924   2.801   5.271
 1752SOL     OW 6154   6.476   1.021   1.248
 1752SOL    HW1 6155   6.537   1.100   1.253
 1752SOL    HW2 6156   6.475   0.975   1.337
 1753SOL     OW 6157   6.576   1.809   1.612
 1753SOL    HW1 6158   6.633   1.827   1.692
 1753SOL    HW2 6159   6.505   1.742   1.635
 1754SOL     OW 6160   2.941   6.101   5.636
 1754SOL    HW1 6161   2.869   6.066   5.577
 1754SOL    HW2 6162   3.030   6.075   5.600
 1755SOL     OW 6163   6.346   0.094   4.871
 1755SOL    HW1 6164   6.384   0.008   4.905
 1755SOL    HW2 6165   6.266   0.076   4.815
 1756SOL     OW 6166   5.800   0.252   6.375
 1756SOL    HW1 6167   5.723   0.282   6.319
 1756SOL    HW2 6168   5.871   0.214   6.317
 1757SOL     OW 6169   2.645   5.607   4.878
 1757SOL    HW1 6170   2.743   5.608   4.857
 1757SOL    HW2 6171   2.622   5.520   4.922
 1758SOL     OW 6172   1.826   6.771   4.966
 1758SOL    HW1 6173   1.741   6.806   5.006
 1758SOL    HW2 6174   1.824   6.671   4.967
 1759SOL     OW 6175   1.316   6.507   0.207
 1759SOL    HW1 6176   1.256   6.429   0.188
 1759SOL    HW2 6177   1.271   6.569   0.271
 1760SOL     OW 6178   6.613   0.880   5.213
 1760SOL    HW1 6179   6.603   0.826   5.297
 1760SOL    HW2 6180   6.528   0.927   5.193
 1761SOL     OW 6181   6.725   1.895   1.169
 1761SOL    HW1 6182   6.776   1.955   1.230
 1761SOL    HW2 6183   6.634   1.932   1.152
 1762SOL     OW 6184   0.394   1.315   5.602
 1762SOL    HW1 6185   0.487   1.320   5.639
 1762SOL    HW2 6186   0.377   1.223   5.566
 1763SOL     OW 6187   0.839   3.720   4.415
 1763SOL    HW1 6188   0.927   3.752   4.451
 1763SOL    HW2 6189   0.844   3.622   4.396
 1764SOL     OW 6190   1.433   4.673   2.253
 1764SOL    HW1 6191   1.452   4.575   2.259
 1764SOL    HW2 6192   1.444   4.714   2.344
 1765SOL     OW 6193   5.609   2.983   1.814
 1765SOL    HW1 6194   5.542   2.909   1.803
 1765SOL    HW2 6195   5.595   3.051   1.742
 1766SOL     OW 6196   4.119   4.775   4.323
 1766SOL    HW1 6197   4.023   4.801   4.336
 1766SOL    HW2 6198   4.173   4.804   4.402
 1767SOL     OW 6199   6.905   5.144   2.474
 1767SOL    HW1 6200   6.883   5.072   2.408
 1767SOL    HW2 6201   6.821   5.192   2.500
 1768SOL     OW 6202   4.546   6.592   2.153
 1768SOL    HW1 6203   4.534   6.593   2.252
 1768SOL    HW2 6204   4.457   6.586   2.108
 1769SOL     OW 6205   5.657   0.109   6.569
 1769SOL    HW1 6206   5.710   0.106   6.654
 1769SOL    HW2 6207   5.708   0.160   6.499
 1770SOL     OW 6208   1.609   4.674   6.222
 1770SOL    HW1 6209   1.655   4.714   6.143
 1770SOL    HW2 6210   1.624   4.575   6.222
 1771SOL     OW 6211   1.087   3.639   6.296
 1771SOL    HW1 6212   1.144   3.589   6.231
 1771SOL    HW2 6213   1.126   3.629   6.388
 1772SOL     OW 6214   2.838   4.799   3.931
 1772SOL    HW1 6215   2.917   4.774   3.988
 1772SOL    HW2 6216   2.765   4.731   3.944
 1773SOL     OW 6217   0.198   6.944   5.351
 1773SOL    HW1 6218   0.161   6.876   5.414
 1773SOL    HW2 6219   0.256   6.899   5.283
 1774SOL     OW 6220   5.825   5.778   1.212
 1774SOL    HW1 6221   5.774   5.744   1.291
 1774SOL    HW2 6222   5.763   5.822   1.148
 1775SOL     OW 6223   1.530   5.433   6.800
 1775SOL    HW1 6224   1.567   5.376   6.874
 1775SOL    HW2 6225   1.604   5.458   6.738
 1776SOL     OW 6226   4.108   1.028   5.633
 1776SOL    HW1 6227   4.180   0.964   5.655
 1776SOL    HW2 6228   4.108   1.104   5.698
 1777SOL     OW 6229   4.523   6.396   0.188
 1777SOL    HW1 6230   4.459   6.469   0.211
 1777SOL    HW2 6231   4.485   6.308   0.217
 1778SOL     OW 6232   5.911   0.903   3.787
 1778SOL    HW1 6233   5.972   0.969   3.742
 1778SOL    HW2 6234   5.816   0.933   3.778
 1779SOL     OW 6235   5.649   6.818   4.204
 1779SOL    HW1 6236   5.614   6.866   4.124
 1779SOL    HW2 6237   5.573   6.771   4.251
 1780SOL     OW 6238   1.856   5.469   5.016
 1780SOL    HW1 6239   1.866   5.455   4.918
 1780SOL    HW2 6240   1.887   5.561   5.041
 1781SOL     OW 6241   4.275   0.306   3.869
 1781SOL    HW1 6242   4.191   0.321   3.922
 1781SOL    HW2 6243   4.330   0.389   3.869
 1782SOL     OW 6244   1.496   1.681   2.629
 1782SOL    HW1 6245   1.509   1.667   2.727
 1782SOL    HW2 6246   1.418   1.626   2.598
 1783SOL     OW 6247   1.806   3.908   5.951
 1783SOL    HW1 6248   1.896   3.947   5.934
 1783SOL    HW2 6249   1.759   3.891   5.864
 1784SOL     OW 6250   2.245   0.841   1.067
 1784SOL    HW1 6251   2.319   0.790   1.110
 1784SOL    HW2 6252   2.238   0.931   1.111
 1785SOL     OW 6253   1.095   6.548   4.622
 1785SOL    HW1 6254   1.065   6.575   4.531
 1785SOL    HW2 6255   1.167   6.611   4.654
 1786SOL     OW 6256   1.436   6.050   0.689
 1786SOL    HW1 6257   1.528   6.089   0.698
 1786SOL    HW2 6258   1.442   5.956   0.658
 1787SOL     OW 6259   2.077   3.619   5.703
 1787SOL    HW1 6260   2.138   3.545   5.733
 1787SOL    HW2 6261   2.080   3.625   5.603
 1788SOL     OW 6262   4.657   3.973   0.529
 1788SOL    HW1 6263   4.674   3.900   0.595
 1788SOL    HW2 6264   4.628   4.056   0.578
 1789SOL     OW 6265   6.986   3.761   1.848
 1789SOL    HW1 6266   0.026   3.813   1.907
 1789SOL    HW2 6267   6.920   3.712   1.905
 1790SOL     OW 6268   2.754   2.343   4.260
 1790SOL    HW1 6269   2.793   2.349   4.168
 1790SOL    HW2 6270   2.683   2.413   4.270
 1791SOL     OW 6271   6.043   0.199   3.761
 1791SOL    HW1 6272   6.132   0.190   3.805
 1791SOL    HW2 6273   5.991   0.114   3.774
 1792SOL     OW 6274   6.720   1.559   5.087
 1792SOL    HW1 6275   6.802   1.595   5.041
 1792SOL    HW2 6276   6.684   1.627   5.150
 1793SOL     OW 6277   0.011   1.159   5.617
 1793SOL    HW1 6278   0.091   1.103   5.635
 1793SOL    HW2 6279   0.005   1.179   5.519
 1794SOL     OW 6280   0.005   0.183   6.390
 1794SOL    HW1 6281   6.970   0.155   6.314
 1794SOL    HW2 6282   6.970   0.221   6.463
 1795SOL     OW 6283   6.020   4.862   0.108
 1795SOL    HW1 6284   6.004   4.961   0.097
 1795SOL    HW2 6285   5.946   4.823   0.164
 1796SOL     OW 6286   1.025   6.693   5.659
 1796SOL    HW1 6287   0.925   6.701   5.655
 1796SOL    HW2 6288   1.049   6.604   5.698
 1797SOL     OW 6289   2.346   6.212   4.831
 1797SOL    HW1 6290   2.329   6.115   4.850
 1797SOL    HW2 6291   2.442   6.234   4.848
 1798SOL     OW 6292   3.317   4.142   4.756
 1798SOL    HW1 6293   3.235   4.096   4.722
 1798SOL    HW2 6294   3.320   4.137   4.856
 1799SOL     OW 6295   3.240   0.909   0.156
 1799SOL    HW1 6296   3.142   0.926   0.155
 1799SOL    HW2 6297   3.289   0.993   0.132
 1800SOL     OW 6298   5.312   3.462   4.336
 1800SOL    HW1 6299   5.348   3.471   4.243
 1800SOL    HW2 6300   5.354   3.383   4.381
 1801SOL     OW 6301   0.944   1.559   2.131
 1801SOL    HW1 6302   0.909   1.470   2.102
 1801SOL    HW2 6303   0.930   1.570   2.229
 1802SOL     OW 6304   6.458   4.806   3.732
 1802SOL    HW1 6305   6.521   4.773   3.662
 1802SOL    HW2 6306   6.504   4.807   3.821
 1803SOL     OW 6307   0.654   6.633   2.980
 1803SOL    HW1 6308   0.752   6.612   2.978
 1803SOL    HW2 6309   0.611   6.597   2.897
 1804SOL     OW 6310   2.633   3.179   6.094
 1804SOL    HW1 6311   2.675   3.142   6.011
 1804SOL    HW2 6312   2.705   3.209   6.157
 1805SOL     OW 6313   0.025   6.251   6.196
 1805SOL    HW1 6314   0.002   6.348   6.186
 1805SOL    HW2 6315   7.017   6.201   6.115
 1806SOL     OW 6316   6.955   2.002   1.934
 1806SOL    HW1 6317   6.987   2.083   1.885
 1806SOL    HW2 6318   6.965   2.016   2.033
 1807SOL     OW 6319   6.587   3.818   1.987
 1807SOL    HW1 6320   6.576   3.869   2.072
 1807SOL    HW2 6321   6.504   3.826   1.932
 1808SOL     OW 6322   5.452   1.891   5.866
 1808SOL    HW1 6323   5.412   1.938   5.944
 1808SOL    HW2 6324   5.440   1.793   5.876
 1809SOL     OW 6325   3.870   1.999   5.440
 1809SOL    HW1 6326   3.835   1.908   5.421
 1809SOL    HW2 6327   3.821   2.038   5.518
 1810SOL     OW 6328   0.615   6.812   4.292
 1810SOL    HW1 6329   0.695   6.848   4.245
 1810SOL    HW2 6330   0.543   6.881   4.293
 1811SOL     OW 6331   4.099   5.828   2.633
 1811SOL    HW1 6332   4.013   5.810   2.680
 1811SOL    HW2 6333   4.107   5.768   2.553
 1812SOL     OW 6334   4.743   0.090   5.822
 1812SOL    HW1 6335   4.819   0.108   5.883
 1812SOL    HW2 6336   4.721   7.014   5.823
 1813SOL     OW 6337   4.670   4.292   2.475
 1813SOL    HW1 6338   4.605   4.366   2.458
 1813SOL    HW2 6339   4.673   4.231   2.395
 1814SOL     OW 6340   0.539   6.605   0.684
 1814SOL    HW1 6341   0.639   6.596   0.689
 1814SOL    HW2 6342   0.514   6.649   0.598
 1815SOL     OW 6343   5.741   6.269   1.970
 1815SOL    HW1 6344   5.731   6.288   1.872
 1815SOL    HW2 6345   5.815   6.325   2.007
 1816SOL     OW 6346   4.253   5.821   6.112
 1816SOL    HW1 6347   4.267   5.722   6.110
 1816SOL    HW2 6348   4.291   5.862   6.028
 1817SOL     OW 6349   1.544   1.561   3.789
 1817SOL    HW1 6350   1.502   1.498   3.854
 1817SOL    HW2 6351   1.641   1.574   3.812
 1818SOL     OW 6352   2.209   6.592   0.177
 1818SOL    HW1 6353   2.266   6.578   0.096
 1818SOL    HW2 6354   2.225   6.519   0.243
 1819SOL     OW 6355   1.833   4.550   2.888
 1819SOL    HW1 6356   1.854   4.591   2.799
 1819SOL    HW2 6357   1.915   4.548   2.945
 1820SOL     OW 6358   3.655   0.671   3.761
 1820SOL    HW1 6359   3.744   0.638   3.731
 1820SOL    HW2 6360   3.665   0.732   3.839
 1821SOL     OW 6361   4.517   1.882   2.524
 1821SOL    HW1 6362   4.458   1.963   2.515
 1821SOL    HW2 6363   4.460   1.801   2.533
 1822SOL     OW 6364   0.354   3.354   2.099
 1822SOL    HW1 6365   0.375   3.313   2.010
 1822SOL    HW2 6366   0.282   3.422   2.087
 1823SOL     OW 6367   4.030   6.351   2.302
 1823SOL    HW1 6368   3.947   6.295   2.311
 1823SOL    HW2 6369   4.007   6.436   2.254
 1824SOL     OW 6370   4.159   3.321   0.997
 1824SOL    HW1 6371   4.164   3.332   1.096
 1824SOL    HW2 6372   4.208   3.396   0.952
 1825SOL     OW 6373   2.096   2.084   5.279
 1825SOL    HW1 6374   2.036   2.118   5.207
 1825SOL    HW2 6375   2.066   1.992   5.306
 1826SOL     OW 6376   3.604   2.193   1.664
 1826SOL    HW1 6377   3.641   2.239   1.745
 1826SOL    HW2 6378   3.540   2.254   1.617
 1827SOL     OW 6379   5.542   4.819   0.603
 1827SOL    HW1 6380   5.449   4.855   0.592
 1827SOL    HW2 6381   5.553   4.785   0.696
 1828SOL     OW 6382   1.699   3.528   5.446
 1828SOL    HW1 6383   1.766   3.456   5.463
 1828SOL    HW2 6384   1.613   3.506   5.492
 1829SOL     OW 6385   3.124   0.950   3.884
 1829SOL    HW1 6386   3.070   1.026   3.845
 1829SOL    HW2 6387   3.125   0.874   3.819
 1830SOL     OW 6388   5.682   6.722   5.027
 1830SOL    HW1 6389   5.619   6.732   4.950
 1830SOL    HW2 6390   5.690   6.626   5.053
 1831SOL     OW 6391   5.006   5.711   2.852
 1831SOL    HW1 6392   4.972   5.722   2.945
 1831SOL    HW2 6393   5.069   5.785   2.830
 1832SOL     OW 6394   2.864   2.882   0.327
 1832SOL    HW1 6395   2.900   2.966   0.367
 1832SOL    HW2 6396   2.848   2.815   0.400
 1833SOL     OW 6397   5.052   0.337   1.181
 1833SOL    HW1 6398   4.990   0.416   1.185
 1833SOL    HW2 6399   5.046   0.295   1.090
 1834SOL     OW 6400   2.495   2.633   6.618
 1834SOL    HW1 6401   2.570   2.675   6.567
 1834SOL    HW2 6402   2.438   2.705   6.658
 1835SOL     OW 6403   0.145   5.097   1.481
 1835SOL    HW1 6404   0.069   5.162   1.474
 1835SOL    HW2 6405   0.231   5.144   1.462
 1836SOL     OW 6406   5.337   2.364   1.439
 1836SOL    HW1 6407   5.243   2.385   1.466
 1836SOL    HW2 6408   5.350   2.265   1.437
 1837SOL     OW 6409   2.849   1.668   6.211
 1837SOL    HW1 6410   2.859   1.743   6.276
 1837SOL    HW2 6411   2.759   1.672   6.168
 1838SOL     OW 6412   6.255   0.875   0.639
 1838SOL    HW1 6413   6.329   0.902   0.701
 1838SOL    HW2 6414   6.246   0.776   0.638
 1839SOL     OW 6415   5.597   1.315   6.857
 1839SOL    HW1 6416   5.595   1.279   6.950
 1839SOL    HW2 6417   5.691   1.338   6.832
 1840SOL     OW 6418   4.264   0.028   3.136
 1840SOL    HW1 6419   4.235   0.107   3.190
 1840SOL    HW2 6420   4.187   7.016   3.083
 1841SOL     OW 6421   2.049   1.511   2.034
 1841SOL    HW1 6422   1.983   1.556   2.094
 1841SOL    HW2 6423   2.089   1.432   2.081
 1842SOL     OW 6424   1.667   5.612   0.545
 1842SOL    HW1 6425   1.633   5.599   0.452
 1842SOL    HW2 6426   1.748   5.555   0.558
 1843SOL     OW 6427   3.542   1.217   4.428
 1843SOL    HW1 6428   3.453   1.251   4.399
 1843SOL    HW2 6429   3.532   1.123   4.461
 1844SOL     OW 6430   5.459   1.126   6.688
 1844SOL    HW1 6431   5.512   1.158   6.766
 1844SOL    HW2 6432   5.464   1.192   6.614
 1845SOL     OW 6433   1.869   1.494   3.131
 1845SOL    HW1 6434   1.833   1.587   3.144
 1845SOL    HW2 6435   1.923   1.467   3.210
 1846SOL     OW 6436   4.220   1.318   2.478
 1846SOL    HW1 6437   4.213   1.279   2.386
 1846SOL    HW2 6438   4.280   1.398   2.476
 1847SOL     OW 6439   2.212   0.300   5.130
 1847SOL    HW1 6440   2.142   0.368   5.152
 1847SOL    HW2 6441   2.171   0.226   5.076
 1848SOL     OW 6442   2.450   5.686   4.295
 1848SOL    HW1 6443   2.351   5.681   4.308
 1848SOL    HW2 6444   2.492   5.720   4.379
 1849SOL     OW 6445   4.679   2.709   1.949
 1849SOL    HW1 6446   4.593   2.740   1.909
 1849SOL    HW2 6447   4.755   2.758   1.907
 1850SOL     OW 6448   5.061   1.784   1.666
 1850SOL    HW1 6449   5.108   1.843   1.731
 1850SOL    HW2 6450   5.085   1.811   1.573
 1851SOL     OW 6451   6.847   3.818   5.588
 1851SOL    HW1 6452   6.861   3.916   5.571
 1851SOL    HW2 6453   6.802   3.777   5.509
 1852SOL     OW 6454   1.532   5.439   2.225
 1852SOL    HW1 6455   1.516   5.354   2.176
 1852SOL    HW2 6456   1.627   5.469   2.210
 1853SOL     OW 6457   0.683   2.470   4.300
 1853SOL    HW1 6458   0.756   2.467   4.368
 1853SOL    HW2 6459   0.594   2.467   4.346
 1854SOL     OW 6460   0.312   6.265   3.845
 1854SOL    HW1 6461   0.355   6.331   3.906
 1854SOL    HW2 6462   0.318   6.297   3.751
 1855SOL     OW 6463   4.753   3.385   5.322
 1855SOL    HW1 6464   4.743   3.471   5.272
 1855SOL    HW2 6465   4.666   3.361   5.366
 1856SOL     OW 6466   3.626   2.804   0.271
 1856SOL    HW1 6467   3.601   2.850   0.356
 1856SOL    HW2 6468   3.613   2.866   0.194
 1857SOL     OW 6469   4.819   0.991   0.608
 1857SOL    HW1 6470   4.869   1.073   0.635
 1857SOL    HW2 6471   4.802   0.994   0.509
 1858SOL     OW 6472   4.207   2.329   4.343
 1858SOL    HW1 6473   4.274   2.403   4.344
 1858SOL    HW2 6474   4.180   2.310   4.249
 1859SOL     OW 6475   5.519   1.965   3.756
 1859SOL    HW1 6476   5.559   1.898   3.819
 1859SOL    HW2 6477   5.463   1.918   3.688
 1860SOL     OW 6478   1.563   0.976   4.718
 1860SOL    HW1 6479   1.512   0.895   4.690
 1860SOL    HW2 6480   1.526   1.056   4.672
 1861SOL     OW 6481   6.257   0.401   3.188
 1861SOL    HW1 6482   6.202   0.322   3.160
 1861SOL    HW2 6483   6.265   0.403   3.288
 1862SOL     OW 6484   2.814   6.165   6.645
 1862SOL    HW1 6485   2.755   6.230   6.596
 1862SOL    HW2 6486   2.819   6.079   6.594
 1863SOL     OW 6487   0.273   2.724   1.654
 1863SOL    HW1 6488   0.322   2.766   1.730
 1863SOL    HW2 6489   0.199   2.785   1.624
 1864SOL     OW 6490   3.575   5.919   2.865
 1864SOL    HW1 6491   3.565   6.017   2.885
 1864SOL    HW2 6492   3.559   5.866   2.949
 1865SOL     OW 6493   5.582   0.923   6.196
 1865SOL    HW1 6494   5.673   0.883   6.200
 1865SOL    HW2 6495   5.586   1.018   6.225
 1866SOL     OW 6496   0.116   4.304   3.410
 1866SOL    HW1 6497   0.065   4.360   3.345
 1866SOL    HW2 6498   0.062   4.224   3.436
 1867SOL     OW 6499   2.319   2.459   0.776
 1867SOL    HW1 6500   2.350   2.422   0.864
 1867SOL    HW2 6501   2.236   2.514   0.791
 1868SOL     OW 6502   6.067   4.505   5.886
 1868SOL    HW1 6503   6.121   4.589   5.880
 1868SOL    HW2 6504   5.970   4.527   5.872
 1869SOL     OW 6505   4.497   2.044   4.444
 1869SOL    HW1 6506   4.421   1.992   4.404
 1869SOL    HW2 6507   4.469   2.082   4.532
 1870SOL     OW 6508   0.535   4.923   4.048
 1870SOL    HW1 6509   0.573   4.949   3.959
 1870SOL    HW2 6510   0.485   5.000   4.086
 1871SOL     OW 6511   0.847   6.761   0.547
 1871SOL    HW1 6512   0.806   6.766   0.456
 1871SOL    HW2 6513   0.857   6.665   0.574
 1872SOL     OW 6514   2.479   2.667   0.667
 1872SOL    HW1 6515   2.413   2.596   0.692
 1872SOL    HW2 6516   2.451   2.709   0.580
 1873SOL     OW 6517   6.523   0.644   0.006
 1873SOL    HW1 6518   6.461   0.694   0.067
 1873SOL    HW2 6519   6.543   0.555   0.045
 1874SOL     OW 6520   1.137   6.304   0.199
 1874SOL    HW1 6521   1.125   6.248   0.282
 1874SOL    HW2 6522   1.119   6.247   0.118
 1875SOL     OW 6523   6.228   4.924   6.985
 1875SOL    HW1 6524   6.201   5.006   6.934
 1875SOL    HW2 6525   6.149   4.888   0.012
 1876SOL     OW 6526   6.677   5.753   6.583
 1876SOL    HW1 6527   6.647   5.848   6.583
 1876SOL    HW2 6528   6.742   5.738   6.658
 1877SOL     OW 6529   0.210   0.861   2.462
 1877SOL    HW1 6530   0.211   0.932   2.391
 1877SOL    HW2 6531   0.276   0.790   2.439
 1878SOL     OW 6532   6.895   4.862   3.565
 1878SOL    HW1 6533   6.986   4.878   3.604
 1878SOL    HW2 6534   6.903   4.795   3.491
 1879SOL     OW 6535   3.860   5.666   4.837
 1879SOL    HW1 6536   3.844   5.617   4.752
 1879SOL    HW2 6537   3.950   5.708   4.835
 1880SOL     OW 6538   0.577   1.698   3.979
 1880SOL    HW1 6539   0.532   1.618   3.942
 1880SOL    HW2 6540   0.656   1.722   3.922
 1881SOL     OW 6541   1.410   1.420   3.967
 1881SOL    HW1 6542   1.355   1.474   4.031
 1881SOL    HW2 6543   1.365   1.333   3.949
 1882SOL     OW 6544   1.382   5.518   0.171
 1882SOL    HW1 6545   1.286   5.492   0.180
 1882SOL    HW2 6546   1.388   5.607   0.127
 1883SOL     OW 6547   1.483   3.008   2.926
 1883SOL    HW1 6548   1.458   3.041   3.017
 1883SOL    HW2 6549   1.583   3.000   2.921
 1884SOL     OW 6550   2.953   0.609   0.092
 1884SOL    HW1 6551   2.914   0.648   0.176
 1884SOL    HW2 6552   3.031   0.551   0.115
 1885SOL     OW 6553   6.815   2.320   0.968
 1885SOL    HW1 6554   6.843   2.275   1.053
 1885SOL    HW2 6555   6.805   2.252   0.896
 1886SOL     OW 6556   2.743   2.839   6.905
 1886SOL    HW1 6557   2.789   2.842   6.816
 1886SOL    HW2 6558   2.796   2.781   6.967
 1887SOL     OW 6559   1.496   6.624   5.695
 1887SOL    HW1 6560   1.499   6.568   5.778
 1887SOL    HW2 6561   1.434   6.701   5.709
 1888SOL     OW 6562   1.845   2.344   6.241
 1888SOL    HW1 6563   1.894   2.266   6.279
 1888SOL    HW2 6564   1.837   2.333   6.142
 1889SOL     OW 6565   4.476   2.771   0.358
 1889SOL    HW1 6566   4.540   2.772   0.434
 1889SOL    HW2 6567   4.517   2.819   0.280
 1890SOL     OW 6568   0.039   5.786   6.453
 1890SOL    HW1 6569   0.106   5.786   6.526
 1890SOL    HW2 6570   7.002   5.866   6.461
 1891SOL     OW 6571   6.189   3.150   5.578
 1891SOL    HW1 6572   6.277   3.161   5.624
 1891SOL    HW2 6573   6.117   3.194   5.632
 1892SOL     OW 6574   3.783   5.270   2.087
 1892SOL    HW1 6575   3.756   5.359   2.049
 1892SOL    HW2 6576   3.700   5.217   2.109
 1893SOL     OW 6577   3.777   1.813   4.123
 1893SOL    HW1 6578   3.711   1.879   4.088
 1893SOL    HW2 6579   3.773   1.729   4.069
 1894SOL     OW 6580   4.361   3.932   0.703
 1894SOL    HW1 6581   4.443   3.923   0.758
 1894SOL    HW2 6582   4.344   3.847   0.653
 1895SOL     OW 6583   5.605   0.691   3.149
 1895SOL    HW1 6584   5.598   0.790   3.139
 1895SOL    HW2 6585   5.681   0.657   3.093
 1896SOL     OW 6586   0.130   1.411   5.134
 1896SOL    HW1 6587   0.227   1.396   5.152
 1896SOL    HW2 6588   0.076   1.345   5.186
 1897SOL     OW 6589   5.690   4.714   3.350
 1897SOL    HW1 6590   5.753   4.651   3.305
 1897SOL    HW2 6591   5.711   4.808   3.321
 1898SOL     OW 6592   5.688   4.795   1.109
 1898SOL    HW1 6593   5.767   4.763   1.161
 1898SOL    HW2 6594   5.635   4.859   1.164
 1899SOL     OW 6595   0.627   2.917   2.693
 1899SOL    HW1 6596   0.697   2.980   2.659
 1899SOL    HW2 6597   0.669   2.847   2.750
 1900SOL     OW 6598   2.118   5.701   6.067
 1900SOL    HW1 6599   2.022   5.728   6.051
 1900SOL    HW2 6600   2.177   5.780   6.051
 1901SOL     OW 6601   1.626   1.042   6.473
 1901SOL    HW1 6602   1.704   1.010   6.420
 1901SOL    HW2 6603   1.630   1.142   6.481
 1902SOL     OW 6604   0.973   2.881   4.505
 1902SOL    HW1 6605   0.949   2.978   4.498
 1902SOL    HW2 6606   1.036   2.868   4.582
 1903SOL     OW 6607   6.133   3.609   3.413
 1903SOL    HW1 6608   6.201   3.541   3.386
 1903SOL    HW2 6609   6.086   3.578   3.496
 1904SOL     OW 6610   6.531   0.264   3.817
 1904SOL    HW1 6611   6.550   0.197   3.889
 1904SOL    HW2 6612   6.559   0.227   3.728
 1905SOL     OW 6613   0.157   2.245   3.690
 1905SOL    HW1 6614   0.141   2.298   3.773
 1905SOL    HW2 6615   0.228   2.289   3.635
 1906SOL     OW 6616   2.654   0.378   6.394
 1906SOL    HW1 6617   2.753   0.369   6.403
 1906SOL    HW2 6618   2.633   0.448   6.325
 1907SOL     OW 6619   3.221   6.040   3.916
 1907SOL    HW1 6620   3.264   6.042   3.826
 1907SOL    HW2 6621   3.156   5.964   3.921
 1908SOL     OW 6622   4.068   1.345   6.158
 1908SOL    HW1 6623   4.125   1.393   6.224
 1908SOL    HW2 6624   4.102   1.251   6.146
 1909SOL     OW 6625   2.482   5.327   4.539
 1909SOL    HW1 6626   2.545   5.378   4.481
 1909SOL    HW2 6627   2.533   5.264   4.598
 1910SOL     OW 6628   5.392   2.051   6.095
 1910SOL    HW1 6629   5.440   2.037   6.182
 1910SOL    HW2 6630   5.413   2.142   6.059
 1911SOL     OW 6631   6.357   2.801   5.050
 1911SOL    HW1 6632   6.450   2.836   5.040
 1911SOL    HW2 6633   6.298   2.845   4.983
 1912SOL     OW 6634   3.588   6.969   2.811
 1912SOL    HW1 6635   3.526   6.996   2.884
 1912SOL    HW2 6636   3.673   7.021   2.819
 1913SOL     OW 6637   1.898   5.493   5.672
 1913SOL    HW1 6638   1.992   5.509   5.640
 1913SOL    HW2 6639   1.837   5.484   5.594
 1914SOL     OW 6640   3.520   2.534   6.085
 1914SOL    HW1 6641   3.457   2.553   6.161
 1914SOL    HW2 6642   3.527   2.615   6.027
 1915SOL     OW 6643   3.483   0.105   5.738
 1915SOL    HW1 6644   3.570   0.061   5.717
 1915SOL    HW2 6645   3.471   0.185   5.680
 1916SOL     OW 6646   3.151   6.017   2.079
 1916SOL    HW1 6647   3.132   5.928   2.120
 1916SOL    HW2 6648   3.248   6.023   2.056
 1917SOL     OW 6649   2.945   3.232   4.210
 1917SOL    HW1 6650   2.897   3.262   4.127
 1917SOL    HW2 6651   3.029   3.285   4.221
 1918SOL     OW 6652   5.894   5.834   4.828
 1918SOL    HW1 6653   5.844   5.805   4.909
 1918SOL    HW2 6654   5.985   5.865   4.855
 1919SOL     OW 6655   0.187   6.145   1.752
 1919SOL    HW1 6656   0.145   6.161   1.841
 1919SOL    HW2 6657   0.167   6.051   1.723
 1920SOL     OW 6658   0.167   5.863   3.977
 1920SOL    HW1 6659   0.133   5.782   4.025
 1920SOL    HW2 6660   0.241   5.905   4.030
 1921SOL     OW 6661   1.147   6.331   6.872
 1921SOL    HW1 6662   1.118   6.411   6.820
 1921SOL    HW2 6663   1.210   6.276   6.816
 1922SOL     OW 6664   3.673   4.010   1.052
 1922SOL    HW1 6665   3.770   3.986   1.049
 1922SOL    HW2 6666   3.642   4.032   0.959
 1923SOL     OW 6667   1.723   1.046   0.701
 1923SOL    HW1 6668   1.656   1.031   0.773
 1923SOL    HW2 6669   1.683   1.104   0.629
 1924SOL     OW 6670   0.166   4.313   1.642
 1924SOL    HW1 6671   0.193   4.393   1.695
 1924SOL    HW2 6672   0.210   4.232   1.678
 1925SOL     OW 6673   3.400   4.222   1.609
 1925SOL    HW1 6674   3.354   4.311   1.621
 1925SOL    HW2 6675   3.334   4.149   1.626
 1926SOL     OW 6676   1.284   7.010   4.407
 1926SOL    HW1 6677   1.361   0.049   4.390
 1926SOL    HW2 6678   1.235   6.993   4.322
 1927SOL     OW 6679   3.650   4.109   6.734
 1927SOL    HW1 6680   3.559   4.123   6.696
 1927SOL    HW2 6681   3.656   4.019   6.777
 1928SOL     OW 6682   6.222   4.160   5.589
 1928SOL    HW1 6683   6.181   4.180   5.501
 1928SOL    HW2 6684   6.303   4.102   5.576
 1929SOL     OW 6685   0.827   6.153   1.247
 1929SOL    HW1 6686   0.749   6.213   1.268
 1929SOL    HW2 6687   0.795   6.059   1.240
 1930SOL     OW 6688   5.837   4.828   6.347
 1930SOL    HW1 6689   5.751   4.779   6.335
 1930SOL    HW2 6690   5.841   4.867   6.439
 1931SOL     OW 6691   0.694   3.271   4.239
 1931SOL    HW1 6692   0.677   3.350   4.180
 1931SOL    HW2 6693   0.613   3.212   4.237
 1932SOL     OW 6694   5.284   4.059   2.101
 1932SOL    HW1 6695   5.313   3.967   2.073
 1932SOL    HW2 6696   5.217   4.094   2.034
 1933SOL     OW 6697   2.799   4.430   0.577
 1933SOL    HW1 6698   2.818   4.414   0.674
 1933SOL    HW2 6699   2.705   4.403   0.557
 1934SOL     OW 6700   0.983   6.819   6.092
 1934SOL    HW1 6701   0.943   6.858   6.009
 1934SOL    HW2 6702   0.968   6.720   6.093
 1935SOL     OW 6703   2.579   0.174   3.455
 1935SOL    HW1 6704   2.500   0.233   3.433
 1935SOL    HW2 6705   2.547   0.095   3.506
 1936SOL     OW 6706   6.189   6.200   4.729
 1936SOL    HW1 6707   6.111   6.203   4.666
 1936SOL    HW2 6708   6.233   6.111   4.725
 1937SOL     OW 6709   3.809   6.406   2.110
 1937SOL    HW1 6710   3.789   6.502   2.091
 1937SOL    HW2 6711   3.736   6.349   2.073
 1938SOL     OW 6712   4.104   1.043   3.596
 1938SOL    HW1 6713   4.050   0.966   3.563
 1938SOL    HW2 6714   4.131   1.101   3.519
 1939SOL     OW 6715   1.538   1.229   3.476
 1939SOL    HW1 6716   1.478   1.309   3.480
 1939SOL    HW2 6717   1.515   1.173   3.396
 1940SOL     OW 6718   6.723   5.447   6.878
 1940SOL    HW1 6719   6.806   5.458   6.822
 1940SOL    HW2 6720   6.663   5.525   6.864
 1941SOL     OW 6721   5.554   3.620   2.337
 1941SOL    HW1 6722   5.573   3.643   2.242
 1941SOL    HW2 6723   5.631   3.569   2.376
 1942SOL     OW 6724   6.355   5.097   2.357
 1942SOL    HW1 6725   6.388   5.060   2.444
 1942SOL    HW2 6726   6.433   5.114   2.297
 1943SOL     OW 6727   2.273   4.147   3.541
 1943SOL    HW1 6728   2.316   4.157   3.451
 1943SOL    HW2 6729   2.315   4.210   3.605
 1944SOL     OW 6730   5.851   1.366   6.777
 1944SOL    HW1 6731   5.869   1.463   6.757
 1944SOL    HW2 6732   5.938   1.317   6.783
 1945SOL     OW 6733   4.094   5.470   3.906
 1945SOL    HW1 6734   4.079   5.437   3.812
 1945SOL    HW2 6735   4.152   5.405   3.954
 1946SOL     OW 6736   1.140   0.489   0.005
 1946SOL    HW1 6737   1.170   0.437   0.084
 1946SOL    HW2 6738   1.184   0.452   6.944
 1947SOL     OW 6739   5.190   6.669   3.583
 1947SOL    HW1 6740   5.102   6.624   3.594
 1947SOL    HW2 6741   5.264   6.602   3.592
 1948SOL     OW 6742   6.884   5.938   4.341
 1948SOL    HW1 6743   6.803   5.893   4.378
 1948SOL    HW2 6744   6.857   6.005   4.272
 1949SOL     OW 6745   4.703   4.315   6.442
 1949SOL    HW1 6746   4.766   4.276   6.375
 1949SOL    HW2 6747   4.720   4.413   6.450
 1950SOL     OW 6748   3.332   4.074   6.935
 1950SOL    HW1 6749   3.304   4.170   6.947
 1950SOL    HW2 6750   3.255   4.022   6.897
 1951SOL     OW 6751   5.373   1.563   0.482
 1951SOL    HW1 6752   5.394   1.492   0.549
 1951SOL    HW2 6753   5.326   1.639   0.528
 1952SOL     OW 6754   4.087   2.213   0.738
 1952SOL    HW1 6755   4.031   2.245   0.814
 1952SOL    HW2 6756   4.031   2.212   0.654
 1953SOL     OW 6757   0.298   1.916   6.531
 1953SOL    HW1 6758   0.342   1.933   6.619
 1953SOL    HW2 6759   0.270   1.820   6.527
 1954SOL     OW 6760   4.025   1.917   4.026
 1954SOL    HW1 6761   4.028   1.920   3.926
 1954SOL    HW2 6762   3.934   1.887   4.055
 1955SOL     OW 6763   0.597   6.593   2.395
 1955SOL    HW1 6764   0.518   6.532   2.402
 1955SOL    HW2 6765   0.600   6.633   2.303
 1956SOL     OW 6766   5.674   5.783   2.573
 1956SOL    HW1 6767   5.597   5.844   2.586
 1956SOL    HW2 6768   5.751   5.834   2.535
 1957SOL     OW 6769   0.688   5.495   4.641
 1957SOL    HW1 6770   0.721   5.589   4.649
 1957SOL    HW2 6771   0.656   5.464   4.731
 1958SOL     OW 6772   5.203   3.676   5.291
 1958SOL    HW1 6773   5.190   3.705   5.196
 1958SOL    HW2 6774   5.251   3.748   5.341
 1959SOL     OW 6775   1.459   2.333   6.285
 1959SOL    HW1 6776   1.361   2.344   6.272
 1959SOL    HW2 6777   1.489   2.388   6.363
 1960SOL     OW 6778   5.810   4.895   0.300
 1960SOL    HW1 6779   5.864   4.934   0.375
 1960SOL    HW2 6780   5.754   4.820   0.335
 1961SOL     OW 6781   6.213   4.695   3.913
 1961SOL    HW1 6782   6.180   4.731   4.000
 1961SOL    HW2 6783   6.306   4.726   3.896
 1962SOL     OW 6784   1.419   6.263   3.413
 1962SOL    HW1 6785   1.457   6.214   3.335
 1962SOL    HW2 6786   1.369   6.344   3.381
 1963SOL     OW 6787   0.617   0.274   2.607
 1963SOL    HW1 6788   0.624   0.255   2.705
 1963SOL    HW2 6789   0.607   0.372   2.592
 1964SOL     OW 6790   4.277   2.154   2.033
 1964SOL    HW1 6791   4.225   2.196   1.959
 1964SOL    HW2 6792   4.222   2.154   2.117
 1965SOL     OW 6793   0.677   3.617   2.433
 1965SOL    HW1 6794   0.730   3.645   2.353
 1965SOL    HW2 6795   0.739   3.589   2.506
 1966SOL     OW 6796   6.952   5.134   5.149
 1966SOL    HW1 6797   6.887   5.106   5.220
 1966SOL    HW2 6798   7.010   5.207   5.185
 1967SOL     OW 6799   4.821   2.749   5.864
 1967SOL    HW1 6800   4.834   2.754   5.962
 1967SOL    HW2 6801   4.890   2.688   5.824
 1968SOL     OW 6802   3.047   6.299   6.984
 1968SOL    HW1 6803   3.044   6.246   0.047
 1968SOL    HW2 6804   3.061   6.396   7.006
 1969SOL     OW 6805   6.698   2.510   1.484
 1969SOL    HW1 6806   6.700   2.416   1.519
 1969SOL    HW2 6807   6.625   2.561   1.530
 1970SOL     OW 6808   1.505   7.006   5.663
 1970SOL    HW1 6809   1.433   6.992   5.731
 1970SOL    HW2 6810   1.468   0.036   5.586
 1971SOL     OW 6811   0.389   6.382   6.459
 1971SOL    HW1 6812   0.289   6.391   6.451
 1971SOL    HW2 6813   0.411   6.332   6.542
 1972SOL     OW 6814   0.602   4.445   3.928
 1972SOL    HW1 6815   0.512   4.420   3.964
 1972SOL    HW2 6816   0.629   4.534   3.965
 1973SOL     OW 6817   3.694   2.702   1.385
 1973SOL    HW1 6818   3.718   2.609   1.412
 1973SOL    HW2 6819   3.777   2.754   1.365
 1974SOL     OW 6820   5.261   6.636   4.654
 1974SOL    HW1 6821   5.355   6.638   4.688
 1974SOL    HW2 6822   5.217   6.550   4.681
 1975SOL     OW 6823   2.696   0.626   4.021
 1975SOL    HW1 6824   2.674   0.708   4.073
 1975SOL    HW2 6825   2.702   0.649   3.924
 1976SOL     OW 6826   0.485   5.817   0.513
 1976SOL    HW1 6827   0.390   5.809   0.485
 1976SOL    HW2 6828   0.494   5.889   0.583
 1977SOL     OW 6829   1.022   2.389   4.344
 1977SOL    HW1 6830   1.039   2.310   4.284
 1977SOL    HW2 6831   1.105   2.444   4.350
 1978SOL     OW 6832   0.288   0.970   4.908
 1978SOL    HW1 6833   0.363   0.963   4.975
 1978SOL    HW2 6834   0.324   0.953   4.816
 1979SOL     OW 6835   0.113   4.262   4.892
 1979SOL    HW1 6836   0.120   4.216   4.981
 1979SOL    HW2 6837   0.165   4.347   4.894
 1980SOL     OW 6838   3.377   0.135   1.391
 1980SOL    HW1 6839   3.378   0.212   1.456
 1980SOL    HW2 6840   3.316   0.157   1.315
 1981SOL     OW 6841   5.282   2.817   2.079
 1981SOL    HW1 6842   5.369   2.809   2.128
 1981SOL    HW2 6843   5.281   2.902   2.025
 1982SOL     OW 6844   6.043   5.184   4.847
 1982SOL    HW1 6845   6.109   5.169   4.774
 1982SOL    HW2 6846   6.022   5.097   4.892
 1983SOL     OW 6847   1.283   2.309   3.167
 1983SOL    HW1 6848   1.204   2.306   3.227
 1983SOL    HW2 6849   1.365   2.329   3.221
 1984SOL     OW 6850   4.513   1.536   6.039
 1984SOL    HW1 6851   4.486   1.451   5.994
 1984SOL    HW2 6852   4.445   1.561   6.108
 1985SOL     OW 6853   1.170   0.950   2.114
 1985SOL    HW1 6854   1.265   0.952   2.143
 1985SOL    HW2 6855   1.164   0.968   2.015
 1986SOL     OW 6856   1.544   2.151   6.870
 1986SOL    HW1 6857   1.632   2.115   6.901
 1986SOL    HW2 6858   1.553   2.183   6.775
 1987SOL     OW 6859   2.756   3.162   1.761
 1987SOL    HW1 6860   2.768   3.062   1.757
 1987SOL    HW2 6861   2.834   3.203   1.808
 1988SOL     OW 6862   4.738   3.800   6.767
 1988SOL    HW1 6863   4.780   3.827   6.680
 1988SOL    HW2 6864   4.807   3.806   6.840
 1989SOL     OW 6865   2.121   0.165   4.513
 1989SOL    HW1 6866   2.132   0.079   4.563
 1989SOL    HW2 6867   2.211   0.196   4.482
 1990SOL     OW 6868   3.002   1.161   1.033
 1990SOL    HW1 6869   2.990   1.091   0.962
 1990SOL    HW2 6870   3.037   1.118   1.116
 1991SOL     OW 6871   3.336   5.390   5.055
 1991SOL    HW1 6872   3.431   5.388   5.023
 1991SOL    HW2 6873   3.334   5.408   5.153
 1992SOL     OW 6874   2.340   6.813   4.986
 1992SOL    HW1 6875   2.397   6.885   4.946
 1992SOL    HW2 6876   2.252   6.810   4.938
 1993SOL     OW 6877   3.664   3.839   5.249
 1993SOL    HW1 6878   3.569   3.826   5.277
 1993SOL    HW2 6879   3.691   3.766   5.186
 1994SOL     OW 6880   6.978   1.905   1.632
 1994SOL    HW1 6881   0.024   1.855   1.578
 1994SOL    HW2 6882   6.995   1.889   1.730
 1995SOL     OW 6883   6.147   1.949   1.463
 1995SOL    HW1 6884   6.052   1.979   1.450
 1995SOL    HW2 6885   6.190   1.937   1.374
 1996SOL     OW 6886   3.560   3.390   0.167
 1996SOL    HW1 6887   3.534   3.370   0.073
 1996SOL    HW2 6888   3.498   3.459   0.205
 1997SOL     OW 6889   6.053   1.128   5.332
 1997SOL    HW1 6890   6.132   1.073   5.357
 1997SOL    HW2 6891   5.969   1.074   5.346
 1998SOL     OW 6892   2.707   3.924   6.483
 1998SOL    HW1 6893   2.739   3.997   6.423
 1998SOL    HW2 6894   2.727   3.948   6.578
 1999SOL     OW 6895   2.366   0.054   2.402
 1999SOL    HW1 6896   2.408   6.987   2.383
 1999SOL    HW2 6897   2.330   0.093   2.317
 2000SOL     OW 6898   4.352   1.335   4.880
 2000SOL    HW1 6899   4.325   1.389   4.801
 2000SOL    HW2 6900   4.394   1.250   4.850
 2001SOL     OW 6901   3.597   1.857   0.961
 2001SOL    HW1 6902   3.597   1.761   0.932
 2001SOL    HW2 6903   3.628   1.863   1.056
 2002SOL     OW 6904   2.114   6.465   6.150
 2002SOL    HW1 6905   2.037   6.521   6.120
 2002SOL    HW2 6906   2.168   6.437   6.070
 2003SOL     OW 6907   5.515   0.418   3.302
 2003SOL    HW1 6908   5.533   0.497   3.361
 2003SOL    HW2 6909   5.463   0.447   3.222
 2004SOL     OW 6910   3.990   1.287   4.750
 2004SOL    HW1 6911   4.004   1.385   4.758
 2004SOL    HW2 6912   3.916   1.268   4.684
 2005SOL     OW 6913   2.353   6.159   6.258
 2005SOL    HW1 6914   2.377   6.256   6.261
 2005SOL    HW2 6915   2.386   6.115   6.342
 2006SOL     OW 6916   4.650   4.273   3.786
 2006SOL    HW1 6917   4.586   4.346   3.808
 2006SOL    HW2 6918   4.704   4.250   3.868
 2007SOL     OW 6919   5.086   5.257   6.750
 2007SOL    HW1 6920   5.151   5.332   6.744
 2007SOL    HW2 6921   5.018   5.277   6.821
 2008SOL     OW 6922   6.474   6.375   3.610
 2008SOL    HW1 6923   6.496   6.451   3.671
 2008SOL    HW2 6924   6.422   6.409   3.532
 2009SOL     OW 6925   0.033   0.444   1.796
 2009SOL    HW1 6926   0.061   0.401   1.881
 2009SOL    HW2 6927   0.069   0.393   1.718
 2010SOL     OW 6928   0.889   0.798   0.629
 2010SOL    HW1 6929   0.848   0.709   0.648
 2010SOL    HW2 6930   0.922   0.801   0.535
 2011SOL     OW 6931   6.512   2.276   4.760
 2011SOL    HW1 6932   6.456   2.318   4.689
 2011SOL    HW2 6933   6.465   2.282   4.848
 2012SOL     OW 6934   1.493   3.949   1.976
 2012SOL    HW1 6935   1.409   3.896   1.961
 2012SOL    HW2 6936   1.474   4.046   1.960
 2013SOL     OW 6937   5.606   1.866   2.962
 2013SOL    HW1 6938   5.548   1.785   2.973
 2013SOL    HW2 6939   5.558   1.934   2.907
 2014SOL     OW 6940   1.301   5.886   3.606
 2014SOL    HW1 6941   1.382   5.864   3.660
 2014SOL    HW2 6942   1.329   5.908   3.512
 2015SOL     OW 6943   3.682   0.562   0.316
 2015SOL    HW1 6944   3.637   0.622   0.381
 2015SOL    HW2 6945   3.729   0.616   0.247
 2016SOL     OW 6946   1.079   5.835   4.393
 2016SOL    HW1 6947   1.165   5.850   4.345
 2016SOL    HW2 6948   1.048   5.741   4.378
 2017SOL     OW 6949   2.407   6.004   3.447
 2017SOL    HW1 6950   2.402   6.001   3.348
 2017SOL    HW2 6951   2.323   5.966   3.487
 2018SOL     OW 6952   0.046   5.584   5.114
 2018SOL    HW1 6953   0.096   5.651   5.169
 2018SOL    HW2 6954   0.055   5.493   5.155
 2019SOL     OW 6955   5.408   2.786   0.705
 2019SOL    HW1 6956   5.354   2.870   0.708
 2019SOL    HW2 6957   5.449   2.770   0.795
 2020SOL     OW 6958   1.746   5.177   4.365
 2020SOL    HW1 6959   1.776   5.272   4.356
 2020SOL    HW2 6960   1.739   5.135   4.274
 2021SOL     OW 6961   1.457   0.673   2.119
 2021SOL    HW1 6962   1.437   0.655   2.216
 2021SOL    HW2 6963   1.523   0.747   2.112
 2022SOL     OW 6964   2.098   3.400   1.738
 2022SOL    HW1 6965   2.019   3.445   1.781
 2022SOL    HW2 6966   2.182   3.434   1.779
 2023SOL     OW 6967   6.776   0.740   0.010
 2023SOL    HW1 6968   6.765   0.837   0.030
 2023SOL    HW2 6969   6.685   0.700   7.016
 2024SOL     OW 6970   6.411   0.661   3.653
 2024SOL    HW1 6971   6.321   0.619   3.638
 2024SOL    HW2 6972   6.464   0.604   3.716
 2025SOL     OW 6973   1.029   2.371   1.193
 2025SOL    HW1 6974   1.024   2.389   1.094
 2025SOL    HW2 6975   1.087   2.440   1.236
 2026SOL     OW 6976   2.387   2.513   5.967
 2026SOL    HW1 6977   2.315   2.447   5.990
 2026SOL    HW2 6978   2.359   2.567   5.888
 2027SOL     OW 6979   0.536   0.798   2.356
 2027SOL    HW1 6980   0.588   0.842   2.283
 2027SOL    HW2 6981   0.550   0.849   2.441
 2028SOL     OW 6982   3.799   1.621   0.596
 2028SOL    HW1 6983   3.874   1.654   0.653
 2028SOL    HW2 6984   3.729   1.692   0.590
 2029SOL     OW 6985   1.383   1.015   6.359
 2029SOL    HW1 6986   1.473   1.009   6.400
 2029SOL    HW2 6987   1.338   0.926   6.363
 2030SOL     OW 6988   2.444   2.201   3.695
 2030SOL    HW1 6989   2.448   2.236   3.602
 2030SOL    HW2 6990   2.455   2.102   3.694
 2031SOL     OW 6991   5.461   5.967   2.170
 2031SOL    HW1 6992   5.511   5.905   2.230
 2031SOL    HW2 6993   5.474   6.062   2.201
 2032SOL     OW 6994   5.167   5.981   0.920
 2032SOL    HW1 6995   5.208   5.925   0.848
 2032SOL    HW2 6996   5.139   5.923   0.996
 2033SOL     OW 6997   4.591   4.720   6.462
 2033SOL    HW1 6998   4.677   4.671   6.476
 2033SOL    HW2 6999   4.577   4.785   6.537
 2034SOL     OW 7000   2.040   5.893   3.109
 2034SOL    HW1 7001   1.973   5.829   3.146
 2034SOL    HW2 7002   2.003   5.937   3.028
 2035SOL     OW 7003   0.033   1.505   2.304
 2035SOL    HW1 7004   0.054   1.432   2.368
 2035SOL    HW2 7005   7.003   1.576   2.350
 2036SOL     OW 7006   0.650   5.163   0.940
 2036SOL    HW1 7007   0.708   5.228   0.891
 2036SOL    HW2 7008   0.557   5.200   0.948
 2037SOL     OW 7009   6.791   2.447   5.694
 2037SOL    HW1 7010   6.729   2.394   5.752
 2037SOL    HW2 7011   6.760   2.542   5.691
 2038SOL     OW 7012   0.917   1.890   5.319
 2038SOL    HW1 7013   0.994   1.878   5.382
 2038SOL    HW2 7014   0.832   1.868   5.366
 2039SOL     OW 7015   6.898   5.816   3.987
 2039SOL    HW1 7016   6.829   5.889   3.989
 2039SOL    HW2 7017   6.885   5.760   3.906
 2040SOL     OW 7018   3.773   3.529   4.598
 2040SOL    HW1 7019   3.726   3.580   4.526
 2040SOL    HW2 7020   3.859   3.575   4.620
 2041SOL     OW 7021   5.597   4.555   6.033
 2041SOL    HW1 7022   5.685   4.537   6.075
 2041SOL    HW2 7023   5.582   4.654   6.025
 2042SOL     OW 7024   5.325   5.486   0.963
 2042SOL    HW1 7025   5.330   5.388   0.982
 2042SOL    HW2 7026   5.408   5.530   0.998
 2043SOL     OW 7027   6.373   5.234   2.710
 2043SOL    HW1 7028   6.385   5.303   2.639
 2043SOL    HW2 7029   6.314   5.161   2.675
 2044SOL     OW 7030   5.953   6.795   2.178
 2044SOL    HW1 7031   6.027   6.781   2.243
 2044SOL    HW2 7032   5.904   6.879   2.200
 2045SOL     OW 7033   2.366   4.644   5.894
 2045SOL    HW1 7034   2.267   4.640   5.885
 2045SOL    HW2 7035   2.408   4.608   5.810
 2046SOL     OW 7036   0.006   0.181   4.434
 2046SOL    HW1 7037   0.001   0.125   4.517
 2046SOL    HW2 7038   6.983   0.269   4.450
 2047SOL     OW 7039   4.670   2.218   1.464
 2047SOL    HW1 7040   4.678   2.187   1.559
 2047SOL    HW2 7041   4.761   2.243   1.430
 2048SOL     OW 7042   3.593   0.037   0.571
 2048SOL    HW1 7043   3.679   0.032   0.622
 2048SOL    HW2 7044   3.531   6.988   0.603
 2049SOL     OW 7045   4.833   1.605   6.563
 2049SOL    HW1 7046   4.926   1.619   6.595
 2049SOL    HW2 7047   4.773   1.676   6.603
 2050SOL     OW 7048   6.080   2.742   3.516
 2050SOL    HW1 7049   6.143   2.768   3.590
 2050SOL    HW2 7050   6.082   2.811   3.444
 2051SOL     OW 7051   0.705   5.009   6.843
 2051SOL    HW1 7052   0.779   5.005   6.776
 2051SOL    HW2 7053   0.698   4.921   6.890
 2052SOL     OW 7054   0.589   3.204   0.029
 2052SOL    HW1 7055   0.681   3.210   0.068
 2052SOL    HW2 7056   0.587   3.132   6.982
 2053SOL     OW 7057   6.195   0.295   0.607
 2053SOL    HW1 7058   6.107   0.287   0.653
 2053SOL    HW2 7059   6.258   0.227   0.644
 2054SOL     OW 7060   6.059   2.820   0.686
 2054SOL    HW1 7061   6.067   2.905   0.634
 2054SOL    HW2 7062   6.148   2.775   0.689
 2055SOL     OW 7063   5.407   2.344   3.312
 2055SOL    HW1 7064   5.481   2.313   3.252
 2055SOL    HW2 7065   5.445   2.383   3.395
 2056SOL     OW 7066   2.412   1.442   3.012
 2056SOL    HW1 7067   2.369   1.497   2.940
 2056SOL    HW2 7068   2.485   1.387   2.972
 2057SOL     OW 7069   5.662   2.131   3.574
 2057SOL    HW1 7070   5.710   2.202   3.627
 2057SOL    HW2 7071   5.596   2.085   3.633
 2058SOL     OW 7072   0.528   1.903   3.418
 2058SOL    HW1 7073   0.471   1.964   3.363
 2058SOL    HW2 7074   0.607   1.955   3.452
 2059SOL     OW 7075   2.386   0.588   0.053
 2059SOL    HW1 7076   2.396   0.488   0.050
 2059SOL    HW2 7077   2.309   0.612   0.111
 2060SOL     OW 7078   0.070   4.503   1.972
 2060SOL    HW1 7079   0.042   4.407   1.980
 2060SOL    HW2 7080   0.143   4.511   1.903
 2061SOL     OW 7081   6.815   1.104   2.410
 2061SOL    HW1 7082   6.775   1.168   2.476
 2061SOL    HW2 7083   6.836   1.153   2.325
 2062SOL     OW 7084   4.804   6.910   2.620
 2062SOL    HW1 7085   4.871   6.984   2.626
 2062SOL    HW2 7086   4.835   6.832   2.675
 2063SOL     OW 7087   1.393   1.626   6.031
 2063SOL    HW1 7088   1.375   1.633   5.933
 2063SOL    HW2 7089   1.466   1.689   6.056
 2064SOL     OW 7090   0.889   2.399   5.526
 2064SOL    HW1 7091   0.839   2.350   5.454
 2064SOL    HW2 7092   0.947   2.335   5.576
 2065SOL     OW 7093   5.795   3.476   2.430
 2065SOL    HW1 7094   5.817   3.398   2.370
 2065SOL    HW2 7095   5.879   3.522   2.457
 2066SOL     OW 7096   0.821   5.297   4.271
 2066SOL    HW1 7097   0.913   5.329   4.293
 2066SOL    HW2 7098   0.754   5.364   4.302
 2067SOL     OW 7099   6.722   6.648   0.611
 2067SOL    HW1 7100   6.635   6.676   0.649
 2067SOL    HW2 7101   6.754   6.718   0.546
 2068SOL     OW 7102   2.288   1.265   5.349
 2068SOL    HW1 7103   2.318   1.333   5.282
 2068SOL    HW2 7104   2.360   1.252   5.418
 2069SOL     OW 7105   0.706   2.828   2.384
 2069SOL    HW1 7106   0.672   2.777   2.306
 2069SOL    HW2 7107   0.723   2.765   2.460
 2070SOL     OW 7108   1.197   0.456   2.256
 2070SOL    HW1 7109   1.139   0.537   2.246
 2070SOL    HW2 7110   1.224   0.424   2.165
 2071SOL     OW 7111   0.911   6.231   4.149
 2071SOL    HW1 7112   0.928   6.151   4.207
 2071SOL    HW2 7113   0.883   6.201   4.058
 2072SOL     OW 7114   4.783   5.861   2.246
 2072SOL    HW1 7115   4.825   5.774   2.221
 2072SOL    HW2 7116   4.688   5.864   2.214
 2073SOL     OW 7117   4.032   0.409   4.488
 2073SOL    HW1 7118   3.950   0.395   4.433
 2073SOL    HW2 7119   4.043   0.507   4.507
 2074SOL     OW 7120   0.138   2.101   6.769
 2074SOL    HW1 7121   0.056   2.045   6.776
 2074SOL    HW2 7122   0.117   2.185   6.720
 2075SOL     OW 7123   4.929   3.597   1.282
 2075SOL    HW1 7124   4.846   3.573   1.231
 2075SOL    HW2 7125   4.932   3.543   1.367
 2076SOL     OW 7126   5.857   6.405   0.103
 2076SOL    HW1 7127   5.808   6.334   0.051
 2076SOL    HW2 7128   5.801   6.433   0.181
 2077SOL     OW 7129   5.404   2.420   2.253
 2077SOL    HW1 7130   5.493   2.410   2.209
 2077SOL    HW2 7131   5.404   2.502   2.310
 2078SOL     OW 7132   3.036   5.864   6.126
 2078SOL    HW1 7133   3.026   5.770   6.160
 2078SOL    HW2 7134   2.974   5.879   6.049
 2079SOL     OW 7135   5.462   0.733   3.694
 2079SOL    HW1 7136   5.436   0.656   3.635
 2079SOL    HW2 7137   5.458   0.818   3.641
 2080SOL     OW 7138   2.323   1.862   4.915
 2080SOL    HW1 7139   2.374   1.801   4.855
 2080SOL    HW2 7140   2.377   1.944   4.933
 2081SOL     OW 7141   1.054   6.079   5.586
 2081SOL    HW1 7142   1.088   6.100   5.677
 2081SOL    HW2 7143   1.130   6.051   5.527
 2082SOL     OW 7144   5.887   0.685   1.586
 2082SOL    HW1 7145   5.835   0.602   1.565
 2082SOL    HW2 7146   5.842   0.764   1.544
 2083SOL     OW 7147   4.150   5.305   6.644
 2083SOL    HW1 7148   4.069   5.263   6.603
 2083SOL    HW2 7149   4.130   5.331   6.739
 2084SOL     OW 7150   6.899   2.481   3.115
 2084SOL    HW1 7151   6.902   2.575   3.082
 2084SOL    HW2 7152   6.806   2.445   3.108
 2085SOL     OW 7153   5.308   0.914   6.579
 2085SOL    HW1 7154   5.363   0.976   6.635
 2085SOL    HW2 7155   5.212   0.926   6.600
 2086SOL     OW 7156   2.853   5.103   6.579
 2086SOL    HW1 7157   2.823   5.190   6.540
 2086SOL    HW2 7158   2.952   5.095   6.571
 2087SOL     OW 7159   4.826   6.476   2.207
 2087SOL    HW1 7160   4.730   6.475   2.177
 2087SOL    HW2 7161   4.852   6.569   2.232
 2088SOL     OW 7162   3.344   5.768   0.648
 2088SOL    HW1 7163   3.264   5.821   0.677
 2088SOL    HW2 7164   3.386   5.727   0.728
 2089SOL     OW 7165   4.842   1.482   0.119
 2089SOL    HW1 7166   4.788   1.420   0.062
 2089SOL    HW2 7167   4.938   1.478   0.091
 2090SOL     OW 7168   4.060   3.860   4.161
 2090SOL    HW1 7169   4.138   3.845   4.222
 2090SOL    HW2 7170   3.987   3.796   4.183
 2091SOL     OW 7171   0.498   5.902   0.266
 2091SOL    HW1 7172   0.504   5.877   0.362
 2091SOL    HW2 7173   0.558   5.980   0.248
 2092SOL     OW 7174   5.649   6.191   0.569
 2092SOL    HW1 7175   5.727   6.242   0.605
 2092SOL    HW2 7176   5.682   6.113   0.516
 2093SOL     OW 7177   1.463   2.040   1.893
 2093SOL    HW1 7178   1.562   2.052   1.880
 2093SOL    HW2 7179   1.414   2.108   1.838
 2094SOL     OW 7180   6.183   0.670   1.912
 2094SOL    HW1 7181   6.129   0.586   1.923
 2094SOL    HW2 7182   6.274   0.647   1.878
 2095SOL     OW 7183   5.304   6.918   3.546
 2095SOL    HW1 7184   5.288   6.819   3.539
 2095SOL    HW2 7185   5.234   6.967   3.495
 2096SOL     OW 7186   5.013   3.733   2.970
 2096SOL    HW1 7187   5.001   3.734   3.070
 2096SOL    HW2 7188   5.002   3.639   2.937
 2097SOL     OW 7189   0.862   3.084   6.328
 2097SOL    HW1 7190   0.811   3.144   6.390
 2097SOL    HW2 7191   0.854   2.989   6.359
 2098SOL     OW 7192   4.104   6.338   3.887
 2098SOL    HW1 7193   4.144   6.283   3.961
 2098SOL    HW2 7194   4.065   6.277   3.818
 2099SOL     OW 7195   2.863   0.834   4.761
 2099SOL    HW1 7196   2.794   0.887   4.712
 2099SOL    HW2 7197   2.953   0.876   4.747
 2100SOL     OW 7198   3.592   3.645   6.512
 2100SOL    HW1 7199   3.552   3.583   6.444
 2100SOL    HW2 7200   3.570   3.739   6.487
 2101SOL     OW 7201   0.682   6.674   2.110
 2101SOL    HW1 7202   0.675   6.748   2.177
 2101SOL    HW2 7203   0.768   6.683   2.060
 2102SOL     OW 7204   0.234   5.290   2.261
 2102SOL    HW1 7205   0.185   5.294   2.348
 2102SOL    HW2 7206   0.173   5.258   2.189
 2103SOL     OW 7207   2.617   3.814   0.029
 2103SOL    HW1 7208   2.600   3.893   6.993
 2103SOL    HW2 7209   2.698   3.831   0.086
 2104SOL     OW 7210   1.565   3.354   6.782
 2104SOL    HW1 7211   1.554   3.256   6.795
 2104SOL    HW2 7212   1.645   3.372   6.724
 2105SOL     OW 7213   5.580   5.239   2.967
 2105SOL    HW1 7214   5.502   5.178   2.975
 2105SOL    HW2 7215   5.559   5.312   2.902
 2106SOL     OW 7216   4.211   5.177   0.013
 2106SOL    HW1 7217   4.295   5.210   0.057
 2106SOL    HW2 7218   4.158   5.255   7.002
 2107SOL     OW 7219   3.908   3.397   5.789
 2107SOL    HW1 7220   3.876   3.396   5.694
 2107SOL    HW2 7221   3.990   3.339   5.797
 2108SOL     OW 7222   6.309   6.024   5.521
 2108SOL    HW1 7223   6.211   6.007   5.516
 2108SOL    HW2 7224   6.351   5.957   5.583
 2109SOL     OW 7225   4.915   6.945   3.282
 2109SOL    HW1 7226   4.857   0.003   3.275
 2109SOL    HW2 7227   4.877   6.881   3.349
 2110SOL     OW 7228   2.730   4.076   6.707
 2110SOL    HW1 7229   2.697   4.169   6.691
 2110SOL    HW2 7230   2.829   4.077   6.716
 2111SOL     OW 7231   0.889   1.886   6.402
 2111SOL    HW1 7232   0.834   1.960   6.443
 2111SOL    HW2 7233   0.978   1.883   6.446
 2112SOL     OW 7234   4.507   1.990   1.817
 2112SOL    HW1 7235   4.507   1.967   1.914
 2112SOL    HW2 7236   4.571   2.065   1.800
 2113SOL     OW 7237   1.305   6.883   3.719
 2113SOL    HW1 7238   1.280   6.847   3.630
 2113SOL    HW2 7239   1.405   6.884   3.728
 2114SOL     OW 7240   1.458   3.384   0.649
 2114SOL    HW1 7241   1.380   3.395   0.711
 2114SOL    HW2 7242   1.513   3.305   0.677
 2115SOL     OW 7243   1.962   4.306   3.014
 2115SOL    HW1 7244   1.912   4.249   3.080
 2115SOL    HW2 7245   2.003   4.247   2.944
 2116SOL     OW 7246   6.398   3.944   3.189
 2116SOL    HW1 7247   6.489   3.959   3.150
 2116SOL    HW2 7248   6.339   4.022   3.168
 2117SOL     OW 7249   0.200   4.990   1.899
 2117SOL    HW1 7250   0.236   5.083   1.909
 2117SOL    HW2 7251   0.275   4.927   1.879
 2118SOL     OW 7252   0.252   3.226   2.583
 2118SOL    HW1 7253   0.321   3.278   2.533
 2118SOL    HW2 7254   0.296   3.172   2.655
 2119SOL     OW 7255   2.219   6.014   0.973
 2119SOL    HW1 7256   2.125   6.029   1.004
 2119SOL    HW2 7257   2.268   6.101   0.972
 2120SOL     OW 7258   6.482   5.012   2.590
 2120SOL    HW1 7259   6.499   5.048   2.682
 2120SOL    HW2 7260   6.524   4.922   2.582
 2121SOL     OW 7261   0.802   4.820   5.023
 2121SOL    HW1 7262   0.856   4.859   5.097
 2121SOL    HW2 7263   0.732   4.886   4.995
 2122SOL     OW 7264   6.151   4.500   5.041
 2122SOL    HW1 7265   6.065   4.501   5.091
 2122SOL    HW2 7266   6.210   4.574   5.072
 2123SOL     OW 7267   0.554   4.389   2.782
 2123SOL    HW1 7268   0.555   4.295   2.817
 2123SOL    HW2 7269   0.467   4.432   2.807
 2124SOL     OW 7270   1.917   1.411   0.897
 2124SOL    HW1 7271   1.922   1.440   0.802
 2124SOL    HW2 7272   1.823   1.388   0.920
 2125SOL     OW 7273   1.370   0.954   0.521
 2125SOL    HW1 7274   1.441   1.023   0.514
 2125SOL    HW2 7275   1.336   0.931   0.430
 2126SOL     OW 7276   2.879   0.876   0.645
 2126SOL    HW1 7277   2.858   0.819   0.724
 2126SOL    HW2 7278   2.798   0.882   0.586
 2127SOL     OW 7279   6.111   2.893   4.476
 2127SOL    HW1 7280   6.025   2.844   4.459
 2127SOL    HW2 7281   6.091   2.987   4.501
 2128SOL     OW 7282   0.048   4.236   4.611
 2128SOL    HW1 7283   0.081   4.248   4.705
 2128SOL    HW2 7284   0.072   4.316   4.556
 2129SOL     OW 7285   4.492   3.000   5.625
 2129SOL    HW1 7286   4.432   3.073   5.660
 2129SOL    HW2 7287   4.585   3.013   5.661
 2130SOL     OW 7288   4.626   6.783   2.457
 2130SOL    HW1 7289   4.689   6.832   2.518
 2130SOL    HW2 7290   4.533   6.788   2.493
 2131SOL     OW 7291   0.215   1.083   0.697
 2131SOL    HW1 7292   0.186   1.038   0.782
 2131SOL    HW2 7293   0.252   1.015   0.634
 2132SOL     OW 7294   3.961   3.170   0.863
 2132SOL    HW1 7295   3.993   3.115   0.786
 2132SOL    HW2 7296   4.039   3.215   0.907
 2133SOL     OW 7297   3.007   2.443   5.327
 2133SOL    HW1 7298   3.081   2.419   5.265
 2133SOL    HW2 7299   2.947   2.365   5.340
 2134SOL     OW 7300   6.845   2.109   0.802
 2134SOL    HW1 7301   6.850   2.011   0.820
 2134SOL    HW2 7302   6.770   2.127   0.738
 2135SOL     OW 7303   0.220   4.454   4.571
 2135SOL    HW1 7304   0.259   4.514   4.501
 2135SOL    HW2 7305   0.293   4.421   4.631
 2136SOL     OW 7306   2.717   5.333   2.002
 2136SOL    HW1 7307   2.644   5.336   2.070
 2136SOL    HW2 7308   2.784   5.263   2.027
 2137SOL     OW 7309   3.449   5.015   4.754
 2137SOL    HW1 7310   3.473   5.111   4.768
 2137SOL    HW2 7311   3.402   4.980   4.835
 2138SOL     OW 7312   6.187   0.822   3.202
 2138SOL    HW1 7313   6.287   0.831   3.199
 2138SOL    HW2 7314   6.150   0.892   3.264
 2139SOL     OW 7315   3.480   0.604   4.704
 2139SOL    HW1 7316   3.485   0.704   4.705
 2139SOL    HW2 7317   3.516   0.570   4.617
 2140SOL     OW 7318   3.633   0.474   4.895
 2140SOL    HW1 7319   3.586   0.487   4.983
 2140SOL    HW2 7320   3.578   0.515   4.822
 2141SOL     OW 7321   6.189   4.031   2.425
 2141SOL    HW1 7322   6.211   4.011   2.520
 2141SOL    HW2 7323   6.179   3.946   2.374
 2142SOL     OW 7324   1.248   2.396   3.615
 2142SOL    HW1 7325   1.203   2.307   3.618
 2142SOL    HW2 7326   1.181   2.467   3.593
 2143SOL     OW 7327   1.932   5.760   0.994
 2143SOL    HW1 7328   1.894   5.685   0.941
 2143SOL    HW2 7329   1.996   5.812   0.936
 2144SOL     OW 7330   0.494   4.742   4.242
 2144SOL    HW1 7331   0.584   4.717   4.279
 2144SOL    HW2 7332   0.506   4.803   4.164
 2145SOL     OW 7333   4.152   6.745   4.044
 2145SOL    HW1 7334   4.143   6.692   3.960
 2145SOL    HW2 7335   4.180   6.839   4.022
 2146SOL     OW 7336   1.958   2.217   0.385
 2146SOL    HW1 7337   1.994   2.258   0.469
 2146SOL    HW2 7338   1.882   2.156   0.408
 2147SOL     OW 7339   6.696   1.921   5.885
 2147SOL    HW1 7340   6.650   1.926   5.797
 2147SOL    HW2 7341   6.644   1.975   5.952
 2148SOL     OW 7342   0.300   3.456   6.517
 2148SOL    HW1 7343   0.267   3.494   6.431
 2148SOL    HW2 7344   0.387   3.409   6.502
 2149SOL     OW 7345   1.024   1.216   0.766
 2149SOL    HW1 7346   1.079   1.175   0.693
 2149SOL    HW2 7347   0.929   1.189   0.755
 2150SOL     OW 7348   2.604   2.566   1.668
 2150SOL    HW1 7349   2.643   2.544   1.578
 2150SOL    HW2 7350   2.598   2.665   1.679
 2151SOL     OW 7351   0.803   6.347   6.759
 2151SOL    HW1 7352   0.764   6.300   6.680
 2151SOL    HW2 7353   0.888   6.392   6.732
 2152SOL     OW 7354   3.650   5.494   2.043
 2152SOL    HW1 7355   3.590   5.445   2.107
 2152SOL    HW2 7356   3.673   5.583   2.081
 2153SOL     OW 7357   4.740   1.138   2.446
 2153SOL    HW1 7358   4.660   1.177   2.491
 2153SOL    HW2 7359   4.746   1.172   2.352
 2154SOL     OW 7360   2.633   6.714   3.497
 2154SOL    HW1 7361   2.605   6.622   3.470
 2154SOL    HW2 7362   2.628   6.723   3.596
 2155SOL     OW 7363   4.336   6.803   1.119
 2155SOL    HW1 7364   4.326   6.757   1.031
 2155SOL    HW2 7365   4.369   6.896   1.104
 2156SOL     OW 7366   6.530   0.703   4.257
 2156SOL    HW1 7367   6.531   0.803   4.257
 2156SOL    HW2 7368   6.521   0.670   4.163
 2157SOL     OW 7369   4.368   5.937   3.898
 2157SOL    HW1 7370   4.368   6.032   3.929
 2157SOL    HW2 7371   4.362   5.876   3.978
 2158SOL     OW 7372   4.311   6.860   0.817
 2158SOL    HW1 7373   4.301   6.761   0.818
 2158SOL    HW2 7374   4.225   6.903   0.844
 2159SOL     OW 7375   1.571   0.323   5.317
 2159SOL    HW1 7376   1.500   0.364   5.374
 2159SOL    HW2 7377   1.655   0.312   5.371
 2160SOL     OW 7378   4.886   5.362   6.937
 2160SOL    HW1 7379   4.945   5.315   7.002
 2160SOL    HW2 7380   4.810   5.302   6.910
 2161SOL     OW 7381   0.347   4.028   2.638
 2161SOL    HW1 7382   0.430   4.072   2.603
 2161SOL    HW2 7383   0.282   4.099   2.666
 2162SOL     OW 7384   2.557   6.702   3.204
 2162SOL    HW1 7385   2.460   6.682   3.187
 2162SOL    HW2 7386   2.590   6.646   3.280
 2163SOL     OW 7387   1.782   3.471   0.518
 2163SOL    HW1 7388   1.747   3.398   0.458
 2163SOL    HW2 7389   1.707   3.509   0.572
 2164SOL     OW 7390   2.795   2.586   6.723
 2164SOL    HW1 7391   2.785   2.681   6.694
 2164SOL    HW2 7392   2.878   2.578   6.779
 2165SOL     OW 7393   0.871   1.662   4.350
 2165SOL    HW1 7394   0.852   1.723   4.273
 2165SOL    HW2 7395   0.967   1.635   4.349
 2166SOL     OW 7396   0.414   4.314   4.101
 2166SOL    HW1 7397   0.430   4.293   4.198
 2166SOL    HW2 7398   0.334   4.262   4.069
 2167SOL     OW 7399   1.035   2.545   3.524
 2167SOL    HW1 7400   0.998   2.585   3.608
 2167SOL    HW2 7401   1.012   2.603   3.447
 2168SOL     OW 7402   0.802   1.935   3.141
 2168SOL    HW1 7403   0.798   1.839   3.114
 2168SOL    HW2 7404   0.723   1.984   3.104
 2169SOL     OW 7405   0.427   0.264   1.009
 2169SOL    HW1 7406   0.377   0.288   0.926
 2169SOL    HW2 7407   0.366   0.271   1.088
 2170SOL     OW 7408   0.355   3.941   4.849
 2170SOL    HW1 7409   0.400   3.855   4.825
 2170SOL    HW2 7410   0.411   3.991   4.915
 2171SOL     OW 7411   0.478   5.892   1.083
 2171SOL    HW1 7412   0.464   5.952   1.004
 2171SOL    HW2 7413   0.410   5.819   1.081
 2172SOL     OW 7414   1.171   1.870   5.528
 2172SOL    HW1 7415   1.139   1.777   5.545
 2172SOL    HW2 7416   1.240   1.894   5.596
 2173SOL     OW 7417   5.643   6.926   5.618
 2173SOL    HW1 7418   5.620   6.908   5.714
 2173SOL    HW2 7419   5.579   6.992   5.580
 2174SOL     OW 7420   0.555   6.260   5.284
 2174SOL    HW1 7421   0.559   6.303   5.374
 2174SOL    HW2 7422   0.527   6.164   5.294
 2175SOL     OW 7423   2.022   2.956   5.031
 2175SOL    HW1 7424   2.085   2.991   5.101
 2175SOL    HW2 7425   1.938   3.010   5.031
 2176SOL     OW 7426   4.718   2.528   1.267
 2176SOL    HW1 7427   4.704   2.612   1.214
 2176SOL    HW2 7428   4.706   2.548   1.364
 2177SOL     OW 7429   6.366   0.538   2.802
 2177SOL    HW1 7430   6.358   0.630   2.838
 2177SOL    HW2 7431   6.446   0.493   2.843
 2178SOL     OW 7432   1.177   1.015   1.850
 2178SOL    HW1 7433   1.141   1.033   1.759
 2178SOL    HW2 7434   1.274   0.992   1.844
 2179SOL     OW 7435   2.149   3.968   6.388
 2179SOL    HW1 7436   2.243   3.993   6.411
 2179SOL    HW2 7437   2.114   3.906   6.458
 2180SOL     OW 7438   1.829   3.551   2.094
 2180SOL    HW1 7439   1.921   3.581   2.121
 2180SOL    HW2 7440   1.819   3.557   1.995
 2181SOL     OW 7441   4.842   4.984   4.667
 2181SOL    HW1 7442   4.779   5.032   4.606
 2181SOL    HW2 7443   4.804   4.981   4.759
 2182SOL     OW 7444   0.619   4.655   3.483
 2182SOL    HW1 7445   0.662   4.619   3.400
 2182SOL    HW2 7446   0.588   4.579   3.540
 2183SOL     OW 7447   2.477   3.923   0.459
 2183SOL    HW1 7448   2.381   3.948   0.470
 2183SOL    HW2 7449   2.487   3.824   0.460
 2184SOL     OW 7450   5.124   0.271   0.233
 2184SOL    HW1 7451   5.054   0.200   0.238
 2184SOL    HW2 7452   5.201   0.247   0.291
 2185SOL     OW 7453   1.040   1.106   6.626
 2185SOL    HW1 7454   0.984   1.152   6.557
 2185SOL    HW2 7455   1.046   1.009   6.605
 2186SOL     OW 7456   6.131   5.287   5.495
 2186SOL    HW1 7457   6.166   5.363   5.550
 2186SOL    HW2 7458   6.183   5.281   5.410
 2187SOL     OW 7459   0.089   5.698   2.564
 2187SOL    HW1 7460   0.070   5.643   2.645
 2187SOL    HW2 7461   0.057   5.791   2.579
 2188SOL     OW 7462   2.310   5.071   5.968
 2188SOL    HW1 7463   2.394   5.032   6.007
 2188SOL    HW2 7464   2.319   5.077   5.869
 2189SOL     OW 7465   2.288   1.106   2.293
 2189SOL    HW1 7466   2.377   1.122   2.338
 2189SOL    HW2 7467   2.218   1.091   2.363
 2190SOL     OW 7468   0.027   3.520   2.284
 2190SOL    HW1 7469   0.110   3.562   2.320
 2190SOL    HW2 7470   6.969   3.562   2.326
 2191SOL     OW 7471   2.788   1.371   5.113
 2191SOL    HW1 7472   2.818   1.384   5.207
 2191SOL    HW2 7473   2.831   1.439   5.054
 2192SOL     OW 7474   5.829   0.027   2.339
 2192SOL    HW1 7475   5.853   0.105   2.281
 2192SOL    HW2 7476   5.729   0.022   2.348
 2193SOL     OW 7477   6.169   6.807   6.026
 2193SOL    HW1 7478   6.264   6.837   6.015
 2193SOL    HW2 7479   6.133   6.841   6.113
 2194SOL     OW 7480   0.741   3.949   5.378
 2194SOL    HW1 7481   0.671   3.899   5.429
 2194SOL    HW2 7482   0.753   4.040   5.418
 2195SOL     OW 7483   6.740   6.041   5.185
 2195SOL    HW1 7484   6.804   5.967   5.202
 2195SOL    HW2 7485   6.648   6.004   5.175
 2196SOL     OW 7486   3.193   6.821   5.100
 2196SOL    HW1 7487   3.119   6.829   5.033
 2196SOL    HW2 7488   3.228   6.912   5.121
 2197SOL     OW 7489   2.995   2.984   6.292
 2197SOL    HW1 7490   3.086   3.008   6.324
 2197SOL    HW2 7491   2.937   3.065   6.290
 2198SOL     OW 7492   6.295   6.627   1.054
 2198SOL    HW1 7493   6.268   6.531   1.064
 2198SOL    HW2 7494   6.375   6.646   1.110
 2199SOL     OW 7495   5.318   0.020   4.751
 2199SOL    HW1 7496   5.290   0.110   4.786
 2199SOL    HW2 7497   5.352   6.986   4.827
 2200SOL     OW 7498   2.939   1.395   3.693
 2200SOL    HW1 7499   2.915   1.456   3.617
 2200SOL    HW2 7500   2.858   1.343   3.720
 2201SOL     OW 7501   6.083   3.035   2.982
 2201SOL    HW1 7502   6.080   3.121   3.034
 2201SOL    HW2 7503   6.034   3.047   2.896
 2202SOL     OW 7504   2.921   5.970   2.682
 2202SOL    HW1 7505   2.861   5.944   2.607
 2202SOL    HW2 7506   2.937   5.891   2.742
 2203SOL     OW 7507   2.701   3.267   1.496
 2203SOL    HW1 7508   2.641   3.250   1.574
 2203SOL    HW2 7509   2.646   3.288   1.416
 2204SOL     OW 7510   4.640   2.861   0.902
 2204SOL    HW1 7511   4.637   2.765   0.875
 2204SOL    HW2 7512   4.720   2.905   0.861
 2205SOL     OW 7513   1.297   0.097   0.063
 2205SOL    HW1 7514   1.373   0.034   0.052
 2205SOL    HW2 7515   1.284   0.118   0.160
 2206SOL     OW 7516   2.190   4.602   6.371
 2206SOL    HW1 7517   2.099   4.581   6.335
 2206SOL    HW2 7518   2.258   4.547   6.322
 2207SOL     OW 7519   3.237   5.473   0.115
 2207SOL    HW1 7520   3.327   5.515   0.100
 2207SOL    HW2 7521   3.236   5.430   0.205
 2208SOL     OW 7522   0.946   5.380   3.303
 2208SOL    HW1 7523   0.887   5.344   3.375
 2208SOL    HW2 7524   1.040   5.384   3.337
 2209SOL     OW 7525   2.653   6.004   4.931
 2209SOL    HW1 7526   2.734   5.952   4.903
 2209SOL    HW2 7527   2.679   6.070   5.002
 2210SOL     OW 7528   6.837   5.928   3.036
 2210SOL    HW1 7529   6.920   5.872   3.040
 2210SOL    HW2 7530   6.767   5.889   3.096
 2211SOL     OW 7531   6.251   0.612   0.618
 2211SOL    HW1 7532   6.208   0.572   0.699
 2211SOL    HW2 7533   6.218   0.565   0.536
 2212SOL     OW 7534   1.743   5.845   6.662
 2212SOL    HW1 7535   1.712   5.774   6.725
 2212SOL    HW2 7536   1.837   5.872   6.685
 2213SOL     OW 7537   4.721   2.567   5.476
 2213SOL    HW1 7538   4.622   2.559   5.462
 2213SOL    HW2 7539   4.752   2.495   5.539
 2214SOL     OW 7540   3.086   3.059   4.924
 2214SOL    HW1 7541   3.034   3.022   4.848
 2214SOL    HW2 7542   3.036   3.135   4.965
 2215SOL     OW 7543   5.518   1.731   6.629
 2215SOL    HW1 7544   5.503   1.734   6.530
 2215SOL    HW2 7545   5.494   1.640   6.663
 2216SOL     OW 7546   0.271   0.024   6.295
 2216SOL    HW1 7547   0.214   0.050   6.373
 2216SOL    HW2 7548   0.216   0.026   6.211
 2217SOL     OW 7549   4.398   0.304   3.375
 2217SOL    HW1 7550   4.455   0.328   3.296
 2217SOL    HW2 7551   4.445   0.234   3.429
 2218SOL     OW 7552   6.921   5.145   6.845
 2218SOL    HW1 7553   6.822   5.144   6.831
 2218SOL    HW2 7554   6.960   5.228   6.805
 2219SOL     OW 7555   6.179   2.281   1.207
 2219SOL    HW1 7556   6.192   2.337   1.126
 2219SOL    HW2 7557   6.107   2.213   1.190
 2220SOL     OW 7558   1.938   5.872   5.742
 2220SOL    HW1 7559   1.950   5.962   5.786
 2220SOL    HW2 7560   1.895   5.809   5.806
 2221SOL     OW 7561   6.753   1.859   4.998
 2221SOL    HW1 7562   6.714   1.823   4.914
 2221SOL    HW2 7563   6.680   1.899   5.054
 2222SOL     OW 7564   5.999   6.941   0.681
 2222SOL    HW1 7565   6.048   6.984   0.606
 2222SOL    HW2 7566   5.926   7.002   0.713
 2223SOL     OW 7567   6.336   1.628   6.247
 2223SOL    HW1 7568   6.258   1.582   6.290
 2223SOL    HW2 7569   6.306   1.670   6.161
 2224SOL     OW 7570   5.868   3.375   1.893
 2224SOL    HW1 7571   5.892   3.391   1.797
 2224SOL    HW2 7572   5.891   3.281   1.918
 2225SOL     OW 7573   0.271   6.854   3.255
 2225SOL    HW1 7574   0.287   6.953   3.252
 2225SOL    HW2 7575   0.214   6.826   3.178
 2226SOL     OW 7576   3.865   5.440   0.620
 2226SOL    HW1 7577   3.910   5.419   0.707
 2226SOL    HW2 7578   3.930   5.425   0.545
 2227SOL     OW 7579   4.827   2.638   1.615
 2227SOL    HW1 7580   4.867   2.583   1.689
 2227SOL    HW2 7581   4.762   2.582   1.564
 2228SOL     OW 7582   4.621   5.518   0.213
 2228SOL    HW1 7583   4.608   5.610   0.175
 2228SOL    HW2 7584   4.713   5.510   0.251
 2229SOL     OW 7585   3.977   3.679   4.653
 2229SOL    HW1 7586   3.999   3.715   4.744
 2229SOL    HW2 7587   4.061   3.654   4.606
 2230SOL     OW 7588   5.390   5.793   1.218
 2230SOL    HW1 7589   5.375   5.717   1.281
 2230SOL    HW2 7590   5.304   5.817   1.174
 2231SOL     OW 7591   0.811   0.113   6.825
 2231SOL    HW1 7592   0.869   0.060   6.887
 2231SOL    HW2 7593   0.814   0.072   6.733
 2232SOL     OW 7594   0.542   1.464   4.858
 2232SOL    HW1 7595   0.464   1.504   4.809
 2232SOL    HW2 7596   0.564   1.522   4.937
 2233SOL     OW 7597   2.527   2.808   0.900
 2233SOL    HW1 7598   2.519   2.756   0.815
 2233SOL    HW2 7599   2.509   2.904   0.882
 2234SOL     OW 7600   3.501   1.397   0.578
 2234SOL    HW1 7601   3.420   1.449   0.606
 2234SOL    HW2 7602   3.577   1.459   0.562
 2235SOL     OW 7603   2.649   0.108   2.430
 2235SOL    HW1 7604   2.550   0.118   2.432
 2235SOL    HW2 7605   2.685   0.145   2.344
 2236SOL     OW 7606   1.830   3.523   5.810
 2236SOL    HW1 7607   1.925   3.532   5.780
 2236SOL    HW2 7608   1.794   3.613   5.836
 2237SOL     OW 7609   5.832   4.345   4.840
 2237SOL    HW1 7610   5.886   4.427   4.822
 2237SOL    HW2 7611   5.875   4.266   4.796
 2238SOL     OW 7612   4.465   4.696   2.723
 2238SOL    HW1 7613   4.494   4.637   2.647
 2238SOL    HW2 7614   4.458   4.642   2.806
 2239SOL     OW 7615   4.636   5.670   3.852
 2239SOL    HW1 7616   4.673   5.743   3.795
 2239SOL    HW2 7617   4.543   5.648   3.822
 2240SOL     OW 7618   3.495   5.476   2.708
 2240SOL    HW1 7619   3.500   5.382   2.673
 2240SOL    HW2 7620   3.585   5.519   2.699
 2241SOL     OW 7621   6.964   6.620   2.247
 2241SOL    HW1 7622   0.013   6.616   2.318
 2241SOL    HW2 7623   6.935   6.715   2.235
 2242SOL     OW 7624   5.373   3.170   2.722
 2242SOL    HW1 7625   5.304   3.157   2.793
 2242SOL    HW2 7626   5.448   3.224   2.758
 2243SOL     OW 7627   1.960   6.653   0.095
 2243SOL    HW1 7628   2.052   6.645   0.133
 2243SOL    HW2 7629   1.920   6.741   0.122
 2244SOL     OW 7630   2.436   0.152   1.277
 2244SOL    HW1 7631   2.403   0.132   1.185
 2244SOL    HW2 7632   2.525   0.108   1.292
 2245SOL     OW 7633   0.304   1.555   1.187
 2245SOL    HW1 7634   0.288   1.487   1.115
 2245SOL    HW2 7635   0.263   1.524   1.273
 2246SOL     OW 7636   1.763   0.888   4.120
 2246SOL    HW1 7637   1.830   0.957   4.147
 2246SOL    HW2 7638   1.795   0.842   4.037
 2247SOL     OW 7639   3.063   3.137   2.497
 2247SOL    HW1 7640   3.138   3.202   2.484
 2247SOL    HW2 7641   3.098   3.044   2.488
 2248SOL     OW 7642   6.407   3.909   4.360
 2248SOL    HW1 7643   6.344   3.979   4.394
 2248SOL    HW2 7644   6.490   3.909   4.416
 2249SOL     OW 7645   4.734   6.916   3.779
 2249SOL    HW1 7646   4.705   6.915   3.874
 2249SOL    HW2 7647   4.660   6.952   3.722
 2250SOL     OW 7648   3.151   3.980   5.382
 2250SOL    HW1 7649   3.060   4.021   5.385
 2250SOL    HW2 7650   3.208   4.030   5.317
 2251SOL     OW 7651   5.171   0.161   6.256
 2251SOL    HW1 7652   5.141   0.239   6.201
 2251SOL    HW2 7653   5.254   0.186   6.305
 2252SOL     OW 7654   4.937   1.816   2.869
 2252SOL    HW1 7655   4.886   1.739   2.905
 2252SOL    HW2 7656   4.930   1.817   2.769
 2253SOL     OW 7657   0.150   3.823   0.511
 2253SOL    HW1 7658   0.142   3.787   0.604
 2253SOL    HW2 7659   0.072   3.792   0.457
 2254SOL     OW 7660   3.897   2.966   3.959
 2254SOL    HW1 7661   3.936   3.018   4.034
 2254SOL    HW2 7662   3.820   3.016   3.919
 2255SOL     OW 7663   3.396   4.022   5.838
 2255SOL    HW1 7664   3.473   4.064   5.790
 2255SOL    HW2 7665   3.317   4.017   5.777
 2256SOL     OW 7666   5.070   6.766   1.739
 2256SOL    HW1 7667   5.000   6.765   1.810
 2256SOL    HW2 7668   5.041   6.825   1.664
 2257SOL     OW 7669   0.866   0.842   5.057
 2257SOL    HW1 7670   0.823   0.754   5.078
 2257SOL    HW2 7671   0.859   0.859   4.958
 2258SOL     OW 7672   1.787   5.452   4.445
 2258SOL    HW1 7673   1.731   5.531   4.420
 2258SOL    HW2 7674   1.878   5.462   4.407
 2259SOL     OW 7675   5.340   2.818   5.163
 2259SOL    HW1 7676   5.290   2.745   5.208
 2259SOL    HW2 7677   5.303   2.906   5.189
 2260SOL     OW 7678   0.117   3.573   1.374
 2260SOL    HW1 7679   0.109   3.645   1.305
 2260SOL    HW2 7680   0.084   3.607   1.462
 2261SOL     OW 7681   6.469   5.103   0.357
 2261SOL    HW1 7682   6.505   5.036   0.422
 2261SOL    HW2 7683   6.544   5.158   0.320
 2262SOL     OW 7684   6.222   0.000   3.225
 2262SOL    HW1 7685   6.190   0.082   3.178
 2262SOL    HW2 7686   6.248   0.024   3.319
 2263SOL     OW 7687   2.486   6.201   0.297
 2263SOL    HW1 7688   2.426   6.139   0.348
 2263SOL    HW2 7689   2.444   6.291   0.291
 2264SOL     OW 7690   3.109   6.522   6.347
 2264SOL    HW1 7691   3.156   6.541   6.433
 2264SOL    HW2 7692   3.021   6.568   6.346
 2265SOL     OW 7693   2.032   0.529   4.190
 2265SOL    HW1 7694   1.956   0.537   4.254
 2265SOL    HW2 7695   2.102   0.596   4.212
 2266SOL     OW 7696   5.138   2.003   6.363
 2266SOL    HW1 7697   5.132   2.102   6.351
 2266SOL    HW2 7698   5.134   1.981   6.461
 2267SOL     OW 7699   4.655   2.931   5.274
 2267SOL    HW1 7700   4.732   2.943   5.336
 2267SOL    HW2 7701   4.575   2.980   5.310
 2268SOL     OW 7702   6.161   3.953   6.387
 2268SOL    HW1 7703   6.187   4.015   6.462
 2268SOL    HW2 7704   6.162   4.004   6.301
 2269SOL     OW 7705   0.897   3.426   5.231
 2269SOL    HW1 7706   0.928   3.471   5.147
 2269SOL    HW2 7707   0.930   3.332   5.232
 2270SOL     OW 7708   3.998   2.942   6.433
 2270SOL    HW1 7709   4.085   2.907   6.397
 2270SOL    HW2 7710   3.998   3.042   6.429
 2271SOL     OW 7711   5.568   4.583   0.208
 2271SOL    HW1 7712   5.570   4.483   0.216
 2271SOL    HW2 7713   5.612   4.623   0.288
 2272SOL     OW 7714   6.040   1.113   6.824
 2272SOL    HW1 7715   6.133   1.093   6.792
 2272SOL    HW2 7716   6.045   1.149   6.918
 2273SOL     OW 7717   1.304   2.219   1.737
 2273SOL    HW1 7718   1.206   2.239   1.737
 2273SOL    HW2 7719   1.354   2.301   1.710
 2274SOL     OW 7720   0.258   1.645   6.496
 2274SOL    HW1 7721   0.356   1.629   6.510
 2274SOL    HW2 7722   0.237   1.636   6.399
 2275SOL     OW 7723   5.868   6.799   3.063
 2275SOL    HW1 7724   5.930   6.747   3.004
 2275SOL    HW2 7725   5.778   6.755   3.063
 2276SOL     OW 7726   1.662   5.574   1.919
 2276SOL    HW1 7727   1.705   5.543   2.004
 2276SOL    HW2 7728   1.568   5.602   1.938
 2277SOL     OW 7729   3.630   4.131   4.935
 2277SOL    HW1 7730   3.699   4.067   4.901
 2277SOL    HW2 7731   3.562   4.149   4.863
 2278SOL     OW 7732   6.377   2.726   3.634
 2278SOL    HW1 7733   6.325   2.645   3.605
 2278SOL    HW2 7734   6.364   2.799   3.567
 2279SOL     OW 7735   5.914   0.450   5.272
 2279SOL    HW1 7736   6.007   0.438   5.308
 2279SOL    HW2 7737   5.853   0.381   5.311
 2280SOL     OW 7738   6.874   6.862   4.328
 2280SOL    HW1 7739   6.938   6.839   4.401
 2280SOL    HW2 7740   6.803   6.922   4.365
 2281SOL     OW 7741   3.008   0.658   1.861
 2281SOL    HW1 7742   3.049   0.617   1.943
 2281SOL    HW2 7743   3.037   0.753   1.852
 2282SOL     OW 7744   5.606   6.145   5.717
 2282SOL    HW1 7745   5.592   6.050   5.689
 2282SOL    HW2 7746   5.581   6.155   5.813
 2283SOL     OW 7747   1.612   0.298   1.932
 2283SOL    HW1 7748   1.563   0.212   1.920
 2283SOL    HW2 7749   1.597   0.356   1.852
 2284SOL     OW 7750   1.092   3.288   6.432
 2284SOL    HW1 7751   1.042   3.202   6.445
 2284SOL    HW2 7752   1.140   3.286   6.345
 2285SOL     OW 7753   0.971   3.181   0.383
 2285SOL    HW1 7754   1.010   3.152   0.470
 2285SOL    HW2 7755   0.987   3.278   0.369
 2286SOL     OW 7756   5.233   0.394   3.648
 2286SOL    HW1 7757   5.194   0.485   3.665
 2286SOL    HW2 7758   5.326   0.391   3.684
 2287SOL     OW 7759   1.882   0.667   3.543
 2287SOL    HW1 7760   1.906   0.764   3.549
 2287SOL    HW2 7761   1.923   0.627   3.461
 2288SOL     OW 7762   6.720   5.145   3.946
 2288SOL    HW1 7763   6.627   5.130   3.980
 2288SOL    HW2 7764   6.727   5.110   3.853
 2289SOL     OW 7765   0.131   5.238   0.726
 2289SOL    HW1 7766   0.036   5.250   0.697
 2289SOL    HW2 7767   0.193   5.264   0.652
 2290SOL     OW 7768   0.631   3.694   1.387
 2290SOL    HW1 7769   0.562   3.747   1.438
 2290SOL    HW2 7770   0.716   3.746   1.383
 2291SOL     OW 7771   2.523   2.449   5.506
 2291SOL    HW1 7772   2.571   2.518   5.452
 2291SOL    HW2 7773   2.432   2.433   5.469
 2292SOL     OW 7774   1.567   1.698   4.596
 2292SOL    HW1 7775   1.537   1.790   4.622
 2292SOL    HW2 7776   1.499   1.632   4.628
 2293SOL     OW 7777   4.981   6.175   1.873
 2293SOL    HW1 7778   4.918   6.104   1.842
 2293SOL    HW2 7779   5.065   6.133   1.906
 2294SOL     OW 7780   3.219   0.336   6.989
 2294SOL    HW1 7781   3.297   0.284   0.003
 2294SOL    HW2 7782   3.168   0.376   0.043
 2295SOL     OW 7783   0.363   1.636   2.445
 2295SOL    HW1 7784   0.363   1.576   2.365
 2295SOL    HW2 7785   0.294   1.707   2.433
 2296SOL     OW 7786   3.598   5.881   0.550
 2296SOL    HW1 7787   3.582   5.860   0.454
 2296SOL    HW2 7788   3.515   5.862   0.603
 2297SOL     OW 7789   3.696   4.262   5.390
 2297SOL    HW1 7790   3.723   4.181   5.442
 2297SOL    HW2 7791   3.773   4.295   5.336
 2298SOL     OW 7792   3.984   2.611   1.640
 2298SOL    HW1 7793   4.007   2.676   1.568
 2298SOL    HW2 7794   4.049   2.619   1.715
 2299SOL     OW 7795   5.090   0.388   6.685
 2299SOL    HW1 7796   5.170   0.367   6.630
 2299SOL    HW2 7797   5.118   0.414   6.778
 2300SOL     OW 7798   2.382   5.079   1.567
 2300SOL    HW1 7799   2.446   5.010   1.599
 2300SOL    HW2 7800   2.433   5.156   1.528
 2301SOL     OW 7801   3.054   3.147   3.326
 2301SOL    HW1 7802   3.055   3.145   3.226
 2301SOL    HW2 7803   3.003   3.068   3.360
 2302SOL     OW 7804   3.421   0.152   2.105
 2302SOL    HW1 7805   3.459   0.085   2.169
 2302SOL    HW2 7806   3.330   0.123   2.076
 2303SOL     OW 7807   1.663   3.327   6.172
 2303SOL    HW1 7808   1.737   3.272   6.132
 2303SOL    HW2 7809   1.691   3.423   6.174
 2304SOL     OW 7810   3.093   0.576   3.318
 2304SOL    HW1 7811   3.021   0.589   3.386
 2304SOL    HW2 7812   3.079   0.489   3.271
 2305SOL     OW 7813   3.376   5.962   3.266
 2305SOL    HW1 7814   3.334   6.016   3.339
 2305SOL    HW2 7815   3.439   6.019   3.214
 2306SOL     OW 7816   2.207   5.517   1.916
 2306SOL    HW1 7817   2.141   5.445   1.896
 2306SOL    HW2 7818   2.225   5.519   2.015
 2307SOL     OW 7819   2.219   4.362   2.708
 2307SOL    HW1 7820   2.294   4.419   2.742
 2307SOL    HW2 7821   2.241   4.330   2.615
 2308SOL     OW 7822   1.613   6.913   6.779
 2308SOL    HW1 7823   1.649   6.820   6.776
 2308SOL    HW2 7824   1.631   6.959   6.692
 2309SOL     OW 7825   2.928   0.074   0.038
 2309SOL    HW1 7826   2.893   0.163   0.010
 2309SOL    HW2 7827   2.853   0.007   0.035
 2310SOL     OW 7828   6.003   6.272   1.685
 2310SOL    HW1 7829   6.047   6.342   1.741
 2310SOL    HW2 7830   5.994   6.305   1.591
 2311SOL     OW 7831   2.594   6.590   2.313
 2311SOL    HW1 7832   2.553   6.499   2.318
 2311SOL    HW2 7833   2.672   6.595   2.375
 2312SOL     OW 7834   3.457   6.827   3.635
 2312SOL    HW1 7835   3.395   6.866   3.567
 2312SOL    HW2 7836   3.551   6.828   3.600
 2313SOL     OW 7837   4.934   5.560   2.518
 2313SOL    HW1 7838   4.965   5.569   2.424
 2313SOL    HW2 7839   5.011   5.576   2.580
 2314SOL     OW 7840   5.754   0.781   4.388
 2314SOL    HW1 7841   5.792   0.870   4.411
 2314SOL    HW2 7842   5.793   0.712   4.449
 2315SOL     OW 7843   5.018   3.458   4.981
 2315SOL    HW1 7844   4.951   3.512   5.032
 2315SOL    HW2 7845   5.087   3.519   4.943
 2316SOL     OW 7846   2.971   1.087   4.868
 2316SOL    HW1 7847   2.890   1.145   4.863
 2316SOL    HW2 7848   3.038   1.119   4.801
 2317SOL     OW 7849   6.296   6.510   3.391
 2317SOL    HW1 7850   6.224   6.557   3.443
 2317SOL    HW2 7851   6.368   6.575   3.369
 2318SOL     OW 7852   2.154   3.391   4.409
 2318SOL    HW1 7853   2.155   3.342   4.322
 2318SOL    HW2 7854   2.216   3.346   4.473
 2319SOL     OW 7855   3.106   5.677   5.108
 2319SOL    HW1 7856   3.127   5.677   5.011
 2319SOL    HW2 7857   3.027   5.735   5.126
 2320SOL     OW 7858   1.196   2.610   5.247
 2320SOL    HW1 7859   1.220   2.633   5.341
 2320SOL    HW2 7860   1.099   2.588   5.242
 2321SOL     OW 7861   1.785   5.491   7.015
 2321SOL    HW1 7862   1.760   5.422   0.061
 2321SOL    HW2 7863   1.850   5.452   6.950
 2322SOL     OW 7864   1.920   4.301   2.527
 2322SOL    HW1 7865   1.919   4.222   2.465
 2322SOL    HW2 7866   1.999   4.294   2.588
 2323SOL     OW 7867   3.492   4.891   1.676
 2323SOL    HW1 7868   3.566   4.831   1.708
 2323SOL    HW2 7869   3.409   4.871   1.728
 2324SOL     OW 7870   6.663   6.179   1.199
 2324SOL    HW1 7871   6.614   6.112   1.144
 2324SOL    HW2 7872   6.761   6.175   1.177
 2325SOL     OW 7873   0.497   4.183   1.124
 2325SOL    HW1 7874   0.435   4.254   1.160
 2325SOL    HW2 7875   0.589   4.221   1.116
 2326SOL     OW 7876   1.993   6.624   6.634
 2326SOL    HW1 7877   1.993   6.718   6.668
 2326SOL    HW2 7878   2.063   6.571   6.681
 2327SOL     OW 7879   0.210   1.560   2.677
 2327SOL    HW1 7880   0.215   1.626   2.603
 2327SOL    HW2 7881   0.174   1.604   2.759
 2328SOL     OW 7882   1.353   1.699   2.955
 2328SOL    HW1 7883   1.343   1.610   2.999
 2328SOL    HW2 7884   1.398   1.762   3.017
 2329SOL     OW 7885   1.053   4.407   5.288
 2329SOL    HW1 7886   0.982   4.347   5.251
 2329SOL    HW2 7887   1.120   4.427   5.217
 2330SOL     OW 7888   0.312   2.706   1.107
 2330SOL    HW1 7889   0.257   2.670   1.031
 2330SOL    HW2 7890   0.257   2.766   1.164
 2331SOL     OW 7891   3.929   4.781   0.410
 2331SOL    HW1 7892   3.935   4.682   0.397
 2331SOL    HW2 7893   4.021   4.819   0.419
 2332SOL     OW 7894   6.908   6.902   5.514
 2332SOL    HW1 7895   6.910   6.807   5.545
 2332SOL    HW2 7896   6.841   6.912   5.441
 2333SOL     OW 7897   7.005   4.062   3.435
 2333SOL    HW1 7898   7.008   3.972   3.478
 2333SOL    HW2 7899   0.006   4.053   3.338
 2334SOL     OW 7900   2.222   1.095   6.382
 2334SOL    HW1 7901   2.276   1.140   6.311
 2334SOL    HW2 7902   2.224   1.150   6.466
 2335SOL     OW 7903   5.856   0.858   4.090
 2335SOL    HW1 7904   5.888   0.857   3.995
 2335SOL    HW2 7905   5.802   0.775   4.108
 2336SOL     OW 7906   4.084   1.553   4.783
 2336SOL    HW1 7907   4.150   1.508   4.723
 2336SOL    HW2 7908   4.099   1.652   4.781
 2337SOL     OW 7909   4.066   0.190   1.359
 2337SOL    HW1 7910   4.140   0.256   1.378
 2337SOL    HW2 7911   4.106   0.102   1.334
 2338SOL     OW 7912   0.305   3.040   4.604
 2338SOL    HW1 7913   0.294   2.957   4.548
 2338SOL    HW2 7914   0.248   3.032   4.686
 2339SOL     OW 7915   3.189   4.072   3.318
 2339SOL    HW1 7916   3.167   4.162   3.280
 2339SOL    HW2 7917   3.258   4.028   3.260
 2340SOL     OW 7918   6.792   4.114   6.092
 2340SOL    HW1 7919   6.865   4.171   6.055
 2340SOL    HW2 7920   6.770   4.143   6.185
 2341SOL     OW 7921   3.097   4.798   2.075
 2341SOL    HW1 7922   3.038   4.726   2.040
 2341SOL    HW2 7923   3.061   4.887   2.048
 2342SOL     OW 7924   1.132   6.602   5.385
 2342SOL    HW1 7925   1.045   6.586   5.338
 2342SOL    HW2 7926   1.115   6.650   5.471
 2343SOL     OW 7927   1.708   5.314   2.531
 2343SOL    HW1 7928   1.775   5.252   2.572
 2343SOL    HW2 7929   1.752   5.367   2.459
 2344SOL     OW 7930   0.615   5.578   6.899
 2344SOL    HW1 7931   0.587   5.490   6.938
 2344SOL    HW2 7932   0.617   5.572   6.800
 2345SOL     OW 7933   2.837   5.831   5.156
 2345SOL    HW1 7934   2.863   5.908   5.213
 2345SOL    HW2 7935   2.820   5.751   5.213
 2346SOL     OW 7936   3.244   3.521   5.570
 2346SOL    HW1 7937   3.273   3.446   5.510
 2346SOL    HW2 7938   3.222   3.601   5.515
 2347SOL     OW 7939   3.002   2.304   1.193
 2347SOL    HW1 7940   2.955   2.340   1.274
 2347SOL    HW2 7941   3.045   2.380   1.144
 2348SOL     OW 7942   2.296   6.592   3.418
 2348SOL    HW1 7943   2.200   6.578   3.392
 2348SOL    HW2 7944   2.310   6.688   3.443
 2349SOL     OW 7945   1.374   5.119   5.891
 2349SOL    HW1 7946   1.375   5.112   5.791
 2349SOL    HW2 7947   1.393   5.213   5.918
 2350SOL     OW 7948   6.406   5.933   6.250
 2350SOL    HW1 7949   6.502   5.947   6.272
 2350SOL    HW2 7950   6.350   5.997   6.302
 2351SOL     OW 7951   2.887   5.054   4.520
 2351SOL    HW1 7952   2.982   5.079   4.501
 2351SOL    HW2 7953   2.885   4.976   4.584
 2352SOL     OW 7954   0.641   4.060   2.596
 2352SOL    HW1 7955   0.691   3.994   2.540
 2352SOL    HW2 7956   0.655   4.038   2.693
 2353SOL     OW 7957   3.567   5.272   4.798
 2353SOL    HW1 7958   3.607   5.328   4.871
 2353SOL    HW2 7959   3.640   5.226   4.747
 2354SOL     OW 7960   2.955   1.766   5.375
 2354SOL    HW1 7961   2.959   1.690   5.440
 2354SOL    HW2 7962   3.048   1.789   5.346
 2355SOL     OW 7963   2.180   6.825   6.260
 2355SOL    HW1 7964   2.170   6.812   6.161
 2355SOL    HW2 7965   2.218   6.916   6.278
 2356SOL     OW 7966   1.388   3.115   6.518
 2356SOL    HW1 7967   1.470   3.078   6.560
 2356SOL    HW2 7968   1.316   3.125   6.587
 2357SOL     OW 7969   4.299   6.895   2.521
 2357SOL    HW1 7970   4.325   6.857   2.610
 2357SOL    HW2 7971   4.287   6.821   2.455
 2358SOL     OW 7972   3.903   5.228   5.071
 2358SOL    HW1 7973   3.991   5.192   5.102
 2358SOL    HW2 7974   3.916   5.284   4.989
 2359SOL     OW 7975   6.766   1.153   5.291
 2359SOL    HW1 7976   6.680   1.118   5.329
 2359SOL    HW2 7977   6.749   1.192   5.200
 2360SOL     OW 7978   5.644   3.552   0.082
 2360SOL    HW1 7979   5.658   3.574   7.007
 2360SOL    HW2 7980   5.555   3.508   0.093
 2361SOL     OW 7981   2.691   0.968   5.354
 2361SOL    HW1 7982   2.656   0.954   5.261
 2361SOL    HW2 7983   2.761   1.040   5.353
 2362SOL     OW 7984   2.298   6.100   4.255
 2362SOL    HW1 7985   2.263   6.044   4.180
 2362SOL    HW2 7986   2.261   6.192   4.248
 2363SOL     OW 7987   4.687   1.937   5.021
 2363SOL    HW1 7988   4.710   2.027   4.985
 2363SOL    HW2 7989   4.724   1.928   5.113
 2364SOL     OW 7990   0.601   2.170   2.416
 2364SOL    HW1 7991   0.660   2.228   2.360
 2364SOL    HW2 7992   0.509   2.210   2.420
 2365SOL     OW 7993   6.298   2.277   6.431
 2365SOL    HW1 7994   6.352   2.304   6.510
 2365SOL    HW2 7995   6.205   2.254   6.460
 2366SOL     OW 7996   2.551   5.527   6.273
 2366SOL    HW1 7997   2.523   5.452   6.214
 2366SOL    HW2 7998   2.584   5.603   6.217
 2367SOL     OW 7999   2.655   3.988   1.117
 2367SOL    HW1 8000   2.743   4.009   1.160
 2367SOL    HW2 8001   2.619   3.903   1.156
 2368SOL     OW 8002   4.308   0.394   4.540
 2368SOL    HW1 8003   4.335   0.475   4.487
 2368SOL    HW2 8004   4.212   0.374   4.522
 2369SOL     OW 8005   1.737   0.899   5.329
 2369SOL    HW1 8006   1.638   0.896   5.315
 2369SOL    HW2 8007   1.761   0.846   5.411
 2370SOL     OW 8008   4.844   3.136   6.721
 2370SOL    HW1 8009   4.824   3.162   6.815
 2370SOL    HW2 8010   4.760   3.108   6.675
 2371SOL     OW 8011   0.709   6.635   1.508
 2371SOL    HW1 8012   0.689   6.651   1.604
 2371SOL    HW2 8013   0.799   6.674   1.486
 2372SOL     OW 8014   0.310   2.600   2.160
 2372SOL    HW1 8015   0.303   2.682   2.103
 2372SOL    HW2 8016   0.301   2.625   2.256
 2373SOL     OW 8017   0.961   2.040   6.652
 2373SOL    HW1 8018   0.952   2.029   6.751
 2373SOL    HW2 8019   1.055   2.068   6.631
 2374SOL     OW 8020   6.167   2.059   3.438
 2374SOL    HW1 8021   6.117   2.003   3.372
 2374SOL    HW2 8022   6.135   2.040   3.530
 2375SOL     OW 8023   3.178   6.562   5.078
 2375SOL    HW1 8024   3.078   6.563   5.076
 2375SOL    HW2 8025   3.212   6.656   5.073
 2376SOL     OW 8026   6.717   2.308   4.488
 2376SOL    HW1 8027   6.667   2.255   4.420
 2376SOL    HW2 8028   6.706   2.265   4.578
 2377SOL     OW 8029   3.883   4.007   3.332
 2377SOL    HW1 8030   3.963   4.024   3.275
 2377SOL    HW2 8031   3.909   3.949   3.410
 2378SOL     OW 8032   4.868   1.693   0.876
 2378SOL    HW1 8033   4.778   1.733   0.863
 2378SOL    HW2 8034   4.859   1.598   0.904
 2379SOL     OW 8035   6.247   1.533   0.116
 2379SOL    HW1 8036   6.307   1.520   0.037
 2379SOL    HW2 8037   6.266   1.621   0.158
 2380SOL     OW 8038   0.479   1.384   6.969
 2380SOL    HW1 8039   0.468   1.431   0.035
 2380SOL    HW2 8040   0.400   1.325   6.952
 2381SOL     OW 8041   2.177   4.465   4.385
 2381SOL    HW1 8042   2.133   4.390   4.436
 2381SOL    HW2 8043   2.252   4.427   4.330
 2382SOL     OW 8044   1.860   3.892   4.158
 2382SOL    HW1 8045   1.892   3.921   4.248
 2382SOL    HW2 8046   1.937   3.886   4.095
 2383SOL     OW 8047   4.980   6.195   1.261
 2383SOL    HW1 8048   4.893   6.243   1.251
 2383SOL    HW2 8049   4.963   6.098   1.277
 2384SOL     OW 8050   5.662   0.948   3.183
 2384SOL    HW1 8051   5.748   0.993   3.162
 2384SOL    HW2 8052   5.635   0.969   3.277
 2385SOL     OW 8053   1.177   0.148   0.389
 2385SOL    HW1 8054   1.090   0.119   0.429
 2385SOL    HW2 8055   1.251   0.090   0.423
 2386SOL     OW 8056   6.227   5.811   4.431
 2386SOL    HW1 8057   6.133   5.805   4.397
 2386SOL    HW2 8058   6.270   5.721   4.429
 2387SOL     OW 8059   1.484   2.319   3.833
 2387SOL    HW1 8060   1.524   2.231   3.860
 2387SOL    HW2 8061   1.436   2.307   3.745
 2388SOL     OW 8062   0.903   2.280   4.563
 2388SOL    HW1 8063   0.930   2.329   4.480
 2388SOL    HW2 8064   0.810   2.245   4.552
 2389SOL     OW 8065   4.736   4.189   3.001
 2389SOL    HW1 8066   4.709   4.202   3.096
 2389SOL    HW2 8067   4.749   4.092   2.982
 2390SOL     OW 8068   4.110   3.358   3.503
 2390SOL    HW1 8069   4.098   3.293   3.429
 2390SOL    HW2 8070   4.029   3.356   3.563
 2391SOL     OW 8071   4.861   3.786   6.016
 2391SOL    HW1 8072   4.952   3.754   5.991
 2391SOL    HW2 8073   4.792   3.737   5.963
 2392SOL     OW 8074   4.734   6.228   5.518
 2392SOL    HW1 8075   4.683   6.272   5.444
 2392SOL    HW2 8076   4.829   6.215   5.490
 2393SOL     OW 8077   5.173   3.652   5.717
 2393SOL    HW1 8078   5.250   3.684   5.773
 2393SOL    HW2 8079   5.139   3.728   5.662
 2394SOL     OW 8080   1.367   3.557   4.892
 2394SOL    HW1 8081   1.325   3.580   4.980
 2394SOL    HW2 8082   1.386   3.641   4.841
 2395SOL     OW 8083   5.242   2.715   6.098
 2395SOL    HW1 8084   5.278   2.793   6.048
 2395SOL    HW2 8085   5.160   2.742   6.148
 2396SOL     OW 8086   3.436   5.617   1.357
 2396SOL    HW1 8087   3.357   5.631   1.297
 2396SOL    HW2 8088   3.405   5.590   1.448
 2397SOL     OW 8089   6.501   4.018   5.687
 2397SOL    HW1 8090   6.447   3.935   5.692
 2397SOL    HW2 8091   6.473   4.072   5.608
 2398SOL     OW 8092   2.928   3.717   6.955
 2398SOL    HW1 8093   2.905   3.621   6.971
 2398SOL    HW2 8094   2.844   3.771   6.949
 2399SOL     OW 8095   4.806   1.369   1.700
 2399SOL    HW1 8096   4.879   1.311   1.735
 2399SOL    HW2 8097   4.719   1.320   1.708
 2400SOL     OW 8098   3.387   3.672   0.806
 2400SOL    HW1 8099   3.407   3.732   0.729
 2400SOL    HW2 8100   3.454   3.598   0.809
 2401SOL     OW 8101   4.607   6.248   6.609
 2401SOL    HW1 8102   4.613   6.257   6.509
 2401SOL    HW2 8103   4.553   6.167   6.632
 2402SOL     OW 8104   6.790   0.752   3.998
 2402SOL    HW1 8105   6.864   0.702   3.953
 2402SOL    HW2 8106   6.827   0.829   4.048
 2403SOL     OW 8107   2.323   2.268   6.679
 2403SOL    HW1 8108   2.369   2.294   6.594
 2403SOL    HW2 8109   2.391   2.232   6.744
 2404SOL     OW 8110   3.157   1.419   1.207
 2404SOL    HW1 8111   3.073   1.435   1.155
 2404SOL    HW2 8112   3.134   1.402   1.303
 2405SOL     OW 8113   3.534   3.538   2.463
 2405SOL    HW1 8114   3.554   3.442   2.444
 2405SOL    HW2 8115   3.577   3.565   2.549
 2406SOL     OW 8116   2.559   6.890   2.295
 2406SOL    HW1 8117   2.627   6.932   2.356
 2406SOL    HW2 8118   2.579   6.793   2.284
 2407SOL     OW 8119   5.748   2.203   2.480
 2407SOL    HW1 8120   5.665   2.256   2.497
 2407SOL    HW2 8121   5.779   2.161   2.565
 2408SOL     OW 8122   4.387   4.779   3.134
 2408SOL    HW1 8123   4.319   4.710   3.109
 2408SOL    HW2 8124   4.476   4.752   3.099
 2409SOL     OW 8125   1.874   4.708   2.233
 2409SOL    HW1 8126   1.837   4.692   2.325
 2409SOL    HW2 8127   1.959   4.760   2.240
 2410SOL     OW 8128   4.023   3.289   5.414
 2410SOL    HW1 8129   4.120   3.269   5.402
 2410SOL    HW2 8130   4.008   3.387   5.401
 2411SOL     OW 8131   4.647   5.825   4.997
 2411SOL    HW1 8132   4.602   5.738   4.977
 2411SOL    HW2 8133   4.600   5.869   5.074
 2412SOL     OW 8134   4.929   4.906   0.716
 2412SOL    HW1 8135   4.964   4.814   0.730
 2412SOL    HW2 8136   4.904   4.946   0.804
 2413SOL     OW 8137   5.947   1.579   0.829
 2413SOL    HW1 8138   6.024   1.542   0.881
 2413SOL    HW2 8139   5.918   1.665   0.871
 2414SOL     OW 8140   4.878   4.434   2.584
 2414SOL    HW1 8141   4.860   4.408   2.679
 2414SOL    HW2 8142   4.806   4.399   2.525
 2415SOL     OW 8143   6.347   0.800   2.901
 2415SOL    HW1 8144   6.279   0.872   2.910
 2415SOL    HW2 8145   6.407   0.800   2.981
 2416SOL     OW 8146   4.768   2.184   5.439
 2416SOL    HW1 8147   4.816   2.261   5.481
 2416SOL    HW2 8148   4.777   2.104   5.498
 2417SOL     OW 8149   3.725   3.441   5.169
 2417SOL    HW1 8150   3.744   3.367   5.233
 2417SOL    HW2 8151   3.628   3.465   5.172
 2418SOL     OW 8152   3.210   3.084   4.501
 2418SOL    HW1 8153   3.191   3.037   4.415
 2418SOL    HW2 8154   3.134   3.145   4.523
 2419SOL     OW 8155   6.859   6.833   4.708
 2419SOL    HW1 8156   6.940   6.833   4.766
 2419SOL    HW2 8157   6.866   6.906   4.640
 2420SOL     OW 8158   2.903   0.788   2.796
 2420SOL    HW1 8159   2.890   0.733   2.713
 2420SOL    HW2 8160   2.823   0.846   2.810
 2421SOL     OW 8161   2.292   2.428   4.825
 2421SOL    HW1 8162   2.196   2.454   4.835
 2421SOL    HW2 8163   2.301   2.329   4.832
 2422SOL     OW 8164   5.541   1.625   1.105
 2422SOL    HW1 8165   5.562   1.723   1.110
 2422SOL    HW2 8166   5.606   1.574   1.161
 2423SOL     OW 8167   1.369   5.702   2.728
 2423SOL    HW1 8168   1.350   5.777   2.664
 2423SOL    HW2 8169   1.453   5.656   2.701
 2424SOL     OW 8170   5.964   0.167   6.195
 2424SOL    HW1 8171   5.979   0.202   6.102
 2424SOL    HW2 8172   5.989   0.070   6.198
 2425SOL     OW 8173   5.686   0.654   4.164
 2425SOL    HW1 8174   5.656   0.561   4.187
 2425SOL    HW2 8175   5.685   0.711   4.246
 2426SOL     OW 8176   0.955   6.212   4.873
 2426SOL    HW1 8177   0.856   6.211   4.858
 2426SOL    HW2 8178   0.988   6.118   4.884
 2427SOL     OW 8179   5.639   5.773   5.441
 2427SOL    HW1 8180   5.663   5.842   5.372
 2427SOL    HW2 8181   5.605   5.691   5.395
 2428SOL     OW 8182   0.005   0.441   2.401
 2428SOL    HW1 8183   7.013   0.497   2.483
 2428SOL    HW2 8184   0.055   0.358   2.425
 2429SOL     OW 8185   5.720   5.781   3.142
 2429SOL    HW1 8186   5.730   5.754   3.046
 2429SOL    HW2 8187   5.656   5.857   3.148
 2430SOL     OW 8188   5.993   1.085   1.688
 2430SOL    HW1 8189   5.964   1.065   1.594
 2430SOL    HW2 8190   6.093   1.082   1.692
 2431SOL     OW 8191   3.955   1.056   1.570
 2431SOL    HW1 8192   3.861   1.068   1.537
 2431SOL    HW2 8193   3.972   1.119   1.645
 2432SOL     OW 8194   3.352   6.229   2.726
 2432SOL    HW1 8195   3.306   6.317   2.737
 2432SOL    HW2 8196   3.450   6.245   2.709
 2433SOL     OW 8197   4.008   1.845   0.367
 2433SOL    HW1 8198   3.995   1.902   0.448
 2433SOL    HW2 8199   3.983   1.897   0.286
 2434SOL     OW 8200   3.865   1.149   5.792
 2434SOL    HW1 8201   3.931   1.212   5.830
 2434SOL    HW2 8202   3.828   1.186   5.707
 2435SOL     OW 8203   4.592   5.234   5.866
 2435SOL    HW1 8204   4.588   5.274   5.775
 2435SOL    HW2 8205   4.554   5.142   5.864
 2436SOL     OW 8206   1.564   5.320   0.481
 2436SOL    HW1 8207   1.613   5.240   0.448
 2436SOL    HW2 8208   1.584   5.399   0.423
 2437SOL     OW 8209   5.396   6.503   6.739
 2437SOL    HW1 8210   5.479   6.449   6.753
 2437SOL    HW2 8211   5.376   6.508   6.641
 2438SOL     OW 8212   3.139   1.447   6.310
 2438SOL    HW1 8213   3.048   1.415   6.337
 2438SOL    HW2 8214   3.151   1.541   6.341
 2439SOL     OW 8215   0.629   4.612   6.435
 2439SOL    HW1 8216   0.701   4.588   6.500
 2439SOL    HW2 8217   0.655   4.695   6.386
 2440SOL     OW 8218   4.430   6.190   5.953
 2440SOL    HW1 8219   4.351   6.244   5.983
 2440SOL    HW2 8220   4.476   6.236   5.877
 2441SOL     OW 8221   7.007   1.891   6.942
 2441SOL    HW1 8222   0.006   1.885   0.018
 2441SOL    HW2 8223   7.002   1.799   6.903
 2442SOL     OW 8224   1.063   3.705   5.886
 2442SOL    HW1 8225   1.147   3.651   5.883
 2442SOL    HW2 8226   0.989   3.653   5.844
 2443SOL     OW 8227   3.720   4.971   5.920
 2443SOL    HW1 8228   3.749   4.877   5.900
 2443SOL    HW2 8229   3.640   4.994   5.864
 2444SOL     OW 8230   2.525   4.672   6.555
 2444SOL    HW1 8231   2.528   4.580   6.515
 2444SOL    HW2 8232   2.568   4.670   6.645
 2445SOL     OW 8233   6.999   1.633   1.043
 2445SOL    HW1 8234   6.976   1.713   0.986
 2445SOL    HW2 8235   0.075   1.637   1.065
 2446SOL     OW 8236   6.511   4.418   4.051
 2446SOL    HW1 8237   6.578   4.430   4.125
 2446SOL    HW2 8238   6.421   4.397   4.091
 2447SOL     OW 8239   2.333   2.703   0.130
 2447SOL    HW1 8240   2.407   2.729   0.191
 2447SOL    HW2 8241   2.371   2.656   0.050
 2448SOL     OW 8242   0.367   0.926   4.666
 2448SOL    HW1 8243   0.407   0.878   4.588
 2448SOL    HW2 8244   0.321   1.009   4.635
 2449SOL     OW 8245   6.583   4.252   0.375
 2449SOL    HW1 8246   6.520   4.261   0.297
 2449SOL    HW2 8247   6.637   4.169   0.365
 2450SOL     OW 8248   2.477   4.464   2.761
 2450SOL    HW1 8249   2.526   4.444   2.846
 2450SOL    HW2 8250   2.530   4.528   2.706
 2451SOL     OW 8251   1.461   0.180   4.357
 2451SOL    HW1 8252   1.555   0.147   4.344
 2451SOL    HW2 8253   1.450   0.267   4.310
 2452SOL     OW 8254   1.782   3.698   2.946
 2452SOL    HW1 8255   1.862   3.657   2.902
 2452SOL    HW2 8256   1.700   3.649   2.917
 2453SOL     OW 8257   6.534   4.860   1.149
 2453SOL    HW1 8258   6.596   4.930   1.115
 2453SOL    HW2 8259   6.503   4.884   1.241
 2454SOL     OW 8260   3.723   0.941   1.899
 2454SOL    HW1 8261   3.807   0.942   1.955
 2454SOL    HW2 8262   3.699   1.034   1.874
 2455SOL     OW 8263   5.089   5.476   0.511
 2455SOL    HW1 8264   5.068   5.394   0.565
 2455SOL    HW2 8265   5.064   5.459   0.415
 2456SOL     OW 8266   5.132   6.497   1.682
 2456SOL    HW1 8267   5.151   6.595   1.683
 2456SOL    HW2 8268   5.179   6.454   1.759
 2457SOL     OW 8269   5.504   6.495   0.167
 2457SOL    HW1 8270   5.416   6.467   0.128
 2457SOL    HW2 8271   5.515   6.454   0.257
 2458SOL     OW 8272   2.370   5.448   3.041
 2458SOL    HW1 8273   2.309   5.370   3.025
 2458SOL    HW2 8274   2.454   5.416   3.084
 2459SOL     OW 8275   1.556   6.802   0.570
 2459SOL    HW1 8276   1.500   6.738   0.517
 2459SOL    HW2 8277   1.649   6.803   0.533
 2460SOL     OW 8278   2.227   6.367   2.335
 2460SOL    HW1 8279   2.252   6.397   2.427
 2460SOL    HW2 8280   2.128   6.361   2.327
 2461SOL     OW 8281   5.620   0.433   2.302
 2461SOL    HW1 8282   5.673   0.350   2.282
 2461SOL    HW2 8283   5.585   0.471   2.216
 2462SOL     OW 8284   1.935   5.504   0.411
 2462SOL    HW1 8285   2.027   5.542   0.406
 2462SOL    HW2 8286   1.941   5.404   0.416
 2463SOL     OW 8287   0.108   1.981   3.691
 2463SOL    HW1 8288   0.019   1.981   3.735
 2463SOL    HW2 8289   0.143   2.075   3.684
 2464SOL     OW 8290   0.828   4.224   0.767
 2464SOL    HW1 8291   0.786   4.133   0.762
 2464SOL    HW2 8292   0.757   4.294   0.766
 2465SOL     OW 8293   6.599   5.907   2.045
 2465SOL    HW1 8294   6.569   5.909   2.141
 2465SOL    HW2 8295   6.632   5.815   2.023
 2466SOL     OW 8296   4.365   1.438   3.169
 2466SOL    HW1 8297   4.380   1.378   3.248
 2466SOL    HW2 8298   4.268   1.462   3.164
 2467SOL     OW 8299   6.683   0.818   5.737
 2467SOL    HW1 8300   6.600   0.848   5.784
 2467SOL    HW2 8301   6.762   0.871   5.770
 2468SOL     OW 8302   6.862   6.230   2.073
 2468SOL    HW1 8303   6.812   6.186   1.998
 2468SOL    HW2 8304   6.817   6.316   2.097
 2469SOL     OW 8305   3.173   4.038   5.646
 2469SOL    HW1 8306   3.079   4.022   5.677
 2469SOL    HW2 8307   3.182   4.007   5.551
 2470SOL     OW 8308   2.829   3.805   5.989
 2470SOL    HW1 8309   2.729   3.803   6.002
 2470SOL    HW2 8310   2.871   3.730   6.040
 2471SOL     OW 8311   0.875   6.430   2.421
 2471SOL    HW1 8312   0.790   6.473   2.392
 2471SOL    HW2 8313   0.893   6.351   2.363
 2472SOL     OW 8314   5.352   2.146   3.969
 2472SOL    HW1 8315   5.441   2.109   3.994
 2472SOL    HW2 8316   5.297   2.076   3.923
 2473SOL     OW 8317   1.017   5.539   4.677
 2473SOL    HW1 8318   1.111   5.565   4.698
 2473SOL    HW2 8319   0.999   5.556   4.580
 2474SOL     OW 8320   0.071   5.371   5.270
 2474SOL    HW1 8321   0.016   5.376   5.353
 2474SOL    HW2 8322   0.166   5.352   5.295
 2475SOL     OW 8323   4.336   2.530   0.310
 2475SOL    HW1 8324   4.397   2.450   0.317
 2475SOL    HW2 8325   4.385   2.612   0.339
 2476SOL     OW 8326   1.196   1.529   4.117
 2476SOL    HW1 8327   1.100   1.505   4.099
 2476SOL    HW2 8328   1.205   1.563   4.211
 2477SOL     OW 8329   5.726   6.267   1.274
 2477SOL    HW1 8330   5.729   6.302   1.181
 2477SOL    HW2 8331   5.634   6.232   1.294
 2478SOL     OW 8332   6.477   6.630   2.808
 2478SOL    HW1 8333   6.536   6.573   2.751
 2478SOL    HW2 8334   6.386   6.634   2.769
 2479SOL     OW 8335   6.948   2.544   0.850
 2479SOL    HW1 8336   0.000   2.479   0.869
 2479SOL    HW2 8337   6.860   2.497   0.857
 2480SOL     OW 8338   6.576   3.621   1.771
 2480SOL    HW1 8339   6.561   3.620   1.672
 2480SOL    HW2 8340   6.612   3.711   1.797
 2481SOL     OW 8341   4.401   5.524   1.703
 2481SOL    HW1 8342   4.455   5.532   1.787
 2481SOL    HW2 8343   4.339   5.603   1.696
 2482SOL     OW 8344   5.095   3.199   5.060
 2482SOL    HW1 8345   5.124   3.138   4.987
 2482SOL    HW2 8346   5.061   3.285   5.020
 2483SOL     OW 8347   0.879   1.055   0.199
 2483SOL    HW1 8348   0.798   1.092   0.154
 2483SOL    HW2 8349   0.920   1.125   0.257
 2484SOL     OW 8350   2.764   1.038   0.885
 2484SOL    HW1 8351   2.806   0.993   0.806
 2484SOL    HW2 8352   2.735   1.130   0.858
 2485SOL     OW 8353   0.077   5.321   2.520
 2485SOL    HW1 8354   0.024   5.237   2.509
 2485SOL    HW2 8355   0.146   5.308   2.591
 2486SOL     OW 8356   1.896   5.577   2.951
 2486SOL    HW1 8357   1.884   5.536   2.861
 2486SOL    HW2 8358   1.817   5.635   2.971
 2487SOL     OW 8359   3.839   7.002   0.669
 2487SOL    HW1 8360   3.936   7.017   0.649
 2487SOL    HW2 8361   3.810   6.915   0.628
 2488SOL     OW 8362   2.769   4.511   1.322
 2488SOL    HW1 8363   2.706   4.496   1.398
 2488SOL    HW2 8364   2.836   4.437   1.319
 2489SOL     OW 8365   1.661   5.191   5.298
 2489SOL    HW1 8366   1.726   5.126   5.338
 2489SOL    HW2 8367   1.651   5.172   5.200
 2490SOL     OW 8368   6.237   3.822   1.115
 2490SOL    HW1 8369   6.334   3.800   1.102
 2490SOL    HW2 8370   6.226   3.921   1.115
 2491SOL     OW 8371   2.879   4.952   3.136
 2491SOL    HW1 8372   2.891   4.913   3.227
 2491SOL    HW2 8373   2.943   4.909   3.072
 2492SOL     OW 8374   4.643   2.928   6.343
 2492SOL    HW1 8375   4.572   2.859   6.325
 2492SOL    HW2 8376   4.730   2.882   6.361
 2493SOL     OW 8377   5.859   1.866   3.053
 2493SOL    HW1 8378   5.771   1.879   3.006
 2493SOL    HW2 8379   5.934   1.876   2.987
 2494SOL     OW 8380   4.915   2.591   2.156
 2494SOL    HW1 8381   4.859   2.539   2.092
 2494SOL    HW2 8382   4.950   2.530   2.227
 2495SOL     OW 8383   5.544   1.049   5.118
 2495SOL    HW1 8384   5.483   0.998   5.178
 2495SOL    HW2 8385   5.601   0.986   5.066
 2496SOL     OW 8386   0.881   5.489   0.112
 2496SOL    HW1 8387   0.810   5.553   0.084
 2496SOL    HW2 8388   0.855   5.396   0.084
 2497SOL     OW 8389   6.648   1.710   0.003
 2497SOL    HW1 8390   6.730   1.706   0.060
 2497SOL    HW2 8391   6.597   1.793   0.025
 2498SOL     OW 8392   1.690   2.855   3.826
 2498SOL    HW1 8393   1.755   2.783   3.848
 2498SOL    HW2 8394   1.730   2.944   3.847
 2499SOL     OW 8395   5.079   0.516   4.591
 2499SOL    HW1 8396   5.054   0.517   4.688
 2499SOL    HW2 8397   5.064   0.606   4.552
 2500SOL     OW 8398   4.719   3.177   6.249
 2500SOL    HW1 8399   4.701   3.166   6.152
 2500SOL    HW2 8400   4.673   3.103   6.300
 2501SOL     OW 8401   6.254   4.798   0.344
 2501SOL    HW1 8402   6.192   4.846   0.281
 2501SOL    HW2 8403   6.238   4.830   0.437
 2502SOL     OW 8404   2.046   6.996   2.779
 2502SOL    HW1 8405   2.079   6.976   2.871
 2502SOL    HW2 8406   2.112   0.033   2.731
 2503SOL     OW 8407   3.877   5.094   5.726
 2503SOL    HW1 8408   3.836   5.102   5.635
 2503SOL    HW2 8409   3.805   5.074   5.792
 2504SOL     OW 8410   1.808   4.969   4.694
 2504SOL    HW1 8411   1.827   4.904   4.620
 2504SOL    HW2 8412   1.767   5.052   4.655
 2505SOL     OW 8413   4.570   5.555   4.438
 2505SOL    HW1 8414   4.576   5.605   4.351
 2505SOL    HW2 8415   4.569   5.457   4.420
 2506SOL     OW 8416   6.210   2.779   6.178
 2506SOL    HW1 8417   6.283   2.847   6.187
 2506SOL    HW2 8418   6.188   2.767   6.081
 2507SOL     OW 8419   6.364   6.047   0.831
 2507SOL    HW1 8420   6.362   6.017   0.736
 2507SOL    HW2 8421   6.275   6.083   0.858
 2508SOL     OW 8422   2.500   2.074   2.096
 2508SOL    HW1 8423   2.565   2.091   2.171
 2508SOL    HW2 8424   2.544   2.096   2.009
 2509SOL     OW 8425   5.187   2.521   3.218
 2509SOL    HW1 8426   5.280   2.491   3.240
 2509SOL    HW2 8427   5.139   2.449   3.168
 2510SOL     OW 8428   2.990   5.256   0.514
 2510SOL    HW1 8429   2.915   5.285   0.454
 2510SOL    HW2 8430   3.003   5.158   0.506
 2511SOL     OW 8431   1.250   0.701   5.345
 2511SOL    HW1 8432   1.228   0.607   5.371
 2511SOL    HW2 8433   1.347   0.718   5.360
 2512SOL     OW 8434   4.886   3.893   4.797
 2512SOL    HW1 8435   4.871   3.871   4.700
 2512SOL    HW2 8436   4.900   3.992   4.806
 2513SOL     OW 8437   0.754   2.823   6.780
 2513SOL    HW1 8438   0.822   2.789   6.845
 2513SOL    HW2 8439   0.730   2.750   6.716
 2514SOL     OW 8440   1.379   0.960   4.217
 2514SOL    HW1 8441   1.316   0.978   4.293
 2514SOL    HW2 8442   1.373   1.035   4.151
 2515SOL     OW 8443   0.897   5.614   0.659
 2515SOL    HW1 8444   0.968   5.583   0.595
 2515SOL    HW2 8445   0.810   5.624   0.610
 2516SOL     OW 8446   5.993   6.916   3.730
 2516SOL    HW1 8447   6.060   6.968   3.678
 2516SOL    HW2 8448   6.041   6.853   3.792
 2517SOL     OW 8449   2.010   4.659   0.374
 2517SOL    HW1 8450   2.060   4.726   0.429
 2517SOL    HW2 8451   2.065   4.577   0.361
 2518SOL     OW 8452   2.300   2.945   6.507
 2518SOL    HW1 8453   2.383   2.927   6.455
 2518SOL    HW2 8454   2.234   2.994   6.449
 2519SOL     OW 8455   4.709   4.857   4.882
 2519SOL    HW1 8456   4.719   4.794   4.959
 2519SOL    HW2 8457   4.639   4.822   4.819
 2520SOL     OW 8458   2.205   3.699   1.143
 2520SOL    HW1 8459   2.238   3.706   1.238
 2520SOL    HW2 8460   2.260   3.631   1.094
 2521SOL     OW 8461   6.214   0.214   5.599
 2521SOL    HW1 8462   6.230   0.117   5.618
 2521SOL    HW2 8463   6.278   0.245   5.528
 2522SOL     OW 8464   0.994   3.322   4.679
 2522SOL    HW1 8465   0.944   3.339   4.594
 2522SOL    HW2 8466   0.967   3.388   4.748
 2523SOL     OW 8467   0.233   4.046   0.375
 2523SOL    HW1 8468   0.154   4.092   0.335
 2523SOL    HW2 8469   0.203   3.968   0.429
 2524SOL     OW 8470   1.251   6.773   4.001
 2524SOL    HW1 8471   1.313   6.701   4.032
 2524SOL    HW2 8472   1.294   6.823   3.925
 2525SOL     OW 8473   0.910   3.653   3.504
 2525SOL    HW1 8474   0.992   3.664   3.448
 2525SOL    HW2 8475   0.834   3.620   3.447
 2526SOL     OW 8476   0.017   1.636   4.032
 2526SOL    HW1 8477   0.003   1.719   4.084
 2526SOL    HW2 8478   0.101   1.591   4.061
 2527SOL     OW 8479   5.594   6.115   4.575
 2527SOL    HW1 8480   5.541   6.190   4.615
 2527SOL    HW2 8481   5.633   6.059   4.648
 2528SOL     OW 8482   6.229   5.433   0.606
 2528SOL    HW1 8483   6.192   5.525   0.611
 2528SOL    HW2 8484   6.324   5.433   0.636
 2529SOL     OW 8485   5.325   4.794   4.640
 2529SOL    HW1 8486   5.289   4.878   4.600
 2529SOL    HW2 8487   5.250   4.738   4.674
 2530SOL     OW 8488   1.068   0.572   3.437
 2530SOL    HW1 8489   1.107   0.581   3.345
 2530SOL    HW2 8490   1.138   0.591   3.505
 2531SOL     OW 8491   3.933   0.819   5.710
 2531SOL    HW1 8492   4.001   0.892   5.698
 2531SOL    HW2 8493   3.976   0.730   5.692
 2532SOL     OW 8494   1.063   5.015   6.826
 2532SOL    HW1 8495   1.032   4.965   6.745
 2532SOL    HW2 8496   1.019   4.978   6.908
 2533SOL     OW 8497   5.826   6.542   5.698
 2533SOL    HW1 8498   5.850   6.445   5.698
 2533SOL    HW2 8499   5.898   6.595   5.742
 2534SOL     OW 8500   1.479   0.905   3.695
 2534SOL    HW1 8501   1.386   0.937   3.712
 2534SOL    HW2 8502   1.535   0.980   3.659
 2535SOL     OW 8503   1.951   0.917   3.813
 2535SOL    HW1 8504   1.975   0.892   3.720
 2535SOL    HW2 8505   1.939   1.016   3.820
 2536SOL     OW 8506   5.826   1.382   4.348
 2536SOL    HW1 8507   5.799   1.384   4.444
 2536SOL    HW2 8508   5.893   1.309   4.333
 2537SOL     OW 8509   5.255   5.629   1.369
 2537SOL    HW1 8510   5.176   5.579   1.334
 2537SOL    HW2 8511   5.277   5.597   1.461
 2538SOL     OW 8512   1.860   4.785   4.479
 2538SOL    HW1 8513   1.955   4.753   4.481
 2538SOL    HW2 8514   1.850   4.853   4.406
 2539SOL     OW 8515   4.211   0.394   5.462
 2539SOL    HW1 8516   4.119   0.353   5.459
 2539SOL    HW2 8517   4.263   0.365   5.382
 2540SOL     OW 8518   5.596   1.377   2.184
 2540SOL    HW1 8519   5.617   1.466   2.225
 2540SOL    HW2 8520   5.667   1.312   2.208
 2541SOL     OW 8521   1.574   6.518   6.074
 2541SOL    HW1 8522   1.551   6.527   6.171
 2541SOL    HW2 8523   1.564   6.607   6.029
 2542SOL     OW 8524   3.428   2.047   4.293
 2542SOL    HW1 8525   3.421   2.024   4.390
 2542SOL    HW2 8526   3.339   2.035   4.249
 2543SOL     OW 8527   0.774   1.177   2.723
 2543SOL    HW1 8528   0.787   1.116   2.800
 2543SOL    HW2 8529   0.743   1.266   2.755
 2544SOL     OW 8530   6.411   5.295   1.050
 2544SOL    HW1 8531   6.313   5.273   1.046
 2544SOL    HW2 8532   6.453   5.277   0.961
 2545SOL     OW 8533   0.662   1.747   1.575
 2545SOL    HW1 8534   0.605   1.680   1.622
 2545SOL    HW2 8535   0.670   1.722   1.478
 2546SOL     OW 8536   6.820   3.681   2.017
 2546SOL    HW1 8537   6.727   3.716   2.024
 2546SOL    HW2 8538   6.863   3.683   2.108
 2547SOL     OW 8539   5.602   4.103   0.728
 2547SOL    HW1 8540   5.530   4.098   0.798
 2547SOL    HW2 8541   5.567   4.152   0.648
 2548SOL     OW 8542   0.161   6.710   5.565
 2548SOL    HW1 8543   0.193   6.750   5.651
 2548SOL    HW2 8544   0.061   6.705   5.566
 2549SOL     OW 8545   2.414   1.801   1.008
 2549SOL    HW1 8546   2.361   1.798   0.923
 2549SOL    HW2 8547   2.444   1.708   1.031
 2550SOL     OW 8548   4.607   7.020   6.551
 2550SOL    HW1 8549   4.638   0.065   6.619
 2550SOL    HW2 8550   4.617   0.037   6.460
 2551SOL     OW 8551   2.712   5.441   6.878
 2551SOL    HW1 8552   2.687   5.346   6.859
 2551SOL    HW2 8553   2.751   5.447   6.969
 2552SOL     OW 8554   2.008   6.358   0.489
 2552SOL    HW1 8555   1.979   6.389   0.399
 2552SOL    HW2 8556   1.986   6.427   0.558
 2553SOL     OW 8557   4.277   1.738   6.690
 2553SOL    HW1 8558   4.234   1.792   6.763
 2553SOL    HW2 8559   4.364   1.780   6.664
 2554SOL     OW 8560   1.915   5.832   1.261
 2554SOL    HW1 8561   1.908   5.794   1.169
 2554SOL    HW2 8562   1.952   5.763   1.323
 2555SOL     OW 8563   5.928   6.013   5.450
 2555SOL    HW1 8564   5.864   5.936   5.455
 2555SOL    HW2 8565   5.997   5.994   5.381
 2556SOL     OW 8566   3.130   6.882   1.449
 2556SOL    HW1 8567   3.131   6.820   1.371
 2556SOL    HW2 8568   3.094   6.971   1.422
 2557SOL     OW 8569   3.825   0.393   0.467
 2557SOL    HW1 8570   3.782   0.370   0.555
 2557SOL    HW2 8571   3.759   0.440   0.409
 2558SOL     OW 8572   5.620   4.553   6.957
 2558SOL    HW1 8573   5.642   4.650   6.945
 2558SOL    HW2 8574   5.583   4.538   0.026
 2559SOL     OW 8575   1.101   3.560   4.128
 2559SOL    HW1 8576   1.036   3.485   4.139
 2559SOL    HW2 8577   1.070   3.621   4.056
 2560SOL     OW 8578   4.830   2.503   3.011
 2560SOL    HW1 8579   4.865   2.551   2.930
 2560SOL    HW2 8580   4.750   2.552   3.045
 2561SOL     OW 8581   3.488   0.513   4.097
 2561SOL    HW1 8582   3.567   0.565   4.064
 2561SOL    HW2 8583   3.445   0.564   4.173
 2562SOL     OW 8584   3.131   6.634   3.130
 2562SOL    HW1 8585   3.124   6.657   3.227
 2562SOL    HW2 8586   3.044   6.657   3.085
 2563SOL     OW 8587   3.047   1.435   0.133
 2563SOL    HW1 8588   3.065   1.408   0.228
 2563SOL    HW2 8589   2.995   1.520   0.132
 2564SOL     OW 8590   1.588   1.129   0.475
 2564SOL    HW1 8591   1.524   1.206   0.478
 2564SOL    HW2 8592   1.643   1.136   0.392
 2565SOL     OW 8593   1.206   2.079   6.573
 2565SOL    HW1 8594   1.235   1.984   6.564
 2565SOL    HW2 8595   1.286   2.139   6.571
 2566SOL     OW 8596   3.028   0.808   1.114
 2566SOL    HW1 8597   3.127   0.792   1.115
 2566SOL    HW2 8598   3.001   0.849   1.201
 2567SOL     OW 8599   1.698   0.045   6.583
 2567SOL    HW1 8600   1.777   0.104   6.602
 2567SOL    HW2 8601   1.667   0.061   6.489
 2568SOL     OW 8602   2.892   6.029   1.135
 2568SOL    HW1 8603   2.840   6.069   1.060
 2568SOL    HW2 8604   2.830   5.980   1.196
 2569SOL     OW 8605   1.275   1.325   0.842
 2569SOL    HW1 8606   1.345   1.355   0.777
 2569SOL    HW2 8607   1.193   1.296   0.793
 2570SOL     OW 8608   5.370   6.164   0.326
 2570SOL    HW1 8609   5.440   6.157   0.397
 2570SOL    HW2 8610   5.337   6.259   0.320
 2571SOL     OW 8611   4.168   3.513   4.520
 2571SOL    HW1 8612   4.139   3.422   4.492
 2571SOL    HW2 8613   4.267   3.516   4.527
 2572SOL     OW 8614   2.318   6.066   1.581
 2572SOL    HW1 8615   2.220   6.087   1.585
 2572SOL    HW2 8616   2.333   5.972   1.612
 2573SOL     OW 8617   6.842   2.239   4.044
 2573SOL    HW1 8618   6.832   2.242   3.944
 2573SOL    HW2 8619   6.773   2.177   4.082
 2574SOL     OW 8620   6.833   3.997   1.430
 2574SOL    HW1 8621   6.741   3.993   1.469
 2574SOL    HW2 8622   6.828   3.980   1.331
 2575SOL     OW 8623   5.876   4.062   0.714
 2575SOL    HW1 8624   5.866   4.024   0.622
 2575SOL    HW2 8625   5.786   4.087   0.749
 2576SOL     OW 8626   1.976   6.589   2.871
 2576SOL    HW1 8627   1.904   6.541   2.821
 2576SOL    HW2 8628   1.951   6.686   2.879
 2577SOL     OW 8629   2.762   6.870   3.131
 2577SOL    HW1 8630   2.691   6.818   3.179
 2577SOL    HW2 8631   2.730   6.963   3.115
 2578SOL     OW 8632   4.851   2.564   4.054
 2578SOL    HW1 8633   4.796   2.587   3.974
 2578SOL    HW2 8634   4.880   2.468   4.049
 2579SOL     OW 8635   0.522   2.396   6.572
 2579SOL    HW1 8636   0.475   2.391   6.660
 2579SOL    HW2 8637   0.478   2.335   6.506
 2580SOL     OW 8638   2.041   2.436   6.432
 2580SOL    HW1 8639   2.074   2.528   6.413
 2580SOL    HW2 8640   2.062   2.412   6.527
 2581SOL     OW 8641   5.461   5.725   2.348
 2581SOL    HW1 8642   5.444   5.781   2.429
 2581SOL    HW2 8643   5.542   5.669   2.363
 2582SOL     OW 8644   0.790   5.320   2.670
 2582SOL    HW1 8645   0.832   5.410   2.680
 2582SOL    HW2 8646   0.818   5.261   2.746
 2583SOL     OW 8647   0.867   0.114   0.876
 2583SOL    HW1 8648   0.848   0.016   0.868
 2583SOL    HW2 8649   0.938   0.129   0.944
 2584SOL     OW 8650   3.685   6.094   1.051
 2584SOL    HW1 8651   3.622   6.109   1.127
 2584SOL    HW2 8652   3.633   6.074   0.968
 2585SOL     OW 8653   2.875   0.048   0.859
 2585SOL    HW1 8654   2.843   0.044   0.954
 2585SOL    HW2 8655   2.963   0.001   0.852
 2586SOL     OW 8656   6.140   1.797   4.485
 2586SOL    HW1 8657   6.210   1.846   4.537
 2586SOL    HW2 8658   6.168   1.789   4.390
 2587SOL     OW 8659   6.089   6.538   4.605
 2587SOL    HW1 8660   6.099   6.630   4.643
 2587SOL    HW2 8661   6.166   6.481   4.635
 2588SOL     OW 8662   5.698   0.517   1.847
 2588SOL    HW1 8663   5.774   0.536   1.909
 2588SOL    HW2 8664   5.645   0.440   1.882
 2589SOL     OW 8665   6.222   6.966   5.706
 2589SOL    HW1 8666   6.138   6.920   5.732
 2589SOL    HW2 8667   6.276   6.988   5.788
 2590SOL     OW 8668   4.129   6.646   2.720
 2590SOL    HW1 8669   4.031   6.630   2.705
 2590SOL    HW2 8670   4.182   6.590   2.656
 2591SOL     OW 8671   5.270   6.054   1.598
 2591SOL    HW1 8672   5.254   6.085   1.504
 2591SOL    HW2 8673   5.193   5.998   1.628
 2592SOL     OW 8674   2.929   5.678   1.308
 2592SOL    HW1 8675   2.834   5.648   1.300
 2592SOL    HW2 8676   2.983   5.607   1.353
 2593SOL     OW 8677   3.764   6.355   2.898
 2593SOL    HW1 8678   3.824   6.413   2.954
 2593SOL    HW2 8679   3.816   6.276   2.865
 2594SOL     OW 8680   6.966   0.264   6.871
 2594SOL    HW1 8681   7.020   0.338   6.909
 2594SOL    HW2 8682   6.937   0.202   6.944
 2595SOL     OW 8683   6.767   3.365   4.684
 2595SOL    HW1 8684   6.856   3.344   4.643
 2595SOL    HW2 8685   6.694   3.334   4.623
 2596SOL     OW 8686   4.102   2.181   2.274
 2596SOL    HW1 8687   4.057   2.167   2.363
 2596SOL    HW2 8688   4.039   2.154   2.201
 2597SOL     OW 8689   2.968   3.228   1.488
 2597SOL    HW1 8690   3.001   3.181   1.570
 2597SOL    HW2 8691   2.869   3.238   1.493
 2598SOL     OW 8692   6.874   2.762   3.594
 2598SOL    HW1 8693   6.846   2.756   3.498
 2598SOL    HW2 8694   6.912   2.853   3.612
 2599SOL     OW 8695   4.199   5.572   0.099
 2599SOL    HW1 8696   4.221   5.669   0.087
 2599SOL    HW2 8697   4.279   5.516   0.076
 2600SOL     OW 8698   5.834   3.855   4.339
 2600SOL    HW1 8699   5.878   3.766   4.337
 2600SOL    HW2 8700   5.743   3.847   4.378
 2601SOL     OW 8701   3.561   3.200   5.948
 2601SOL    HW1 8702   3.584   3.271   5.881
 2601SOL    HW2 8703   3.601   3.223   6.036
 2602SOL     OW 8704   0.133   4.736   4.617
 2602SOL    HW1 8705   0.210   4.787   4.579
 2602SOL    HW2 8706   0.147   4.638   4.602
 2603SOL     OW 8707   2.416   2.299   0.983
 2603SOL    HW1 8708   2.455   2.378   1.031
 2603SOL    HW2 8709   2.484   2.262   0.919
 2604SOL     OW 8710   5.290   0.542   1.111
 2604SOL    HW1 8711   5.345   0.496   1.180
 2604SOL    HW2 8712   5.269   0.478   1.037
 2605SOL     OW 8713   3.988   4.787   3.997
 2605SOL    HW1 8714   4.068   4.748   3.952
 2605SOL    HW2 8715   4.002   4.785   4.096
 2606SOL     OW 8716   6.092   4.231   1.163
 2606SOL    HW1 8717   6.167   4.168   1.141
 2606SOL    HW2 8718   6.103   4.316   1.111
 2607SOL     OW 8719   1.416   0.902   2.818
 2607SOL    HW1 8720   1.512   0.882   2.835
 2607SOL    HW2 8721   1.365   0.816   2.810
 2608SOL     OW 8722   5.473   0.460   1.576
 2608SOL    HW1 8723   5.446   0.366   1.554
 2608SOL    HW2 8724   5.397   0.522   1.555
 2609SOL     OW 8725   0.701   1.872   2.512
 2609SOL    HW1 8726   0.697   1.954   2.455
 2609SOL    HW2 8727   0.746   1.894   2.599
 2610SOL     OW 8728   6.596   5.625   5.048
 2610SOL    HW1 8729   6.603   5.529   5.021
 2610SOL    HW2 8730   6.687   5.668   5.043
 2611SOL     OW 8731   5.388   6.767   1.231
 2611SOL    HW1 8732   5.299   6.735   1.263
 2611SOL    HW2 8733   5.380   6.862   1.199
 2612SOL     OW 8734   5.232   6.444   3.828
 2612SOL    HW1 8735   5.278   6.463   3.741
 2612SOL    HW2 8736   5.233   6.526   3.885
 2613SOL     OW 8737   3.497   6.943   2.261
 2613SOL    HW1 8738   3.412   6.894   2.243
 2613SOL    HW2 8739   3.571   6.877   2.273
 2614SOL     OW 8740   6.245   6.479   5.674
 2614SOL    HW1 8741   6.284   6.387   5.682
 2614SOL    HW2 8742   6.280   6.537   5.747
 2615SOL     OW 8743   5.348   5.607   3.176
 2615SOL    HW1 8744   5.344   5.690   3.120
 2615SOL    HW2 8745   5.266   5.552   3.160
 2616SOL     OW 8746   4.053   3.108   2.864
 2616SOL    HW1 8747   4.061   3.147   2.772
 2616SOL    HW2 8748   4.117   3.155   2.925
 2617SOL     OW 8749   3.870   5.244   0.888
 2617SOL    HW1 8750   3.841   5.234   0.793
 2617SOL    HW2 8751   3.970   5.239   0.892
 2618SOL     OW 8752   0.130   0.322   1.578
 2618SOL    HW1 8753   0.100   0.287   1.489
 2618SOL    HW2 8754   0.230   0.328   1.580
 2619SOL     OW 8755   4.264   1.737   2.118
 2619SOL    HW1 8756   4.215   1.793   2.185
 2619SOL    HW2 8757   4.254   1.777   2.027
 2620SOL     OW 8758   1.306   4.737   3.268
 2620SOL    HW1 8759   1.228   4.787   3.229
 2620SOL    HW2 8760   1.272   4.671   3.335
 2621SOL     OW 8761   0.545   5.646   4.158
 2621SOL    HW1 8762   0.627   5.695   4.128
 2621SOL    HW2 8763   0.519   5.578   4.089
 2622SOL     OW 8764   1.792   3.588   6.251
 2622SOL    HW1 8765   1.860   3.641   6.201
 2622SOL    HW2 8766   1.832   3.555   6.337
 2623SOL     OW 8767   3.585   1.483   4.385
 2623SOL    HW1 8768   3.652   1.533   4.439
 2623SOL    HW2 8769   3.567   1.394   4.428
 2624SOL     OW 8770   6.004   2.586   3.149
 2624SOL    HW1 8771   5.962   2.606   3.238
 2624SOL    HW2 8772   5.946   2.623   3.076
 2625SOL     OW 8773   2.465   2.771   5.631
 2625SOL    HW1 8774   2.390   2.723   5.676
 2625SOL    HW2 8775   2.436   2.798   5.539
 2626SOL     OW 8776   1.556   6.502   3.865
 2626SOL    HW1 8777   1.520   6.442   3.793
 2626SOL    HW2 8778   1.637   6.459   3.906
 2627SOL     OW 8779   0.328   0.623   4.656
 2627SOL    HW1 8780   0.281   0.671   4.731
 2627SOL    HW2 8781   0.426   0.618   4.677
 2628SOL     OW 8782   3.844   6.592   6.624
 2628SOL    HW1 8783   3.747   6.615   6.612
 2628SOL    HW2 8784   3.852   6.510   6.680
 2629SOL     OW 8785   3.661   4.206   1.544
 2629SOL    HW1 8786   3.562   4.210   1.560
 2629SOL    HW2 8787   3.689   4.111   1.534
 2630SOL     OW 8788   3.618   1.497   2.415
 2630SOL    HW1 8789   3.546   1.471   2.479
 2630SOL    HW2 8790   3.577   1.530   2.330
 2631SOL     OW 8791   4.767   6.645   4.549
 2631SOL    HW1 8792   4.865   6.652   4.566
 2631SOL    HW2 8793   4.718   6.704   4.614
 2632SOL     OW 8794   3.278   2.036   6.926
 2632SOL    HW1 8795   3.186   2.049   6.963
 2632SOL    HW2 8796   3.345   2.075   6.989
 2633SOL     OW 8797   6.105   2.491   6.817
 2633SOL    HW1 8798   6.070   2.558   6.752
 2633SOL    HW2 8799   6.173   2.433   6.771
 2634SOL     OW 8800   2.209   4.342   1.785
 2634SOL    HW1 8801   2.157   4.405   1.727
 2634SOL    HW2 8802   2.150   4.266   1.813
 2635SOL     OW 8803   5.540   5.754   4.365
 2635SOL    HW1 8804   5.487   5.839   4.364
 2635SOL    HW2 8805   5.481   5.679   4.392
 2636SOL     OW 8806   5.573   6.945   5.903
 2636SOL    HW1 8807   5.567   0.022   5.914
 2636SOL    HW2 8808   5.512   6.900   5.969
 2637SOL     OW 8809   5.514   0.190   3.458
 2637SOL    HW1 8810   5.567   0.199   3.542
 2637SOL    HW2 8811   5.525   0.272   3.402
 2638SOL     OW 8812   5.260   6.164   1.334
 2638SOL    HW1 8813   5.290   6.257   1.355
 2638SOL    HW2 8814   5.162   6.165   1.312
 2639SOL     OW 8815   5.789   6.708   1.943
 2639SOL    HW1 8816   5.826   6.741   1.856
 2639SOL    HW2 8817   5.846   6.741   2.018
 2640SOL     OW 8818   0.471   6.471   5.122
 2640SOL    HW1 8819   0.482   6.389   5.178
 2640SOL    HW2 8820   0.438   6.445   5.031
 2641SOL     OW 8821   5.154   3.920   6.913
 2641SOL    HW1 8822   5.223   3.851   6.890
 2641SOL    HW2 8823   5.075   3.875   6.955
 2642SOL     OW 8824   5.001   0.465   4.293
 2642SOL    HW1 8825   4.924   0.402   4.304
 2642SOL    HW2 8826   5.066   0.452   4.368
 2643SOL     OW 8827   0.263   6.139   2.993
 2643SOL    HW1 8828   0.288   6.070   2.926
 2643SOL    HW2 8829   0.190   6.196   2.956
 2644SOL     OW 8830   1.380   5.021   5.607
 2644SOL    HW1 8831   1.470   4.980   5.595
 2644SOL    HW2 8832   1.332   5.023   5.519
 2645SOL     OW 8833   5.124   6.450   5.908
 2645SOL    HW1 8834   5.187   6.470   5.984
 2645SOL    HW2 8835   5.108   6.534   5.856
 2646SOL     OW 8836   6.958   0.484   6.149
 2646SOL    HW1 8837   6.928   0.489   6.244
 2646SOL    HW2 8838   0.028   0.522   6.141
 2647SOL     OW 8839   4.903   1.384   0.874
 2647SOL    HW1 8840   4.919   1.348   0.782
 2647SOL    HW2 8841   4.894   1.309   0.939
 2648SOL     OW 8842   6.659   0.231   2.396
 2648SOL    HW1 8843   6.703   0.231   2.486
 2648SOL    HW2 8844   6.639   0.137   2.369
 2649SOL     OW 8845   3.429   1.234   5.959
 2649SOL    HW1 8846   3.361   1.181   5.909
 2649SOL    HW2 8847   3.387   1.317   5.996
 2650SOL     OW 8848   0.457   5.164   3.365
 2650SOL    HW1 8849   0.487   5.250   3.404
 2650SOL    HW2 8850   0.484   5.088   3.424
 2651SOL     OW 8851   0.452   1.176   1.542
 2651SOL    HW1 8852   0.531   1.238   1.541
 2651SOL    HW2 8853   0.436   1.145   1.635
 2652SOL     OW 8854   3.290   3.179   3.449
 2652SOL    HW1 8855   3.208   3.155   3.397
 2652SOL    HW2 8856   3.347   3.240   3.394
 2653SOL     OW 8857   5.401   6.808   6.064
 2653SOL    HW1 8858   5.401   6.710   6.085
 2653SOL    HW2 8859   5.327   6.853   6.114
 2654SOL     OW 8860   5.074   2.347   5.973
 2654SOL    HW1 8861   5.119   2.397   6.046
 2654SOL    HW2 8862   5.138   2.281   5.933
 2655SOL     OW 8863   4.223   6.280   4.512
 2655SOL    HW1 8864   4.298   6.261   4.449
 2655SOL    HW2 8865   4.192   6.374   4.499
 2656SOL     OW 8866   5.531   4.535   4.045
 2656SOL    HW1 8867   5.454   4.561   3.987
 2656SOL    HW2 8868   5.509   4.450   4.093
 2657SOL     OW 8869   1.946   4.322   6.694
 2657SOL    HW1 8870   1.929   4.412   6.654
 2657SOL    HW2 8871   1.875   4.258   6.665
 2658SOL     OW 8872   6.198   4.467   6.259
 2658SOL    HW1 8873   6.238   4.505   6.342
 2658SOL    HW2 8874   6.120   4.523   6.231
 2659SOL     OW 8875   6.625   2.552   4.782
 2659SOL    HW1 8876   6.589   2.528   4.692
 2659SOL    HW2 8877   6.589   2.488   4.850
 2660SOL     OW 8878   6.478   2.491   2.145
 2660SOL    HW1 8879   6.546   2.451   2.084
 2660SOL    HW2 8880   6.522   2.519   2.230
 2661SOL     OW 8881   3.200   5.642   1.180
 2661SOL    HW1 8882   3.104   5.657   1.158
 2661SOL    HW2 8883   3.258   5.687   1.112
 2662SOL     OW 8884   4.841   6.273   4.862
 2662SOL    HW1 8885   4.772   6.323   4.914
 2662SOL    HW2 8886   4.923   6.262   4.918
 2663SOL     OW 8887   1.898   4.828   1.368
 2663SOL    HW1 8888   1.890   4.875   1.455
 2663SOL    HW2 8889   1.842   4.745   1.369
 2664SOL     OW 8890   3.737   4.059   3.114
 2664SOL    HW1 8891   3.640   4.040   3.126
 2664SOL    HW2 8892   3.780   4.071   3.203
 2665SOL     OW 8893   3.485   1.676   4.767
 2665SOL    HW1 8894   3.510   1.770   4.744
 2665SOL    HW2 8895   3.530   1.649   4.852
 2666SOL     OW 8896   4.919   4.587   0.754
 2666SOL    HW1 8897   5.003   4.553   0.712
 2666SOL    HW2 8898   4.905   4.541   0.842
 2667SOL     OW 8899   1.717   6.316   5.524
 2667SOL    HW1 8900   1.736   6.222   5.493
 2667SOL    HW2 8901   1.622   6.339   5.503
 2668SOL     OW 8902   6.852   3.164   4.278
 2668SOL    HW1 8903   6.948   3.179   4.302
 2668SOL    HW2 8904   6.807   3.252   4.263
 2669SOL     OW 8905   3.957   4.877   5.487
 2669SOL    HW1 8906   4.001   4.815   5.551
 2669SOL    HW2 8907   3.861   4.850   5.475
 2670SOL     OW 8908   0.111   0.857   7.014
 2670SOL    HW1 8909   0.071   0.767   6.997
 2670SOL    HW2 8910   0.204   0.860   6.980
 2671SOL     OW 8911   2.468   3.797   6.683
 2671SOL    HW1 8912   2.455   3.866   6.612
 2671SOL    HW2 8913   2.566   3.787   6.703
 2672SOL     OW 8914   1.847   5.684   0.159
 2672SOL    HW1 8915   1.840   5.620   0.083
 2672SOL    HW2 8916   1.909   5.647   0.228
 2673SOL     OW 8917   4.290   2.309   3.090
 2673SOL    HW1 8918   4.315   2.304   3.187
 2673SOL    HW2 8919   4.192   2.291   3.081
 2674SOL     OW 8920   1.178   4.838   4.435
 2674SOL    HW1 8921   1.110   4.864   4.366
 2674SOL    HW2 8922   1.186   4.738   4.438
 2675SOL     OW 8923   0.441   4.229   5.725
 2675SOL    HW1 8924   0.384   4.208   5.804
 2675SOL    HW2 8925   0.534   4.197   5.742
 2676SOL     OW 8926   5.255   1.782   2.680
 2676SOL    HW1 8927   5.206   1.849   2.625
 2676SOL    HW2 8928   5.214   1.691   2.666
 2677SOL     OW 8929   1.945   4.712   1.736
 2677SOL    HW1 8930   1.947   4.807   1.706
 2677SOL    HW2 8931   2.002   4.701   1.818
 2678SOL     OW 8932   1.310   4.929   6.725
 2678SOL    HW1 8933   1.226   4.965   6.765
 2678SOL    HW2 8934   1.289   4.848   6.670
 2679SOL     OW 8935   3.559   4.895   0.949
 2679SOL    HW1 8936   3.650   4.926   0.978
 2679SOL    HW2 8937   3.497   4.894   1.027
 2680SOL     OW 8938   2.098   1.940   0.473
 2680SOL    HW1 8939   2.112   1.897   0.563
 2680SOL    HW2 8940   2.015   1.904   0.431
 2681SOL     OW 8941   1.501   3.240   3.976
 2681SOL    HW1 8942   1.480   3.333   3.948
 2681SOL    HW2 8943   1.482   3.229   4.073
 2682SOL     OW 8944   5.576   2.814   2.157
 2682SOL    HW1 8945   5.552   2.774   2.245
 2682SOL    HW2 8946   5.632   2.749   2.105
 2683SOL     OW 8947   0.653   4.799   1.286
 2683SOL    HW1 8948   0.644   4.893   1.253
 2683SOL    HW2 8949   0.593   4.785   1.365
 2684SOL     OW 8950   4.206   6.441   2.529
 2684SOL    HW1 8951   4.146   6.408   2.456
 2684SOL    HW2 8952   4.234   6.364   2.586
 2685SOL     OW 8953   5.495   6.369   4.269
 2685SOL    HW1 8954   5.430   6.380   4.344
 2685SOL    HW2 8955   5.549   6.287   4.284
 2686SOL     OW 8956   2.231   2.440   4.250
 2686SOL    HW1 8957   2.286   2.382   4.190
 2686SOL    HW2 8958   2.145   2.464   4.203
 2687SOL     OW 8959   3.973   4.800   2.645
 2687SOL    HW1 8960   4.055   4.827   2.696
 2687SOL    HW2 8961   3.939   4.713   2.681
 2688SOL     OW 8962   4.040   5.290   5.801
 2688SOL    HW1 8963   3.975   5.218   5.780
 2688SOL    HW2 8964   3.991   5.374   5.822
 2689SOL     OW 8965   1.421   1.689   3.590
 2689SOL    HW1 8966   1.464   1.629   3.658
 2689SOL    HW2 8967   1.490   1.723   3.527
 2690SOL     OW 8968   4.149   3.511   4.179
 2690SOL    HW1 8969   4.075   3.570   4.212
 2690SOL    HW2 8970   4.181   3.452   4.254
 2691SOL     OW 8971   1.395   5.613   2.021
 2691SOL    HW1 8972   1.398   5.560   2.105
 2691SOL    HW2 8973   1.355   5.703   2.039
 2692SOL     OW 8974   6.961   5.300   3.984
 2692SOL    HW1 8975   6.871   5.261   4.001
 2692SOL    HW2 8976   6.994   5.273   3.894
 2693SOL     OW 8977   2.092   3.726   3.576
 2693SOL    HW1 8978   2.125   3.653   3.636
 2693SOL    HW2 8979   2.094   3.813   3.625
 2694SOL     OW 8980   2.700   0.221   2.911
 2694SOL    HW1 8981   2.753   0.300   2.943
 2694SOL    HW2 8982   2.734   0.193   2.821
 2695SOL     OW 8983   4.698   2.301   2.251
 2695SOL    HW1 8984   4.632   2.376   2.246
 2695SOL    HW2 8985   4.719   2.269   2.159
 2696SOL     OW 8986   3.794   3.836   5.827
 2696SOL    HW1 8987   3.812   3.932   5.808
 2696SOL    HW2 8988   3.695   3.820   5.830
 2697SOL     OW 8989   4.105   2.227   3.817
 2697SOL    HW1 8990   4.175   2.241   3.887
 2697SOL    HW2 8991   4.015   2.235   3.858
 2698SOL     OW 8992   1.069   4.562   1.063
 2698SOL    HW1 8993   1.091   4.480   1.115
 2698SOL    HW2 8994   1.074   4.642   1.123
 2699SOL     OW 8995   3.661   5.178   0.657
 2699SOL    HW1 8996   3.588   5.110   0.662
 2699SOL    HW2 8997   3.628   5.260   0.609
 2700SOL     OW 8998   2.023   3.295   2.854
 2700SOL    HW1 8999   2.039   3.196   2.859
 2700SOL    HW2 9000   2.067   3.340   2.931
 2701SOL     OW 9001   3.574   0.259   6.846
 2701SOL    HW1 9002   3.651   0.299   6.896
 2701SOL    HW2 9003   3.514   0.332   6.814
 2702SOL     OW 9004   6.832   1.757   3.099
 2702SOL    HW1 9005   6.819   1.811   3.183
 2702SOL    HW2 9006   6.904   1.689   3.114
 2703SOL     OW 9007   2.675   1.684   2.723
 2703SOL    HW1 9008   2.628   1.741   2.791
 2703SOL    HW2 9009   2.637   1.704   2.632
 2704SOL     OW 9010   2.137   5.517   2.203
 2704SOL    HW1 9011   2.069   5.497   2.273
 2704SOL    HW2 9012   2.124   5.610   2.169
 2705SOL     OW 9013   6.805   5.675   3.744
 2705SOL    HW1 9014   6.729   5.734   3.718
 2705SOL    HW2 9015   6.770   5.586   3.773
 2706SOL     OW 9016   6.494   1.403   1.769
 2706SOL    HW1 9017   6.543   1.338   1.711
 2706SOL    HW2 9018   6.431   1.353   1.828
 2707SOL     OW 9019   2.052   1.747   6.581
 2707SOL    HW1 9020   2.109   1.775   6.504
 2707SOL    HW2 9021   2.093   1.779   6.667
 2708SOL     OW 9022   2.362   2.771   1.872
 2708SOL    HW1 9023   2.320   2.686   1.904
 2708SOL    HW2 9024   2.295   2.845   1.876
 2709SOL     OW 9025   5.012   5.925   1.635
 2709SOL    HW1 9026   5.035   5.839   1.681
 2709SOL    HW2 9027   4.943   5.973   1.689
 2710SOL     OW 9028   7.013   3.282   2.671
 2710SOL    HW1 9029   0.084   3.276   2.636
 2710SOL    HW2 9030   6.962   3.351   2.619
 2711SOL     OW 9031   1.407   6.942   2.139
 2711SOL    HW1 9032   1.434   7.010   2.207
 2711SOL    HW2 9033   1.428   6.976   2.048
 2712SOL     OW 9034   3.009   4.805   0.210
 2712SOL    HW1 9035   3.067   4.725   0.224
 2712SOL    HW2 9036   2.915   4.783   0.233
 2713SOL     OW 9037   2.226   3.027   4.831
 2713SOL    HW1 9038   2.306   3.032   4.891
 2713SOL    HW2 9039   2.153   2.976   4.877
 2714SOL     OW 9040   5.654   1.739   6.178
 2714SOL    HW1 9041   5.689   1.827   6.145
 2714SOL    HW2 9042   5.663   1.671   6.106
 2715SOL     OW 9043   5.451   1.112   0.470
 2715SOL    HW1 9044   5.513   1.186   0.444
 2715SOL    HW2 9045   5.400   1.082   0.389
 2716SOL     OW 9046   6.923   5.272   1.448
 2716SOL    HW1 9047   6.859   5.255   1.523
 2716SOL    HW2 9048   6.903   5.211   1.372
 2717SOL     OW 9049   0.888   6.351   2.075
 2717SOL    HW1 9050   0.926   6.294   2.149
 2717SOL    HW2 9051   0.789   6.358   2.086
 2718SOL     OW 9052   1.840   3.747   4.462
 2718SOL    HW1 9053   1.856   3.687   4.384
 2718SOL    HW2 9054   1.795   3.831   4.430
 2719SOL     OW 9055   4.300   4.951   2.221
 2719SOL    HW1 9056   4.287   4.856   2.193
 2719SOL    HW2 9057   4.384   4.959   2.275
 2720SOL     OW 9058   2.054   6.129   3.808
 2720SOL    HW1 9059   2.089   6.223   3.816
 2720SOL    HW2 9060   1.986   6.126   3.734
 2721SOL     OW 9061   2.660   0.116   4.167
 2721SOL    HW1 9062   2.604   0.083   4.243
 2721SOL    HW2 9063   2.756   0.115   4.193
 2722SOL     OW 9064   0.453   5.346   2.964
 2722SOL    HW1 9065   0.518   5.383   3.031
 2722SOL    HW2 9066   0.402   5.271   3.005
 2723SOL     OW 9067   1.988   1.313   5.622
 2723SOL    HW1 9068   2.077   1.349   5.650
 2723SOL    HW2 9069   1.985   1.304   5.523
 2724SOL     OW 9070   3.601   5.046   6.307
 2724SOL    HW1 9071   3.570   5.119   6.245
 2724SOL    HW2 9072   3.523   5.012   6.359
 2725SOL     OW 9073   5.001   4.534   3.036
 2725SOL    HW1 9074   5.061   4.475   3.091
 2725SOL    HW2 9075   4.934   4.577   3.097
 2726SOL     OW 9076   5.113   4.559   1.976
 2726SOL    HW1 9077   5.032   4.574   1.918
 2726SOL    HW2 9078   5.173   4.638   1.970
 2727SOL     OW 9079   0.748   5.082   2.455
 2727SOL    HW1 9080   0.726   5.017   2.383
 2727SOL    HW2 9081   0.701   5.056   2.540
 2728SOL     OW 9082   2.958   0.295   5.005
 2728SOL    HW1 9083   2.977   0.244   5.089
 2728SOL    HW2 9084   2.987   0.390   5.017
 2729SOL     OW 9085   6.664   5.270   3.301
 2729SOL    HW1 9086   6.652   5.325   3.384
 2729SOL    HW2 9087   6.722   5.191   3.321
 2730SOL     OW 9088   2.566   0.099   0.144
 2730SOL    HW1 9089   2.469   0.072   0.138
 2730SOL    HW2 9090   2.573   0.190   0.183
 2731SOL     OW 9091   2.688   3.710   1.577
 2731SOL    HW1 9092   2.774   3.658   1.573
 2731SOL    HW2 9093   2.707   3.803   1.608
 2732SOL     OW 9094   5.885   3.081   2.505
 2732SOL    HW1 9095   5.831   3.154   2.549
 2732SOL    HW2 9096   5.953   3.122   2.445
 2733SOL     OW 9097   0.896   6.904   5.845
 2733SOL    HW1 9098   0.814   6.871   5.799
 2733SOL    HW2 9099   0.963   6.933   5.777
 2734SOL     OW 9100   1.698   6.582   3.647
 2734SOL    HW1 9101   1.653   6.558   3.733
 2734SOL    HW2 9102   1.693   6.505   3.583
 2735SOL     OW 9103   1.216   4.162   2.722
 2735SOL    HW1 9104   1.180   4.238   2.776
 2735SOL    HW2 9105   1.162   4.153   2.638
 2736SOL     OW 9106   4.814   0.644   5.893
 2736SOL    HW1 9107   4.879   0.673   5.963
 2736SOL    HW2 9108   4.723   0.681   5.915
 2737SOL     OW 9109   3.604   3.478   6.270
 2737SOL    HW1 9110   3.703   3.463   6.275
 2737SOL    HW2 9111   3.557   3.391   6.264
 2738SOL     OW 9112   5.114   5.390   4.028
 2738SOL    HW1 9113   5.100   5.307   4.082
 2738SOL    HW2 9114   5.208   5.423   4.040
 2739SOL     OW 9115   5.563   4.738   0.862
 2739SOL    HW1 9116   5.467   4.740   0.892
 2739SOL    HW2 9117   5.623   4.762   0.938
 2740SOL     OW 9118   6.166   2.323   2.532
 2740SOL    HW1 9119   6.106   2.251   2.495
 2740SOL    HW2 9120   6.112   2.406   2.547
 2741SOL     OW 9121   0.011   2.206   5.731
 2741SOL    HW1 9122   6.974   2.172   5.658
 2741SOL    HW2 9123   0.083   2.139   5.750
 2742SOL     OW 9124   1.547   5.539   6.376
 2742SOL    HW1 9125   1.573   5.513   6.283
 2742SOL    HW2 9126   1.463   5.490   6.401
 2743SOL     OW 9127   5.303   5.324   1.429
 2743SOL    HW1 9128   5.276   5.230   1.452
 2743SOL    HW2 9129   5.276   5.385   1.503
 2744SOL     OW 9130   4.318   2.293   6.665
 2744SOL    HW1 9131   4.317   2.211   6.722
 2744SOL    HW2 9132   4.263   2.277   6.583
 2745SOL     OW 9133   2.234   6.669   1.003
 2745SOL    HW1 9134   2.161   6.617   0.959
 2745SOL    HW2 9135   2.266   6.620   1.083
 2746SOL     OW 9136   2.083   2.687   4.985
 2746SOL    HW1 9137   2.158   2.645   5.036
 2746SOL    HW2 9138   2.071   2.781   5.015
 2747SOL     OW 9139   6.282   5.510   4.759
 2747SOL    HW1 9140   6.185   5.488   4.771
 2747SOL    HW2 9141   6.316   5.465   4.677
 2748SOL     OW 9142   3.853   1.550   3.466
 2748SOL    HW1 9143   3.815   1.561   3.374
 2748SOL    HW2 9144   3.947   1.582   3.467
 2749SOL     OW 9145   5.078   4.399   4.121
 2749SOL    HW1 9146   5.109   4.419   4.213
 2749SOL    HW2 9147   4.979   4.382   4.121
 2750SOL     OW 9148   0.485   5.978   2.104
 2750SOL    HW1 9149   0.478   6.066   2.058
 2750SOL    HW2 9150   0.566   5.930   2.071
 2751SOL     OW 9151   2.113   0.017   0.248
 2751SOL    HW1 9152   2.135   6.989   0.332
 2751SOL    HW2 9153   2.014   0.015   0.233
 2752SOL     OW 9154   5.403   6.339   5.231
 2752SOL    HW1 9155   5.319   6.286   5.221
 2752SOL    HW2 9156   5.460   6.298   5.302
 2753SOL     OW 9157   3.699   6.009   6.142
 2753SOL    HW1 9158   3.688   5.998   6.241
 2753SOL    HW2 9159   3.732   5.923   6.103
 2754SOL     OW 9160   0.454   0.234   4.341
 2754SOL    HW1 9161   0.360   0.202   4.330
 2754SOL    HW2 9162   0.481   0.222   4.437
 2755SOL     OW 9163   2.924   6.202   2.420
 2755SOL    HW1 9164   3.005   6.212   2.477
 2755SOL    HW2 9165   2.875   6.118   2.445
 2756SOL     OW 9166   5.484   3.611   4.979
 2756SOL    HW1 9167   5.388   3.632   4.960
 2756SOL    HW2 9168   5.519   3.548   4.909
 2757SOL     OW 9169   4.499   1.899   6.999
 2757SOL    HW1 9170   4.452   1.818   0.011
 2757SOL    HW2 9171   4.587   1.910   0.023
 2758SOL     OW 9172   5.207   5.058   3.316
 2758SOL    HW1 9173   5.239   5.094   3.228
 2758SOL    HW2 9174   5.277   5.074   3.386
 2759SOL     OW 9175   3.526   4.458   6.351
 2759SOL    HW1 9176   3.541   4.537   6.411
 2759SOL    HW2 9177   3.513   4.489   6.257
 2760SOL     OW 9178   5.709   6.250   3.616
 2760SOL    HW1 9179   5.721   6.159   3.578
 2760SOL    HW2 9180   5.650   6.305   3.556
 2761SOL     OW 9181   1.883   4.077   2.783
 2761SOL    HW1 9182   1.886   4.023   2.868
 2761SOL    HW2 9183   1.810   4.144   2.789
 2762SOL     OW 9184   1.739   2.059   7.021
 2762SOL    HW1 9185   1.789   1.990   6.969
 2762SOL    HW2 9186   1.804   2.117   0.049
 2763SOL     OW 9187   4.757   1.347   5.789
 2763SOL    HW1 9188   4.791   1.340   5.882
 2763SOL    HW2 9189   4.783   1.435   5.750
 2764SOL     OW 9190   0.785   4.330   1.832
 2764SOL    HW1 9191   0.718   4.320   1.758
 2764SOL    HW2 9192   0.844   4.250   1.835
 2765SOL     OW 9193   6.270   6.718   0.065
 2765SOL    HW1 9194   6.295   6.662   0.144
 2765SOL    HW2 9195   6.221   6.800   0.096
 2766SOL     OW 9196   4.982   1.311   6.759
 2766SOL    HW1 9197   5.014   1.343   6.670
 2766SOL    HW2 9198   4.971   1.212   6.757
 2767SOL     OW 9199   5.825   5.091   6.059
 2767SOL    HW1 9200   5.824   5.068   6.156
 2767SOL    HW2 9201   5.916   5.122   6.032
 2768SOL     OW 9202   4.337   0.314   1.166
 2768SOL    HW1 9203   4.321   0.396   1.111
 2768SOL    HW2 9204   4.355   0.341   1.261
 2769SOL     OW 9205   1.477   4.474   5.786
 2769SOL    HW1 9206   1.495   4.566   5.749
 2769SOL    HW2 9207   1.563   4.432   5.812
 2770SOL     OW 9208   3.055   6.695   6.620
 2770SOL    HW1 9209   3.120   6.769   6.604
 2770SOL    HW2 9210   2.974   6.708   6.563
 2771SOL     OW 9211   4.522   0.172   4.977
 2771SOL    HW1 9212   4.464   0.238   4.929
 2771SOL    HW2 9213   4.464   0.103   5.020
 2772SOL     OW 9214   3.970   0.843   2.727
 2772SOL    HW1 9215   4.057   0.882   2.756
 2772SOL    HW2 9216   3.981   0.796   2.640
 2773SOL     OW 9217   6.984   2.926   4.361
 2773SOL    HW1 9218   0.034   2.994   4.345
 2773SOL    HW2 9219   6.902   2.953   4.310
 2774SOL     OW 9220   5.180   1.859   3.246
 2774SOL    HW1 9221   5.196   1.870   3.147
 2774SOL    HW2 9222   5.184   1.949   3.290
 2775SOL     OW 9223   0.259   4.012   4.608
 2775SOL    HW1 9224   0.170   4.058   4.608
 2775SOL    HW2 9225   0.293   4.007   4.702
 2776SOL     OW 9226   4.903   4.870   5.934
 2776SOL    HW1 9227   4.821   4.885   5.990
 2776SOL    HW2 9228   4.895   4.922   5.849
 2777SOL     OW 9229   3.193   2.304   5.854
 2777SOL    HW1 9230   3.242   2.217   5.856
 2777SOL    HW2 9231   3.229   2.361   5.780
 2778SOL     OW 9232   2.306   6.119   6.577
 2778SOL    HW1 9233   2.336   6.196   6.633
 2778SOL    HW2 9234   2.382   6.054   6.566
 2779SOL     OW 9235   6.040   6.013   2.286
 2779SOL    HW1 9236   6.036   6.051   2.193
 2779SOL    HW2 9237   6.090   6.077   2.345
 2780SOL     OW 9238   0.048   0.999   6.157
 2780SOL    HW1 9239   0.120   1.035   6.097
 2780SOL    HW2 9240   6.995   1.066   6.163
 2781SOL     OW 9241   6.637   0.592   2.638
 2781SOL    HW1 9242   6.606   0.519   2.699
 2781SOL    HW2 9243   6.580   0.673   2.651
 2782SOL     OW 9244   4.385   1.086   6.759
 2782SOL    HW1 9245   4.314   1.053   6.696
 2782SOL    HW2 9246   4.342   1.120   6.843
 2783SOL     OW 9247   5.600   3.385   1.919
 2783SOL    HW1 9248   5.697   3.384   1.895
 2783SOL    HW2 9249   5.548   3.329   1.853
 2784SOL     OW 9250   1.884   1.705   1.051
 2784SOL    HW1 9251   1.846   1.613   1.037
 2784SOL    HW2 9252   1.977   1.698   1.086
 2785SOL     OW 9253   5.031   2.691   1.386
 2785SOL    HW1 9254   5.116   2.744   1.396
 2785SOL    HW2 9255   4.954   2.747   1.417
 2786SOL     OW 9256   6.953   5.549   0.244
 2786SOL    HW1 9257   7.008   5.601   0.179
 2786SOL    HW2 9258   6.897   5.483   0.195
 2787SOL     OW 9259   6.047   5.434   5.931
 2787SOL    HW1 9260   5.999   5.478   5.855
 2787SOL    HW2 9261   6.139   5.410   5.903
 2788SOL     OW 9262   3.578   6.395   5.440
 2788SOL    HW1 9263   3.554   6.310   5.487
 2788SOL    HW2 9264   3.496   6.435   5.399
 2789SOL     OW 9265   6.997   2.483   4.797
 2789SOL    HW1 9266   6.986   2.446   4.705
 2789SOL    HW2 9267   0.023   2.570   4.793
 2790SOL     OW 9268   2.223   5.577   0.559
 2790SOL    HW1 9269   2.284   5.644   0.517
 2790SOL    HW2 9270   2.156   5.623   0.616
 2791SOL     OW 9271   6.840   3.483   3.067
 2791SOL    HW1 9272   6.774   3.461   2.995
 2791SOL    HW2 9273   6.794   3.479   3.156
 2792SOL     OW 9274   3.417   1.253   4.882
 2792SOL    HW1 9275   3.383   1.300   4.963
 2792SOL    HW2 9276   3.506   1.290   4.856
 2793SOL     OW 9277   3.689   4.437   1.161
 2793SOL    HW1 9278   3.692   4.443   1.260
 2793SOL    HW2 9279   3.682   4.529   1.122
 2794SOL     OW 9280   6.889   1.423   6.037
 2794SOL    HW1 9281   6.890   1.338   6.089
 2794SOL    HW2 9282   6.810   1.478   6.064
 2795SOL     OW 9283   0.743   4.590   1.563
 2795SOL    HW1 9284   0.803   4.592   1.483
 2795SOL    HW2 9285   0.770   4.662   1.627
 2796SOL     OW 9286   0.687   5.982   5.725
 2796SOL    HW1 9287   0.777   5.990   5.682
 2796SOL    HW2 9288   0.640   5.901   5.689
 2797SOL     OW 9289   5.092   6.609   4.264
 2797SOL    HW1 9290   5.187   6.616   4.231
 2797SOL    HW2 9291   5.030   6.617   4.187
 2798SOL     OW 9292   6.135   6.526   2.130
 2798SOL    HW1 9293   6.035   6.524   2.133
 2798SOL    HW2 9294   6.167   6.478   2.049
 2799SOL     OW 9295   3.775   6.345   4.778
 2799SOL    HW1 9296   3.828   6.261   4.770
 2799SOL    HW2 9297   3.791   6.403   4.699
 2800SOL     OW 9298   5.817   0.965   6.884
 2800SOL    HW1 9299   5.778   0.899   6.820
 2800SOL    HW2 9300   5.906   0.997   6.850
 2801SOL     OW 9301   0.567   5.032   6.026
 2801SOL    HW1 9302   0.479   4.985   6.017
 2801SOL    HW2 9303   0.593   5.037   6.123
 2802SOL     OW 9304   6.444   6.057   5.221
 2802SOL    HW1 9305   6.378   6.045   5.147
 2802SOL    HW2 9306   6.409   6.124   5.286
 2803SOL     OW 9307   3.488   3.213   6.217
 2803SOL    HW1 9308   3.486   3.119   6.251
 2803SOL    HW2 9309   3.420   3.225   6.145
 2804SOL     OW 9310   0.515   2.967   4.293
 2804SOL    HW1 9311   0.509   2.872   4.262
 2804SOL    HW2 9312   0.580   2.974   4.368
 2805SOL     OW 9313   4.438   3.465   1.574
 2805SOL    HW1 9314   4.368   3.396   1.554
 2805SOL    HW2 9315   4.394   3.549   1.606
 2806SOL     OW 9316   0.666   4.690   5.710
 2806SOL    HW1 9317   0.702   4.762   5.770
 2806SOL    HW2 9318   0.690   4.711   5.615
 2807SOL     OW 9319   3.079   0.384   3.141
 2807SOL    HW1 9320   3.117   0.389   3.049
 2807SOL    HW2 9321   2.985   0.419   3.141
 2808SOL     OW 9322   6.055   5.655   0.587
 2808SOL    HW1 9323   6.055   5.754   0.578
 2808SOL    HW2 9324   5.989   5.615   0.524
 2809SOL     OW 9325   6.581   4.815   2.079
 2809SOL    HW1 9326   6.672   4.777   2.097
 2809SOL    HW2 9327   6.581   4.861   1.991
 2810SOL     OW 9328   2.398   5.569   3.588
 2810SOL    HW1 9329   2.467   5.641   3.579
 2810SOL    HW2 9330   2.327   5.582   3.520
 2811SOL     OW 9331   0.869   0.206   2.483
 2811SOL    HW1 9332   0.778   0.231   2.518
 2811SOL    HW2 9333   0.861   0.173   2.389
 2812SOL     OW 9334   0.607   3.342   1.057
 2812SOL    HW1 9335   0.555   3.370   1.137
 2812SOL    HW2 9336   0.552   3.354   0.975
 2813SOL     OW 9337   0.580   2.216   1.434
 2813SOL    HW1 9338   0.529   2.148   1.486
 2813SOL    HW2 9339   0.520   2.256   1.364
 2814SOL     OW 9340   2.119   3.722   0.339
 2814SOL    HW1 9341   2.143   3.727   0.242
 2814SOL    HW2 9342   2.024   3.749   0.351
 2815SOL     OW 9343   0.462   5.875   5.050
 2815SOL    HW1 9344   0.530   5.864   5.123
 2815SOL    HW2 9345   0.507   5.870   4.961
 2816SOL     OW 9346   0.082   6.271   5.747
 2816SOL    HW1 9347   0.155   6.309   5.690
 2816SOL    HW2 9348   0.007   6.240   5.689
 2817SOL     OW 9349   3.873   0.850   2.115
 2817SOL    HW1 9350   3.921   0.862   2.202
 2817SOL    HW2 9351   3.845   0.754   2.105
 2818SOL     OW 9352   1.630   0.990   1.505
 2818SOL    HW1 9353   1.710   0.930   1.500
 2818SOL    HW2 9354   1.654   1.080   1.469
 2819SOL     OW 9355   0.574   0.028   0.970
 2819SOL    HW1 9356   0.506   0.101   0.963
 2819SOL    HW2 9357   0.627   0.025   0.885
 2820SOL     OW 9358   1.375   2.481   1.648
 2820SOL    HW1 9359   1.461   2.530   1.637
 2820SOL    HW2 9360   1.318   2.497   1.567
 2821SOL     OW 9361   3.099   4.517   6.586
 2821SOL    HW1 9362   3.071   4.595   6.529
 2821SOL    HW2 9363   3.198   4.506   6.581
 2822SOL     OW 9364   4.484   2.578   0.637
 2822SOL    HW1 9365   4.433   2.494   0.618
 2822SOL    HW2 9366   4.579   2.566   0.611
 2823SOL     OW 9367   4.777   1.939   0.578
 2823SOL    HW1 9368   4.680   1.958   0.561
 2823SOL    HW2 9369   4.826   2.024   0.593
 2824SOL     OW 9370   1.102   3.620   5.149
 2824SOL    HW1 9371   1.029   3.633   5.215
 2824SOL    HW2 9372   1.178   3.570   5.192
 2825SOL     OW 9373   5.311   1.306   6.491
 2825SOL    HW1 9374   5.216   1.337   6.487
 2825SOL    HW2 9375   5.363   1.362   6.555
 2826SOL     OW 9376   1.505   3.956   6.504
 2826SOL    HW1 9377   1.477   3.925   6.595
 2826SOL    HW2 9378   1.556   3.884   6.458
 2827SOL     OW 9379   0.004   0.744   6.343
 2827SOL    HW1 9380   0.074   0.732   6.272
 2827SOL    HW2 9381   0.025   0.685   6.421
 2828SOL     OW 9382   1.418   3.883   0.562
 2828SOL    HW1 9383   1.340   3.940   0.589
 2828SOL    HW2 9384   1.386   3.794   0.532
 2829SOL     OW 9385   3.576   4.060   3.444
 2829SOL    HW1 9386   3.629   4.000   3.383
 2829SOL    HW2 9387   3.553   4.144   3.395
 2830SOL     OW 9388   3.541   5.537   5.611
 2830SOL    HW1 9389   3.491   5.594   5.675
 2830SOL    HW2 9390   3.618   5.588   5.572
 2831SOL     OW 9391   6.448   2.145   1.771
 2831SOL    HW1 9392   6.403   2.069   1.725
 2831SOL    HW2 9393   6.434   2.138   1.869
 2832SOL     OW 9394   0.708   3.082   1.177
 2832SOL    HW1 9395   0.660   3.144   1.115
 2832SOL    HW2 9396   0.745   3.133   1.254
 2833SOL     OW 9397   2.016   1.993   1.748
 2833SOL    HW1 9398   2.038   2.020   1.655
 2833SOL    HW2 9399   2.050   1.901   1.766
 2834SOL     OW 9400   4.335   6.076   4.829
 2834SOL    HW1 9401   4.285   6.064   4.743
 2834SOL    HW2 9402   4.432   6.086   4.809
 2835SOL     OW 9403   1.180   6.606   0.448
 2835SOL    HW1 9404   1.083   6.592   0.427
 2835SOL    HW2 9405   1.201   6.562   0.536
 2836SOL     OW 9406   3.575   5.932   3.594
 2836SOL    HW1 9407   3.574   5.834   3.578
 2836SOL    HW2 9408   3.609   5.951   3.686
 2837SOL     OW 9409   5.474   3.923   2.338
 2837SOL    HW1 9410   5.434   3.895   2.251
 2837SOL    HW2 9411   5.427   4.005   2.371
 2838SOL     OW 9412   5.125   3.659   6.002
 2838SOL    HW1 9413   5.140   3.636   5.905
 2838SOL    HW2 9414   5.212   3.648   6.051
 2839SOL     OW 9415   6.040   3.296   5.005
 2839SOL    HW1 9416   6.077   3.380   5.044
 2839SOL    HW2 9417   6.114   3.238   4.973
 2840SOL     OW 9418   0.278   5.830   2.761
 2840SOL    HW1 9419   0.213   5.755   2.768
 2840SOL    HW2 9420   0.341   5.827   2.838
 2841SOL     OW 9421   5.886   2.650   1.593
 2841SOL    HW1 9422   5.903   2.748   1.599
 2841SOL    HW2 9423   5.972   2.601   1.592
 2842SOL     OW 9424   1.796   6.408   3.939
 2842SOL    HW1 9425   1.831   6.467   4.012
 2842SOL    HW2 9426   1.786   6.315   3.974
 2843SOL     OW 9427   2.219   2.830   3.745
 2843SOL    HW1 9428   2.210   2.829   3.845
 2843SOL    HW2 9429   2.137   2.789   3.704
 2844SOL     OW 9430   4.829   4.452   0.981
 2844SOL    HW1 9431   4.749   4.404   0.946
 2844SOL    HW2 9432   4.871   4.399   1.054
 2845SOL     OW 9433   3.882   2.191   2.810
 2845SOL    HW1 9434   3.981   2.193   2.798
 2845SOL    HW2 9435   3.838   2.167   2.723
 2846SOL     OW 9436   4.846   0.707   0.614
 2846SOL    HW1 9437   4.842   0.807   0.612
 2846SOL    HW2 9438   4.806   0.673   0.699
 2847SOL     OW 9439   4.905   4.112   2.353
 2847SOL    HW1 9440   4.862   4.082   2.438
 2847SOL    HW2 9441   4.935   4.207   2.363
 2848SOL     OW 9442   0.628   3.188   4.762
 2848SOL    HW1 9443   0.676   3.259   4.813
 2848SOL    HW2 9444   0.681   3.104   4.764
 2849SOL     OW 9445   3.994   0.194   2.577
 2849SOL    HW1 9446   4.076   0.175   2.630
 2849SOL    HW2 9447   3.991   0.291   2.553
 2850SOL     OW 9448   2.468   6.933   2.887
 2850SOL    HW1 9449   2.535   6.893   2.950
 2850SOL    HW2 9450   2.461   6.876   2.805
 2851SOL     OW 9451   4.270   3.036   1.032
 2851SOL    HW1 9452   4.268   3.110   1.099
 2851SOL    HW2 9453   4.217   2.959   1.066
 2852SOL     OW 9454   6.705   4.345   5.931
 2852SOL    HW1 9455   6.628   4.287   5.906
 2852SOL    HW2 9456   6.671   4.426   5.979
 2853SOL     OW 9457   0.916   3.867   0.007
 2853SOL    HW1 9458   0.878   3.921   0.083
 2853SOL    HW2 9459   0.887   3.907   6.942
 2854SOL     OW 9460   3.545   1.591   5.935
 2854SOL    HW1 9461   3.643   1.593   5.916
 2854SOL    HW2 9462   3.499   1.538   5.864
 2855SOL     OW 9463   1.674   1.479   4.326
 2855SOL    HW1 9464   1.612   1.554   4.302
 2855SOL    HW2 9465   1.674   1.410   4.253
 2856SOL     OW 9466   1.193   4.341   3.160
 2856SOL    HW1 9467   1.187   4.243   3.140
 2856SOL    HW2 9468   1.208   4.354   3.257
 2857SOL     OW 9469   0.012   3.189   0.874
 2857SOL    HW1 9470   0.092   3.202   0.932
 2857SOL    HW2 9471   6.979   3.114   0.909
 2858SOL     OW 9472   4.590   4.630   3.033
 2858SOL    HW1 9473   4.658   4.629   3.106
 2858SOL    HW2 9474   4.612   4.558   2.966
 2859SOL     OW 9475   5.492   4.850   1.822
 2859SOL    HW1 9476   5.546   4.873   1.904
 2859SOL    HW2 9477   5.522   4.762   1.787
 2860SOL     OW 9478   1.471   5.949   1.348
 2860SOL    HW1 9479   1.442   6.020   1.412
 2860SOL    HW2 9480   1.397   5.931   1.283
 2861SOL     OW 9481   4.453   4.891   6.617
 2861SOL    HW1 9482   4.437   4.895   6.715
 2861SOL    HW2 9483   4.488   4.979   6.585
 2862SOL     OW 9484   4.407   3.149   1.473
 2862SOL    HW1 9485   4.497   3.191   1.485
 2862SOL    HW2 9486   4.381   3.102   1.557
 2863SOL     OW 9487   5.911   0.020   5.537
 2863SOL    HW1 9488   5.830   6.999   5.577
 2863SOL    HW2 9489   5.943   0.093   5.598
 2864SOL     OW 9490   3.902   3.578   0.452
 2864SOL    HW1 9491   3.860   3.633   0.379
 2864SOL    HW2 9492   3.856   3.598   0.539
 2865SOL     OW 9493   5.363   6.001   4.396
 2865SOL    HW1 9494   5.296   6.010   4.469
 2865SOL    HW2 9495   5.445   6.052   4.420
 2866SOL     OW 9496   4.693   4.076   6.606
 2866SOL    HW1 9497   4.764   4.010   6.580
 2866SOL    HW2 9498   4.693   4.152   6.541
 2867SOL     OW 9499   5.860   6.491   2.100
 2867SOL    HW1 9500   5.799   6.500   2.180
 2867SOL    HW2 9501   5.834   6.559   2.031
 2868SOL     OW 9502   1.588   0.608   5.824
 2868SOL    HW1 9503   1.641   0.687   5.857
 2868SOL    HW2 9504   1.496   0.638   5.798
 2869SOL     OW 9505   5.281   5.825   3.696
 2869SOL    HW1 9506   5.280   5.893   3.769
 2869SOL    HW2 9507   5.339   5.749   3.721
 2870SOL     OW 9508   0.835   1.473   1.769
 2870SOL    HW1 9509   0.852   1.470   1.867
 2870SOL    HW2 9510   0.879   1.555   1.731
 2871SOL     OW 9511   6.031   1.815   1.213
 2871SOL    HW1 9512   5.947   1.828   1.266
 2871SOL    HW2 9513   6.084   1.740   1.252
 2872SOL     OW 9514   2.452   1.997   2.419
 2872SOL    HW1 9515   2.447   2.061   2.342
 2872SOL    HW2 9516   2.360   1.961   2.438
 2873SOL     OW 9517   0.673   6.391   1.316
 2873SOL    HW1 9518   0.600   6.359   1.255
 2873SOL    HW2 9519   0.634   6.411   1.406
 2874SOL     OW 9520   1.940   0.704   3.183
 2874SOL    HW1 9521   1.840   0.713   3.184
 2874SOL    HW2 9522   1.967   0.640   3.111
 2875SOL     OW 9523   3.191   6.792   2.780
 2875SOL    HW1 9524   3.127   6.868   2.767
 2875SOL    HW2 9525   3.273   6.807   2.726
 2876SOL     OW 9526   1.238   6.094   2.170
 2876SOL    HW1 9527   1.223   6.154   2.249
 2876SOL    HW2 9528   1.282   6.146   2.097
 2877SOL     OW 9529   1.695   0.872   5.811
 2877SOL    HW1 9530   1.652   0.919   5.888
 2877SOL    HW2 9531   1.778   0.920   5.784
 2878SOL     OW 9532   3.633   3.554   4.876
 2878SOL    HW1 9533   3.677   3.562   4.787
 2878SOL    HW2 9534   3.631   3.458   4.904
 2879SOL     OW 9535   4.407   4.768   6.010
 2879SOL    HW1 9536   4.388   4.845   5.949
 2879SOL    HW2 9537   4.486   4.789   6.067
 2880SOL     OW 9538   1.730   1.525   4.781
 2880SOL    HW1 9539   1.708   1.590   4.709
 2880SOL    HW2 9540   1.829   1.528   4.800
 2881SOL     OW 9541   3.847   6.315   6.808
 2881SOL    HW1 9542   3.872   6.359   6.894
 2881SOL    HW2 9543   3.751   6.289   6.810
 2882SOL     OW 9544   4.626   5.986   0.591
 2882SOL    HW1 9545   4.656   5.996   0.686
 2882SOL    HW2 9546   4.530   6.011   0.584
 2883SOL     OW 9547   6.115   6.652   3.860
 2883SOL    HW1 9548   6.147   6.558   3.874
 2883SOL    HW2 9549   6.017   6.651   3.842
 2884SOL     OW 9550   0.018   5.281   2.862
 2884SOL    HW1 9551   6.984   5.342   2.808
 2884SOL    HW2 9552   0.111   5.278   2.825
 2885SOL     OW 9553   0.974   3.382   2.812
 2885SOL    HW1 9554   1.060   3.331   2.806
 2885SOL    HW2 9555   0.913   3.335   2.876
 2886SOL     OW 9556   2.902   4.610   6.319
 2886SOL    HW1 9557   2.803   4.598   6.311
 2886SOL    HW2 9558   2.944   4.521   6.338
 2887SOL     OW 9559   1.211   6.262   4.103
 2887SOL    HW1 9560   1.238   6.220   4.016
 2887SOL    HW2 9561   1.112   6.268   4.108
 2888SOL     OW 9562   6.551   6.247   0.770
 2888SOL    HW1 9563   6.537   6.216   0.864
 2888SOL    HW2 9564   6.470   6.296   0.738
 2889SOL     OW 9565   3.182   6.363   3.072
 2889SOL    HW1 9566   3.274   6.334   3.044
 2889SOL    HW2 9567   3.184   6.459   3.099
 2890SOL     OW 9568   1.734   6.947   1.014
 2890SOL    HW1 9569   1.829   6.919   1.024
 2890SOL    HW2 9570   1.697   6.910   0.929
 2891SOL     OW 9571   0.463   3.116   3.650
 2891SOL    HW1 9572   0.403   3.036   3.654
 2891SOL    HW2 9573   0.424   3.183   3.586
 2892SOL     OW 9574   6.497   3.866   1.177
 2892SOL    HW1 9575   6.566   3.796   1.191
 2892SOL    HW2 9576   6.537   3.945   1.131
 2893SOL     OW 9577   0.063   4.956   4.220
 2893SOL    HW1 9578   6.987   4.972   4.213
 2893SOL    HW2 9579   0.108   5.038   4.255
 2894SOL     OW 9580   1.055   4.957   1.937
 2894SOL    HW1 9581   1.128   4.997   1.883
 2894SOL    HW2 9582   1.076   4.861   1.956
 2895SOL     OW 9583   3.988   6.921   6.227
 2895SOL    HW1 9584   3.929   6.985   6.277
 2895SOL    HW2 9585   4.079   6.920   6.270
 2896SOL     OW 9586   5.430   6.330   4.649
 2896SOL    HW1 9587   5.479   6.363   4.729
 2896SOL    HW2 9588   5.332   6.327   4.669
 2897SOL     OW 9589   3.605   5.032   2.821
 2897SOL    HW1 9590   3.651   4.996   2.903
 2897SOL    HW2 9591   3.614   4.966   2.746
 2898SOL     OW 9592   5.747   4.148   2.859
 2898SOL    HW1 9593   5.743   4.246   2.836
 2898SOL    HW2 9594   5.777   4.096   2.779
 2899SOL     OW 9595   6.650   2.996   1.011
 2899SOL    HW1 9596   6.641   3.027   1.105
 2899SOL    HW2 9597   6.631   2.898   1.005
 2900SOL     OW 9598   3.153   3.739   0.295
 2900SOL    HW1 9599   3.056   3.714   0.287
 2900SOL    HW2 9600   3.169   3.827   0.250
 2901SOL     OW 9601   1.598   3.519   3.369
 2901SOL    HW1 9602   1.620   3.447   3.435
 2901SOL    HW2 9603   1.680   3.542   3.316
 2902SOL     OW 9604   1.300   5.884   4.261
 2902SOL    HW1 9605   1.365   5.921   4.327
 2902SOL    HW2 9606   1.349   5.843   4.185
 2903SOL     OW 9607   4.224   5.965   1.080
 2903SOL    HW1 9608   4.176   6.052   1.074
 2903SOL    HW2 9609   4.159   5.890   1.063
 2904SOL     OW 9610   2.494   4.489   5.243
 2904SOL    HW1 9611   2.573   4.433   5.267
 2904SOL    HW2 9612   2.505   4.523   5.149
 2905SOL     OW 9613   0.981   4.499   1.724
 2905SOL    HW1 9614   0.942   4.590   1.733
 2905SOL    HW2 9615   0.908   4.433   1.708
 2906SOL     OW 9616   5.935   5.945   3.652
 2906SOL    HW1 9617   5.953   5.877   3.581
 2906SOL    HW2 9618   5.970   6.034   3.623
 2907SOL     OW 9619   0.873   0.422   3.534
 2907SOL    HW1 9620   0.941   0.476   3.486
 2907SOL    HW2 9621   0.829   0.359   3.470
 2908SOL     OW 9622   4.240   0.103   2.689
 2908SOL    HW1 9623   4.187   0.099   2.774
 2908SOL    HW2 9624   4.262   0.010   2.659
 2909SOL     OW 9625   1.204   5.822   2.075
 2909SOL    HW1 9626   1.222   5.909   2.122
 2909SOL    HW2 9627   1.108   5.796   2.089
 2910SOL     OW 9628   6.991   0.634   3.845
 2910SOL    HW1 9629   6.986   0.549   3.793
 2910SOL    HW2 9630   6.967   0.711   3.786
 2911SOL     OW 9631   6.676   3.921   4.190
 2911SOL    HW1 9632   6.700   3.969   4.274
 2911SOL    HW2 9633   6.578   3.900   4.191
 2912SOL     OW 9634   6.915   6.490   0.779
 2912SOL    HW1 9635   7.004   6.535   0.776
 2912SOL    HW2 9636   6.863   6.514   0.697
 2913SOL     OW 9637   2.018   5.730   0.678
 2913SOL    HW1 9638   1.956   5.791   0.629
 2913SOL    HW2 9639   2.106   5.776   0.691
 2914SOL     OW 9640   5.340   5.195   0.423
 2914SOL    HW1 9641   5.326   5.281   0.473
 2914SOL    HW2 9642   5.411   5.208   0.354
 2915SOL     OW 9643   3.246   1.288   3.336
 2915SOL    HW1 9644   3.225   1.298   3.238
 2915SOL    HW2 9645   3.340   1.255   3.346
 2916SOL     OW 9646   1.469   6.342   0.377
 2916SOL    HW1 9647   1.412   6.261   0.367
 2916SOL    HW2 9648   1.435   6.415   0.317
 2917SOL     OW 9649   2.314   6.807   3.170
 2917SOL    HW1 9650   2.386   6.876   3.169
 2917SOL    HW2 9651   2.229   6.849   3.201
 2918SOL     OW 9652   6.147   3.641   0.946
 2918SOL    HW1 9653   6.079   3.685   0.888
 2918SOL    HW2 9654   6.188   3.709   1.007
 2919SOL     OW 9655   0.988   6.198   4.535
 2919SOL    HW1 9656   0.908   6.206   4.476
 2919SOL    HW2 9657   0.974   6.253   4.617
 2920SOL     OW 9658   1.422   1.451   1.575
 2920SOL    HW1 9659   1.410   1.415   1.483
 2920SOL    HW2 9660   1.344   1.424   1.632
 2921SOL     OW 9661   0.449   7.011   5.763
 2921SOL    HW1 9662   0.421   7.007   5.667
 2921SOL    HW2 9663   0.492   0.078   5.782
 2922SOL     OW 9664   3.966   0.715   3.202
 2922SOL    HW1 9665   3.923   0.791   3.250
 2922SOL    HW2 9666   3.943   0.719   3.105
 2923SOL     OW 9667   6.179   4.987   5.067
 2923SOL    HW1 9668   6.104   4.943   5.017
 2923SOL    HW2 9669   6.265   4.968   5.021
 2924SOL     OW 9670   6.519   2.944   5.527
 2924SOL    HW1 9671   6.456   2.936   5.449
 2924SOL    HW2 9672   6.568   3.031   5.520
 2925SOL     OW 9673   5.371   0.476   5.795
 2925SOL    HW1 9674   5.355   0.403   5.861
 2925SOL    HW2 9675   5.283   0.509   5.761
 2926SOL     OW 9676   0.449   1.568   4.542
 2926SOL    HW1 9677   0.518   1.518   4.489
 2926SOL    HW2 9678   0.404   1.635   4.483
 2927SOL     OW 9679   1.686   2.852   1.411
 2927SOL    HW1 9680   1.761   2.879   1.471
 2927SOL    HW2 9681   1.651   2.932   1.363
 2928SOL     OW 9682   6.635   2.261   6.962
 2928SOL    HW1 9683   6.663   2.357   6.961
 2928SOL    HW2 9684   6.717   2.203   6.966
 2929SOL     OW 9685   1.867   2.272   4.627
 2929SOL    HW1 9686   1.902   2.352   4.577
 2929SOL    HW2 9687   1.818   2.303   4.708
 2930SOL     OW 9688   0.338   5.319   5.211
 2930SOL    HW1 9689   0.317   5.329   5.114
 2930SOL    HW2 9690   0.339   5.221   5.234
 2931SOL     OW 9691   4.303   4.025   6.076
 2931SOL    HW1 9692   4.288   4.094   6.147
 2931SOL    HW2 9693   4.264   3.938   6.106
 2932SOL     OW 9694   6.500   5.673   0.807
 2932SOL    HW1 9695   6.587   5.721   0.821
 2932SOL    HW2 9696   6.424   5.730   0.837
 2933SOL     OW 9697   1.396   0.147   0.839
 2933SOL    HW1 9698   1.455   0.228   0.845
 2933SOL    HW2 9699   1.441   0.078   0.782
 2934SOL     OW 9700   3.888   3.796   0.253
 2934SOL    HW1 9701   3.864   3.810   0.157
 2934SOL    HW2 9702   3.968   3.852   0.276
 2935SOL     OW 9703   0.155   2.612   6.488
 2935SOL    HW1 9704   0.093   2.656   6.553
 2935SOL    HW2 9705   0.241   2.663   6.484
 2936SOL     OW 9706   4.836   0.104   0.792
 2936SOL    HW1 9707   4.801   0.172   0.726
 2936SOL    HW2 9708   4.771   0.028   0.798
 2937SOL     OW 9709   4.425   5.531   2.236
 2937SOL    HW1 9710   4.410   5.616   2.187
 2937SOL    HW2 9711   4.503   5.541   2.298
 2938SOL     OW 9712   6.640   5.592   6.380
 2938SOL    HW1 9713   6.542   5.613   6.377
 2938SOL    HW2 9714   6.681   5.633   6.461
 2939SOL     OW 9715   0.147   5.761   1.505
 2939SOL    HW1 9716   0.133   5.664   1.525
 2939SOL    HW2 9717   0.059   5.808   1.505
 2940SOL     OW 9718   5.461   5.964   3.480
 2940SOL    HW1 9719   5.453   5.922   3.571
 2940SOL    HW2 9720   5.386   5.932   3.422
 2941SOL     OW 9721   2.055   3.244   3.835
 2941SOL    HW1 9722   1.975   3.221   3.779
 2941SOL    HW2 9723   2.076   3.166   3.895
 2942SOL     OW 9724   3.278   1.542   0.687
 2942SOL    HW1 9725   3.264   1.582   0.777
 2942SOL    HW2 9726   3.211   1.580   0.623
 2943SOL     OW 9727   5.652   4.118   3.615
 2943SOL    HW1 9728   5.728   4.140   3.554
 2943SOL    HW2 9729   5.596   4.046   3.575
 2944SOL     OW 9730   2.172   5.868   3.785
 2944SOL    HW1 9731   2.156   5.967   3.786
 2944SOL    HW2 9732   2.214   5.842   3.698
 2945SOL     OW 9733   5.278   4.360   1.589
 2945SOL    HW1 9734   5.281   4.421   1.510
 2945SOL    HW2 9735   5.292   4.413   1.673
 2946SOL     OW 9736   2.841   4.094   6.326
 2946SOL    HW1 9737   2.818   4.161   6.255
 2946SOL    HW2 9738   2.933   4.059   6.311
 2947SOL     OW 9739   5.698   6.664   0.795
 2947SOL    HW1 9740   5.749   6.596   0.742
 2947SOL    HW2 9741   5.633   6.617   0.855
 2948SOL     OW 9742   5.865   3.991   2.680
 2948SOL    HW1 9743   5.884   4.026   2.588
 2948SOL    HW2 9744   5.888   3.894   2.684
 2949SOL     OW 9745   1.651   0.169   1.133
 2949SOL    HW1 9746   1.651   0.236   1.059
 2949SOL    HW2 9747   1.668   0.077   1.096
 2950SOL     OW 9748   5.048   4.359   2.375
 2950SOL    HW1 9749   4.983   4.384   2.446
 2950SOL    HW2 9750   5.141   4.376   2.408
 2951SOL     OW 9751   5.817   1.311   1.397
 2951SOL    HW1 9752   5.736   1.288   1.450
 2951SOL    HW2 9753   5.885   1.238   1.405
 2952SOL     OW 9754   5.702   1.072   4.171
 2952SOL    HW1 9755   5.771   1.003   4.151
 2952SOL    HW2 9756   5.625   1.029   4.219
 2953SOL     OW 9757   1.014   5.941   3.622
 2953SOL    HW1 9758   0.986   5.953   3.527
 2953SOL    HW2 9759   1.112   5.921   3.625
 2954SOL     OW 9760   0.238   4.632   6.126
 2954SOL    HW1 9761   0.194   4.579   6.054
 2954SOL    HW2 9762   0.224   4.587   6.214
 2955SOL     OW 9763   1.960   3.843   6.875
 2955SOL    HW1 9764   1.919   3.799   6.794
 2955SOL    HW2 9765   2.050   3.879   6.851
 2956SOL     OW 9766   6.394   4.311   3.466
 2956SOL    HW1 9767   6.312   4.353   3.504
 2956SOL    HW2 9768   6.456   4.285   3.540
 2957SOL     OW 9769   3.070   5.623   1.615
 2957SOL    HW1 9770   3.084   5.572   1.530
 2957SOL    HW2 9771   2.976   5.609   1.647
 2958SOL     OW 9772   2.204   4.919   3.316
 2958SOL    HW1 9773   2.211   4.892   3.412
 2958SOL    HW2 9774   2.137   4.993   3.306
 2959SOL     OW 9775   6.357   2.130   2.746
 2959SOL    HW1 9776   6.379   2.172   2.658
 2959SOL    HW2 9777   6.425   2.159   2.814
 2960SOL     OW 9778   4.437   0.422   0.778
 2960SOL    HW1 9779   4.419   0.361   0.701
 2960SOL    HW2 9780   4.466   0.369   0.858
 2961SOL     OW 9781   5.341   4.025   2.724
 2961SOL    HW1 9782   5.413   3.961   2.696
 2961SOL    HW2 9783   5.254   3.976   2.729
 2962SOL     OW 9784   6.807   6.496   2.444
 2962SOL    HW1 9785   6.844   6.528   2.357
 2962SOL    HW2 9786   6.851   6.545   2.519
 2963SOL     OW 9787   1.886   1.356   5.095
 2963SOL    HW1 9788   1.853   1.272   5.138
 2963SOL    HW2 9789   1.834   1.434   5.130
 2964SOL     OW 9790   0.956   2.722   6.962
 2964SOL    HW1 9791   0.993   2.690   6.874
 2964SOL    HW2 9792   0.918   2.644   7.012
 2965SOL     OW 9793   0.323   0.471   5.270
 2965SOL    HW1 9794   0.420   0.449   5.275
 2965SOL    HW2 9795   0.285   0.477   5.362
 2966SOL     OW 9796   4.450   5.564   3.697
 2966SOL    HW1 9797   4.512   5.607   3.632
 2966SOL    HW2 9798   4.359   5.556   3.655
 2967SOL     OW 9799   6.134   1.033   5.796
 2967SOL    HW1 9800   6.230   1.051   5.816
 2967SOL    HW2 9801   6.120   0.935   5.784
 2968SOL     OW 9802   1.583   1.976   0.914
 2968SOL    HW1 9803   1.497   1.966   0.963
 2968SOL    HW2 9804   1.587   2.065   0.869
 2969SOL     OW 9805   5.815   3.363   4.251
 2969SOL    HW1 9806   5.882   3.291   4.272
 2969SOL    HW2 9807   5.811   3.376   4.152
 2970SOL     OW 9808   2.405   2.624   4.465
 2970SOL    HW1 9809   2.334   2.598   4.400
 2970SOL    HW2 9810   2.374   2.702   4.519
 2971SOL     OW 9811   5.613   3.854   6.481
 2971SOL    HW1 9812   5.524   3.896   6.465
 2971SOL    HW2 9813   5.677   3.885   6.410
 2972SOL     OW 9814   5.492   4.809   6.831
 2972SOL    HW1 9815   5.407   4.838   6.788
 2972SOL    HW2 9816   5.474   4.729   6.888
 2973SOL     OW 9817   4.942   6.985   2.188
 2973SOL    HW1 9818   5.021   0.023   2.202
 2973SOL    HW2 9819   4.860   0.008   2.224
 2974SOL     OW 9820   5.124   5.579   3.521
 2974SOL    HW1 9821   5.222   5.558   3.530
 2974SOL    HW2 9822   5.086   5.527   3.445
 2975SOL     OW 9823   4.620   4.772   4.247
 2975SOL    HW1 9824   4.632   4.746   4.343
 2975SOL    HW2 9825   4.536   4.730   4.212
 2976SOL     OW 9826   4.736   2.161   2.010
 2976SOL    HW1 9827   4.836   2.154   2.004
 2976SOL    HW2 9828   4.698   2.070   2.026
 2977SOL     OW 9829   1.001   0.544   1.626
 2977SOL    HW1 9830   0.990   0.617   1.693
 2977SOL    HW2 9831   0.928   0.476   1.638
 2978SOL     OW 9832   4.326   4.480   6.002
 2978SOL    HW1 9833   4.334   4.580   6.000
 2978SOL    HW2 9834   4.328   4.449   6.098
 2979SOL     OW 9835   2.498   1.226   4.403
 2979SOL    HW1 9836   2.426   1.222   4.472
 2979SOL    HW2 9837   2.586   1.206   4.445
 2980SOL     OW 9838   4.022   3.765   5.953
 2980SOL    HW1 9839   3.945   3.800   5.899
 2980SOL    HW2 9840   4.106   3.811   5.923
 2981SOL     OW 9841   2.032   1.119   0.603
 2981SOL    HW1 9842   1.938   1.084   0.605
 2981SOL    HW2 9843   2.084   1.077   0.677
 2982SOL     OW 9844   0.792   0.309   2.025
 2982SOL    HW1 9845   0.737   0.252   1.965
 2982SOL    HW2 9846   0.880   0.329   1.981
 2983SOL     OW 9847   6.309   3.151   6.644
 2983SOL    HW1 9848   6.212   3.158   6.667
 2983SOL    HW2 9849   6.347   3.243   6.633
 2984SOL     OW 9850   6.785   4.914   0.324
 2984SOL    HW1 9851   6.763   4.928   0.227
 2984SOL    HW2 9852   6.725   4.845   0.362
 2985SOL     OW 9853   0.370   0.478   5.006
 2985SOL    HW1 9854   0.302   0.533   4.958
 2985SOL    HW2 9855   0.344   0.468   5.102
 2986SOL     OW 9856   3.715   4.092   2.811
 2986SOL    HW1 9857   3.798   4.060   2.766
 2986SOL    HW2 9858   3.738   4.134   2.899
 2987SOL     OW 9859   1.000   1.313   4.338
 2987SOL    HW1 9860   0.933   1.340   4.269
 2987SOL    HW2 9861   0.957   1.253   4.405
 2988SOL     OW 9862   0.476   1.790   0.337
 2988SOL    HW1 9863   0.567   1.750   0.342
 2988SOL    HW2 9864   0.407   1.718   0.343
 2989SOL     OW 9865   5.091   3.221   4.365
 2989SOL    HW1 9866   5.064   3.293   4.301
 2989SOL    HW2 9867   5.034   3.226   4.447
 2990SOL     OW 9868   4.961   1.710   4.546
 2990SOL    HW1 9869   4.984   1.808   4.545
 2990SOL    HW2 9870   5.037   1.658   4.506
 2991SOL     OW 9871   5.318   3.069   0.624
 2991SOL    HW1 9872   5.340   3.121   0.707
 2991SOL    HW2 9873   5.398   3.068   0.564
 2992SOL     OW 9874   0.293   3.278   5.785
 2992SOL    HW1 9875   0.302   3.184   5.753
 2992SOL    HW2 9876   0.378   3.327   5.768
 2993SOL     OW 9877   1.308   4.523   0.319
 2993SOL    HW1 9878   1.380   4.537   0.387
 2993SOL    HW2 9879   1.241   4.596   0.326
 2994SOL     OW 9880   4.752   6.736   0.252
 2994SOL    HW1 9881   4.697   6.820   0.242
 2994SOL    HW2 9882   4.824   6.751   0.320
 2995SOL     OW 9883   5.008   6.855   0.375
 2995SOL    HW1 9884   4.997   6.891   0.468
 2995SOL    HW2 9885   5.105   6.835   0.359
 2996SOL     OW 9886   0.862   1.769   4.888
 2996SOL    HW1 9887   0.889   1.718   4.806
 2996SOL    HW2 9888   0.839   1.863   4.862
 2997SOL     OW 9889   5.020   0.499   3.883
 2997SOL    HW1 9890   4.923   0.493   3.907
 2997SOL    HW2 9891   5.030   0.546   3.795
 2998SOL     OW 9892   2.598   1.309   2.891
 2998SOL    HW1 9893   2.681   1.362   2.905
 2998SOL    HW2 9894   2.551   1.341   2.809
 2999SOL     OW 9895   3.044   4.092   0.465
 2999SOL    HW1 9896   2.984   4.166   0.435
 2999SOL    HW2 9897   3.045   4.089   0.565
 3000SOL     OW 9898   2.950   3.823   5.179
 3000SOL    HW1 9899   2.993   3.745   5.135
 3000SOL    HW2 9900   2.987   3.908   5.141
 3001SOL     OW 9901   6.528   1.811   6.295
 3001SOL    HW1 9902   6.485   1.888   6.342
 3001SOL    HW2 9903   6.468   1.731   6.300
 3002SOL     OW 9904   2.591   0.871   2.183
 3002SOL    HW1 9905   2.666   0.848   2.121
 3002SOL    HW2 9906   2.545   0.787   2.212
 3003SOL     OW 9907   1.129   6.088   0.352
 3003SOL    HW1 9908   1.175   6.019   0.296
 3003SOL    HW2 9909   1.066   6.043   0.415
 3004SOL     OW 9910   2.796   5.601   4.473
 3004SOL    HW1 9911   2.709   5.560   4.448
 3004SOL    HW2 9912   2.858   5.530   4.507
 3005SOL     OW 9913   0.980   2.703   5.453
 3005SOL    HW1 9914   0.965   2.713   5.355
 3005SOL    HW2 9915   0.983   2.605   5.476
 3006SOL     OW 9916   5.226   1.845   5.184
 3006SOL    HW1 9917   5.280   1.796   5.252
 3006SOL    HW2 9918   5.286   1.882   5.114
 3007SOL     OW 9919   5.524   5.132   6.684
 3007SOL    HW1 9920   5.450   5.117   6.619
 3007SOL    HW2 9921   5.595   5.062   6.671
 3008SOL     OW 9922   4.486   2.375   5.546
 3008SOL    HW1 9923   4.436   2.432   5.612
 3008SOL    HW2 9924   4.479   2.417   5.455
 3009SOL     OW 9925   0.445   2.918   2.489
 3009SOL    HW1 9926   0.522   2.925   2.425
 3009SOL    HW2 9927   0.474   2.946   2.580
 3010SOL     OW 9928   4.051   6.210   6.112
 3010SOL    HW1 9929   4.137   6.256   6.089
 3010SOL    HW2 9930   4.007   6.259   6.187
 3011SOL     OW 9931   6.064   0.312   0.999
 3011SOL    HW1 9932   6.126   0.388   0.983
 3011SOL    HW2 9933   6.115   0.226   0.996
 3012SOL     OW 9934   2.743   2.773   6.167
 3012SOL    HW1 9935   2.705   2.737   6.083
 3012SOL    HW2 9936   2.828   2.823   6.147
 3013SOL     OW 9937   0.779   5.775   4.566
 3013SOL    HW1 9938   0.855   5.838   4.579
 3013SOL    HW2 9939   0.719   5.809   4.495
 3014SOL     OW 9940   4.988   0.787   5.337
 3014SOL    HW1 9941   4.969   0.880   5.305
 3014SOL    HW2 9942   4.925   0.763   5.410
 3015SOL     OW 9943   1.268   1.133   0.276
 3015SOL    HW1 9944   1.350   1.186   0.254
 3015SOL    HW2 9945   1.249   1.069   0.202
 3016SOL     OW 9946   2.996   6.530   4.765
 3016SOL    HW1 9947   2.967   6.478   4.846
 3016SOL    HW2 9948   3.011   6.626   4.791
 3017SOL     OW 9949   6.421   5.924   1.654
 3017SOL    HW1 9950   6.388   5.940   1.747
 3017SOL    HW2 9951   6.344   5.897   1.596
 3018SOL     OW 9952   3.414   0.174   0.057
 3018SOL    HW1 9953   3.451   0.109   0.124
 3018SOL    HW2 9954   3.489   0.220   0.010
 3019SOL     OW 9955   1.620   0.204   5.902
 3019SOL    HW1 9956   1.633   0.115   5.945
 3019SOL    HW2 9957   1.648   0.276   5.965
 3020SOL     OW 9958   4.892   3.669   0.279
 3020SOL    HW1 9959   4.930   3.721   0.203
 3020SOL    HW2 9960   4.792   3.677   0.279
 3021SOL     OW 9961   3.820   6.559   4.611
 3021SOL    HW1 9962   3.725   6.576   4.583
 3021SOL    HW2 9963   3.872   6.525   4.532
 3022SOL     OW 9964   4.479   6.133   3.471
 3022SOL    HW1 9965   4.390   6.087   3.480
 3022SOL    HW2 9966   4.549   6.065   3.448
 3023SOL     OW 9967   3.969   6.829   2.842
 3023SOL    HW1 9968   3.885   6.776   2.827
 3023SOL    HW2 9969   4.048   6.773   2.817
 3024SOL     OW 9970   0.132   6.099   6.416
 3024SOL    HW1 9971   0.217   6.050   6.399
 3024SOL    HW2 9972   0.104   6.148   6.333
 3025SOL     OW 9973   3.829   5.718   0.872
 3025SOL    HW1 9974   3.852   5.813   0.851
 3025SOL    HW2 9975   3.750   5.690   0.817
 3026SOL     OW 9976   5.888   1.229   0.279
 3026SOL    HW1 9977   5.902   1.326   0.258
 3026SOL    HW2 9978   5.956   1.199   0.346
 3027SOL     OW 9979   4.895   1.225   1.393
 3027SOL    HW1 9980   4.894   1.150   1.459
 3027SOL    HW2 9981   4.989   1.240   1.362
 3028SOL     OW 9982   2.626   4.590   6.246
 3028SOL    HW1 9983   2.651   4.551   6.158
 3028SOL    HW2 9984   2.578   4.522   6.301
 3029SOL     OW 9985   0.732   1.879   4.198
 3029SOL    HW1 9986   0.642   1.912   4.171
 3029SOL    HW2 9987   0.772   1.943   4.264
 3030SOL     OW 9988   1.423   3.523   1.112
 3030SOL    HW1 9989   1.386   3.589   1.047
 3030SOL    HW2 9990   1.491   3.567   1.170
 3031SOL     OW 9991   1.265   5.924   1.178
 3031SOL    HW1 9992   1.187   5.864   1.161
 3031SOL    HW2 9993   1.292   5.969   1.093
 3032SOL     OW 9994   1.644   0.600   2.637
 3032SOL    HW1 9995   1.630   0.687   2.589
 3032SOL    HW2 9996   1.663   0.528   2.570
 3033SOL     OW 9997   7.016   2.265   4.248
 3033SOL    HW1 9998   6.944   2.254   4.180
 3033SOL    HW2 9999   0.064   2.327   4.212
 3034SOL     OW10000   0.561   5.586   3.754
 3034SOL    HW110001   0.602   5.674   3.733
 3034SOL    HW210002   0.625   5.513   3.732
 3035SOL     OW10003   1.189   2.810   6.551
 3035SOL    HW110004   1.280   2.771   6.566
 3035SOL    HW210005   1.181   2.840   6.456
 3036SOL     OW10006   2.604   2.059   6.396
 3036SOL    HW110007   2.524   2.109   6.363
 3036SOL    HW210008   2.684   2.085   6.340
 3037SOL     OW10009   0.402   5.600   6.465
 3037SOL    HW110010   0.342   5.524   6.442
 3037SOL    HW210011   0.349   5.673   6.509
 3038SOL     OW10012   5.258   4.766   6.300
 3038SOL    HW110013   5.354   4.773   6.329
 3038SOL    HW210014   5.211   4.698   6.358
 3039SOL     OW10015   6.384   4.316   6.980
 3039SOL    HW110016   6.335   4.242   0.004
 3039SOL    HW210017   6.483   4.298   6.984
 3040SOL     OW10018   4.091   4.410   6.306
 3040SOL    HW110019   3.992   4.413   6.317
 3040SOL    HW210020   4.129   4.502   6.316
 3041SOL     OW10021   2.277   4.332   4.767
 3041SOL    HW110022   2.286   4.291   4.676
 3041SOL    HW210023   2.245   4.263   4.832
 3042SOL     OW10024   0.083   5.003   2.862
 3042SOL    HW110025   0.146   4.978   2.789
 3042SOL    HW210026   0.036   5.088   2.837
 3043SOL     OW10027   3.083   4.689   0.680
 3043SOL    HW110028   3.126   4.668   0.768
 3043SOL    HW210029   2.997   4.737   0.697
 3044SOL     OW10030   3.124   3.683   5.404
 3044SOL    HW110031   3.103   3.779   5.387
 3044SOL    HW210032   3.106   3.630   5.321
 3045SOL     OW10033   5.136   1.357   2.428
 3045SOL    HW110034   5.194   1.377   2.507
 3045SOL    HW210035   5.116   1.260   2.425
 3046SOL     OW10036   5.517   5.498   0.563
 3046SOL    HW110037   5.563   5.410   0.572
 3046SOL    HW210038   5.582   5.572   0.583
 3047SOL     OW10039   6.442   0.589   6.454
 3047SOL    HW110040   6.401   0.674   6.420
 3047SOL    HW210041   6.425   0.515   6.389
 3048SOL     OW10042   4.071   3.391   1.338
 3048SOL    HW110043   4.075   3.332   1.419
 3048SOL    HW210044   4.160   3.437   1.326
 3049SOL     OW10045   1.124   0.354   4.454
 3049SOL    HW110046   1.067   0.281   4.491
 3049SOL    HW210047   1.135   0.342   4.355
 3050SOL     OW10048   3.003   2.589   1.387
 3050SOL    HW110049   3.011   2.634   1.476
 3050SOL    HW210050   2.993   2.491   1.400
 3051SOL     OW10051   2.363   6.920   4.568
 3051SOL    HW110052   2.327   6.954   4.655
 3051SOL    HW210053   2.439   6.857   4.586
 3052SOL     OW10054   6.157   6.186   2.565
 3052SOL    HW110055   6.206   6.254   2.510
 3052SOL    HW210056   6.223   6.124   2.607
 3053SOL     OW10057   1.674   4.121   0.473
 3053SOL    HW110058   1.715   4.133   0.563
 3053SOL    HW210059   1.747   4.108   0.405
 3054SOL     OW10060   5.706   1.494   2.917
 3054SOL    HW110061   5.773   1.501   2.991
 3054SOL    HW210062   5.638   1.566   2.927
 3055SOL     OW10063   6.162   5.742   6.586
 3055SOL    HW110064   6.245   5.729   6.532
 3055SOL    HW210065   6.116   5.826   6.557
 3056SOL     OW10066   5.095   1.528   6.145
 3056SOL    HW110067   5.158   1.462   6.186
 3056SOL    HW210068   5.110   1.618   6.185
 3057SOL     OW10069   6.450   5.652   3.228
 3057SOL    HW110070   6.464   5.697   3.316
 3057SOL    HW210071   6.401   5.566   3.241
 3058SOL     OW10072   6.266   4.587   6.995
 3058SOL    HW110073   6.321   4.645   0.032
 3058SOL    HW210074   6.310   4.498   6.985
 3059SOL     OW10075   2.552   2.403   4.562
 3059SOL    HW110076   2.516   2.491   4.531
 3059SOL    HW210077   2.478   2.350   4.603
 3060SOL     OW10078   4.521   5.236   5.554
 3060SOL    HW110079   4.441   5.182   5.580
 3060SOL    HW210080   4.509   5.273   5.462
 3061SOL     OW10081   5.176   4.792   5.314
 3061SOL    HW110082   5.181   4.712   5.254
 3061SOL    HW210083   5.167   4.874   5.257
 3062SOL     OW10084   4.647   4.027   1.739
 3062SOL    HW110085   4.697   4.071   1.814
 3062SOL    HW210086   4.594   4.096   1.689
 3063SOL     OW10087   6.854   4.517   1.364
 3063SOL    HW110088   6.827   4.447   1.431
 3063SOL    HW210089   6.778   4.533   1.301
 3064SOL     OW10090   4.045   1.836   6.817
 3064SOL    HW110091   3.980   1.868   6.747
 3064SOL    HW210092   4.027   1.884   6.903
 3065SOL     OW10093   1.014   0.789   6.825
 3065SOL    HW110094   1.019   0.789   6.725
 3065SOL    HW210095   0.966   0.708   6.856
 3066SOL     OW10096   5.470   6.312   6.338
 3066SOL    HW110097   5.405   6.275   6.272
 3066SOL    HW210098   5.560   6.273   6.321
 3067SOL     OW10099   2.656   2.464   6.908
 3067SOL    HW110100   2.720   2.473   6.984
 3067SOL    HW210101   2.695   2.508   6.827
 3068SOL     OW10102   0.641   0.719   1.037
 3068SOL    HW110103   0.690   0.768   0.965
 3068SOL    HW210104   0.700   0.709   1.117
 3069SOL     OW10105   5.152   0.223   2.553
 3069SOL    HW110106   5.193   0.171   2.478
 3069SOL    HW210107   5.203   0.307   2.567
 3070SOL     OW10108   2.915   1.479   1.114
 3070SOL    HW110109   2.868   1.561   1.145
 3070SOL    HW210110   2.852   1.402   1.113
 3071SOL     OW10111   0.221   3.071   3.427
 3071SOL    HW110112   0.204   3.016   3.509
 3071SOL    HW210113   0.135   3.091   3.381
 3072SOL     OW10114   2.582   6.605   6.585
 3072SOL    HW110115   2.524   6.639   6.511
 3072SOL    HW210116   2.556   6.649   6.671
 3073SOL     OW10117   6.127   4.810   0.591
 3073SOL    HW110118   6.054   4.865   0.630
 3073SOL    HW210119   6.148   4.734   0.653
 3074SOL     OW10120   2.051   3.792   1.442
 3074SOL    HW110121   2.056   3.872   1.383
 3074SOL    HW210122   1.980   3.730   1.408
 3075SOL     OW10123   2.039   5.138   3.252
 3075SOL    HW110124   2.031   5.214   3.316
 3075SOL    HW210125   2.103   5.162   3.179
 3076SOL     OW10126   6.979   0.523   4.735
 3076SOL    HW110127   6.976   0.510   4.636
 3076SOL    HW210128   6.886   0.521   4.772
 3077SOL     OW10129   6.532   4.106   1.902
 3077SOL    HW110130   6.520   4.161   1.820
 3077SOL    HW210131   6.592   4.153   1.966
 3078SOL     OW10132   6.478   2.670   1.536
 3078SOL    HW110133   6.424   2.635   1.459
 3078SOL    HW210134   6.424   2.665   1.620
 3079SOL     OW10135   2.181   3.074   5.240
 3079SOL    HW110136   2.200   3.156   5.295
 3079SOL    HW210137   2.249   3.066   5.167
 3080SOL     OW10138   4.454   5.119   1.045
 3080SOL    HW110139   4.510   5.037   1.038
 3080SOL    HW210140   4.418   5.128   1.138
 3081SOL     OW10141   1.639   3.838   0.384
 3081SOL    HW110142   1.556   3.883   0.418
 3081SOL    HW210143   1.613   3.757   0.331
 3082SOL     OW10144   3.924   4.999   4.878
 3082SOL    HW110145   3.982   4.928   4.838
 3082SOL    HW210146   3.968   5.036   4.960
 3083SOL     OW10147   2.367   5.632   2.531
 3083SOL    HW110148   2.400   5.721   2.562
 3083SOL    HW210149   2.384   5.564   2.602
 3084SOL     OW10150   0.919   3.538   3.771
 3084SOL    HW110151   0.933   3.548   3.673
 3084SOL    HW210152   0.938   3.626   3.816
 3085SOL     OW10153   4.681   4.756   0.797
 3085SOL    HW110154   4.615   4.774   0.724
 3085SOL    HW210155   4.758   4.705   0.761
 3086SOL     OW10156   6.249   1.245   6.488
 3086SOL    HW110157   6.326   1.309   6.482
 3086SOL    HW210158   6.170   1.290   6.529
 3087SOL     OW10159   2.980   6.665   1.853
 3087SOL    HW110160   3.031   6.661   1.767
 3087SOL    HW210161   2.889   6.703   1.836
 3088SOL     OW10162   0.950   2.815   5.176
 3088SOL    HW110163   0.889   2.887   5.210
 3088SOL    HW210164   0.943   2.809   5.077
 3089SOL     OW10165   5.075   6.961   5.088
 3089SOL    HW110166   5.104   6.867   5.107
 3089SOL    HW210167   5.076   6.977   4.990
 3090SOL     OW10168   1.016   2.243   1.686
 3090SOL    HW110169   0.960   2.297   1.624
 3090SOL    HW210170   0.958   2.180   1.737
 3091SOL     OW10171   1.420   1.882   0.455
 3091SOL    HW110172   1.462   1.870   0.365
 3091SOL    HW210173   1.325   1.854   0.451
 3092SOL     OW10174   6.497   6.968   2.618
 3092SOL    HW110175   6.443   0.002   2.681
 3092SOL    HW210176   6.563   6.913   2.670
 3093SOL     OW10177   5.544   5.365   6.394
 3093SOL    HW110178   5.567   5.272   6.368
 3093SOL    HW210179   5.628   5.416   6.416
 3094SOL     OW10180   2.705   1.441   5.863
 3094SOL    HW110181   2.648   1.392   5.798
 3094SOL    HW210182   2.672   1.535   5.873
 3095SOL     OW10183   2.036   3.402   5.088
 3095SOL    HW110184   2.079   3.391   5.177
 3095SOL    HW210185   2.069   3.332   5.026
 3096SOL     OW10186   0.811   3.433   4.435
 3096SOL    HW110187   0.780   3.374   4.360
 3096SOL    HW210188   0.735   3.447   4.498
 3097SOL     OW10189   5.349   2.986   6.705
 3097SOL    HW110190   5.285   3.017   6.776
 3097SOL    HW210191   5.371   2.890   6.721
 3098SOL     OW10192   1.789   1.855   1.980
 3098SOL    HW110193   1.751   1.827   2.068
 3098SOL    HW210194   1.881   1.890   1.993
 3099SOL     OW10195   0.562   6.083   3.837
 3099SOL    HW110196   0.541   6.151   3.767
 3099SOL    HW210197   0.530   5.993   3.807
 3100SOL     OW10198   6.463   5.850   2.260
 3100SOL    HW110199   6.461   5.906   2.342
 3100SOL    HW210200   6.371   5.820   2.237
 3101SOL     OW10201   4.166   6.621   5.954
 3101SOL    HW110202   4.166   6.607   5.855
 3101SOL    HW210203   4.073   6.639   5.985
 3102SOL     OW10204   0.455   4.821   0.728
 3102SOL    HW110205   0.488   4.803   0.821
 3102SOL    HW210206   0.364   4.862   0.732
 3103SOL     OW10207   3.256   0.313   1.135
 3103SOL    HW110208   3.339   0.359   1.100
 3103SOL    HW210209   3.187   0.382   1.157
 3104SOL     OW10210   4.570   0.466   6.188
 3104SOL    HW110211   4.597   0.428   6.100
 3104SOL    HW210212   4.618   0.552   6.204
 3105SOL     OW10213   5.206   3.317   0.340
 3105SOL    HW110214   5.166   3.329   0.249
 3105SOL    HW210215   5.199   3.403   0.391
 3106SOL     OW10216   6.064   0.828   4.900
 3106SOL    HW110217   6.114   0.914   4.906
 3106SOL    HW210218   6.048   0.793   4.993
 3107SOL     OW10219   4.046   0.980   5.376
 3107SOL    HW110220   4.073   1.001   5.470
 3107SOL    HW210221   4.040   1.064   5.323
 3108SOL     OW10222   1.977   4.055   4.377
 3108SOL    HW110223   2.068   4.016   4.363
 3108SOL    HW210224   1.984   4.133   4.440
 3109SOL     OW10225   6.547   6.619   3.727
 3109SOL    HW110226   6.555   6.676   3.809
 3109SOL    HW210227   6.632   6.624   3.675
 3110SOL     OW10228   1.951   4.592   3.821
 3110SOL    HW110229   1.889   4.667   3.798
 3110SOL    HW210230   1.910   4.505   3.790
 3111SOL     OW10231   6.357   4.445   4.835
 3111SOL    HW110232   6.331   4.445   4.932
 3111SOL    HW210233   6.398   4.533   4.812
 3112SOL     OW10234   3.414   2.182   0.091
 3112SOL    HW110235   3.378   2.213   0.178
 3112SOL    HW210236   3.476   2.252   0.054
 3113SOL     OW10237   1.748   5.518   3.406
 3113SOL    HW110238   1.695   5.552   3.483
 3113SOL    HW210239   1.693   5.454   3.353
 3114SOL     OW10240   4.062   1.375   0.060
 3114SOL    HW110241   4.008   1.291   0.053
 3114SOL    HW210242   4.053   1.427   6.997
 3115SOL     OW10243   4.299   4.735   5.669
 3115SOL    HW110244   4.222   4.766   5.726
 3115SOL    HW210245   4.336   4.650   5.707
 3116SOL     OW10246   0.516   2.276   0.605
 3116SOL    HW110247   0.443   2.337   0.574
 3116SOL    HW210248   0.493   2.182   0.581
 3117SOL     OW10249   5.054   1.916   5.544
 3117SOL    HW110250   5.108   1.958   5.617
 3117SOL    HW210251   5.068   1.966   5.459
 3118SOL     OW10252   1.922   1.191   2.699
 3118SOL    HW110253   1.931   1.132   2.779
 3118SOL    HW210254   1.949   1.284   2.723
 3119SOL     OW10255   3.932   3.513   6.033
 3119SOL    HW110256   3.973   3.602   6.015
 3119SOL    HW210257   3.936   3.456   5.951
 3120SOL     OW10258   2.603   7.021   5.214
 3120SOL    HW110259   2.644   7.007   5.124
 3120SOL    HW210260   2.510   0.032   5.204
 3121SOL     OW10261   5.233   1.614   4.491
 3121SOL    HW110262   5.270   1.634   4.582
 3121SOL    HW210263   5.304   1.572   4.435
 3122SOL     OW10264   4.241   5.267   4.520
 3122SOL    HW110265   4.213   5.363   4.512
 3122SOL    HW210266   4.295   5.241   4.440
 3123SOL     OW10267   2.502   1.993   3.363
 3123SOL    HW110268   2.574   2.008   3.431
 3123SOL    HW210269   2.413   2.000   3.407
 3124SOL     OW10270   5.324   6.795   4.112
 3124SOL    HW110271   5.320   6.776   4.014
 3124SOL    HW210272   5.268   6.875   4.133
 3125SOL     OW10273   1.546   2.597   4.763
 3125SOL    HW110274   1.475   2.644   4.712
 3125SOL    HW210275   1.624   2.659   4.776
 3126SOL     OW10276   5.291   5.294   4.327
 3126SOL    HW110277   5.304   5.382   4.281
 3126SOL    HW210278   5.313   5.220   4.264
 3127SOL     OW10279   0.492   1.949   4.090
 3127SOL    HW110280   0.456   2.032   4.047
 3127SOL    HW210281   0.494   1.875   4.022
 3128SOL     OW10282   4.626   0.183   0.033
 3128SOL    HW110283   4.563   0.261   0.036
 3128SOL    HW210284   4.714   0.213   7.018
 3129SOL     OW10285   4.558   3.633   0.902
 3129SOL    HW110286   4.604   3.544   0.901
 3129SOL    HW210287   4.551   3.665   0.997
 3130SOL     OW10288   1.441   4.522   1.495
 3130SOL    HW110289   1.492   4.588   1.440
 3130SOL    HW210290   1.448   4.431   1.453
 3131SOL     OW10291   6.736   4.138   2.338
 3131SOL    HW110292   6.812   4.077   2.361
 3131SOL    HW210293   6.742   4.163   2.241
 3132SOL     OW10294   3.968   4.294   6.965
 3132SOL    HW110295   4.032   4.369   6.954
 3132SOL    HW210296   4.014   4.207   6.943
 3133SOL     OW10297   4.325   0.589   3.454
 3133SOL    HW110298   4.232   0.611   3.426
 3133SOL    HW210299   4.339   0.490   3.451
 3134SOL     OW10300   3.561   5.215   2.594
 3134SOL    HW110301   3.647   5.205   2.544
 3134SOL    HW210302   3.559   5.152   2.671
 3135SOL     OW10303   5.404   6.531   6.166
 3135SOL    HW110304   5.305   6.529   6.183
 3135SOL    HW210305   5.451   6.481   6.238
 3136SOL     OW10306   6.021   1.291   2.574
 3136SOL    HW110307   6.071   1.207   2.551
 3136SOL    HW210308   5.923   1.273   2.572
 3137SOL     OW10309   6.521   6.940   0.280
 3137SOL    HW110310   6.450   6.910   0.344
 3137SOL    HW210311   6.554   6.861   0.228
 3138SOL     OW10312   5.336   5.090   4.152
 3138SOL    HW110313   5.430   5.061   4.171
 3138SOL    HW210314   5.328   5.113   4.055
 3139SOL     OW10315   2.542   5.709   1.049
 3139SOL    HW110316   2.551   5.806   1.073
 3139SOL    HW210317   2.447   5.688   1.028
 3140SOL     OW10318   6.656   6.510   5.966
 3140SOL    HW110319   6.730   6.568   6.000
 3140SOL    HW210320   6.625   6.543   5.877
 3141SOL     OW10321   6.992   2.704   6.706
 3141SOL    HW110322   6.963   2.785   6.655
 3141SOL    HW210323   6.914   2.642   6.717
 3142SOL     OW10324   5.423   0.833   2.185
 3142SOL    HW110325   5.374   0.920   2.178
 3142SOL    HW210326   5.516   0.850   2.219
 3143SOL     OW10327   6.072   1.211   0.057
 3143SOL    HW110328   6.165   1.195   0.091
 3143SOL    HW210329   6.036   1.295   0.097
 3144SOL     OW10330   4.279   4.165   6.589
 3144SOL    HW110331   4.217   4.090   6.567
 3144SOL    HW210332   4.370   4.145   6.551
 3145SOL     OW10333   1.808   6.013   1.492
 3145SOL    HW110334   1.822   5.961   1.407
 3145SOL    HW210335   1.713   6.044   1.496
 3146SOL     OW10336   0.770   0.811   5.398
 3146SOL    HW110337   0.716   0.852   5.470
 3146SOL    HW210338   0.750   0.857   5.311
 3147SOL     OW10339   4.102   4.964   6.626
 3147SOL    HW110340   4.035   5.038   6.631
 3147SOL    HW210341   4.139   4.947   6.717
 3148SOL     OW10342   0.518   5.383   2.697
 3148SOL    HW110343   0.485   5.379   2.792
 3148SOL    HW210344   0.599   5.326   2.687
 3149SOL     OW10345   2.994   1.421   0.859
 3149SOL    HW110346   3.091   1.401   0.875
 3149SOL    HW210347   2.951   1.442   0.947
 3150SOL     OW10348   6.625   6.417   4.989
 3150SOL    HW110349   6.562   6.436   5.065
 3150SOL    HW210350   6.589   6.460   4.906
 3151SOL     OW10351   5.679   2.154   6.216
 3151SOL    HW110352   5.668   2.149   6.117
 3151SOL    HW210353   5.694   2.249   6.243
 3152SOL     OW10354   1.446   3.358   6.334
 3152SOL    HW110355   1.421   3.275   6.383
 3152SOL    HW210356   1.516   3.336   6.266
 3153SOL     OW10357   6.632   5.452   0.751
 3153SOL    HW110358   6.584   5.540   0.750
 3153SOL    HW210359   6.568   5.380   0.780
 3154SOL     OW10360   5.829   1.590   1.492
 3154SOL    HW110361   5.806   1.666   1.432
 3154SOL    HW210362   5.815   1.504   1.444
 3155SOL     OW10363   0.009   4.762   0.310
 3155SOL    HW110364   0.093   4.815   0.319
 3155SOL    HW210365   6.962   4.817   0.262
 3156SOL     OW10366   3.628   4.173   2.097
 3156SOL    HW110367   3.701   4.139   2.157
 3156SOL    HW210368   3.642   4.270   2.079
 3157SOL     OW10369   0.694   1.801   5.463
 3157SOL    HW110370   0.666   1.707   5.483
 3157SOL    HW210371   0.647   1.863   5.526
 3158SOL     OW10372   3.229   1.337   5.604
 3158SOL    HW110373   3.249   1.271   5.677
 3158SOL    HW210374   3.161   1.299   5.542
 3159SOL     OW10375   5.279   6.842   0.294
 3159SOL    HW110376   5.342   6.849   0.217
 3159SOL    HW210377   5.288   6.753   0.337
 3160SOL     OW10378   2.443   6.898   5.986
 3160SOL    HW110379   2.536   6.932   5.999
 3160SOL    HW210380   2.381   6.946   6.048
 3161SOL     OW10381   1.804   2.759   3.055
 3161SOL    HW110382   1.721   2.704   3.056
 3161SOL    HW210383   1.787   2.846   3.009
 3162SOL     OW10384   1.797   5.881   0.600
 3162SOL    HW110385   1.758   5.789   0.588
 3162SOL    HW210386   1.755   5.944   0.535
 3163SOL     OW10387   4.624   3.756   0.289
 3163SOL    HW110388   4.553   3.702   0.334
 3163SOL    HW210389   4.617   3.851   0.319
 3164SOL     OW10390   2.764   5.354   3.483
 3164SOL    HW110391   2.828   5.428   3.460
 3164SOL    HW210392   2.815   5.277   3.523
 3165SOL     OW10393   0.879   5.221   0.022
 3165SOL    HW110394   0.798   5.187   6.996
 3165SOL    HW210395   0.924   5.145   0.068
 3166SOL     OW10396   4.178   0.866   5.038
 3166SOL    HW110397   4.250   0.819   5.089
 3166SOL    HW210398   4.089   0.834   5.071
 3167SOL     OW10399   4.532   4.204   0.715
 3167SOL    HW110400   4.553   4.112   0.747
 3167SOL    HW210401   4.537   4.268   0.792
 3168SOL     OW10402   4.507   2.194   0.727
 3168SOL    HW110403   4.471   2.213   0.636
 3168SOL    HW210404   4.450   2.241   0.796
 3169SOL     OW10405   1.060   4.911   2.314
 3169SOL    HW110406   1.138   4.943   2.367
 3169SOL    HW210407   1.093   4.856   2.237
 3170SOL     OW10408   3.943   5.684   2.967
 3170SOL    HW110409   3.932   5.713   2.871
 3170SOL    HW210410   3.995   5.753   3.017
 3171SOL     OW10411   5.535   2.694   2.995
 3171SOL    HW110412   5.502   2.600   2.999
 3171SOL    HW210413   5.603   2.703   2.922
 3172SOL     OW10414   0.059   5.047   0.249
 3172SOL    HW110415   7.004   5.068   0.310
 3172SOL    HW210416   0.121   5.125   0.245
 3173SOL     OW10417   3.628   1.097   0.033
 3173SOL    HW110418   3.544   1.150   0.038
 3173SOL    HW210419   3.680   1.109   0.118
 3174SOL     OW10420   2.418   3.710   5.819
 3174SOL    HW110421   2.435   3.641   5.748
 3174SOL    HW210422   2.331   3.690   5.864
 3175SOL     OW10423   6.493   1.237   3.431
 3175SOL    HW110424   6.427   1.168   3.462
 3175SOL    HW210425   6.576   1.231   3.486
 3176SOL     OW10426   0.525   4.185   4.948
 3176SOL    HW110427   0.478   4.218   5.029
 3176SOL    HW210428   0.611   4.142   4.974
 3177SOL     OW10429   5.795   3.689   3.416
 3177SOL    HW110430   5.696   3.679   3.432
 3177SOL    HW210431   5.826   3.774   3.459
 3178SOL     OW10432   6.192   1.205   0.422
 3178SOL    HW110433   6.154   1.113   0.408
 3178SOL    HW210434   6.231   1.238   0.336
 3179SOL     OW10435   0.794   1.795   2.099
 3179SOL    HW110436   0.807   1.849   2.182
 3179SOL    HW210437   0.838   1.706   2.110
 3180SOL     OW10438   6.564   6.044   6.603
 3180SOL    HW110439   6.552   6.063   6.700
 3180SOL    HW210440   6.520   6.115   6.548
 3181SOL     OW10441   0.760   1.475   4.696
 3181SOL    HW110442   0.687   1.463   4.763
 3181SOL    HW210443   0.739   1.555   4.639
 3182SOL     OW10444   2.715   0.359   0.158
 3182SOL    HW110445   2.772   0.304   0.219
 3182SOL    HW210446   2.772   0.403   0.090
 3183SOL     OW10447   4.623   4.471   2.192
 3183SOL    HW110448   4.723   4.469   2.191
 3183SOL    HW210449   4.587   4.403   2.128
 3184SOL     OW10450   0.759   2.173   4.149
 3184SOL    HW110451   0.734   2.269   4.158
 3184SOL    HW210452   0.840   2.165   4.091
 3185SOL     OW10453   0.034   6.522   6.092
 3185SOL    HW110454   7.014   6.498   6.005
 3185SOL    HW210455   0.122   6.566   6.076
 3186SOL     OW10456   1.184   1.251   6.324
 3186SOL    HW110457   1.175   1.246   6.225
 3186SOL    HW210458   1.276   1.221   6.351
 3187SOL     OW10459   4.086   6.122   2.534
 3187SOL    HW110460   4.170   6.151   2.580
 3187SOL    HW210461   4.074   6.023   2.546
 3188SOL     OW10462   2.336   4.685   5.614
 3188SOL    HW110463   2.327   4.635   5.528
 3188SOL    HW210464   2.262   4.752   5.622
 3189SOL     OW10465   2.595   1.425   0.148
 3189SOL    HW110466   2.530   1.354   0.175
 3189SOL    HW210467   2.617   1.415   0.050
 3190SOL     OW10468   6.647   6.142   4.922
 3190SOL    HW110469   6.619   6.238   4.921
 3190SOL    HW210470   6.716   6.129   4.993
 3191SOL     OW10471   4.958   5.652   2.200
 3191SOL    HW110472   4.979   5.571   2.145
 3191SOL    HW210473   5.043   5.691   2.235
 3192SOL     OW10474   6.631   2.200   1.310
 3192SOL    HW110475   6.576   2.133   1.259
 3192SOL    HW210476   6.611   2.191   1.408
 3193SOL     OW10477   4.627   0.971   5.236
 3193SOL    HW110478   4.580   1.045   5.189
 3193SOL    HW210479   4.577   0.946   5.319
 3194SOL     OW10480   1.368   1.095   5.436
 3194SOL    HW110481   1.435   1.166   5.415
 3194SOL    HW210482   1.373   1.023   5.367
 3195SOL     OW10483   0.139   1.051   1.895
 3195SOL    HW110484   0.143   1.108   1.977
 3195SOL    HW210485   0.218   0.989   1.894
 3196SOL     OW10486   6.819   0.593   5.386
 3196SOL    HW110487   6.889   0.523   5.377
 3196SOL    HW210488   6.793   0.626   5.296
 3197SOL     OW10489   2.272   0.077   6.120
 3197SOL    HW110490   2.202   0.126   6.070
 3197SOL    HW210491   2.320   0.140   6.181
 3198SOL     OW10492   6.710   2.579   3.774
 3198SOL    HW110493   6.720   2.524   3.691
 3198SOL    HW210494   6.760   2.665   3.763
 3199SOL     OW10495   5.649   4.534   3.023
 3199SOL    HW110496   5.611   4.627   3.020
 3199SOL    HW210497   5.721   4.531   3.093
 3200SOL     OW10498   6.048   3.312   3.966
 3200SOL    HW110499   5.968   3.278   3.917
 3200SOL    HW210500   6.109   3.236   3.988
 3201SOL     OW10501   6.149   4.366   2.635
 3201SOL    HW110502   6.114   4.285   2.682
 3201SOL    HW210503   6.108   4.448   2.674
 3202SOL     OW10504   1.013   4.944   0.381
 3202SOL    HW110505   1.096   4.971   0.332
 3202SOL    HW210506   1.039   4.901   0.468
 3203SOL     OW10507   4.473   7.000   1.737
 3203SOL    HW110508   4.496   0.060   1.789
 3203SOL    HW210509   4.391   7.018   1.682
 3204SOL     OW10510   2.720   1.259   3.764
 3204SOL    HW110511   2.757   1.197   3.694
 3204SOL    HW210512   2.621   1.266   3.753
 3205SOL     OW10513   5.768   3.397   5.649
 3205SOL    HW110514   5.702   3.323   5.631
 3205SOL    HW210515   5.770   3.417   5.747
 3206SOL     OW10516   2.562   2.862   1.709
 3206SOL    HW110517   2.535   2.918   1.631
 3206SOL    HW210518   2.480   2.831   1.757
 3207SOL     OW10519   0.765   0.512   5.656
 3207SOL    HW110520   0.688   0.460   5.618
 3207SOL    HW210521   0.730   0.589   5.710
 3208SOL     OW10522   6.108   5.919   5.272
 3208SOL    HW110523   6.145   5.845   5.328
 3208SOL    HW210524   6.151   5.916   5.181
 3209SOL     OW10525   4.706   5.476   5.985
 3209SOL    HW110526   4.672   5.385   5.961
 3209SOL    HW210527   4.722   5.481   6.083
 3210SOL     OW10528   0.361   5.239   1.435
 3210SOL    HW110529   0.455   5.220   1.465
 3210SOL    HW210530   0.359   5.328   1.388
 3211SOL     OW10531   1.511   5.776   0.671
 3211SOL    HW110532   1.474   5.728   0.750
 3211SOL    HW210533   1.552   5.709   0.608
 3212SOL     OW10534   3.227   7.020   2.532
 3212SOL    HW110535   3.148   7.016   2.592
 3212SOL    HW210536   3.301   6.965   2.570
 3213SOL     OW10537   2.293   0.676   6.232
 3213SOL    HW110538   2.226   0.746   6.256
 3213SOL    HW210539   2.296   0.606   6.304
 3214SOL     OW10540   3.893   0.311   3.258
 3214SOL    HW110541   3.829   0.280   3.187
 3214SOL    HW210542   3.849   0.380   3.315
 3215SOL     OW10543   1.014   3.443   0.340
 3215SOL    HW110544   0.973   3.516   0.286
 3215SOL    HW210545   1.061   3.482   0.420
 3216SOL     OW10546   5.192   4.538   1.148
 3216SOL    HW110547   5.107   4.485   1.160
 3216SOL    HW210548   5.266   4.475   1.124
 3217SOL     OW10549   6.924   4.768   2.944
 3217SOL    HW110550   6.966   4.859   2.951
 3217SOL    HW210551   6.830   4.773   2.977
 3218SOL     OW10552   6.501   1.970   3.095
 3218SOL    HW110553   6.478   1.977   3.192
 3218SOL    HW210554   6.502   1.874   3.068
 3219SOL     OW10555   6.955   0.821   4.963
 3219SOL    HW110556   6.887   0.751   4.985
 3219SOL    HW210557   6.919   0.880   4.891
 3220SOL     OW10558   6.881   5.723   6.772
 3220SOL    HW110559   6.917   5.795   6.713
 3220SOL    HW210560   6.911   5.738   6.866
 3221SOL     OW10561   4.009   0.496   2.227
 3221SOL    HW110562   4.103   0.467   2.210
 3221SOL    HW210563   3.984   0.474   2.322
 3222SOL     OW10564   3.019   1.521   3.091
 3222SOL    HW110565   3.072   1.597   3.128
 3222SOL    HW210566   3.079   1.442   3.078
 3223SOL     OW10567   1.937   6.822   0.700
 3223SOL    HW110568   1.898   6.812   0.792
 3223SOL    HW210569   1.937   6.919   0.674
 3224SOL     OW10570   4.666   2.689   5.126
 3224SOL    HW110571   4.667   2.773   5.180
 3224SOL    HW210572   4.760   2.662   5.103
 3225SOL     OW10573   4.062   1.096   3.885
 3225SOL    HW110574   3.999   1.173   3.889
 3225SOL    HW210575   4.092   1.083   3.790
 3226SOL     OW10576   1.147   0.084   1.913
 3226SOL    HW110577   1.103   0.173   1.926
 3226SOL    HW210578   1.128   0.050   1.821
 3227SOL     OW10579   4.147   2.269   6.448
 3227SOL    HW110580   4.154   2.184   6.395
 3227SOL    HW210581   4.136   2.346   6.385
 3228SOL     OW10582   0.812   3.964   0.627
 3228SOL    HW110583   0.843   3.876   0.661
 3228SOL    HW210584   0.748   3.950   0.551
 3229SOL     OW10585   2.700   0.766   6.023
 3229SOL    HW110586   2.658   0.688   5.977
 3229SOL    HW210587   2.655   0.851   5.993
 3230SOL     OW10588   2.820   5.447   5.725
 3230SOL    HW110589   2.861   5.454   5.816
 3230SOL    HW210590   2.877   5.389   5.667
 3231SOL     OW10591   3.536   0.793   2.833
 3231SOL    HW110592   3.597   0.785   2.754
 3231SOL    HW210593   3.537   0.887   2.866
 3232SOL     OW10594   4.296   5.759   4.095
 3232SOL    HW110595   4.208   5.735   4.053
 3232SOL    HW210596   4.292   5.740   4.193
 3233SOL     OW10597   0.435   2.292   6.844
 3233SOL    HW110598   0.352   2.240   6.821
 3233SOL    HW210599   0.440   2.305   6.943
 3234SOL     OW10600   1.859   3.218   0.822
 3234SOL    HW110601   1.903   3.194   0.908
 3234SOL    HW210602   1.907   3.296   0.781
 3235SOL     OW10603   6.631   5.614   1.992
 3235SOL    HW110604   6.694   5.546   2.031
 3235SOL    HW210605   6.537   5.585   2.009
 3236SOL     OW10606   2.569   4.297   0.542
 3236SOL    HW110607   2.552   4.278   0.445
 3236SOL    HW210608   2.585   4.211   0.590
 3237SOL     OW10609   6.480   1.427   4.361
 3237SOL    HW110610   6.478   1.366   4.283
 3237SOL    HW210611   6.489   1.374   4.445
 3238SOL     OW10612   5.981   5.067   0.436
 3238SOL    HW110613   6.056   5.093   0.376
 3238SOL    HW210614   5.966   5.138   0.505
 3239SOL     OW10615   0.179   0.341   3.899
 3239SOL    HW110616   0.173   0.393   3.985
 3239SOL    HW210617   0.270   0.300   3.891
 3240SOL     OW10618   0.208   0.374   6.453
 3240SOL    HW110619   0.151   0.301   6.415
 3240SOL    HW210620   0.272   0.406   6.383
 3241SOL     OW10621   4.779   1.574   6.057
 3241SOL    HW110622   4.679   1.570   6.056
 3241SOL    HW210623   4.817   1.482   6.046
 3242SOL     OW10624   4.992   4.184   5.753
 3242SOL    HW110625   5.084   4.215   5.728
 3242SOL    HW210626   4.955   4.243   5.824
 3243SOL     OW10627   4.112   5.479   6.283
 3243SOL    HW110628   4.088   5.437   6.195
 3243SOL    HW210629   4.051   5.556   6.300
 3244SOL     OW10630   6.022   6.223   6.841
 3244SOL    HW110631   6.001   6.320   6.837
 3244SOL    HW210632   6.105   6.204   6.789
 3245SOL     OW10633   4.502   2.156   4.163
 3245SOL    HW110634   4.572   2.201   4.108
 3245SOL    HW210635   4.539   2.134   4.253
 3246SOL     OW10636   0.187   6.880   2.255
 3246SOL    HW110637   0.130   6.809   2.294
 3246SOL    HW210638   0.161   6.895   2.159
 3247SOL     OW10639   0.167   4.177   2.870
 3247SOL    HW110640   0.136   4.196   2.777
 3247SOL    HW210641   0.088   4.175   2.932
 3248SOL     OW10642   5.410   2.463   3.003
 3248SOL    HW110643   5.426   2.370   3.038
 3248SOL    HW210644   5.315   2.489   3.020
 3249SOL     OW10645   3.915   3.271   3.669
 3249SOL    HW110646   3.889   3.296   3.763
 3249SOL    HW210647   3.929   3.172   3.663
 3250SOL     OW10648   5.152   5.980   3.060
 3250SOL    HW110649   5.087   5.910   3.089
 3250SOL    HW210650   5.106   6.069   3.054
 3251SOL     OW10651   2.470   0.626   4.601
 3251SOL    HW110652   2.407   0.551   4.580
 3251SOL    HW210653   2.420   0.701   4.645
 3252SOL     OW10654   2.771   1.202   3.490
 3252SOL    HW110655   2.800   1.263   3.415
 3252SOL    HW210656   2.851   1.154   3.526
 3253SOL     OW10657   5.800   3.372   1.015
 3253SOL    HW110658   5.830   3.420   0.933
 3253SOL    HW210659   5.846   3.410   1.095
 3254SOL     OW10660   5.129   0.547   0.288
 3254SOL    HW110661   5.194   0.606   0.238
 3254SOL    HW210662   5.135   0.454   0.252
 3255SOL     OW10663   5.631   5.508   0.856
 3255SOL    HW110664   5.666   5.568   0.785
 3255SOL    HW210665   5.614   5.417   0.818
 3256SOL     OW10666   4.401   2.241   1.415
 3256SOL    HW110667   4.396   2.264   1.318
 3256SOL    HW210668   4.495   2.213   1.438
 3257SOL     OW10669   3.078   2.171   2.312
 3257SOL    HW110670   3.044   2.079   2.331
 3257SOL    HW210671   3.037   2.205   2.227
 3258SOL     OW10672   3.730   5.437   3.588
 3258SOL    HW110673   3.780   5.382   3.656
 3258SOL    HW210674   3.754   5.406   3.496
 3259SOL     OW10675   5.605   4.985   4.237
 3259SOL    HW110676   5.612   4.933   4.322
 3259SOL    HW210677   5.628   4.925   4.160
 3260SOL     OW10678   1.533   4.396   2.223
 3260SOL    HW110679   1.625   4.409   2.185
 3260SOL    HW210680   1.480   4.338   2.161
 3261SOL     OW10681   5.664   0.833   2.877
 3261SOL    HW110682   5.694   0.756   2.821
 3261SOL    HW210683   5.740   0.867   2.931
 3262SOL     OW10684   4.008   2.069   2.503
 3262SOL    HW110685   4.090   2.086   2.558
 3262SOL    HW210686   3.937   2.135   2.527
 3263SOL     OW10687   2.723   0.950   3.312
 3263SOL    HW110688   2.685   1.035   3.349
 3263SOL    HW210689   2.695   0.940   3.216
 3264SOL     OW10690   1.833   5.009   0.345
 3264SOL    HW110691   1.848   4.949   0.267
 3264SOL    HW210692   1.745   5.056   0.335
 3265SOL     OW10693   6.386   6.247   5.745
 3265SOL    HW110694   6.398   6.193   5.828
 3265SOL    HW210695   6.464   6.232   5.684
 3266SOL     OW10696   2.909   4.328   0.342
 3266SOL    HW110697   2.906   4.376   0.430
 3266SOL    HW210698   2.843   4.370   0.279
 3267SOL     OW10699   4.069   0.828   1.594
 3267SOL    HW110700   4.167   0.843   1.581
 3267SOL    HW210701   4.021   0.916   1.593
 3268SOL     OW10702   1.020   4.922   1.396
 3268SOL    HW110703   0.964   5.006   1.401
 3268SOL    HW210704   1.103   4.933   1.450
 3269SOL     OW10705   0.312   5.484   2.078
 3269SOL    HW110706   0.296   5.433   2.163
 3269SOL    HW210707   0.333   5.579   2.101
 3270SOL     OW10708   0.864   2.954   5.782
 3270SOL    HW110709   0.776   2.917   5.810
 3270SOL    HW210710   0.874   2.946   5.683
 3271SOL     OW10711   6.933   3.420   1.703
 3271SOL    HW110712   6.874   3.452   1.777
 3271SOL    HW210713   6.998   3.492   1.678
 3272SOL     OW10714   4.223   5.845   0.075
 3272SOL    HW110715   4.144   5.902   0.099
 3272SOL    HW210716   4.307   5.888   0.106
 3273SOL     OW10717   4.832   3.725   6.276
 3273SOL    HW110718   4.810   3.627   6.270
 3273SOL    HW210719   4.850   3.761   6.184
 3274SOL     OW10720   6.275   1.031   6.705
 3274SOL    HW110721   6.344   1.080   6.650
 3274SOL    HW210722   6.292   0.933   6.698
 3275SOL     OW10723   4.602   0.589   1.055
 3275SOL    HW110724   4.523   0.650   1.056
 3275SOL    HW210725   4.648   0.595   0.967
 3276SOL     OW10726   4.787   6.487   0.205
 3276SOL    HW110727   4.699   6.440   0.206
 3276SOL    HW210728   4.776   6.579   0.242
 3277SOL     OW10729   3.023   1.465   1.737
 3277SOL    HW110730   2.960   1.394   1.770
 3277SOL    HW210731   3.023   1.542   1.801
 3278SOL     OW10732   0.008   0.596   6.571
 3278SOL    HW110733   0.079   0.639   6.625
 3278SOL    HW210734   0.025   0.497   6.566
 3279SOL     OW10735   4.351   6.521   1.443
 3279SOL    HW110736   4.363   6.619   1.458
 3279SOL    HW210737   4.254   6.498   1.451
 3280SOL     OW10738   5.564   3.642   4.185
 3280SOL    HW110739   5.583   3.573   4.115
 3280SOL    HW210740   5.612   3.618   4.270
 3281SOL     OW10741   6.844   4.777   1.560
 3281SOL    HW110742   6.912   4.816   1.622
 3281SOL    HW210743   6.805   4.695   1.601
 3282SOL     OW10744   0.642   4.020   5.145
 3282SOL    HW110745   0.676   4.001   5.237
 3282SOL    HW210746   0.695   3.968   5.078
 3283SOL     OW10747   3.519   1.388   1.554
 3283SOL    HW110748   3.451   1.391   1.627
 3283SOL    HW210749   3.480   1.427   1.470
 3284SOL     OW10750   1.566   5.621   4.741
 3284SOL    HW110751   1.642   5.670   4.785
 3284SOL    HW210752   1.580   5.621   4.642
 3285SOL     OW10753   5.484   1.298   4.723
 3285SOL    HW110754   5.519   1.391   4.725
 3285SOL    HW210755   5.453   1.271   4.814
 3286SOL     OW10756   3.321   1.799   1.876
 3286SOL    HW110757   3.311   1.830   1.971
 3286SOL    HW210758   3.419   1.797   1.853
 3287SOL     OW10759   1.172   0.141   6.432
 3287SOL    HW110760   1.134   0.084   6.359
 3287SOL    HW210761   1.152   0.098   6.521
 3288SOL     OW10762   1.779   6.592   0.462
 3288SOL    HW110763   1.818   6.683   0.450
 3288SOL    HW210764   1.815   6.531   0.391
 3289SOL     OW10765   3.266   1.787   6.785
 3289SOL    HW110766   3.304   1.872   6.822
 3289SOL    HW210767   3.340   1.731   6.748
 3290SOL     OW10768   6.502   5.389   0.508
 3290SOL    HW110769   6.557   5.404   0.426
 3290SOL    HW210770   6.553   5.420   0.589
 3291SOL     OW10771   4.282   0.141   6.534
 3291SOL    HW110772   4.338   0.219   6.562
 3291SOL    HW210773   4.253   0.091   6.615
 3292SOL     OW10774   0.502   1.523   0.938
 3292SOL    HW110775   0.522   1.602   0.996
 3292SOL    HW210776   0.414   1.536   0.893
 3293SOL     OW10777   6.961   4.508   2.830
 3293SOL    HW110778   6.933   4.603   2.842
 3293SOL    HW210779   6.963   4.462   2.918
 3294SOL     OW10780   5.518   2.235   5.656
 3294SOL    HW110781   5.571   2.315   5.628
 3294SOL    HW210782   5.427   2.239   5.617
 3295SOL     OW10783   1.620   3.187   0.734
 3295SOL    HW110784   1.711   3.202   0.773
 3295SOL    HW210785   1.563   3.138   0.800
 3296SOL     OW10786   6.582   6.824   5.712
 3296SOL    HW110787   6.664   6.869   5.675
 3296SOL    HW210788   6.504   6.844   5.652
 3297SOL     OW10789   3.247   2.068   5.571
 3297SOL    HW110790   3.191   2.003   5.622
 3297SOL    HW210791   3.204   2.086   5.482
 3298SOL     OW10792   6.460   3.645   5.127
 3298SOL    HW110793   6.512   3.573   5.173
 3298SOL    HW210794   6.420   3.706   5.195
 3299SOL     OW10795   4.155   5.036   3.472
 3299SOL    HW110796   4.101   4.952   3.463
 3299SOL    HW210797   4.140   5.076   3.563
 3300SOL     OW10798   2.565   0.100   5.542
 3300SOL    HW110799   2.575   0.167   5.469
 3300SOL    HW210800   2.474   0.059   5.538
 3301SOL     OW10801   1.215   2.922   2.831
 3301SOL    HW110802   1.314   2.933   2.832
 3301SOL    HW210803   1.186   2.894   2.739
 3302SOL     OW10804   1.283   4.726   6.558
 3302SOL    HW110805   1.303   4.630   6.573
 3302SOL    HW210806   1.214   4.735   6.486
 3303SOL     OW10807   3.540   2.892   0.504
 3303SOL    HW110808   3.593   2.948   0.568
 3303SOL    HW210809   3.449   2.931   0.492
 3304SOL     OW10810   1.909   4.571   6.590
 3304SOL    HW110811   1.875   4.664   6.605
 3304SOL    HW210812   1.938   4.560   6.495
 3305SOL     OW10813   3.482   0.791   1.078
 3305SOL    HW110814   3.506   0.872   1.130
 3305SOL    HW210815   3.539   0.714   1.106
 3306SOL     OW10816   1.625   6.093   6.671
 3306SOL    HW110817   1.647   5.996   6.674
 3306SOL    HW210818   1.702   6.144   6.632
 3307SOL     OW10819   1.229   6.863   6.005
 3307SOL    HW110820   1.290   6.837   6.080
 3307SOL    HW210821   1.135   6.842   6.030
 3308SOL     OW10822   3.896   4.503   1.441
 3308SOL    HW110823   3.838   4.457   1.508
 3308SOL    HW210824   3.938   4.583   1.483
 3309SOL     OW10825   5.258   4.568   3.970
 3309SOL    HW110826   5.233   4.664   3.975
 3309SOL    HW210827   5.194   4.513   4.024
 3310SOL     OW10828   0.864   4.782   4.755
 3310SOL    HW110829   0.841   4.807   4.849
 3310SOL    HW210830   0.839   4.857   4.693
 3311SOL     OW10831   3.896   3.558   1.151
 3311SOL    HW110832   3.899   3.490   1.224
 3311SOL    HW210833   3.915   3.648   1.189
 3312SOL     OW10834   4.333   2.760   5.697
 3312SOL    HW110835   4.419   2.713   5.720
 3312SOL    HW210836   4.354   2.846   5.650
 3313SOL     OW10837   0.670   0.774   3.340
 3313SOL    HW110838   0.679   0.808   3.434
 3313SOL    HW210839   0.755   0.731   3.312
 3314SOL     OW10840   2.223   0.264   3.126
 3314SOL    HW110841   2.196   0.358   3.145
 3314SOL    HW210842   2.266   0.259   3.036
 3315SOL     OW10843   0.679   4.524   5.082
 3315SOL    HW110844   0.692   4.617   5.047
 3315SOL    HW210845   0.759   4.469   5.061
 3316SOL     OW10846   3.280   0.823   6.156
 3316SOL    HW110847   3.207   0.769   6.197
 3316SOL    HW210848   3.326   0.769   6.086
 3317SOL     OW10849   5.632   2.275   2.161
 3317SOL    HW110850   5.583   2.203   2.212
 3317SOL    HW210851   5.731   2.261   2.173
 3318SOL     OW10852   2.804   1.702   6.624
 3318SOL    HW110853   2.717   1.730   6.581
 3318SOL    HW210854   2.849   1.783   6.662
 3319SOL     OW10855   6.872   0.049   2.733
 3319SOL    HW110856   6.968   0.065   2.708
 3319SOL    HW210857   6.868   0.006   2.824
 3320SOL     OW10858   6.375   0.897   0.382
 3320SOL    HW110859   6.465   0.910   0.423
 3320SOL    HW210860   6.305   0.897   0.454
 3321SOL     OW10861   5.524   1.591   0.820
 3321SOL    HW110862   5.452   1.649   0.782
 3321SOL    HW210863   5.521   1.595   0.920
 3322SOL     OW10864   6.763   3.500   0.694
 3322SOL    HW110865   6.854   3.463   0.715
 3322SOL    HW210866   6.743   3.486   0.597
 3323SOL     OW10867   2.788   1.752   1.776
 3323SOL    HW110868   2.806   1.812   1.855
 3323SOL    HW210869   2.693   1.721   1.780
 3324SOL     OW10870   4.733   5.714   5.858
 3324SOL    HW110871   4.721   5.622   5.895
 3324SOL    HW210872   4.658   5.773   5.887
 3325SOL     OW10873   0.951   3.273   6.756
 3325SOL    HW110874   0.945   3.192   6.699
 3325SOL    HW210875   1.044   3.311   6.753
 3326SOL     OW10876   5.036   0.954   2.745
 3326SOL    HW110877   5.064   0.948   2.841
 3326SOL    HW210878   4.981   0.874   2.721
 3327SOL     OW10879   2.047   6.117   1.644
 3327SOL    HW110880   2.016   6.174   1.720
 3327SOL    HW210881   1.967   6.084   1.593
 3328SOL     OW10882   3.703   2.225   1.211
 3328SOL    HW110883   3.623   2.183   1.254
 3328SOL    HW210884   3.769   2.153   1.187
 3329SOL     OW10885   6.056   6.796   5.576
 3329SOL    HW110886   5.969   6.748   5.586
 3329SOL    HW210887   6.039   6.891   5.548
 3330SOL     OW10888   0.141   3.510   2.023
 3330SOL    HW110889   0.092   3.541   2.104
 3330SOL    HW210890   0.122   3.573   1.947
 3331SOL     OW10891   1.849   2.320   1.149
 3331SOL    HW110892   1.854   2.293   1.245
 3331SOL    HW210893   1.917   2.268   1.097
 3332SOL     OW10894   5.480   5.464   0.288
 3332SOL    HW110895   5.558   5.513   0.247
 3332SOL    HW210896   5.483   5.474   0.387
 3333SOL     OW10897   4.194   5.056   6.351
 3333SOL    HW110898   4.177   5.072   6.448
 3333SOL    HW210899   4.162   5.134   6.298
 3334SOL     OW10900   3.596   3.555   1.368
 3334SOL    HW110901   3.615   3.643   1.324
 3334SOL    HW210902   3.512   3.517   1.331
 3335SOL     OW10903   5.004   4.977   5.646
 3335SOL    HW110904   4.910   4.996   5.617
 3335SOL    HW210905   5.068   5.031   5.592
 3336SOL     OW10906   2.789   5.461   6.042
 3336SOL    HW110907   2.870   5.431   6.094
 3336SOL    HW210908   2.712   5.402   6.064
 3337SOL     OW10909   3.823   2.422   1.369
 3337SOL    HW110910   3.778   2.358   1.307
 3337SOL    HW210911   3.871   2.371   1.440
 3338SOL     OW10912   6.380   3.914   1.427
 3338SOL    HW110913   6.451   3.876   1.487
 3338SOL    HW210914   6.400   3.889   1.332
 3339SOL     OW10915   6.831   6.215   6.746
 3339SOL    HW110916   6.766   6.167   6.687
 3339SOL    HW210917   6.917   6.228   6.697
 3340SOL     OW10918   3.401   6.907   1.840
 3340SOL    HW110919   3.473   6.976   1.835
 3340SOL    HW210920   3.331   6.928   1.772
 3341SOL     OW10921   0.329   6.919   2.869
 3341SOL    HW110922   0.421   6.936   2.904
 3341SOL    HW210923   0.286   7.007   2.845
 3342SOL     OW10924   2.029   6.981   3.730
 3342SOL    HW110925   2.045   6.932   3.816
 3342SOL    HW210926   2.083   6.939   3.657
 3343SOL     OW10927   4.956   3.255   0.923
 3343SOL    HW110928   4.979   3.174   0.869
 3343SOL    HW210929   4.925   3.328   0.862
 3344SOL     OW10930   5.214   3.612   4.875
 3344SOL    HW110931   5.211   3.584   4.779
 3344SOL    HW210932   5.142   3.680   4.891
 3345SOL     OW10933   2.910   3.406   6.070
 3345SOL    HW110934   2.951   3.380   5.983
 3345SOL    HW210935   2.928   3.503   6.088
 3346SOL     OW10936   0.602   1.401   2.166
 3346SOL    HW110937   0.654   1.390   2.252
 3346SOL    HW210938   0.646   1.346   2.095
 3347SOL     OW10939   6.860   4.479   3.636
 3347SOL    HW110940   6.867   4.389   3.680
 3347SOL    HW210941   6.848   4.466   3.537
 3348SOL     OW10942   3.541   3.109   3.729
 3348SOL    HW110943   3.453   3.152   3.750
 3348SOL    HW210944   3.582   3.075   3.814
 3349SOL     OW10945   6.925   4.734   4.235
 3349SOL    HW110946   6.946   4.637   4.232
 3349SOL    HW210947   7.009   4.787   4.247
 3350SOL     OW10948   2.111   1.177   6.689
 3350SOL    HW110949   2.019   1.149   6.714
 3350SOL    HW210950   2.177   1.110   6.724
 3351SOL     OW10951   5.892   0.609   1.125
 3351SOL    HW110952   5.872   0.676   1.053
 3351SOL    HW210953   5.949   0.652   1.195
 3352SOL     OW10954   0.845   4.019   0.241
 3352SOL    HW110955   0.893   4.038   0.326
 3352SOL    HW210956   0.845   4.101   0.183
 3353SOL     OW10957   1.679   0.223   0.332
 3353SOL    HW110958   1.662   0.308   0.281
 3353SOL    HW210959   1.603   0.206   0.395
 3354SOL     OW10960   6.465   1.950   3.360
 3354SOL    HW110961   6.503   1.929   3.450
 3354SOL    HW210962   6.370   1.979   3.371
 3355SOL     OW10963   0.077   2.193   0.841
 3355SOL    HW110964   7.002   2.171   0.839
 3355SOL    HW210965   0.131   2.109   0.831
 3356SOL     OW10966   2.924   3.102   0.475
 3356SOL    HW110967   2.946   3.180   0.417
 3356SOL    HW210968   2.911   3.133   0.569
 3357SOL     OW10969   2.101   4.795   1.154
 3357SOL    HW110970   2.027   4.769   1.216
 3357SOL    HW210971   2.189   4.784   1.199
 3358SOL     OW10972   5.028   6.311   2.109
 3358SOL    HW110973   4.997   6.264   2.027
 3358SOL    HW210974   4.952   6.361   2.150
 3359SOL     OW10975   0.449   0.584   2.942
 3359SOL    HW110976   0.446   0.659   3.008
 3359SOL    HW210977   0.361   0.578   2.894
 3360SOL     OW10978   0.316   0.974   0.479
 3360SOL    HW110979   0.351   1.064   0.453
 3360SOL    HW210980   0.278   0.929   0.399
 3361SOL     OW10981   6.518   5.824   3.010
 3361SOL    HW110982   6.470   5.756   3.065
 3361SOL    HW210983   6.480   5.915   3.029
 3362SOL     OW10984   2.944   1.543   4.979
 3362SOL    HW110985   3.020   1.590   5.022
 3362SOL    HW210986   2.969   1.518   4.885
 3363SOL     OW10987   0.698   1.415   6.580
 3363SOL    HW110988   0.697   1.421   6.679
 3363SOL    HW210989   0.778   1.362   6.551
 3364SOL     OW10990   1.170   6.006   6.071
 3364SOL    HW110991   1.076   6.025   6.099
 3364SOL    HW210992   1.170   5.937   5.998
 3365SOL     OW10993   0.585   1.926   4.552
 3365SOL    HW110994   0.537   1.962   4.632
 3365SOL    HW210995   0.614   2.002   4.494
 3366SOL     OW10996   5.794   1.265   4.992
 3366SOL    HW110997   5.710   1.217   5.018
 3366SOL    HW210998   5.772   1.361   4.974
 3367SOL     OW10999   1.969   2.573   1.748
 3367SOL    HW111000   1.913   2.646   1.787
 3367SOL    HW211001   1.991   2.506   1.819
 3368SOL     OW11002   6.514   5.267   5.965
 3368SOL    HW111003   6.590   5.308   5.915
 3368SOL    HW211004   6.526   5.285   6.063
 3369SOL     OW11005   3.517   1.213   0.380
 3369SOL    HW111006   3.520   1.291   0.443
 3369SOL    HW211007   3.477   1.134   0.427
 3370SOL     OW11008   6.732   6.877   4.968
 3370SOL    HW111009   6.765   6.970   4.981
 3370SOL    HW211010   6.748   6.849   4.874
 3371SOL     OW11011   1.284   3.994   2.395
 3371SOL    HW111012   1.192   3.965   2.421
 3371SOL    HW211013   1.323   3.928   2.331
 3372SOL     OW11014   0.284   1.247   2.115
 3372SOL    HW111015   0.311   1.297   2.198
 3372SOL    HW211016   0.241   1.311   2.051
 3373SOL     OW11017   6.155   1.056   4.013
 3373SOL    HW111018   6.087   0.984   4.003
 3373SOL    HW211019   6.185   1.060   4.108
 3374SOL     OW11020   3.511   6.071   5.351
 3374SOL    HW111021   3.546   6.101   5.439
 3374SOL    HW211022   3.584   6.075   5.283
 3375SOL     OW11023   4.467   4.751   5.074
 3375SOL    HW111024   4.560   4.724   5.100
 3375SOL    HW211025   4.405   4.674   5.088
 3376SOL     OW11026   4.078   3.229   2.617
 3376SOL    HW111027   4.047   3.318   2.651
 3376SOL    HW211028   4.157   3.241   2.557
 3377SOL     OW11029   1.450   6.334   5.002
 3377SOL    HW111030   1.405   6.290   4.924
 3377SOL    HW211031   1.463   6.431   4.983
 3378SOL     OW11032   6.931   1.341   0.979
 3378SOL    HW111033   6.878   1.403   1.037
 3378SOL    HW211034   7.020   1.382   0.961
 3379SOL     OW11035   0.316   4.301   6.143
 3379SOL    HW111036   0.305   4.214   6.095
 3379SOL    HW211037   0.364   4.365   6.084
 3380SOL     OW11038   6.741   4.884   6.013
 3380SOL    HW111039   6.802   4.807   5.990
 3380SOL    HW211040   6.699   4.919   5.930
 3381SOL     OW11041   2.496   2.138   0.179
 3381SOL    HW111042   2.427   2.074   0.213
 3381SOL    HW211043   2.451   2.218   0.140
 3382SOL     OW11044   0.024   1.459   0.066
 3382SOL    HW111045   0.043   1.408   7.004
 3382SOL    HW211046   0.047   1.401   0.145
 3383SOL     OW11047   6.193   4.824   2.664
 3383SOL    HW111048   6.146   4.911   2.647
 3383SOL    HW211049   6.287   4.842   2.692
 3384SOL     OW11050   3.312   3.166   4.803
 3384SOL    HW111051   3.223   3.131   4.834
 3384SOL    HW211052   3.302   3.204   4.710
 3385SOL     OW11053   6.442   3.941   3.847
 3385SOL    HW111054   6.512   4.007   3.819
 3385SOL    HW211055   6.367   3.989   3.893
 3386SOL     OW11056   6.031   3.985   5.077
 3386SOL    HW111057   6.070   3.929   5.150
 3386SOL    HW211058   5.933   3.998   5.092
 3387SOL     OW11059   2.482   2.352   2.375
 3387SOL    HW111060   2.518   2.427   2.431
 3387SOL    HW211061   2.558   2.295   2.343
 3388SOL     OW11062   5.369   3.258   0.839
 3388SOL    HW111063   5.402   3.242   0.932
 3388SOL    HW211064   5.431   3.321   0.792
 3389SOL     OW11065   4.713   4.346   4.352
 3389SOL    HW111066   4.694   4.257   4.392
 3389SOL    HW211067   4.778   4.335   4.276
 3390SOL     OW11068   5.054   3.032   6.088
 3390SOL    HW111069   5.032   3.086   6.007
 3390SOL    HW211070   5.143   3.059   6.124
 3391SOL     OW11071   4.316   1.607   5.115
 3391SOL    HW111072   4.219   1.593   5.130
 3391SOL    HW211073   4.356   1.524   5.074
 3392SOL     OW11074   2.166   0.888   4.068
 3392SOL    HW111075   2.212   0.800   4.081
 3392SOL    HW211076   2.088   0.876   4.006
 3393SOL     OW11077   6.437   6.681   0.626
 3393SOL    HW111078   6.414   6.610   0.692
 3393SOL    HW211079   6.357   6.740   0.611
 3394SOL     OW11080   5.566   3.147   1.022
 3394SOL    HW111081   5.520   3.124   1.107
 3394SOL    HW211082   5.627   3.224   1.036
 3395SOL     OW11083   6.300   3.523   3.920
 3395SOL    HW111084   6.294   3.456   3.994
 3395SOL    HW211085   6.385   3.507   3.868
 3396SOL     OW11086   0.745   3.122   3.512
 3396SOL    HW111087   0.691   3.197   3.549
 3396SOL    HW211088   0.691   3.038   3.515
 3397SOL     OW11089   3.925   0.804   5.169
 3397SOL    HW111090   3.946   0.861   5.248
 3397SOL    HW211091   3.928   0.708   5.195
 3398SOL     OW11092   1.035   0.176   3.986
 3398SOL    HW111093   0.941   0.179   3.953
 3398SOL    HW211094   1.093   0.134   3.916
 3399SOL     OW11095   4.363   4.691   4.150
 3399SOL    HW111096   4.324   4.716   4.061
 3399SOL    HW211097   4.305   4.726   4.223
 3400SOL     OW11098   4.601   1.889   6.247
 3400SOL    HW111099   4.656   1.811   6.277
 3400SOL    HW211100   4.613   1.900   6.148
 3401SOL     OW11101   0.038   3.965   0.989
 3401SOL    HW111102   0.129   3.957   0.949
 3401SOL    HW211103   0.013   4.062   0.994
 3402SOL     OW11104   5.669   5.674   1.418
 3402SOL    HW111105   5.618   5.711   1.496
 3402SOL    HW211106   5.629   5.586   1.391
 3403SOL     OW11107   3.914   0.290   5.080
 3403SOL    HW111108   3.876   0.265   4.991
 3403SOL    HW211109   4.006   0.252   5.088
 3404SOL     OW11110   4.330   1.764   0.432
 3404SOL    HW111111   4.401   1.696   0.414
 3404SOL    HW211112   4.254   1.750   0.369
 3405SOL     OW11113   6.608   3.663   5.701
 3405SOL    HW111114   6.604   3.626   5.608
 3405SOL    HW211115   6.658   3.749   5.701
 3406SOL     OW11116   2.121   4.785   2.003
 3406SOL    HW111117   2.102   4.687   2.006
 3406SOL    HW211118   2.212   4.800   1.964
 3407SOL     OW11119   1.305   5.563   1.718
 3407SOL    HW111120   1.297   5.649   1.668
 3407SOL    HW211121   1.341   5.581   1.810
 3408SOL     OW11122   4.789   4.146   4.058
 3408SOL    HW111123   4.804   4.095   3.973
 3408SOL    HW211124   4.844   4.107   4.131
 3409SOL     OW11125   3.917   0.118   5.976
 3409SOL    HW111126   3.958   0.030   5.953
 3409SOL    HW211127   3.909   0.174   5.893
 3410SOL     OW11128   6.060   5.709   6.995
 3410SOL    HW111129   6.143   5.742   6.949
 3410SOL    HW211130   6.081   5.688   0.068
 3411SOL     OW11131   6.181   2.665   2.145
 3411SOL    HW111132   6.114   2.607   2.191
 3411SOL    HW211133   6.237   2.610   2.084
 3412SOL     OW11134   4.126   3.331   0.079
 3412SOL    HW111135   4.168   3.398   0.140
 3412SOL    HW211136   4.033   3.361   0.055
 3413SOL     OW11137   4.041   1.300   2.703
 3413SOL    HW111138   3.969   1.369   2.692
 3413SOL    HW211139   4.093   1.291   2.618
 3414SOL     OW11140   3.209   1.724   4.766
 3414SOL    HW111141   3.299   1.696   4.731
 3414SOL    HW211142   3.203   1.700   4.863
 3415SOL     OW11143   1.149   4.662   4.170
 3415SOL    HW111144   1.138   4.622   4.261
 3415SOL    HW211145   1.173   4.590   4.105
 3416SOL     OW11146   0.063   4.468   5.993
 3416SOL    HW111147   7.022   4.446   5.918
 3416SOL    HW211148   0.095   4.383   6.036
 3417SOL     OW11149   6.370   6.021   2.710
 3417SOL    HW111150   6.402   6.038   2.803
 3417SOL    HW211151   6.370   5.922   2.693
 3418SOL     OW11152   4.301   0.876   3.881
 3418SOL    HW111153   4.287   0.809   3.808
 3418SOL    HW211154   4.215   0.891   3.929
 3419SOL     OW11155   3.832   5.125   6.145
 3419SOL    HW111156   3.777   5.073   6.210
 3419SOL    HW211157   3.841   5.074   6.060
 3420SOL     OW11158   5.212   1.586   3.298
 3420SOL    HW111159   5.221   1.686   3.298
 3420SOL    HW211160   5.268   1.548   3.224
 3421SOL     OW11161   6.625   0.752   5.463
 3421SOL    HW111162   6.639   0.794   5.552
 3421SOL    HW211163   6.707   0.700   5.437
 3422SOL     OW11164   3.637   0.334   1.332
 3422SOL    HW111165   3.624   0.236   1.349
 3422SOL    HW211166   3.734   0.355   1.328
 3423SOL     OW11167   1.981   0.773   0.124
 3423SOL    HW111168   1.993   0.783   0.223
 3423SOL    HW211169   1.971   0.677   0.101
 3424SOL     OW11170   3.938   0.465   2.520
 3424SOL    HW111171   3.846   0.485   2.552
 3424SOL    HW211172   3.997   0.545   2.535
 3425SOL     OW11173   4.841   4.011   2.105
 3425SOL    HW111174   4.864   4.032   2.200
 3425SOL    HW211175   4.779   4.081   2.069
 3426SOL     OW11176   3.385   3.590   0.236
 3426SOL    HW111177   3.466   3.647   0.254
 3426SOL    HW211178   3.303   3.639   0.265
 3427SOL     OW11179   6.583   6.655   0.159
 3427SOL    HW111180   6.565   6.684   0.065
 3427SOL    HW211181   6.545   6.563   0.173
 3428SOL     OW11182   4.042   5.209   2.050
 3428SOL    HW111183   4.060   5.216   1.952
 3428SOL    HW211184   3.947   5.233   2.068
 3429SOL     OW11185   0.838   2.058   6.933
 3429SOL    HW111186   0.754   2.076   6.881
 3429SOL    HW211187   0.814   2.013   7.019
 3430SOL     OW11188   1.508   6.467   6.364
 3430SOL    HW111189   1.528   6.372   6.340
 3430SOL    HW211190   1.590   6.511   6.399
 3431SOL     OW11191   2.438   6.882   1.299
 3431SOL    HW111192   2.421   6.981   1.300
 3431SOL    HW211193   2.536   6.865   1.312
 3432SOL     OW11194   2.829   2.229   5.336
 3432SOL    HW111195   2.830   2.203   5.239
 3432SOL    HW211196   2.738   2.212   5.374
 3433SOL     OW11197   2.266   0.990   6.791
 3433SOL    HW111198   2.288   0.893   6.787
 3433SOL    HW211199   2.330   1.037   6.852
 3434SOL     OW11200   3.395   2.531   0.559
 3434SOL    HW111201   3.475   2.544   0.501
 3434SOL    HW211202   3.389   2.606   0.625
 3435SOL     OW11203   6.870   2.164   1.211
 3435SOL    HW111204   6.778   2.195   1.237
 3435SOL    HW211205   6.931   2.171   1.290
 3436SOL     OW11206   4.443   0.026   5.485
 3436SOL    HW111207   4.496   0.111   5.497
 3436SOL    HW211208   4.451   7.017   5.391
 3437SOL     OW11209   4.227   0.847   6.360
 3437SOL    HW111210   4.275   0.764   6.386
 3437SOL    HW211211   4.284   0.927   6.381
 3438SOL     OW11212   1.254   2.981   6.300
 3438SOL    HW111213   1.312   3.020   6.228
 3438SOL    HW211214   1.254   3.043   6.379
 3439SOL     OW11215   2.695   0.010   4.797
 3439SOL    HW111216   2.689   0.106   4.823
 3439SOL    HW211217   2.719   0.003   4.700
 3440SOL     OW11218   4.672   3.237   1.452
 3440SOL    HW111219   4.718   3.325   1.463
 3440SOL    HW211220   4.717   3.186   1.378
 3441SOL     OW11221   4.840   0.514   3.021
 3441SOL    HW111222   4.855   0.609   3.045
 3441SOL    HW211223   4.761   0.506   2.960
 3442SOL     OW11224   2.502   4.464   3.421
 3442SOL    HW111225   2.499   4.371   3.384
 3442SOL    HW211226   2.421   4.515   3.391
 3443SOL     OW11227   5.432   1.130   3.277
 3443SOL    HW111228   5.356   1.171   3.328
 3443SOL    HW211229   5.395   1.078   3.200
 3444SOL     OW11230   5.190   5.532   6.666
 3444SOL    HW111231   5.241   5.512   6.582
 3444SOL    HW211232   5.095   5.549   6.644
 3445SOL     OW11233   6.317   4.117   4.015
 3445SOL    HW111234   6.343   4.177   4.091
 3445SOL    HW211235   6.218   4.120   4.003
 3446SOL     OW11236   5.062   0.467   2.824
 3446SOL    HW111237   5.110   0.381   2.842
 3446SOL    HW211238   4.996   0.483   2.897
 3447SOL     OW11239   5.283   5.023   0.050
 3447SOL    HW111240   5.309   4.936   0.007
 3447SOL    HW211241   5.237   5.005   0.136
 3448SOL     OW11242   3.797   6.580   1.034
 3448SOL    HW111243   3.821   6.487   1.006
 3448SOL    HW211244   3.878   6.638   1.027
 3449SOL     OW11245   6.386   6.351   2.494
 3449SOL    HW111246   6.444   6.342   2.576
 3449SOL    HW211247   6.410   6.435   2.446
 3450SOL     OW11248   0.842   2.581   0.736
 3450SOL    HW111249   0.784   2.613   0.810
 3450SOL    HW211250   0.816   2.488   0.710
 3451SOL     OW11251   0.779   5.261   3.485
 3451SOL    HW111252   0.757   5.302   3.574
 3451SOL    HW211253   0.798   5.164   3.497
 3452SOL     OW11254   6.427   1.030   6.975
 3452SOL    HW111255   6.392   0.989   6.890
 3452SOL    HW211256   6.404   0.970   0.030
 3453SOL     OW11257   5.880   5.657   5.459
 3453SOL    HW111258   5.873   5.589   5.387
 3453SOL    HW211259   5.789   5.691   5.484
 3454SOL     OW11260   2.099   0.870   6.327
 3454SOL    HW111261   2.012   0.860   6.375
 3454SOL    HW211262   2.135   0.962   6.342
 3455SOL     OW11263   1.352   2.685   4.597
 3455SOL    HW111264   1.308   2.642   4.518
 3455SOL    HW211265   1.368   2.782   4.578
 3456SOL     OW11266   6.008   5.679   2.002
 3456SOL    HW111267   5.918   5.724   2.004
 3456SOL    HW211268   5.996   5.584   1.975
 3457SOL     OW11269   2.765   5.078   4.222
 3457SOL    HW111270   2.806   5.090   4.312
 3457SOL    HW211271   2.768   4.981   4.196
 3458SOL     OW11272   5.346   6.706   6.903
 3458SOL    HW111273   5.338   6.634   6.834
 3458SOL    HW211274   5.285   6.686   6.979
 3459SOL     OW11275   0.502   3.535   3.048
 3459SOL    HW111276   0.523   3.463   2.981
 3459SOL    HW211277   0.576   3.602   3.050
 3460SOL     OW11278   3.541   3.440   0.831
 3460SOL    HW111279   3.476   3.393   0.771
 3460SOL    HW211280   3.525   3.412   0.926
 3461SOL     OW11281   4.121   5.562   4.547
 3461SOL    HW111282   4.128   5.655   4.583
 3461SOL    HW211283   4.027   5.529   4.557
 3462SOL     OW11284   6.226   3.511   2.371
 3462SOL    HW111285   6.288   3.532   2.295
 3462SOL    HW211286   6.277   3.518   2.457
 3463SOL     OW11287   0.759   3.295   2.942
 3463SOL    HW111288   0.729   3.215   2.995
 3463SOL    HW211289   0.681   3.334   2.893
 3464SOL     OW11290   5.680   2.453   6.712
 3464SOL    HW111291   5.751   2.499   6.766
 3464SOL    HW211292   5.597   2.445   6.767
 3465SOL     OW11293   1.451   3.211   2.094
 3465SOL    HW111294   1.369   3.264   2.116
 3465SOL    HW211295   1.532   3.265   2.119
 3466SOL     OW11296   5.497   5.198   5.689
 3466SOL    HW111297   5.399   5.178   5.687
 3466SOL    HW211298   5.530   5.187   5.783
 3467SOL     OW11299   2.972   1.674   0.756
 3467SOL    HW111300   2.967   1.579   0.787
 3467SOL    HW211301   2.887   1.698   0.709
 3468SOL     OW11302   5.451   2.006   2.795
 3468SOL    HW111303   5.408   2.096   2.802
 3468SOL    HW211304   5.435   1.968   2.704
 3469SOL     OW11305   5.167   0.992   6.105
 3469SOL    HW111306   5.225   1.026   6.178
 3469SOL    HW211307   5.110   1.067   6.070
 3470SOL     OW11308   0.447   2.400   2.082
 3470SOL    HW111309   0.378   2.467   2.111
 3470SOL    HW211310   0.409   2.308   2.090
 3471SOL     OW11311   4.966   4.505   3.808
 3471SOL    HW111312   4.987   4.498   3.905
 3471SOL    HW211313   5.005   4.427   3.759
 3472SOL     OW11314   3.605   1.074   2.320
 3472SOL    HW111315   3.506   1.067   2.307
 3472SOL    HW211316   3.651   1.066   2.232
 3473SOL     OW11317   6.804   3.307   3.770
 3473SOL    HW111318   6.818   3.362   3.688
 3473SOL    HW211319   6.871   3.334   3.840
 3474SOL     OW11320   0.587   4.412   3.655
 3474SOL    HW111321   0.668   4.388   3.601
 3474SOL    HW211322   0.616   4.449   3.744
 3475SOL     OW11323   0.945   4.768   3.998
 3475SOL    HW111324   0.941   4.716   3.913
 3475SOL    HW211325   1.010   4.725   4.061
 3476SOL     OW11326   1.039   1.502   3.187
 3476SOL    HW111327   1.092   1.580   3.221
 3476SOL    HW211328   0.959   1.535   3.137
 3477SOL     OW11329   0.687   3.536   0.216
 3477SOL    HW111330   0.781   3.555   0.190
 3477SOL    HW211331   0.669   3.574   0.307
 3478SOL     OW11332   3.112   6.759   6.867
 3478SOL    HW111333   3.083   6.702   6.790
 3478SOL    HW211334   3.159   6.840   6.831
 3479SOL     OW11335   0.891   1.328   3.608
 3479SOL    HW111336   0.861   1.419   3.638
 3479SOL    HW211337   0.952   1.337   3.529
 3480SOL     OW11338   0.887   6.025   6.062
 3480SOL    HW111339   0.815   5.966   6.097
 3480SOL    HW211340   0.848   6.093   6.001
 3481SOL     OW11341   5.275   0.712   0.486
 3481SOL    HW111342   5.338   0.657   0.542
 3481SOL    HW211343   5.210   0.651   0.440
 3482SOL     OW11344   6.098   1.916   2.706
 3482SOL    HW111345   6.190   1.955   2.701
 3482SOL    HW211346   6.094   1.851   2.782
 3483SOL     OW11347   5.571   2.230   3.088
 3483SOL    HW111348   5.497   2.164   3.077
 3483SOL    HW211349   5.648   2.186   3.135
 3484SOL     OW11350   1.567   3.353   0.046
 3484SOL    HW111351   1.544   3.400   6.983
 3484SOL    HW211352   1.493   3.365   0.112
 3485SOL     OW11353   0.841   2.151   5.072
 3485SOL    HW111354   0.839   2.126   4.976
 3485SOL    HW211355   0.892   2.083   5.124
 3486SOL     OW11356   1.514   0.069   3.725
 3486SOL    HW111357   1.599   0.058   3.673
 3486SOL    HW211358   1.518   0.156   3.775
 3487SOL     OW11359   6.396   2.775   0.171
 3487SOL    HW111360   6.325   2.706   0.158
 3487SOL    HW211361   6.379   2.824   0.257
 3488SOL     OW11362   5.701   0.903   4.961
 3488SOL    HW111363   5.642   0.890   4.881
 3488SOL    HW211364   5.790   0.937   4.931
 3489SOL     OW11365   3.380   0.414   2.018
 3489SOL    HW111366   3.440   0.352   2.068
 3489SOL    HW211367   3.333   0.365   1.945
 3490SOL     OW11368   3.211   4.849   1.565
 3490SOL    HW111369   3.275   4.920   1.534
 3490SOL    HW211370   3.137   4.891   1.616
 3491SOL     OW11371   3.799   3.065   5.884
 3491SOL    HW111372   3.828   3.089   5.792
 3491SOL    HW211373   3.704   3.095   5.898
 3492SOL     OW11374   6.209   4.090   1.556
 3492SOL    HW111375   6.273   4.034   1.503
 3492SOL    HW211376   6.128   4.037   1.579
 3493SOL     OW11377   6.274   3.756   4.184
 3493SOL    HW111378   6.317   3.827   4.240
 3493SOL    HW211379   6.236   3.797   4.101
 3494SOL     OW11380   2.489   0.985   1.943
 3494SOL    HW111381   2.544   0.960   2.022
 3494SOL    HW211382   2.474   1.084   1.942
 3495SOL     OW11383   1.010   3.859   2.693
 3495SOL    HW111384   0.976   3.943   2.734
 3495SOL    HW211385   0.996   3.862   2.594
 3496SOL     OW11386   5.587   5.162   1.075
 3496SOL    HW111387   5.588   5.090   1.145
 3496SOL    HW211388   5.659   5.229   1.096
 3497SOL     OW11389   2.770   1.195   4.042
 3497SOL    HW111390   2.778   1.201   3.943
 3497SOL    HW211391   2.675   1.216   4.069
 3498SOL     OW11392   2.747   1.341   2.494
 3498SOL    HW111393   2.807   1.418   2.515
 3498SOL    HW211394   2.774   1.262   2.549
 3499SOL     OW11395   6.528   4.634   4.453
 3499SOL    HW111396   6.617   4.675   4.471
 3499SOL    HW211397   6.538   4.535   4.443
 3500SOL     OW11398   1.792   3.085   3.412
 3500SOL    HW111399   1.692   3.085   3.418
 3500SOL    HW211400   1.823   3.166   3.363
 3501SOL     OW11401   3.177   0.180   6.403
 3501SOL    HW111402   3.144   0.158   6.495
 3501SOL    HW211403   3.275   0.163   6.397
 3502SOL     OW11404   6.589   2.915   1.292
 3502SOL    HW111405   6.536   2.997   1.270
 3502SOL    HW211406   6.670   2.941   1.345
 3503SOL     OW11407   0.262   6.435   5.618
 3503SOL    HW111408   0.226   6.524   5.590
 3503SOL    HW211409   0.333   6.406   5.553
 3504SOL     OW11410   1.946   1.182   2.256
 3504SOL    HW111411   1.935   1.200   2.158
 3504SOL    HW211412   1.988   1.262   2.300
 3505SOL     OW11413   5.561   5.123   4.701
 3505SOL    HW111414   5.613   5.169   4.629
 3505SOL    HW211415   5.468   5.105   4.669
 3506SOL     OW11416   5.647   4.643   4.901
 3506SOL    HW111417   5.647   4.573   4.830
 3506SOL    HW211418   5.606   4.727   4.866
 3507SOL     OW11419   2.397   0.393   0.319
 3507SOL    HW111420   2.363   0.416   0.410
 3507SOL    HW211421   2.491   0.426   0.309
 3508SOL     OW11422   2.825   2.101   6.228
 3508SOL    HW111423   2.853   2.082   6.134
 3508SOL    HW211424   2.804   2.198   6.238
 3509SOL     OW11425   5.968   6.818   6.827
 3509SOL    HW111426   5.995   6.869   6.745
 3509SOL    HW211427   5.885   6.766   6.809
 3510SOL     OW11428   1.392   0.698   1.566
 3510SOL    HW111429   1.298   0.665   1.553
 3510SOL    HW211430   1.431   0.656   1.648
 3511SOL     OW11431   1.934   4.275   1.712
 3511SOL    HW111432   1.999   4.203   1.736
 3511SOL    HW211433   1.885   4.304   1.793
 3512SOL     OW11434   0.753   4.010   1.240
 3512SOL    HW111435   0.689   3.990   1.165
 3512SOL    HW211436   0.797   4.099   1.222
 3513SOL     OW11437   5.980   2.077   1.130
 3513SOL    HW111438   5.985   1.978   1.117
 3513SOL    HW211439   5.886   2.108   1.112
 3514SOL     OW11440   6.265   0.864   2.107
 3514SOL    HW111441   6.176   0.826   2.134
 3514SOL    HW211442   6.275   0.857   2.008
 3515SOL     OW11443   5.229   6.454   3.110
 3515SOL    HW111444   5.239   6.502   3.197
 3515SOL    HW211445   5.212   6.521   3.037
 3516SOL     OW11446   4.490   6.057   1.502
 3516SOL    HW111447   4.556   6.063   1.577
 3516SOL    HW211448   4.490   6.142   1.450
 3517SOL     OW11449   0.186   1.910   0.915
 3517SOL    HW111450   0.126   1.897   0.994
 3517SOL    HW211451   0.253   1.982   0.935
 3518SOL     OW11452   4.943   2.663   5.099
 3518SOL    HW111453   4.949   2.759   5.074
 3518SOL    HW211454   4.978   2.607   5.023
 3519SOL     OW11455   2.003   0.740   5.712
 3519SOL    HW111456   2.046   0.734   5.802
 3519SOL    HW211457   2.073   0.757   5.642
 3520SOL     OW11458   3.181   6.740   0.458
 3520SOL    HW111459   3.122   6.659   0.465
 3520SOL    HW211460   3.275   6.711   0.443
 3521SOL     OW11461   4.218   2.840   0.346
 3521SOL    HW111462   4.215   2.921   0.288
 3521SOL    HW211463   4.312   2.806   0.352
 3522SOL     OW11464   6.448   5.630   6.839
 3522SOL    HW111465   6.409   5.561   6.900
 3522SOL    HW211466   6.433   5.603   6.744
 3523SOL     OW11467   2.080   4.579   5.068
 3523SOL    HW111468   1.981   4.588   5.073
 3523SOL    HW211469   2.108   4.574   4.972
 3524SOL     OW11470   5.219   1.903   1.890
 3524SOL    HW111471   5.254   1.952   1.969
 3524SOL    HW211472   5.294   1.858   1.842
 3525SOL     OW11473   6.359   3.283   4.225
 3525SOL    HW111474   6.348   3.218   4.149
 3525SOL    HW211475   6.337   3.237   4.311
 3526SOL     OW11476   1.944   0.072   3.445
 3526SOL    HW111477   1.892   0.063   3.530
 3526SOL    HW211478   2.040   0.086   3.466
 3527SOL     OW11479   5.501   3.535   6.549
 3527SOL    HW111480   5.503   3.588   6.464
 3527SOL    HW211481   5.415   3.485   6.555
 3528SOL     OW11482   2.171   6.183   5.059
 3528SOL    HW111483   2.190   6.247   4.985
 3528SOL    HW211484   2.201   6.091   5.034
 3529SOL     OW11485   4.195   6.452   1.174
 3529SOL    HW111486   4.157   6.544   1.162
 3529SOL    HW211487   4.174   6.419   1.266
 3530SOL     OW11488   6.762   5.239   1.666
 3530SOL    HW111489   6.697   5.171   1.630
 3530SOL    HW211490   6.712   5.311   1.714
 3531SOL     OW11491   5.251   2.589   0.582
 3531SOL    HW111492   5.312   2.648   0.634
 3531SOL    HW211493   5.206   2.525   0.644
 3532SOL     OW11494   2.821   0.312   1.293
 3532SOL    HW111495   2.775   0.358   1.217
 3532SOL    HW211496   2.915   0.346   1.300
 3533SOL     OW11497   0.661   0.953   2.573
 3533SOL    HW111498   0.689   1.046   2.597
 3533SOL    HW211499   0.583   0.926   2.630
 3534SOL     OW11500   0.790   2.191   1.032
 3534SOL    HW111501   0.776   2.288   1.010
 3534SOL    HW211502   0.714   2.138   0.995
 3535SOL     OW11503   2.245   5.259   6.180
 3535SOL    HW111504   2.237   5.197   6.102
 3535SOL    HW211505   2.235   5.206   6.265
 3536SOL     OW11506   3.365   2.133   2.959
 3536SOL    HW111507   3.353   2.139   2.860
 3536SOL    HW211508   3.278   2.114   3.003
 3537SOL     OW11509   2.355   5.442   2.356
 3537SOL    HW111510   2.291   5.454   2.280
 3537SOL    HW211511   2.324   5.495   2.435
 3538SOL     OW11512   2.460   5.795   5.493
 3538SOL    HW111513   2.515   5.712   5.486
 3538SOL    HW211514   2.398   5.788   5.571
 3539SOL     OW11515   3.301   3.653   5.061
 3539SOL    HW111516   3.336   3.713   5.133
 3539SOL    HW211517   3.256   3.708   4.991
 3540SOL     OW11518   2.241   2.387   4.533
 3540SOL    HW111519   2.257   2.414   4.438
 3540SOL    HW211520   2.280   2.297   4.549
 3541SOL     OW11521   2.704   2.623   5.655
 3541SOL    HW111522   2.605   2.617   5.638
 3541SOL    HW211523   2.752   2.626   5.568
 3542SOL     OW11524   1.288   4.889   2.866
 3542SOL    HW111525   1.287   4.806   2.812
 3542SOL    HW211526   1.382   4.915   2.887
 3543SOL     OW11527   6.606   2.561   4.436
 3543SOL    HW111528   6.673   2.613   4.382
 3543SOL    HW211529   6.644   2.471   4.457
 3544SOL     OW11530   1.702   4.155   6.286
 3544SOL    HW111531   1.631   4.119   6.227
 3544SOL    HW211532   1.786   4.101   6.275
 3545SOL     OW11533   3.698   5.938   6.917
 3545SOL    HW111534   3.663   6.004   6.851
 3545SOL    HW211535   3.767   5.880   6.873
 3546SOL     OW11536   0.744   4.741   3.199
 3546SOL    HW111537   0.776   4.834   3.217
 3546SOL    HW211538   0.818   4.688   3.159
 3547SOL     OW11539   5.291   4.543   3.683
 3547SOL    HW111540   5.362   4.607   3.655
 3547SOL    HW211541   5.282   4.543   3.782
 3548SOL     OW11542   5.622   1.493   6.038
 3548SOL    HW111543   5.544   1.507   5.978
 3548SOL    HW211544   5.697   1.451   5.987
 3549SOL     OW11545   6.737   4.677   4.771
 3549SOL    HW111546   6.800   4.746   4.805
 3549SOL    HW211547   6.741   4.596   4.830
 3550SOL     OW11548   5.425   2.688   2.387
 3550SOL    HW111549   5.416   2.778   2.428
 3550SOL    HW211550   5.441   2.620   2.459
 3551SOL     OW11551   4.315   6.205   2.659
 3551SOL    HW111552   4.361   6.247   2.737
 3551SOL    HW211553   4.326   6.105   2.664
 3552SOL     OW11554   5.182   6.024   1.993
 3552SOL    HW111555   5.152   5.944   2.043
 3552SOL    HW211556   5.277   6.044   2.014
 3553SOL     OW11557   5.807   3.023   1.370
 3553SOL    HW111558   5.829   3.119   1.353
 3553SOL    HW211559   5.741   2.991   1.302
 3554SOL     OW11560   3.745   3.206   1.027
 3554SOL    HW111561   3.825   3.207   0.967
 3554SOL    HW211562   3.672   3.258   0.986
 3555SOL     OW11563   1.111   3.164   3.123
 3555SOL    HW111564   1.015   3.181   3.105
 3555SOL    HW211565   1.167   3.207   3.053
 3556SOL     OW11566   3.847   0.904   4.697
 3556SOL    HW111567   3.757   0.890   4.739
 3556SOL    HW211568   3.913   0.932   4.767
 3557SOL     OW11569   0.596   0.588   3.772
 3557SOL    HW111570   0.575   0.581   3.674
 3557SOL    HW211571   0.573   0.680   3.804
 3558SOL     OW11572   0.597   5.988   1.298
 3558SOL    HW111573   0.555   5.942   1.220
 3558SOL    HW211574   0.536   5.980   1.377
 3559SOL     OW11575   0.129   6.834   4.779
 3559SOL    HW111576   0.159   6.929   4.772
 3559SOL    HW211577   0.113   6.797   4.688
 3560SOL     OW11578   1.384   5.319   0.691
 3560SOL    HW111579   1.452   5.332   0.618
 3560SOL    HW211580   1.368   5.222   0.705
 3561SOL     OW11581   4.240   5.107   5.547
 3561SOL    HW111582   4.144   5.132   5.558
 3561SOL    HW211583   4.261   5.098   5.450
 3562SOL     OW11584   4.627   1.051   4.435
 3562SOL    HW111585   4.593   1.043   4.528
 3562SOL    HW211586   4.572   1.118   4.385
 3563SOL     OW11587   5.554   0.956   1.274
 3563SOL    HW111588   5.627   0.991   1.216
 3563SOL    HW211589   5.484   0.911   1.217
 3564SOL     OW11590   1.340   4.782   4.004
 3564SOL    HW111591   1.412   4.830   4.054
 3564SOL    HW211592   1.262   4.767   4.065
 3565SOL     OW11593   3.664   6.752   4.429
 3565SOL    HW111594   3.687   6.814   4.504
 3565SOL    HW211595   3.713   6.779   4.346
 3566SOL     OW11596   0.068   3.281   6.399
 3566SOL    HW111597   0.065   3.265   6.300
 3566SOL    HW211598   0.048   3.376   6.418
 3567SOL     OW11599   1.477   2.176   0.115
 3567SOL    HW111600   1.548   2.159   0.047
 3567SOL    HW211601   1.404   2.231   0.074
 3568SOL     OW11602   5.378   5.056   2.974
 3568SOL    HW111603   5.334   4.970   3.000
 3568SOL    HW211604   5.345   5.085   2.884
 3569SOL     OW11605   2.849   2.636   5.415
 3569SOL    HW111606   2.772   2.646   5.353
 3569SOL    HW211607   2.918   2.577   5.372
 3570SOL     OW11608   5.623   0.253   5.067
 3570SOL    HW111609   5.581   0.288   5.151
 3570SOL    HW211610   5.626   0.153   5.070
 3571SOL     OW11611   1.610   0.935   4.980
 3571SOL    HW111612   1.576   0.953   4.888
 3571SOL    HW211613   1.708   0.953   4.983
 3572SOL     OW11614   5.311   3.533   2.828
 3572SOL    HW111615   5.244   3.580   2.770
 3572SOL    HW211616   5.264   3.491   2.906
 3573SOL     OW11617   6.520   4.458   2.379
 3573SOL    HW111618   6.581   4.455   2.458
 3573SOL    HW211619   6.452   4.385   2.387
 3574SOL     OW11620   1.946   3.268   0.298
 3574SOL    HW111621   2.017   3.210   0.257
 3574SOL    HW211622   1.857   3.224   0.286
 3575SOL     OW11623   5.076   5.737   1.832
 3575SOL    HW111624   4.994   5.751   1.887
 3575SOL    HW211625   5.095   5.639   1.826
 3576SOL     OW11626   0.180   2.244   7.007
 3576SOL    HW111627   0.147   2.192   6.928
 3576SOL    HW211628   0.162   2.342   6.992
 3577SOL     OW11629   2.695   2.961   5.618
 3577SOL    HW111630   2.780   2.930   5.660
 3577SOL    HW211631   2.637   2.881   5.600
 3578SOL     OW11632   4.317   2.826   1.248
 3578SOL    HW111633   4.249   2.899   1.255
 3578SOL    HW211634   4.398   2.851   1.302
 3579SOL     OW11635   6.984   3.120   3.326
 3579SOL    HW111636   6.965   3.053   3.255
 3579SOL    HW211637   6.898   3.158   3.360
 3580SOL     OW11638   6.799   3.945   1.155
 3580SOL    HW111639   6.735   4.011   1.114
 3580SOL    HW211640   6.885   3.946   1.103
 3581SOL     OW11641   0.544   6.427   3.182
 3581SOL    HW111642   0.571   6.446   3.277
 3581SOL    HW211643   0.588   6.492   3.121
 3582SOL     OW11644   3.035   4.983   5.684
 3582SOL    HW111645   3.065   4.942   5.598
 3582SOL    HW211646   3.051   5.081   5.682
 3583SOL     OW11647   1.611   4.304   0.154
 3583SOL    HW111648   1.578   4.251   0.232
 3583SOL    HW211649   1.661   4.384   0.187
 3584SOL     OW11650   5.637   4.951   5.685
 3584SOL    HW111651   5.688   4.974   5.767
 3584SOL    HW211652   5.596   5.033   5.647
 3585SOL     OW11653   3.288   2.054   4.564
 3585SOL    HW111654   3.193   2.039   4.591
 3585SOL    HW211655   3.301   2.151   4.541
 3586SOL     OW11656   6.715   2.808   4.840
 3586SOL    HW111657   6.734   2.881   4.775
 3586SOL    HW211658   6.705   2.721   4.791
 3587SOL     OW11659   3.202   5.343   6.424
 3587SOL    HW111660   3.192   5.424   6.482
 3587SOL    HW211661   3.281   5.354   6.364
 3588SOL     OW11662   6.804   4.066   4.465
 3588SOL    HW111663   6.816   4.131   4.540
 3588SOL    HW211664   6.821   3.973   4.497
 3589SOL     OW11665   6.327   0.008   6.401
 3589SOL    HW111666   6.408   7.010   6.345
 3589SOL    HW211667   6.352   0.004   6.498
 3590SOL     OW11668   0.173   3.516   0.960
 3590SOL    HW111669   0.207   3.438   0.908
 3590SOL    HW211670   0.249   3.579   0.980
 3591SOL     OW11671   5.632   2.940   0.566
 3591SOL    HW111672   5.651   3.038   0.574
 3591SOL    HW211673   5.614   2.903   0.657
 3592SOL     OW11674   0.403   0.169   2.455
 3592SOL    HW111675   0.492   0.201   2.488
 3592SOL    HW211676   0.402   0.069   2.452
 3593SOL     OW11677   0.426   4.662   5.879
 3593SOL    HW111678   0.502   4.685   5.818
 3593SOL    HW211679   0.379   4.746   5.908
 3594SOL     OW11680   4.709   0.006   4.743
 3594SOL    HW111681   4.803   0.028   4.717
 3594SOL    HW211682   4.677   0.072   4.812
 3595SOL     OW11683   6.333   6.230   0.287
 3595SOL    HW111684   6.259   6.257   0.225
 3595SOL    HW211685   6.371   6.142   0.256
 3596SOL     OW11686   4.335   2.260   3.370
 3596SOL    HW111687   4.270   2.184   3.372
 3596SOL    HW211688   4.330   2.310   3.456
 3597SOL     OW11689   2.134   3.638   5.395
 3597SOL    HW111690   2.179   3.691   5.324
 3597SOL    HW211691   2.040   3.669   5.406
 3598SOL     OW11692   2.161   6.192   5.599
 3598SOL    HW111693   2.228   6.208   5.526
 3598SOL    HW211694   2.107   6.111   5.578
 3599SOL     OW11695   4.778   1.696   6.304
 3599SOL    HW111696   4.795   1.636   6.383
 3599SOL    HW211697   4.794   1.646   6.220
 3600SOL     OW11698   1.674   3.570   1.202
 3600SOL    HW111699   1.669   3.473   1.181
 3600SOL    HW211700   1.760   3.607   1.168
 3601SOL     OW11701   5.559   1.917   5.378
 3601SOL    HW111702   5.590   1.939   5.470
 3601SOL    HW211703   5.498   1.837   5.381
 3602SOL     OW11704   2.281   2.798   1.352
 3602SOL    HW111705   2.271   2.795   1.451
 3602SOL    HW211706   2.357   2.859   1.328
 3603SOL     OW11707   3.527   0.918   6.255
 3603SOL    HW111708   3.599   0.933   6.187
 3603SOL    HW211709   3.465   0.846   6.223
 3604SOL     OW11710   6.377   1.004   3.606
 3604SOL    HW111711   6.378   1.019   3.705
 3604SOL    HW211712   6.408   0.911   3.585
 3605SOL     OW11713   0.874   5.029   3.965
 3605SOL    HW111714   0.935   5.098   3.926
 3605SOL    HW211715   0.918   4.939   3.960
 3606SOL     OW11716   1.578   6.358   1.926
 3606SOL    HW111717   1.649   6.420   1.959
 3606SOL    HW211718   1.519   6.330   2.001
 3607SOL     OW11719   4.960   2.609   2.511
 3607SOL    HW111720   4.876   2.653   2.480
 3607SOL    HW211721   4.966   2.517   2.472
 3608SOL     OW11722   5.268   1.825   4.277
 3608SOL    HW111723   5.196   1.773   4.232
 3608SOL    HW211724   5.335   1.762   4.316
 3609SOL     OW11725   2.345   6.506   4.474
 3609SOL    HW111726   2.365   6.510   4.572
 3609SOL    HW211727   2.426   6.532   4.422
 3610SOL     OW11728   2.227   0.301   5.547
 3610SOL    HW111729   2.236   0.373   5.478
 3610SOL    HW211730   2.276   0.219   5.516
 3611SOL     OW11731   4.564   4.470   4.158
 3611SOL    HW111732   4.484   4.529   4.174
 3611SOL    HW211733   4.588   4.423   4.243
 3612SOL     OW11734   6.318   1.586   6.562
 3612SOL    HW111735   6.339   1.661   6.500
 3612SOL    HW211736   6.390   1.516   6.556
 3613SOL     OW11737   4.710   5.242   1.921
 3613SOL    HW111738   4.697   5.178   1.845
 3613SOL    HW211739   4.738   5.192   2.002
 3614SOL     OW11740   3.276   3.266   6.698
 3614SOL    HW111741   3.236   3.276   6.789
 3614SOL    HW211742   3.327   3.349   6.675
 3615SOL     OW11743   5.979   3.220   5.741
 3615SOL    HW111744   5.913   3.272   5.686
 3615SOL    HW211745   5.980   3.257   5.834
 3616SOL     OW11746   1.612   1.851   5.865
 3616SOL    HW111747   1.618   1.943   5.827
 3616SOL    HW211748   1.640   1.784   5.796
 3617SOL     OW11749   4.728   6.823   5.845
 3617SOL    HW111750   4.741   6.807   5.943
 3617SOL    HW211751   4.687   6.742   5.803
 3618SOL     OW11752   2.181   3.763   4.929
 3618SOL    HW111753   2.221   3.855   4.921
 3618SOL    HW211754   2.087   3.764   4.897
 3619SOL     OW11755   5.161   3.509   0.508
 3619SOL    HW111756   5.136   3.606   0.509
 3619SOL    HW211757   5.184   3.479   0.600
 3620SOL     OW11758   6.473   5.941   4.346
 3620SOL    HW111759   6.455   6.032   4.308
 3620SOL    HW211760   6.387   5.892   4.357
 3621SOL     OW11761   4.001   3.154   4.168
 3621SOL    HW111762   3.989   3.245   4.128
 3621SOL    HW211763   3.912   3.118   4.195
 3622SOL     OW11764   0.847   0.777   1.272
 3622SOL    HW111765   0.926   0.722   1.247
 3622SOL    HW211766   0.857   0.808   1.367
 3623SOL     OW11767   0.778   5.719   5.179
 3623SOL    HW111768   0.813   5.678   5.094
 3623SOL    HW211769   0.738   5.647   5.235
 3624SOL     OW11770   1.600   0.071   1.587
 3624SOL    HW111771   1.664   0.009   1.631
 3624SOL    HW211772   1.522   0.020   1.552
 3625SOL     OW11773   6.822   3.154   0.019
 3625SOL    HW111774   6.873   3.179   0.102
 3625SOL    HW211775   6.734   3.114   0.046
 3626SOL     OW11776   0.447   3.898   4.278
 3626SOL    HW111777   0.378   3.837   4.315
 3626SOL    HW211778   0.481   3.958   4.350
 3627SOL     OW11779   4.898   2.940   1.410
 3627SOL    HW111780   4.858   2.976   1.495
 3627SOL    HW211781   4.856   2.987   1.332
 3628SOL     OW11782   1.196   1.960   1.908
 3628SOL    HW111783   1.192   1.887   1.839
 3628SOL    HW211784   1.287   2.001   1.907
 3629SOL     OW11785   1.274   0.562   3.619
 3629SOL    HW111786   1.317   0.626   3.683
 3629SOL    HW211787   1.269   0.471   3.660
 3630SOL     OW11788   6.919   2.713   3.001
 3630SOL    HW111789   6.910   2.730   2.903
 3630SOL    HW211790   6.924   2.801   3.049
 3631SOL     OW11791   2.039   6.906   3.242
 3631SOL    HW111792   2.071   6.939   3.154
 3631SOL    HW211793   1.981   6.975   3.285
 3632SOL     OW11794   4.299   4.125   1.098
 3632SOL    HW111795   4.237   4.068   1.044
 3632SOL    HW211796   4.391   4.118   1.059
 3633SOL     OW11797   3.507   2.535   5.511
 3633SOL    HW111798   3.427   2.566   5.461
 3633SOL    HW211799   3.491   2.443   5.547
 3634SOL     OW11800   2.573   6.477   5.980
 3634SOL    HW111801   2.503   6.444   5.916
 3634SOL    HW211802   2.606   6.400   6.035
 3635SOL     OW11803   2.471   1.213   1.379
 3635SOL    HW111804   2.419   1.165   1.309
 3635SOL    HW211805   2.493   1.151   1.454
 3636SOL     OW11806   6.876   5.361   0.648
 3636SOL    HW111807   6.784   5.383   0.680
 3636SOL    HW211808   6.870   5.295   0.574
 3637SOL     OW11809   1.192   3.040   0.266
 3637SOL    HW111810   1.179   2.942   0.250
 3637SOL    HW211811   1.121   3.074   0.328
 3638SOL     OW11812   6.705   3.979   2.878
 3638SOL    HW111813   6.698   3.952   2.975
 3638SOL    HW211814   6.626   4.035   2.854
 3639SOL     OW11815   3.833   4.093   5.143
 3639SOL    HW111816   3.748   4.043   5.163
 3639SOL    HW211817   3.833   4.119   5.046
 3640SOL     OW11818   5.403   2.843   0.403
 3640SOL    HW111819   5.452   2.761   0.373
 3640SOL    HW211820   5.436   2.872   0.492
 3641SOL     OW11821   5.864   3.798   1.125
 3641SOL    HW111822   5.943   3.744   1.155
 3641SOL    HW211823   5.859   3.797   1.026
 3642SOL     OW11824   5.717   2.642   6.479
 3642SOL    HW111825   5.653   2.608   6.548
 3642SOL    HW211826   5.688   2.733   6.449
 3643SOL     OW11827   4.293   6.376   6.495
 3643SOL    HW111828   4.202   6.386   6.455
 3643SOL    HW211829   4.305   6.283   6.528
 3644SOL     OW11830   2.798   0.825   1.516
 3644SOL    HW111831   2.709   0.870   1.524
 3644SOL    HW211832   2.790   0.730   1.546
 3645SOL     OW11833   1.359   3.635   4.093
 3645SOL    HW111834   1.423   3.568   4.131
 3645SOL    HW211835   1.266   3.601   4.103
 3646SOL     OW11836   3.015   4.865   4.672
 3646SOL    HW111837   3.068   4.846   4.590
 3646SOL    HW211838   3.071   4.848   4.753
 3647SOL     OW11839   2.596   6.825   6.845
 3647SOL    HW111840   2.517   6.811   6.904
 3647SOL    HW211841   2.674   6.855   6.901
 3648SOL     OW11842   4.996   6.094   3.403
 3648SOL    HW111843   5.074   6.138   3.357
 3648SOL    HW211844   5.028   6.050   3.487
 3649SOL     OW11845   5.452   3.885   6.797
 3649SOL    HW111846   5.528   3.905   6.859
 3649SOL    HW211847   5.457   3.947   6.719
 3650SOL     OW11848   5.032   3.875   0.465
 3650SOL    HW111849   4.956   3.934   0.491
 3650SOL    HW211850   5.003   3.811   0.394
 3651SOL     OW11851   2.060   2.326   5.404
 3651SOL    HW111852   2.048   2.245   5.347
 3651SOL    HW211853   1.971   2.365   5.427
 3652SOL     OW11854   5.221   1.032   2.225
 3652SOL    HW111855   5.178   1.122   2.229
 3652SOL    HW211856   5.234   0.997   2.318
 3653SOL     OW11857   0.759   0.516   2.516
 3653SOL    HW111858   0.854   0.487   2.512
 3653SOL    HW211859   0.744   0.573   2.596
 3654SOL     OW11860   4.660   5.927   1.271
 3654SOL    HW111861   4.631   5.974   1.355
 3654SOL    HW211862   4.586   5.931   1.204
 3655SOL     OW11863   3.053   1.226   4.085
 3655SOL    HW111864   3.066   1.142   4.137
 3655SOL    HW211865   2.956   1.243   4.074
 3656SOL     OW11866   0.956   5.799   2.234
 3656SOL    HW111867   0.959   5.699   2.237
 3656SOL    HW211868   0.883   5.827   2.172
 3657SOL     OW11869   4.509   5.877   5.466
 3657SOL    HW111870   4.592   5.901   5.515
 3657SOL    HW211871   4.430   5.915   5.513
 3658SOL     OW11872   1.721   5.486   6.624
 3658SOL    HW111873   1.816   5.468   6.599
 3658SOL    HW211874   1.663   5.474   6.544
 3659SOL     OW11875   6.951   1.454   6.424
 3659SOL    HW111876   0.005   1.457   6.360
 3659SOL    HW211877   6.898   1.371   6.410
 3660SOL     OW11878   5.533   5.883   5.680
 3660SOL    HW111879   5.535   5.849   5.586
 3660SOL    HW211880   5.567   5.812   5.742
 3661SOL     OW11881   6.974   0.971   4.408
 3661SOL    HW111882   6.998   0.944   4.502
 3661SOL    HW211883   6.920   1.055   4.411
 3662SOL     OW11884   3.658   0.824   5.607
 3662SOL    HW111885   3.735   0.865   5.655
 3662SOL    HW211886   3.574   0.839   5.659
 3663SOL     OW11887   2.110   2.597   0.245
 3663SOL    HW111888   2.104   2.612   0.343
 3663SOL    HW211889   2.189   2.647   0.208
 3664SOL     OW11890   4.581   1.550   2.292
 3664SOL    HW111891   4.645   1.589   2.225
 3664SOL    HW211892   4.565   1.454   2.270
 3665SOL     OW11893   0.496   6.392   5.501
 3665SOL    HW111894   0.537   6.471   5.455
 3665SOL    HW211895   0.530   6.387   5.595
 3666SOL     OW11896   1.443   2.361   3.391
 3666SOL    HW111897   1.473   2.266   3.377
 3666SOL    HW211898   1.379   2.365   3.467
 3667SOL     OW11899   1.106   1.762   2.873
 3667SOL    HW111900   1.051   1.679   2.875
 3667SOL    HW211901   1.202   1.739   2.892
 3668SOL     OW11902   1.051   0.332   1.876
 3668SOL    HW111903   1.140   0.365   1.910
 3668SOL    HW211904   1.038   0.365   1.782
 3669SOL     OW11905   6.211   2.183   4.461
 3669SOL    HW111906   6.229   2.107   4.398
 3669SOL    HW211907   6.276   2.257   4.443
 3670SOL     OW11908   3.313   5.192   1.566
 3670SOL    HW111909   3.391   5.139   1.599
 3670SOL    HW211910   3.273   5.243   1.642
 3671SOL     OW11911   6.480   0.869   3.158
 3671SOL    HW111912   6.478   0.825   3.248
 3671SOL    HW211913   6.510   0.964   3.169
 3672SOL     OW11914   5.321   1.367   2.167
 3672SOL    HW111915   5.292   1.380   2.262
 3672SOL    HW211916   5.420   1.357   2.164
 3673SOL     OW11917   5.277   5.954   0.580
 3673SOL    HW111918   5.264   5.857   0.560
 3673SOL    HW211919   5.198   6.005   0.548
 3674SOL     OW11920   1.672   6.113   6.112
 3674SOL    HW111921   1.627   6.096   6.025
 3674SOL    HW211922   1.756   6.059   6.117
 3675SOL     OW11923   0.408   2.121   3.846
 3675SOL    HW111924   0.347   2.043   3.836
 3675SOL    HW211925   0.473   2.122   3.770
 3676SOL     OW11926   4.621   2.662   3.097
 3676SOL    HW111927   4.644   2.725   3.024
 3676SOL    HW211928   4.670   2.688   3.180
 3677SOL     OW11929   1.953   1.046   4.239
 3677SOL    HW111930   2.019   1.116   4.213
 3677SOL    HW211931   2.001   0.972   4.286
 3678SOL     OW11932   1.180   0.333   3.711
 3678SOL    HW111933   1.093   0.379   3.731
 3678SOL    HW211934   1.168   0.234   3.720
 3679SOL     OW11935   5.738   0.243   3.171
 3679SOL    HW111936   5.719   0.241   3.073
 3679SOL    HW211937   5.671   0.302   3.217
 3680SOL     OW11938   4.922   1.121   3.147
 3680SOL    HW111939   4.914   1.124   3.246
 3680SOL    HW211940   4.836   1.151   3.106
 3681SOL     OW11941   1.391   0.531   5.115
 3681SOL    HW111942   1.386   0.440   5.155
 3681SOL    HW211943   1.467   0.534   5.049
 3682SOL     OW11944   5.302   2.730   1.040
 3682SOL    HW111945   5.212   2.713   1.000
 3682SOL    HW211946   5.368   2.665   1.000
 3683SOL     OW11947   0.172   0.355   4.639
 3683SOL    HW111948   0.252   0.408   4.610
 3683SOL    HW211949   0.100   0.417   4.669
 3684SOL     OW11950   2.122   6.892   5.636
 3684SOL    HW111951   2.096   6.971   5.691
 3684SOL    HW211952   2.172   6.827   5.693
 3685SOL     OW11953   2.399   5.986   5.259
 3685SOL    HW111954   2.404   5.916   5.330
 3685SOL    HW211955   2.425   5.946   5.171
 3686SOL     OW11956   6.474   3.472   3.656
 3686SOL    HW111957   6.545   3.469   3.726
 3686SOL    HW211958   6.451   3.567   3.636
 3687SOL     OW11959   4.837   6.317   3.517
 3687SOL    HW111960   4.794   6.277   3.598
 3687SOL    HW211961   4.892   6.248   3.470
 3688SOL     OW11962   5.900   3.181   0.003
 3688SOL    HW111963   5.976   3.162   0.064
 3688SOL    HW211964   5.883   3.280   0.001
 3689SOL     OW11965   2.308   1.371   5.089
 3689SOL    HW111966   2.401   1.342   5.067
 3689SOL    HW211967   2.281   1.445   5.028
 3690SOL     OW11968   5.008   5.449   0.836
 3690SOL    HW111969   5.008   5.543   0.801
 3690SOL    HW211970   4.922   5.432   0.884
 3691SOL     OW11971   3.091   1.643   6.072
 3691SOL    HW111972   3.053   1.620   5.982
 3691SOL    HW211973   3.020   1.631   6.142
 3692SOL     OW11974   6.968   4.021   5.842
 3692SOL    HW111975   6.978   4.049   5.747
 3692SOL    HW211976   6.872   4.000   5.862
 3693SOL     OW11977   0.561   1.638   2.630
 3693SOL    HW111978   0.609   1.716   2.590
 3693SOL    HW211979   0.474   1.625   2.583
 3694SOL     OW11980   0.935   0.864   1.529
 3694SOL    HW111981   0.949   0.823   1.619
 3694SOL    HW211982   0.871   0.941   1.537
 3695SOL     OW11983   6.628   2.605   2.352
 3695SOL    HW111984   6.646   2.700   2.326
 3695SOL    HW211985   6.713   2.561   2.381
 3696SOL     OW11986   5.048   0.854   4.976
 3696SOL    HW111987   5.107   0.883   5.052
 3696SOL    HW211988   4.952   0.865   5.002
 3697SOL     OW11989   6.527   6.049   3.307
 3697SOL    HW111990   6.558   5.954   3.294
 3697SOL    HW211991   6.432   6.049   3.336
 3698SOL     OW11992   1.614   0.679   3.624
 3698SOL    HW111993   1.551   0.752   3.651
 3698SOL    HW211994   1.705   0.716   3.607
 3699SOL     OW11995   2.452   2.288   4.102
 3699SOL    HW111996   2.514   2.239   4.040
 3699SOL    HW211997   2.502   2.362   4.147
 3700SOL     OW11998   1.682   5.154   5.026
 3700SOL    HW111999   1.779   5.131   5.013
 3700SOL    HW212000   1.647   5.198   4.944
 3701SOL     OW12001   1.048   6.667   2.664
 3701SOL    HW112002   1.049   6.753   2.613
 3701SOL    HW212003   1.113   6.603   2.623
 3702SOL     OW12004   5.707   5.658   4.143
 3702SOL    HW112005   5.678   5.715   4.066
 3702SOL    HW212006   5.658   5.686   4.226
 3703SOL     OW12007   0.966   1.283   6.037
 3703SOL    HW112008   0.950   1.381   6.046
 3703SOL    HW212009   1.061   1.266   6.012
 3704SOL     OW12010   5.884   2.895   0.908
 3704SOL    HW112011   5.925   2.880   0.998
 3704SOL    HW212012   5.940   2.851   0.838
 3705SOL     OW12013   5.133   4.963   3.681
 3705SOL    HW112014   5.186   4.878   3.671
 3705SOL    HW212015   5.037   4.940   3.695
 3706SOL     OW12016   1.034   3.721   0.852
 3706SOL    HW112017   0.957   3.715   0.788
 3706SOL    HW212018   1.063   3.628   0.878
 3707SOL     OW12019   3.224   4.954   3.846
 3707SOL    HW112020   3.267   5.029   3.795
 3707SOL    HW212021   3.291   4.913   3.907
 3708SOL     OW12022   3.571   6.679   1.244
 3708SOL    HW112023   3.660   6.674   1.199
 3708SOL    HW212024   3.512   6.743   1.194
 3709SOL     OW12025   2.018   0.679   1.847
 3709SOL    HW112026   1.976   0.652   1.760
 3709SOL    HW212027   2.099   0.623   1.864
 3710SOL     OW12028   0.557   5.502   5.230
 3710SOL    HW112029   0.490   5.434   5.199
 3710SOL    HW212030   0.509   5.578   5.273
 3711SOL     OW12031   1.800   6.378   5.263
 3711SOL    HW112032   1.783   6.393   5.361
 3711SOL    HW212033   1.769   6.287   5.237
 3712SOL     OW12034   2.439   5.682   6.486
 3712SOL    HW112035   2.465   5.626   6.407
 3712SOL    HW212036   2.445   5.628   6.569
 3713SOL     OW12037   6.950   6.464   4.635
 3713SOL    HW112038   6.947   6.463   4.735
 3713SOL    HW212039   6.856   6.466   4.599
 3714SOL     OW12040   0.990   4.851   0.049
 3714SOL    HW112041   0.998   4.757   0.017
 3714SOL    HW212042   0.897   4.869   0.079
 3715SOL     OW12043   0.000   6.072   3.618
 3715SOL    HW112044   7.021   6.092   3.716
 3715SOL    HW212045   0.076   6.121   3.576
 3716SOL     OW12046   6.412   5.714   4.030
 3716SOL    HW112047   6.316   5.743   4.028
 3716SOL    HW212048   6.421   5.625   3.985
 3717SOL     OW12049   4.949   1.274   0.611
 3717SOL    HW112050   4.893   1.325   0.546
 3717SOL    HW212051   5.046   1.284   0.587
 3718SOL     OW12052   0.450   6.667   6.611
 3718SOL    HW112053   0.350   6.660   6.603
 3718SOL    HW212054   0.488   6.579   6.639
 3719SOL     OW12055   3.962   3.133   6.095
 3719SOL    HW112056   3.908   3.110   6.014
 3719SOL    HW212057   3.904   3.180   6.162
 3720SOL     OW12058   6.023   3.550   1.166
 3720SOL    HW112059   6.063   3.554   1.074
 3720SOL    HW212060   6.081   3.495   1.226
 3721SOL     OW12061   6.310   5.386   0.008
 3721SOL    HW112062   6.385   5.347   6.978
 3721SOL    HW212063   6.335   5.390   0.105
 3722SOL     OW12064   4.621   6.826   1.568
 3722SOL    HW112065   4.705   6.791   1.610
 3722SOL    HW212066   4.562   6.864   1.638
 3723SOL     OW12067   4.515   5.359   0.423
 3723SOL    HW112068   4.578   5.282   0.431
 3723SOL    HW212069   4.559   5.433   0.372
 3724SOL     OW12070   1.748   5.078   5.591
 3724SOL    HW112071   1.719   4.985   5.566
 3724SOL    HW212072   1.844   5.091   5.565
 3725SOL     OW12073   0.399   6.256   0.169
 3725SOL    HW112074   0.356   6.290   0.253
 3725SOL    HW212075   0.462   6.325   0.133
 3726SOL     OW12076   5.146   4.615   4.389
 3726SOL    HW112077   5.228   4.562   4.412
 3726SOL    HW212078   5.173   4.697   4.338
 3727SOL     OW12079   0.367   3.145   4.145
 3727SOL    HW112080   0.425   3.082   4.198
 3727SOL    HW212081   0.355   3.230   4.196
 3728SOL     OW12082   3.297   3.381   0.695
 3728SOL    HW112083   3.263   3.475   0.688
 3728SOL    HW212084   3.228   3.323   0.739
 3729SOL     OW12085   0.477   0.445   5.535
 3729SOL    HW112086   0.492   0.479   5.442
 3729SOL    HW212087   0.380   0.421   5.546
 3730SOL     OW12088   4.495   6.656   5.804
 3730SOL    HW112089   4.497   6.744   5.851
 3730SOL    HW212090   4.401   6.634   5.778
 3731SOL     OW12091   0.150   1.391   6.258
 3731SOL    HW112092   0.125   1.350   6.170
 3731SOL    HW212093   0.247   1.371   6.277
 3732SOL     OW12094   1.836   1.543   0.128
 3732SOL    HW112095   1.856   1.622   0.069
 3732SOL    HW212096   1.828   1.461   0.072
 3733SOL     OW12097   1.438   2.873   3.653
 3733SOL    HW112098   1.403   2.783   3.627
 3733SOL    HW212099   1.512   2.862   3.720
 3734SOL     OW12100   3.891   0.456   1.629
 3734SOL    HW112101   3.935   0.541   1.659
 3734SOL    HW212102   3.872   0.399   1.709
 3735SOL     OW12103   4.210   6.693   2.334
 3735SOL    HW112104   4.115   6.669   2.354
 3735SOL    HW212105   4.235   6.657   2.244
 3736SOL     OW12106   6.511   0.909   0.767
 3736SOL    HW112107   6.598   0.890   0.812
 3736SOL    HW212108   6.528   0.949   0.677
 3737SOL     OW12109   6.329   2.557   3.412
 3737SOL    HW112110   6.393   2.504   3.356
 3737SOL    HW212111   6.268   2.609   3.353
 3738SOL     OW12112   6.717   5.818   0.840
 3738SOL    HW112113   6.764   5.889   0.788
 3738SOL    HW212114   6.783   5.748   0.868
 3739SOL     OW12115   2.895   4.794   1.789
 3739SOL    HW112116   2.867   4.756   1.701
 3739SOL    HW212117   2.900   4.720   1.857
 3740SOL     OW12118   5.887   5.792   6.669
 3740SOL    HW112119   5.851   5.805   6.577
 3740SOL    HW212120   5.969   5.736   6.666
 3741SOL     OW12121   5.320   2.636   0.089
 3741SOL    HW112122   5.269   2.720   0.107
 3741SOL    HW212123   5.391   2.624   0.159
 3742SOL     OW12124   4.454   5.772   0.403
 3742SOL    HW112125   4.475   5.725   0.317
 3742SOL    HW212126   4.536   5.817   0.438
 3743SOL     OW12127   4.211   4.022   1.323
 3743SOL    HW112128   4.211   4.085   1.400
 3743SOL    HW212129   4.215   4.074   1.238
 3744SOL     OW12130   1.317   6.554   2.045
 3744SOL    HW112131   1.325   6.557   1.946
 3744SOL    HW212132   1.222   6.533   2.070
 3745SOL     OW12133   5.009   3.399   2.404
 3745SOL    HW112134   4.994   3.317   2.348
 3745SOL    HW212135   5.101   3.398   2.440
 3746SOL     OW12136   6.560   0.216   3.288
 3746SOL    HW112137   6.600   0.304   3.313
 3746SOL    HW212138   6.566   0.153   3.365
 3747SOL     OW12139   4.363   6.664   6.156
 3747SOL    HW112140   4.294   6.671   6.084
 3747SOL    HW212141   4.364   6.749   6.209
 3748SOL     OW12142   5.709   1.052   2.495
 3748SOL    HW112143   5.648   1.052   2.574
 3748SOL    HW212144   5.674   0.988   2.426
 3749SOL     OW12145   1.045   5.460   2.461
 3749SOL    HW112146   1.016   5.534   2.523
 3749SOL    HW212147   1.142   5.471   2.439
 3750SOL     OW12148   5.856   4.494   0.690
 3750SOL    HW112149   5.780   4.455   0.638
 3750SOL    HW212150   5.941   4.447   0.664
 3751SOL     OW12151   1.413   3.251   1.099
 3751SOL    HW112152   1.327   3.213   1.065
 3751SOL    HW212153   1.404   3.351   1.107
 3752SOL     OW12154   0.363   0.387   6.700
 3752SOL    HW112155   0.295   0.391   6.627
 3752SOL    HW212156   0.317   0.392   6.789
 3753SOL     OW12157   0.850   6.604   4.742
 3753SOL    HW112158   0.879   6.697   4.766
 3753SOL    HW212159   0.923   6.558   4.691
 3754SOL     OW12160   5.501   6.520   1.303
 3754SOL    HW112161   5.461   6.607   1.275
 3754SOL    HW212162   5.431   6.461   1.342
 3755SOL     OW12163   5.381   5.486   4.016
 3755SOL    HW112164   5.338   5.516   4.101
 3755SOL    HW212165   5.481   5.496   4.024
 3756SOL     OW12166   2.027   1.386   6.262
 3756SOL    HW112167   2.024   1.390   6.362
 3756SOL    HW212168   1.934   1.375   6.227
 3757SOL     OW12169   3.546   5.787   5.286
 3757SOL    HW112170   3.535   5.886   5.286
 3757SOL    HW212171   3.461   5.743   5.258
 3758SOL     OW12172   2.423   1.006   4.582
 3758SOL    HW112173   2.355   1.078   4.595
 3758SOL    HW212174   2.394   0.924   4.632
 3759SOL     OW12175   4.819   5.356   5.544
 3759SOL    HW112176   4.793   5.260   5.557
 3759SOL    HW212177   4.903   5.374   5.596
 3760SOL     OW12178   1.216   3.364   3.711
 3760SOL    HW112179   1.178   3.348   3.803
 3760SOL    HW212180   1.280   3.291   3.688
 3761SOL     OW12181   0.586   6.803   5.407
 3761SOL    HW112182   0.635   6.845   5.330
 3761SOL    HW212183   0.583   6.704   5.394
 3762SOL     OW12184   1.259   4.295   0.203
 3762SOL    HW112185   1.332   4.233   0.232
 3762SOL    HW212186   1.278   4.387   0.238
 3763SOL     OW12187   6.678   4.113   6.757
 3763SOL    HW112188   6.606   4.103   6.688
 3763SOL    HW212189   6.637   4.141   6.844
 3764SOL     OW12190   2.040   0.615   4.520
 3764SOL    HW112191   1.943   0.618   4.545
 3764SOL    HW212192   2.094   0.584   4.599
 3765SOL     OW12193   4.713   0.913   3.276
 3765SOL    HW112194   4.767   0.864   3.207
 3765SOL    HW212195   4.616   0.908   3.253
 3766SOL     OW12196   0.600   0.868   3.892
 3766SOL    HW112197   0.565   0.956   3.925
 3766SOL    HW212198   0.697   0.879   3.868
 3767SOL     OW12199   1.601   5.141   0.242
 3767SOL    HW112200   1.659   5.137   0.161
 3767SOL    HW212201   1.557   5.052   0.256
 3768SOL     OW12202   4.273   6.092   6.575
 3768SOL    HW112203   4.196   6.130   6.628
 3768SOL    HW212204   4.238   6.021   6.513
 3769SOL     OW12205   5.733   5.908   5.211
 3769SOL    HW112206   5.771   5.989   5.167
 3769SOL    HW212207   5.736   5.831   5.148
 3770SOL     OW12208   2.218   0.939   5.869
 3770SOL    HW112209   2.212   0.843   5.896
 3770SOL    HW212210   2.139   0.989   5.903
 3771SOL     OW12211   5.411   2.138   0.416
 3771SOL    HW112212   5.370   2.229   0.413
 3771SOL    HW212213   5.480   2.130   0.344
 3772SOL     OW12214   6.359   0.969   0.994
 3772SOL    HW112215   6.407   0.968   1.081
 3772SOL    HW212216   6.424   0.949   0.920
 3773SOL     OW12217   5.454   3.031   5.675
 3773SOL    HW112218   5.524   2.996   5.612
 3773SOL    HW212219   5.432   3.126   5.652
 3774SOL     OW12220   1.457   0.113   6.348
 3774SOL    HW112221   1.390   0.111   6.422
 3774SOL    HW212222   1.438   0.039   6.283
 3775SOL     OW12223   5.278   4.103   3.078
 3775SOL    HW112224   5.179   4.116   3.078
 3775SOL    HW212225   5.317   4.145   2.996
 3776SOL     OW12226   2.317   1.754   1.722
 3776SOL    HW112227   2.281   1.729   1.632
 3776SOL    HW212228   2.240   1.777   1.782
 3777SOL     OW12229   3.113   4.863   4.917
 3777SOL    HW112230   3.070   4.818   4.996
 3777SOL    HW212231   3.212   4.857   4.926
 3778SOL     OW12232   2.422   5.855   2.723
 3778SOL    HW112233   2.510   5.821   2.757
 3778SOL    HW212234   2.438   5.930   2.659
 3779SOL     OW12235   2.486   4.583   0.223
 3779SOL    HW112236   2.457   4.539   0.308
 3779SOL    HW212237   2.586   4.585   0.220
 3780SOL     OW12238   4.027   5.322   4.845
 3780SOL    HW112239   3.979   5.380   4.779
 3780SOL    HW212240   4.120   5.306   4.813
 3781SOL     OW12241   2.141   6.535   4.117
 3781SOL    HW112242   2.111   6.522   4.023
 3781SOL    HW212243   2.200   6.616   4.122
 3782SOL     OW12244   2.731   2.120   4.434
 3782SOL    HW112245   2.731   2.202   4.377
 3782SOL    HW212246   2.786   2.136   4.516
 3783SOL     OW12247   6.699   6.802   5.245
 3783SOL    HW112248   6.676   6.889   5.290
 3783SOL    HW212249   6.709   6.818   5.146
 3784SOL     OW12250   5.571   1.648   3.825
 3784SOL    HW112251   5.531   1.560   3.849
 3784SOL    HW212252   5.581   1.655   3.726
 3785SOL     OW12253   2.735   1.735   0.654
 3785SOL    HW112254   2.670   1.708   0.725
 3785SOL    HW212255   2.717   1.830   0.627
 3786SOL     OW12256   3.109   4.889   3.627
 3786SOL    HW112257   3.151   4.902   3.717
 3786SOL    HW212258   3.167   4.930   3.557
 3787SOL     OW12259   5.492   0.776   4.539
 3787SOL    HW112260   5.417   0.750   4.478
 3787SOL    HW212261   5.578   0.773   4.488
 3788SOL     OW12262   6.256   3.346   3.329
 3788SOL    HW112263   6.274   3.279   3.401
 3788SOL    HW212264   6.177   3.316   3.274
 3789SOL     OW12265   1.200   4.252   4.221
 3789SOL    HW112266   1.229   4.197   4.143
 3789SOL    HW212267   1.102   4.239   4.236
 3790SOL     OW12268   1.997   3.817   4.675
 3790SOL    HW112269   1.940   3.796   4.754
 3790SOL    HW212270   1.950   3.789   4.591
 3791SOL     OW12271   5.389   0.013   1.136
 3791SOL    HW112272   5.333   0.087   1.173
 3791SOL    HW212273   5.440   0.047   1.057
 3792SOL     OW12274   6.590   0.355   5.117
 3792SOL    HW112275   6.632   0.321   5.201
 3792SOL    HW212276   6.636   0.440   5.089
 3793SOL     OW12277   2.154   1.070   2.540
 3793SOL    HW112278   2.241   1.094   2.584
 3793SOL    HW212279   2.089   1.144   2.554
 3794SOL     OW12280   4.016   5.498   2.061
 3794SOL    HW112281   3.961   5.541   2.133
 3794SOL    HW212282   4.052   5.411   2.095
 3795SOL     OW12283   5.040   0.092   6.809
 3795SOL    HW112284   5.121   0.084   6.751
 3795SOL    HW212285   4.975   0.155   6.768
 3796SOL     OW12286   1.286   2.066   1.520
 3796SOL    HW112287   1.336   2.099   1.600
 3796SOL    HW212288   1.188   2.074   1.536
 3797SOL     OW12289   6.767   5.519   2.229
 3797SOL    HW112290   6.699   5.551   2.295
 3797SOL    HW212291   6.859   5.527   2.267
 3798SOL     OW12292   2.721   4.666   3.303
 3798SOL    HW112293   2.665   4.599   3.351
 3798SOL    HW212294   2.693   4.671   3.207
 3799SOL     OW12295   1.404   1.521   5.040
 3799SOL    HW112296   1.463   1.586   4.994
 3799SOL    HW212297   1.452   1.434   5.051
 3800SOL     OW12298   5.053   2.532   4.880
 3800SOL    HW112299   5.105   2.461   4.834
 3800SOL    HW212300   4.990   2.575   4.816
 3801SOL     OW12301   6.341   6.252   5.406
 3801SOL    HW112302   6.262   6.313   5.413
 3801SOL    HW212303   6.322   6.167   5.455
 3802SOL     OW12304   1.118   2.110   5.313
 3802SOL    HW112305   1.031   2.070   5.341
 3802SOL    HW212306   1.142   2.185   5.376
 3803SOL     OW12307   4.421   0.534   2.089
 3803SOL    HW112308   4.478   0.615   2.082
 3803SOL    HW212309   4.369   0.522   2.004
 3804SOL     OW12310   4.628   1.531   4.795
 3804SOL    HW112311   4.576   1.616   4.787
 3804SOL    HW212312   4.724   1.553   4.814
 3805SOL     OW12313   3.277   4.011   1.711
 3805SOL    HW112314   3.343   3.943   1.678
 3805SOL    HW212315   3.284   4.019   1.811
 3806SOL     OW12316   2.999   2.588   6.880
 3806SOL    HW112317   2.974   2.640   6.961
 3806SOL    HW212318   3.055   2.510   6.907
 3807SOL     OW12319   1.376   0.350   4.592
 3807SOL    HW112320   1.293   0.371   4.539
 3807SOL    HW212321   1.431   0.283   4.542
 3808SOL     OW12322   3.216   0.547   2.345
 3808SOL    HW112323   3.273   0.474   2.307
 3808SOL    HW212324   3.267   0.595   2.416
 3809SOL     OW12325   5.997   2.109   6.800
 3809SOL    HW112326   6.068   2.160   6.849
 3809SOL    HW212327   5.914   2.106   6.854
 3810SOL     OW12328   3.409   3.560   5.799
 3810SOL    HW112329   3.461   3.475   5.796
 3810SOL    HW212330   3.344   3.562   5.723
 3811SOL     OW12331   0.515   4.057   4.480
 3811SOL    HW112332   0.428   4.058   4.530
 3811SOL    HW212333   0.573   3.984   4.516
 3812SOL     OW12334   6.242   2.040   6.080
 3812SOL    HW112335   6.301   2.022   6.158
 3812SOL    HW212336   6.150   2.064   6.112
 3813SOL     OW12337   3.753   5.048   1.278
 3813SOL    HW112338   3.795   5.097   1.354
 3813SOL    HW212339   3.773   4.950   1.285
 3814SOL     OW12340   6.913   6.103   1.123
 3814SOL    HW112341   7.009   6.119   1.100
 3814SOL    HW212342   6.901   6.007   1.150
 3815SOL     OW12343   4.901   2.187   1.164
 3815SOL    HW112344   4.894   2.256   1.236
 3815SOL    HW212345   4.809   2.155   1.141
 3816SOL     OW12346   6.700   6.432   2.109
 3816SOL    HW112347   6.704   6.525   2.072
 3816SOL    HW212348   6.610   6.417   2.151
 3817SOL     OW12349   4.455   2.466   4.292
 3817SOL    HW112350   4.486   2.562   4.291
 3817SOL    HW212351   4.535   2.406   4.287
 3818SOL     OW12352   4.418   6.538   2.392
 3818SOL    HW112353   4.341   6.598   2.368
 3818SOL    HW212354   4.385   6.466   2.453
 3819SOL     OW12355   5.914   5.567   0.337
 3819SOL    HW112356   5.916   5.487   0.396
 3819SOL    HW212357   5.831   5.564   0.281
 3820SOL     OW12358   5.943   5.910   3.946
 3820SOL    HW112359   5.948   5.941   3.851
 3820SOL    HW212360   5.870   5.960   3.993
 3821SOL     OW12361   1.769   3.552   1.819
 3821SOL    HW112362   1.686   3.537   1.766
 3821SOL    HW212363   1.822   3.626   1.777
 3822SOL     OW12364   1.937   5.346   1.926
 3822SOL    HW112365   1.886   5.263   1.948
 3822SOL    HW212366   1.936   5.360   1.827
 3823SOL     OW12367   3.778   2.160   5.036
 3823SOL    HW112368   3.684   2.131   5.057
 3823SOL    HW212369   3.811   2.222   5.107
 3824SOL     OW12370   5.993   2.096   5.899
 3824SOL    HW112371   6.040   2.177   5.935
 3824SOL    HW212372   5.949   2.047   5.974
 3825SOL     OW12373   6.505   0.053   0.031
 3825SOL    HW112374   6.568   0.130   0.030
 3825SOL    HW212375   6.501   0.014   0.123
 3826SOL     OW12376   0.376   3.648   0.722
 3826SOL    HW112377   0.395   3.700   0.638
 3826SOL    HW212378   0.350   3.711   0.795
 3827SOL     OW12379   3.783   4.457   0.783
 3827SOL    HW112380   3.696   4.408   0.793
 3827SOL    HW212381   3.858   4.394   0.799
 3828SOL     OW12382   4.642   2.098   1.109
 3828SOL    HW112383   4.561   2.145   1.144
 3828SOL    HW212384   4.625   2.067   1.016
 3829SOL     OW12385   2.469   4.903   3.234
 3829SOL    HW112386   2.370   4.903   3.251
 3829SOL    HW212387   2.518   4.890   3.320
 3830SOL     OW12388   1.752   0.192   5.140
 3830SOL    HW112389   1.699   0.254   5.199
 3830SOL    HW212390   1.836   0.238   5.111
 3831SOL     OW12391   3.895   1.584   2.618
 3831SOL    HW112392   3.800   1.563   2.594
 3831SOL    HW212393   3.948   1.600   2.535
 3832SOL     OW12394   6.279   1.083   1.697
 3832SOL    HW112395   6.315   1.092   1.604
 3832SOL    HW212396   6.337   1.020   1.749
 3833SOL     OW12397   0.716   4.593   0.401
 3833SOL    HW112398   0.633   4.567   0.452
 3833SOL    HW212399   0.693   4.607   0.305
 3834SOL     OW12400   2.695   2.005   0.604
 3834SOL    HW112401   2.700   2.088   0.549
 3834SOL    HW212402   2.768   2.006   0.672
 3835SOL     OW12403   3.733   5.674   5.500
 3835SOL    HW112404   3.666   5.717   5.441
 3835SOL    HW212405   3.819   5.725   5.496
 3836SOL     OW12406   2.062   4.082   5.991
 3836SOL    HW112407   2.105   4.017   5.928
 3836SOL    HW212408   2.074   4.175   5.956
 3837SOL     OW12409   4.443   3.449   7.014
 3837SOL    HW112410   4.371   3.518   7.013
 3837SOL    HW212411   4.414   3.371   0.048
 3838SOL     OW12412   5.325   2.083   4.243
 3838SOL    HW112413   5.314   1.983   4.242
 3838SOL    HW212414   5.342   2.116   4.151
 3839SOL     OW12415   5.896   6.914   5.306
 3839SOL    HW112416   5.910   6.988   5.372
 3839SOL    HW212417   5.878   6.829   5.354
 3840SOL     OW12418   1.339   1.087   4.911
 3840SOL    HW112419   1.423   1.134   4.939
 3840SOL    HW212420   1.362   0.993   4.885
 3841SOL     OW12421   1.031   4.116   4.901
 3841SOL    HW112422   0.952   4.054   4.906
 3841SOL    HW212423   1.079   4.100   4.815
 3842SOL     OW12424   0.500   5.365   0.052
 3842SOL    HW112425   0.417   5.393   0.100
 3842SOL    HW212426   0.535   5.281   0.093
 3843SOL     OW12427   6.491   3.405   0.620
 3843SOL    HW112428   6.523   3.471   0.688
 3843SOL    HW212429   6.458   3.323   0.666
 3844SOL     OW12430   1.809   5.186   5.841
 3844SOL    HW112431   1.807   5.186   5.741
 3844SOL    HW212432   1.782   5.096   5.875
 3845SOL     OW12433   3.713   3.235   3.276
 3845SOL    HW112434   3.670   3.322   3.252
 3845SOL    HW212435   3.679   3.204   3.365
 3846SOL     OW12436   6.946   4.431   4.168
 3846SOL    HW112437   6.991   4.361   4.223
 3846SOL    HW212438   6.979   4.426   4.073
 3847SOL     OW12439   6.803   0.548   6.417
 3847SOL    HW112440   6.737   0.512   6.483
 3847SOL    HW212441   6.885   0.579   6.465
 3848SOL     OW12442   2.109   4.871   2.272
 3848SOL    HW112443   2.063   4.958   2.254
 3848SOL    HW212444   2.143   4.833   2.186
 3849SOL     OW12445   0.604   1.554   5.500
 3849SOL    HW112446   0.509   1.525   5.512
 3849SOL    HW212447   0.657   1.479   5.462
 3850SOL     OW12448   3.047   4.016   2.065
 3850SOL    HW112449   2.974   3.949   2.082
 3850SOL    HW212450   3.026   4.066   1.981
 3851SOL     OW12451   2.071   3.644   3.307
 3851SOL    HW112452   2.115   3.711   3.248
 3851SOL    HW212453   2.079   3.672   3.402
 3852SOL     OW12454   4.777   1.104   4.845
 3852SOL    HW112455   4.736   1.151   4.923
 3852SOL    HW212456   4.877   1.104   4.855
 3853SOL     OW12457   1.130   3.114   2.166
 3853SOL    HW112458   1.084   3.025   2.161
 3853SOL    HW212459   1.199   3.111   2.238
 3854SOL     OW12460   1.165   3.263   4.249
 3854SOL    HW112461   1.214   3.341   4.287
 3854SOL    HW212462   1.109   3.221   4.320
 3855SOL     OW12463   6.270   4.308   5.803
 3855SOL    HW112464   6.253   4.245   5.726
 3855SOL    HW212465   6.183   4.351   5.829
 3856SOL     OW12466   6.631   0.190   5.908
 3856SOL    HW112467   6.677   0.146   5.831
 3856SOL    HW212468   6.657   0.287   5.912
 3857SOL     OW12469   0.971   6.463   5.017
 3857SOL    HW112470   0.882   6.424   4.993
 3857SOL    HW212471   1.044   6.406   4.980
 3858SOL     OW12472   1.466   5.977   6.391
 3858SOL    HW112473   1.515   6.064   6.390
 3858SOL    HW212474   1.531   5.901   6.390
 3859SOL     OW12475   0.021   2.794   3.306
 3859SOL    HW112476   0.058   2.786   3.398
 3859SOL    HW212477   0.089   2.839   3.247
 3860SOL     OW12478   2.387   5.867   5.761
 3860SOL    HW112479   2.440   5.795   5.806
 3860SOL    HW212480   2.318   5.902   5.824
 3861SOL     OW12481   4.908   4.509   1.555
 3861SOL    HW112482   4.877   4.495   1.649
 3861SOL    HW212483   4.965   4.432   1.526
 3862SOL     OW12484   0.978   6.551   6.099
 3862SOL    HW112485   1.037   6.519   6.173
 3862SOL    HW212486   0.882   6.538   6.124
 3863SOL     OW12487   3.352   3.495   1.251
 3863SOL    HW112488   3.298   3.578   1.268
 3863SOL    HW212489   3.292   3.415   1.254
 3864SOL     OW12490   3.783   1.650   6.653
 3864SOL    HW112491   3.832   1.704   6.583
 3864SOL    HW212492   3.786   1.553   6.628
 3865SOL     OW12493   4.031   0.355   1.964
 3865SOL    HW112494   4.066   0.447   1.982
 3865SOL    HW212495   4.006   0.311   2.050
 3866SOL     OW12496   3.939   6.940   1.070
 3866SOL    HW112497   3.973   6.862   1.123
 3866SOL    HW212498   3.841   6.949   1.082
 3867SOL     OW12499   2.127   3.405   3.073
 3867SOL    HW112500   2.109   3.450   3.160
 3867SOL    HW212501   2.138   3.306   3.087
 3868SOL     OW12502   2.701   6.741   1.832
 3868SOL    HW112503   2.654   6.662   1.871
 3868SOL    HW212504   2.676   6.823   1.882
 3869SOL     OW12505   0.450   2.894   3.351
 3869SOL    HW112506   0.379   2.950   3.395
 3869SOL    HW212507   0.518   2.868   3.419
 3870SOL     OW12508   3.018   5.621   0.145
 3870SOL    HW112509   3.101   5.570   0.124
 3870SOL    HW212510   3.025   5.714   0.107
 3871SOL     OW12511   2.972   0.115   3.149
 3871SOL    HW112512   2.960   0.063   3.233
 3871SOL    HW212513   3.030   0.194   3.166
 3872SOL     OW12514   3.920   3.814   1.208
 3872SOL    HW112515   3.945   3.907   1.181
 3872SOL    HW212516   3.824   3.812   1.236
 3873SOL     OW12517   5.389   5.026   1.540
 3873SOL    HW112518   5.425   5.012   1.632
 3873SOL    HW212519   5.299   4.983   1.531
 3874SOL     OW12520   4.080   6.563   0.433
 3874SOL    HW112521   4.010   6.532   0.369
 3874SOL    HW212522   4.071   6.513   0.519
 3875SOL     OW12523   1.505   4.143   1.581
 3875SOL    HW112524   1.502   4.149   1.680
 3875SOL    HW212525   1.495   4.048   1.553
 3876SOL     OW12526   5.802   4.273   4.430
 3876SOL    HW112527   5.725   4.212   4.453
 3876SOL    HW212528   5.766   4.356   4.388
 3877SOL     OW12529   6.090   1.075   2.432
 3877SOL    HW112530   6.154   1.089   2.356
 3877SOL    HW212531   6.069   0.978   2.440
 3878SOL     OW12532   4.021   6.812   6.666
 3878SOL    HW112533   4.057   6.724   6.635
 3878SOL    HW212534   4.089   6.884   6.648
 3879SOL     OW12535   4.127   5.183   1.615
 3879SOL    HW112536   4.035   5.204   1.650
 3879SOL    HW212537   4.136   5.218   1.522
 3880SOL     OW12538   5.732   3.053   3.314
 3880SOL    HW112539   5.750   2.992   3.237
 3880SOL    HW212540   5.690   3.000   3.388
 3881SOL     OW12541   0.994   4.427   0.665
 3881SOL    HW112542   0.968   4.519   0.695
 3881SOL    HW212543   0.935   4.360   0.709
 3882SOL     OW12544   6.620   1.386   5.606
 3882SOL    HW112545   6.683   1.444   5.555
 3882SOL    HW212546   6.545   1.356   5.546
 3883SOL     OW12547   4.053   0.698   4.595
 3883SOL    HW112548   3.973   0.754   4.612
 3883SOL    HW212549   4.108   0.692   4.679
 3884SOL     OW12550   1.726   5.748   5.580
 3884SOL    HW112551   1.641   5.709   5.617
 3884SOL    HW212552   1.803   5.691   5.609
 3885SOL     OW12553   6.698   1.116   3.596
 3885SOL    HW112554   6.712   1.023   3.562
 3885SOL    HW212555   6.664   1.112   3.690
 3886SOL     OW12556   0.037   6.717   4.995
 3886SOL    HW112557   0.071   6.768   4.916
 3886SOL    HW212558   0.009   6.781   5.067
 3887SOL     OW12559   4.528   1.770   5.728
 3887SOL    HW112560   4.535   1.838   5.655
 3887SOL    HW212561   4.619   1.738   5.753
 3888SOL     OW12562   6.705   1.641   0.722
 3888SOL    HW112563   6.737   1.684   0.637
 3888SOL    HW212564   6.729   1.543   0.720
 3889SOL     OW12565   0.747   6.292   6.497
 3889SOL    HW112566   0.778   6.206   6.456
 3889SOL    HW212567   0.665   6.324   6.450
 3890SOL     OW12568   6.005   5.070   3.085
 3890SOL    HW112569   6.032   5.127   3.163
 3890SOL    HW212570   6.084   5.016   3.054
 3891SOL     OW12571   5.363   5.227   5.000
 3891SOL    HW112572   5.389   5.230   4.903
 3891SOL    HW212573   5.432   5.175   5.051
 3892SOL     OW12574   5.472   6.805   2.922
 3892SOL    HW112575   5.449   6.791   2.826
 3892SOL    HW212576   5.446   6.898   2.950
 3893SOL     OW12577   3.222   5.673   4.273
 3893SOL    HW112578   3.184   5.735   4.205
 3893SOL    HW212579   3.302   5.627   4.234
 3894SOL     OW12580   4.674   3.587   0.045
 3894SOL    HW112581   4.641   3.656   0.110
 3894SOL    HW212582   4.598   3.527   0.019
 3895SOL     OW12583   2.670   1.731   5.818
 3895SOL    HW112584   2.598   1.757   5.881
 3895SOL    HW212585   2.689   1.808   5.756
 3896SOL     OW12586   6.970   3.151   5.327
 3896SOL    HW112587   0.038   3.134   5.288
 3896SOL    HW212588   6.977   3.153   5.427
 3897SOL     OW12589   3.692   0.073   1.968
 3897SOL    HW112590   3.644   0.018   2.037
 3897SOL    HW212591   3.627   0.104   1.899
 3898SOL     OW12592   4.020   3.824   3.874
 3898SOL    HW112593   4.047   3.840   3.969
 3898SOL    HW212594   4.091   3.858   3.813
 3899SOL     OW12595   4.812   1.615   5.675
 3899SOL    HW112596   4.878   1.576   5.610
 3899SOL    HW212597   4.859   1.681   5.733
 3900SOL     OW12598   6.547   2.422   3.112
 3900SOL    HW112599   6.448   2.414   3.120
 3900SOL    HW212600   6.569   2.498   3.051
 3901SOL     OW12601   1.679   7.013   5.382
 3901SOL    HW112602   1.703   0.037   5.296
 3901SOL    HW212603   1.580   7.017   5.396
 3902SOL     OW12604   4.075   5.014   1.365
 3902SOL    HW112605   4.109   4.985   1.454
 3902SOL    HW212606   4.033   4.936   1.318
 3903SOL     OW12607   4.452   2.843   6.647
 3903SOL    HW112608   4.374   2.781   6.648
 3903SOL    HW212609   4.535   2.793   6.622
 3904SOL     OW12610   1.206   6.458   0.689
 3904SOL    HW112611   1.192   6.378   0.630
 3904SOL    HW212612   1.151   6.448   0.772
 3905SOL     OW12613   6.932   0.392   5.707
 3905SOL    HW112614   6.959   0.485   5.681
 3905SOL    HW212615   6.868   0.396   5.784
 3906SOL     OW12616   1.754   4.709   4.113
 3906SOL    HW112617   1.757   4.735   4.017
 3906SOL    HW212618   1.842   4.671   4.140
 3907SOL     OW12619   6.921   1.032   3.799
 3907SOL    HW112620   6.939   1.069   3.708
 3907SOL    HW212621   6.824   1.045   3.822
 3908SOL     OW12622   1.253   0.540   4.874
 3908SOL    HW112623   1.289   0.561   4.965
 3908SOL    HW212624   1.303   0.464   4.834
 3909SOL     OW12625   5.640   3.109   6.275
 3909SOL    HW112626   5.578   3.144   6.204
 3909SOL    HW212627   5.619   3.153   6.362
 3910SOL     OW12628   3.496   1.601   0.019
 3910SOL    HW112629   3.529   1.590   0.112
 3910SOL    HW212630   3.411   1.549   0.007
 3911SOL     OW12631   6.780   1.060   1.032
 3911SOL    HW112632   6.876   1.064   1.058
 3911SOL    HW212633   6.729   1.134   1.076
 3912SOL     OW12634   4.206   1.524   0.549
 3912SOL    HW112635   4.267   1.576   0.609
 3912SOL    HW212636   4.220   1.553   0.454
 3913SOL     OW12637   5.026   5.141   0.592
 3913SOL    HW112638   5.097   5.178   0.653
 3913SOL    HW212639   4.998   5.051   0.626
 3914SOL     OW12640   5.959   1.588   0.545
 3914SOL    HW112641   5.937   1.532   0.624
 3914SOL    HW212642   6.047   1.633   0.559
 3915SOL     OW12643   4.410   5.388   6.594
 3915SOL    HW112644   4.377   5.439   6.514
 3915SOL    HW212645   4.334   5.341   6.638
 3916SOL     OW12646   2.070   1.745   1.848
 3916SOL    HW112647   2.098   1.664   1.899
 3916SOL    HW212648   1.982   1.728   1.803
 3917SOL     OW12649   2.933   5.251   1.190
 3917SOL    HW112650   2.917   5.202   1.276
 3917SOL    HW212651   3.031   5.271   1.181
 3918SOL     OW12652   5.271   0.890   0.717
 3918SOL    HW112653   5.256   0.843   0.629
 3918SOL    HW212654   5.359   0.938   0.714
 3919SOL     OW12655   3.512   0.631   2.126
 3919SOL    HW112656   3.604   0.647   2.090
 3919SOL    HW212657   3.468   0.559   2.073
 3920SOL     OW12658   2.996   1.193   5.534
 3920SOL    HW112659   2.971   1.219   5.628
 3920SOL    HW212660   3.009   1.094   5.530
 3921SOL     OW12661   0.360   2.852   6.062
 3921SOL    HW112662   0.420   2.906   6.121
 3921SOL    HW212663   0.268   2.852   6.100
 3922SOL     OW12664   5.449   4.381   3.132
 3922SOL    HW112665   5.522   4.442   3.100
 3922SOL    HW212666   5.435   4.309   3.064
 3923SOL     OW12667   5.932   1.041   1.431
 3923SOL    HW112668   5.865   0.982   1.388
 3923SOL    HW212669   6.021   1.029   1.386
 3924SOL     OW12670   5.712   5.229   4.495
 3924SOL    HW112671   5.804   5.191   4.505
 3924SOL    HW212672   5.675   5.204   4.405
 3925SOL     OW12673   4.713   3.773   0.717
 3925SOL    HW112674   4.677   3.718   0.792
 3925SOL    HW212675   4.809   3.796   0.736
 3926SOL     OW12676   0.695   6.695   6.197
 3926SOL    HW112677   0.607   6.668   6.236
 3926SOL    HW212678   0.716   6.789   6.225
 3927SOL     OW12679   5.802   2.894   5.162
 3927SOL    HW112680   5.778   2.984   5.197
 3927SOL    HW212681   5.728   2.830   5.182
 3928SOL     OW12682   2.459   6.152   2.605
 3928SOL    HW112683   2.471   6.249   2.623
 3928SOL    HW212684   2.361   6.130   2.606
 3929SOL     OW12685   0.556   2.460   5.239
 3929SOL    HW112686   0.611   2.378   5.254
 3929SOL    HW212687   0.610   2.527   5.187
 3930SOL     OW12688   0.398   4.161   3.799
 3930SOL    HW112689   0.472   4.212   3.842
 3930SOL    HW212690   0.365   4.091   3.862
 3931SOL     OW12691   1.850   2.275   1.425
 3931SOL    HW112692   1.804   2.319   1.502
 3931SOL    HW212693   1.821   2.179   1.420
 3932SOL     OW12694   2.339   5.345   4.047
 3932SOL    HW112695   2.335   5.425   3.987
 3932SOL    HW212696   2.433   5.311   4.051
 3933SOL     OW12697   2.011   5.273   1.137
 3933SOL    HW112698   2.064   5.189   1.151
 3933SOL    HW212699   2.051   5.347   1.191
 3934SOL     OW12700   0.583   1.368   1.159
 3934SOL    HW112701   0.622   1.448   1.206
 3934SOL    HW212702   0.534   1.398   1.077
 3935SOL     OW12703   6.372   3.412   6.667
 3935SOL    HW112704   6.371   3.482   6.595
 3935SOL    HW212705   6.430   3.443   6.742
 3936SOL     OW12706   0.750   4.815   5.472
 3936SOL    HW112707   0.674   4.809   5.407
 3936SOL    HW212708   0.808   4.893   5.448
 3937SOL     OW12709   0.007   0.103   2.240
 3937SOL    HW112710   6.970   0.183   2.228
 3937SOL    HW212711   0.101   0.128   2.218
 3938SOL     OW12712   0.467   4.147   2.880
 3938SOL    HW112713   0.376   4.107   2.874
 3938SOL    HW212714   0.534   4.075   2.899
 3939SOL     OW12715   1.417   0.998   2.211
 3939SOL    HW112716   1.470   1.054   2.147
 3939SOL    HW212717   1.451   1.013   2.304
 3940SOL     OW12718   3.567   5.539   1.795
 3940SOL    HW112719   3.622   5.541   1.878
 3940SOL    HW212720   3.627   5.539   1.715
 3941SOL     OW12721   5.309   6.655   3.303
 3941SOL    HW112722   5.395   6.666   3.255
 3941SOL    HW212723   5.312   6.704   3.390
 3942SOL     OW12724   6.900   5.700   5.738
 3942SOL    HW112725   6.991   5.695   5.697
 3942SOL    HW212726   6.885   5.621   5.797
 3943SOL     OW12727   1.400   2.659   6.724
 3943SOL    HW112728   1.413   2.746   6.772
 3943SOL    HW212729   1.485   2.607   6.727
 3944SOL     OW12730   5.828   2.480   6.951
 3944SOL    HW112731   5.906   2.452   6.896
 3944SOL    HW212732   5.853   2.559   7.007
 3945SOL     OW12733   6.311   0.408   3.446
 3945SOL    HW112734   6.269   0.455   3.524
 3945SOL    HW212735   6.410   0.405   3.458
 3946SOL     OW12736   1.068   3.040   0.592
 3946SOL    HW112737   1.073   2.942   0.575
 3946SOL    HW212738   1.040   3.057   0.686
 3947SOL     OW12739   5.545   4.735   2.279
 3947SOL    HW112740   5.590   4.759   2.193
 3947SOL    HW212741   5.454   4.774   2.281
 3948SOL     OW12742   0.979   2.594   6.305
 3948SOL    HW112743   0.977   2.507   6.353
 3948SOL    HW212744   1.071   2.613   6.272
 3949SOL     OW12745   5.515   6.763   2.028
 3949SOL    HW112746   5.474   6.724   1.945
 3949SOL    HW212747   5.614   6.749   2.026
 3950SOL     OW12748   2.783   4.698   1.552
 3950SOL    HW112749   2.721   4.622   1.530
 3950SOL    HW212750   2.863   4.694   1.492
 3951SOL     OW12751   0.681   2.676   5.482
 3951SOL    HW112752   0.649   2.592   5.438
 3951SOL    HW212753   0.778   2.689   5.463
 3952SOL     OW12754   5.894   3.699   6.109
 3952SOL    HW112755   5.837   3.781   6.106
 3952SOL    HW212756   5.842   3.623   6.149
 3953SOL     OW12757   3.423   4.043   6.555
 3953SOL    HW112758   3.489   4.013   6.485
 3953SOL    HW212759   3.389   4.134   6.531
 3954SOL     OW12760   0.480   3.193   5.391
 3954SOL    HW112761   0.502   3.197   5.293
 3954SOL    HW212762   0.504   3.102   5.426
 3955SOL     OW12763   6.608   4.659   0.069
 3955SOL    HW112764   6.539   4.730   0.053
 3955SOL    HW212765   6.612   4.640   0.168
 3956SOL     OW12766   0.915   2.949   5.542
 3956SOL    HW112767   0.949   2.871   5.490
 3956SOL    HW212768   0.964   3.031   5.515
 3957SOL     OW12769   1.213   1.229   2.492
 3957SOL    HW112770   1.269   1.147   2.498
 3957SOL    HW212771   1.117   1.205   2.506
 3958SOL     OW12772   5.557   6.536   5.599
 3958SOL    HW112773   5.637   6.558   5.655
 3958SOL    HW212774   5.534   6.614   5.541
 3959SOL     OW12775   2.211   4.807   0.498
 3959SOL    HW112776   2.265   4.765   0.571
 3959SOL    HW212777   2.266   4.816   0.416
 3960SOL     OW12778   4.262   3.413   0.355
 3960SOL    HW112779   4.205   3.368   0.423
 3960SOL    HW212780   4.277   3.508   0.381
 3961SOL     OW12781   5.692   0.847   2.318
 3961SOL    HW112782   5.742   0.880   2.238
 3961SOL    HW212783   5.739   0.767   2.356
 3962SOL     OW12784   0.628   0.158   6.572
 3962SOL    HW112785   0.563   0.179   6.644
 3962SOL    HW212786   0.587   0.092   6.508
 3963SOL     OW12787   5.266   5.885   3.315
 3963SOL    HW112788   5.287   5.901   3.219
 3963SOL    HW212789   5.178   5.837   3.322
 3964SOL     OW12790   5.587   6.302   5.433
 3964SOL    HW112791   5.579   6.359   5.514
 3964SOL    HW212792   5.683   6.289   5.411
 3965SOL     OW12793   3.906   3.452   7.014
 3965SOL    HW112794   3.818   3.497   0.008
 3965SOL    HW212795   3.954   3.499   6.940
 3966SOL     OW12796   5.731   3.567   5.112
 3966SOL    HW112797   5.652   3.615   5.074
 3966SOL    HW212798   5.702   3.508   5.187
 3967SOL     OW12799   0.843   5.730   6.282
 3967SOL    HW112800   0.904   5.742   6.204
 3967SOL    HW212801   0.828   5.633   6.298
 3968SOL     OW12802   5.938   0.254   1.510
 3968SOL    HW112803   5.861   0.317   1.504
 3968SOL    HW212804   6.000   0.284   1.582
 3969SOL     OW12805   0.144   5.474   1.487
 3969SOL    HW112806   0.189   5.427   1.412
 3969SOL    HW212807   0.048   5.445   1.492
 3970SOL     OW12808   4.808   4.610   3.205
 3970SOL    HW112809   4.846   4.533   3.256
 3970SOL    HW212810   4.760   4.672   3.268
 3971SOL     OW12811   1.600   5.145   3.807
 3971SOL    HW112812   1.684   5.101   3.774
 3971SOL    HW212813   1.522   5.112   3.754
 3972SOL     OW12814   1.633   6.838   0.254
 3972SOL    HW112815   1.539   6.861   0.280
 3972SOL    HW212816   1.635   6.744   0.218
 3973SOL     OW12817   2.998   3.211   3.852
 3973SOL    HW112818   3.059   3.133   3.871
 3973SOL    HW212819   2.984   3.219   3.753
 3974SOL     OW12820   6.174   1.878   6.475
 3974SOL    HW112821   6.130   1.868   6.386
 3974SOL    HW212822   6.260   1.929   6.465
 3975SOL     OW12823   6.510   1.398   5.857
 3975SOL    HW112824   6.509   1.494   5.887
 3975SOL    HW212825   6.544   1.393   5.763
 3976SOL     OW12826   0.923   3.589   0.100
 3976SOL    HW112827   0.932   3.522   0.026
 3976SOL    HW212828   0.915   3.681   0.061
 3977SOL     OW12829   4.029   6.120   6.717
 3977SOL    HW112830   3.971   6.052   6.673
 3977SOL    HW212831   3.981   6.207   6.724
 3978SOL     OW12832   5.896   3.486   6.486
 3978SOL    HW112833   5.950   3.467   6.568
 3978SOL    HW212834   5.911   3.580   6.457
 3979SOL     OW12835   1.070   0.093   3.384
 3979SOL    HW112836   0.992   0.107   3.323
 3979SOL    HW212837   1.114   0.181   3.402
 3980SOL     OW12838   5.538   2.675   3.811
 3980SOL    HW112839   5.543   2.706   3.905
 3980SOL    HW212840   5.631   2.658   3.776
 3981SOL     OW12841   6.869   1.968   6.393
 3981SOL    HW112842   6.857   1.876   6.429
 3981SOL    HW212843   6.959   2.003   6.418
 3982SOL     OW12844   2.799   1.630   3.822
 3982SOL    HW112845   2.843   1.555   3.872
 3982SOL    HW212846   2.869   1.688   3.781
 3983SOL     OW12847   3.094   6.413   4.261
 3983SOL    HW112848   3.008   6.386   4.218
 3983SOL    HW212849   3.079   6.432   4.358
 3984SOL     OW12850   1.754   6.572   1.980
 3984SOL    HW112851   1.777   6.601   1.887
 3984SOL    HW212852   1.693   6.638   2.022
 3985SOL     OW12853   1.913   2.915   1.550
 3985SOL    HW112854   1.978   2.853   1.505
 3985SOL    HW212855   1.907   2.892   1.647
 3986SOL     OW12856   0.553   2.577   1.862
 3986SOL    HW112857   0.518   2.522   1.939
 3986SOL    HW212858   0.584   2.515   1.789
 3987SOL     OW12859   2.572   4.611   6.818
 3987SOL    HW112860   2.479   4.592   6.850
 3987SOL    HW212861   2.614   4.680   6.876
 3988SOL     OW12862   3.851   2.649   0.663
 3988SOL    HW112863   3.787   2.622   0.591
 3988SOL    HW212864   3.929   2.695   0.622
 3989SOL     OW12865   4.793   6.736   6.486
 3989SOL    HW112866   4.780   6.637   6.484
 3989SOL    HW212867   4.746   6.775   6.566
 3990SOL     OW12868   1.040   2.990   3.553
 3990SOL    HW112869   1.043   3.088   3.534
 3990SOL    HW212870   1.078   2.972   3.644
 3991SOL     OW12871   0.469   1.686   4.253
 3991SOL    HW112872   0.395   1.747   4.284
 3991SOL    HW212873   0.514   1.726   4.174
 3992SOL     OW12874   4.202   3.471   6.608
 3992SOL    HW112875   4.230   3.563   6.579
 3992SOL    HW212876   4.276   3.406   6.588
 3993SOL     OW12877   2.536   2.525   2.600
 3993SOL    HW112878   2.484   2.507   2.684
 3993SOL    HW212879   2.609   2.590   2.620
 3994SOL     OW12880   2.440   2.651   3.601
 3994SOL    HW112881   2.426   2.738   3.648
 3994SOL    HW212882   2.354   2.622   3.559
 3995SOL     OW12883   1.873   3.680   2.495
 3995SOL    HW112884   1.959   3.715   2.531
 3995SOL    HW212885   1.889   3.593   2.448
 3996SOL     OW12886   6.089   0.600   3.088
 3996SOL    HW112887   6.144   0.517   3.101
 3996SOL    HW212888   6.125   0.674   3.144
 3997SOL     OW12889   5.586   3.604   2.735
 3997SOL    HW112890   5.560   3.701   2.730
 3997SOL    HW212891   5.509   3.551   2.770
 3998SOL     OW12892   6.210   1.910   3.054
 3998SOL    HW112893   6.199   1.861   2.967
 3998SOL    HW212894   6.299   1.955   3.056
 3999SOL     OW12895   5.422   3.074   2.405
 3999SOL    HW112896   5.416   3.160   2.354
 3999SOL    HW212897   5.453   3.093   2.498
 4000SOL     OW12898   2.937   5.865   1.957
 4000SOL    HW112899   2.843   5.874   1.988
 4000SOL    HW212900   2.997   5.915   2.019
 4001SOL     OW12901   2.277   4.263   5.240
 4001SOL    HW112902   2.338   4.341   5.254
 4001SOL    HW212903   2.331   4.179   5.234
 4002SOL     OW12904   3.568   3.056   4.007
 4002SOL    HW112905   3.480   3.093   4.035
 4002SOL    HW212906   3.628   3.050   4.087
 4003SOL     OW12907   1.821   0.693   5.150
 4003SOL    HW112908   1.881   0.772   5.161
 4003SOL    HW212909   1.766   0.682   5.233
 4004SOL     OW12910   0.446   3.911   3.645
 4004SOL    HW112911   0.454   4.011   3.646
 4004SOL    HW212912   0.364   3.884   3.695
 4005SOL     OW12913   4.468   3.898   1.337
 4005SOL    HW112914   4.391   3.961   1.334
 4005SOL    HW212915   4.474   3.857   1.428
 4006SOL     OW12916   5.052   5.327   3.395
 4006SOL    HW112917   5.022   5.253   3.335
 4006SOL    HW212918   5.105   5.289   3.471
 4007SOL     OW12919   0.009   1.343   2.575
 4007SOL    HW112920   0.091   1.380   2.618
 4007SOL    HW212921   7.001   1.261   2.624
 4008SOL     OW12922   1.920   0.242   0.921
 4008SOL    HW112923   1.993   0.271   0.859
 4008SOL    HW212924   1.834   0.285   0.893
 4009SOL     OW12925   4.166   1.955   0.785
 4009SOL    HW112926   4.111   2.038   0.768
 4009SOL    HW212927   4.253   1.981   0.825
 4010SOL     OW12928   2.543   5.250   1.396
 4010SOL    HW112929   2.636   5.218   1.419
 4010SOL    HW212930   2.520   5.218   1.304
 4011SOL     OW12931   6.324   6.108   0.541
 4011SOL    HW112932   6.424   6.107   0.529
 4011SOL    HW212933   6.286   6.189   0.497
 4012SOL     OW12934   3.720   6.756   2.295
 4012SOL    HW112935   3.783   6.728   2.368
 4012SOL    HW212936   3.764   6.743   2.206
 4013SOL     OW12937   1.177   1.180   0.562
 4013SOL    HW112938   1.254   1.120   0.588
 4013SOL    HW212939   1.163   1.174   0.463
 4014SOL     OW12940   2.644   5.323   3.828
 4014SOL    HW112941   2.611   5.324   3.734
 4014SOL    HW212942   2.698   5.239   3.844
 4015SOL     OW12943   4.400   4.884   6.309
 4015SOL    HW112944   4.335   4.933   6.367
 4015SOL    HW212945   4.465   4.834   6.366
 4016SOL     OW12946   3.824   6.301   5.989
 4016SOL    HW112947   3.881   6.229   6.029
 4016SOL    HW212948   3.845   6.389   6.032
 4017SOL     OW12949   1.080   5.469   5.798
 4017SOL    HW112950   1.031   5.556   5.810
 4017SOL    HW212951   1.023   5.405   5.747
 4018SOL     OW12952   4.094   5.894   2.073
 4018SOL    HW112953   4.116   5.978   2.024
 4018SOL    HW212954   4.044   5.832   2.012
 4019SOL     OW12955   4.834   3.120   2.497
 4019SOL    HW112956   4.780   3.158   2.422
 4019SOL    HW212957   4.930   3.113   2.469
 4020SOL     OW12958   6.794   4.453   4.927
 4020SOL    HW112959   6.748   4.384   4.982
 4020SOL    HW212960   6.893   4.448   4.943
 4021SOL     OW12961   3.555   3.744   5.918
 4021SOL    HW112962   3.503   3.829   5.903
 4021SOL    HW212963   3.512   3.669   5.867
 4022SOL     OW12964   2.648   0.478   0.657
 4022SOL    HW112965   2.564   0.429   0.681
 4022SOL    HW212966   2.727   0.427   0.692
 4023SOL     OW12967   0.003   2.624   5.633
 4023SOL    HW112968   6.976   2.711   5.641
 4023SOL    HW212969   6.995   2.578   5.549
 4024SOL     OW12970   0.805   4.759   3.644
 4024SOL    HW112971   0.738   4.728   3.577
 4024SOL    HW212972   0.856   4.680   3.680
 4025SOL     OW12973   1.294   6.189   3.837
 4025SOL    HW112974   1.336   6.105   3.804
 4025SOL    HW212975   1.196   6.187   3.818
 4026SOL     OW12976   6.894   6.201   4.015
 4026SOL    HW112977   6.823   6.135   3.992
 4026SOL    HW212978   6.980   6.175   3.971
 4027SOL     OW12979   2.403   3.193   5.930
 4027SOL    HW112980   2.386   3.114   5.871
 4027SOL    HW212981   2.488   3.179   5.981
 4028SOL     OW12982   4.909   1.707   2.599
 4028SOL    HW112983   4.972   1.631   2.616
 4028SOL    HW212984   4.821   1.671   2.569
 4029SOL     OW12985   2.736   4.365   6.793
 4029SOL    HW112986   2.695   4.455   6.810
 4029SOL    HW212987   2.834   4.376   6.774
 4030SOL     OW12988   6.731   0.902   1.893
 4030SOL    HW112989   6.777   0.958   1.962
 4030SOL    HW212990   6.773   0.811   1.890
 4031SOL     OW12991   5.442   0.201   1.496
 4031SOL    HW112992   5.367   0.136   1.508
 4031SOL    HW212993   5.529   0.155   1.513
 4032SOL     OW12994   6.142   6.905   1.251
 4032SOL    HW112995   6.069   6.956   1.206
 4032SOL    HW212996   6.106   6.818   1.285
 4033SOL     OW12997   3.332   2.137   2.420
 4033SOL    HW112998   3.238   2.149   2.390
 4033SOL    HW212999   3.381   2.081   2.353
 4034SOL     OW13000   0.243   2.665   5.161
 4034SOL    HW113001   0.260   2.703   5.252
 4034SOL    HW213002   0.178   2.723   5.112
 4035SOL     OW13003   6.274   2.416   0.799
 4035SOL    HW113004   6.217   2.455   0.871
 4035SOL    HW213005   6.370   2.418   0.827
 4036SOL     OW13006   3.615   5.668   3.535
 4036SOL    HW113007   3.555   5.640   3.460
 4036SOL    HW213008   3.669   5.590   3.566
 4037SOL     OW13009   2.281   1.174   5.699
 4037SOL    HW113010   2.247   1.262   5.730
 4037SOL    HW213011   2.282   1.109   5.775
 4038SOL     OW13012   4.149   3.903   6.529
 4038SOL    HW113013   4.208   3.823   6.531
 4038SOL    HW213014   4.107   3.912   6.439
 4039SOL     OW13015   5.225   4.792   1.831
 4039SOL    HW113016   5.320   4.789   1.799
 4039SOL    HW213017   5.190   4.885   1.822
 4040SOL     OW13018   3.840   5.402   5.269
 4040SOL    HW113019   3.874   5.333   5.205
 4040SOL    HW213020   3.916   5.438   5.322
 4041SOL     OW13021   2.135   6.779   1.805
 4041SOL    HW113022   2.157   6.827   1.720
 4041SOL    HW213023   2.175   6.687   1.802
 4042SOL     OW13024   6.180   0.327   2.801
 4042SOL    HW113025   6.123   0.321   2.719
 4042SOL    HW213026   6.243   0.404   2.793
 4043SOL     OW13027   6.292   3.370   0.024
 4043SOL    HW113028   6.224   3.298   0.039
 4043SOL    HW213029   6.254   3.440   6.985
 4044SOL     OW13030   4.186   4.991   3.192
 4044SOL    HW113031   4.174   5.035   3.281
 4044SOL    HW213032   4.275   4.946   3.189
 4045SOL     OW13033   5.019   6.899   6.529
 4045SOL    HW113034   4.950   6.827   6.522
 4045SOL    HW213035   5.109   6.861   6.507
 4046SOL     OW13036   0.666   1.094   3.214
 4046SOL    HW113037   0.623   1.182   3.233
 4046SOL    HW213038   0.739   1.077   3.281
 4047SOL     OW13039   2.384   2.858   6.746
 4047SOL    HW113040   2.446   2.923   6.789
 4047SOL    HW213041   2.325   2.906   6.681
 4048SOL     OW13042   4.819   1.042   2.007
 4048SOL    HW113043   4.914   1.018   2.026
 4048SOL    HW213044   4.810   1.071   1.912
 4049SOL     OW13045   3.656   5.659   6.714
 4049SOL    HW113046   3.620   5.670   6.621
 4049SOL    HW213047   3.717   5.735   6.735
 4050SOL     OW13048   0.717   6.048   2.339
 4050SOL    HW113049   0.710   5.956   2.376
 4050SOL    HW213050   0.633   6.071   2.290
 4051SOL     OW13051   5.308   1.092   6.338
 4051SOL    HW113052   5.283   1.171   6.394
 4051SOL    HW213053   5.294   1.008   6.390
 4052SOL     OW13054   6.727   1.753   2.837
 4052SOL    HW113055   6.768   1.748   2.927
 4052SOL    HW213056   6.778   1.694   2.774
 4053SOL     OW13057   1.469   6.157   4.783
 4053SOL    HW113058   1.500   6.067   4.753
 4053SOL    HW213059   1.391   6.186   4.727
 4054SOL     OW13060   4.614   4.120   1.172
 4054SOL    HW113061   4.660   4.189   1.227
 4054SOL    HW213062   4.591   4.042   1.229
 4055SOL     OW13063   1.573   3.739   2.132
 4055SOL    HW113064   1.648   3.685   2.094
 4055SOL    HW213065   1.553   3.816   2.072
 4056SOL     OW13066   5.551   3.583   0.931
 4056SOL    HW113067   5.551   3.561   1.029
 4056SOL    HW213068   5.627   3.536   0.887
 4057SOL     OW13069   6.548   3.110   6.862
 4057SOL    HW113070   6.469   3.150   6.815
 4057SOL    HW213071   6.573   3.025   6.816
 4058SOL     OW13072   2.496   5.739   5.103
 4058SOL    HW113073   2.568   5.724   5.170
 4058SOL    HW213074   2.536   5.773   5.018
 4059SOL     OW13075   1.030   2.765   3.989
 4059SOL    HW113076   0.936   2.752   4.020
 4059SOL    HW213077   1.093   2.748   4.065
 4060SOL     OW13078   6.277   5.944   4.659
 4060SOL    HW113079   6.287   5.867   4.722
 4060SOL    HW213080   6.241   5.910   4.572
 4061SOL     OW13081   2.374   4.931   1.880
 4061SOL    HW113082   2.377   4.952   1.978
 4061SOL    HW213083   2.467   4.922   1.845
 4062SOL     OW13084   2.284   1.357   1.704
 4062SOL    HW113085   2.350   1.389   1.772
 4062SOL    HW213086   2.196   1.402   1.720
 4063SOL     OW13087   5.748   6.712   1.235
 4063SOL    HW113088   5.717   6.626   1.274
 4063SOL    HW213089   5.773   6.775   1.308
 4064SOL     OW13090   2.076   1.968   4.826
 4064SOL    HW113091   1.984   1.944   4.856
 4064SOL    HW213092   2.143   1.932   4.890
 4065SOL     OW13093   1.550   7.004   0.030
 4065SOL    HW113094   1.588   6.940   0.098
 4065SOL    HW213095   1.579   6.977   6.961
 4066SOL     OW13096   6.246   3.998   2.689
 4066SOL    HW113097   6.222   4.084   2.733
 4066SOL    HW213098   6.247   3.925   2.757
 4067SOL     OW13099   6.046   4.160   2.801
 4067SOL    HW113100   6.012   4.219   2.874
 4067SOL    HW213101   5.982   4.085   2.786
 4068SOL     OW13102   1.693   2.539   4.490
 4068SOL    HW113103   1.786   2.504   4.478
 4068SOL    HW213104   1.694   2.613   4.557
 4069SOL     OW13105   3.600   6.130   6.761
 4069SOL    HW113106   3.513   6.155   6.802
 4069SOL    HW213107   3.585   6.067   6.685
 4070SOL     OW13108   0.972   2.799   2.954
 4070SOL    HW113109   0.942   2.866   3.023
 4070SOL    HW213110   1.047   2.837   2.901
 4071SOL     OW13111   1.735   0.471   4.273
 4071SOL    HW113112   1.706   0.502   4.182
 4071SOL    HW213113   1.792   0.390   4.263
 4072SOL     OW13114   1.295   5.294   4.597
 4072SOL    HW113115   1.286   5.391   4.621
 4072SOL    HW213116   1.390   5.276   4.570
 4073SOL     OW13117   1.988   5.359   6.872
 4073SOL    HW113118   2.034   5.351   6.784
 4073SOL    HW213119   2.000   5.275   6.925
 4074SOL     OW13120   1.494   4.743   1.242
 4074SOL    HW113121   1.548   4.823   1.215
 4074SOL    HW213122   1.479   4.684   1.163
 4075SOL     OW13123   5.138   1.666   0.877
 4075SOL    HW113124   5.039   1.677   0.880
 4075SOL    HW213125   5.160   1.568   0.875
 4076SOL     OW13126   3.467   3.467   5.277
 4076SOL    HW113127   3.452   3.426   5.367
 4076SOL    HW213128   3.414   3.418   5.208
 4077SOL     OW13129   4.645   1.162   1.329
 4077SOL    HW113130   4.736   1.203   1.336
 4077SOL    HW213131   4.611   1.172   1.235
 4078SOL     OW13132   3.202   4.849   2.342
 4078SOL    HW113133   3.174   4.821   2.250
 4078SOL    HW213134   3.124   4.840   2.404
 4079SOL     OW13135   1.690   1.785   4.246
 4079SOL    HW113136   1.697   1.882   4.267
 4079SOL    HW213137   1.616   1.744   4.300
 4080SOL     OW13138   5.176   2.153   4.995
 4080SOL    HW113139   5.117   2.076   4.970
 4080SOL    HW213140   5.127   2.214   5.057
 4081SOL     OW13141   1.991   2.778   4.244
 4081SOL    HW113142   2.002   2.816   4.336
 4081SOL    HW213143   1.923   2.832   4.194
 4082SOL     OW13144   1.265   3.121   0.790
 4082SOL    HW113145   1.208   3.106   0.871
 4082SOL    HW213146   1.249   3.047   0.724
 4083SOL     OW13147   5.878   2.627   3.405
 4083SOL    HW113148   5.945   2.680   3.456
 4083SOL    HW213149   5.852   2.546   3.458
 4084SOL     OW13150   6.130   2.049   4.083
 4084SOL    HW113151   6.189   2.067   4.004
 4084SOL    HW213152   6.046   2.003   4.052
 4085SOL     OW13153   4.096   6.211   1.059
 4085SOL    HW113154   4.013   6.260   1.032
 4085SOL    HW213155   4.156   6.272   1.110
 4086SOL     OW13156   2.070   5.679   1.452
 4086SOL    HW113157   2.088   5.678   1.550
 4086SOL    HW213158   2.076   5.585   1.416
 4087SOL     OW13159   2.458   2.596   3.127
 4087SOL    HW113160   2.501   2.565   3.212
 4087SOL    HW213161   2.385   2.660   3.148
 4088SOL     OW13162   6.818   1.839   0.919
 4088SOL    HW113163   6.791   1.854   1.014
 4088SOL    HW213164   6.750   1.783   0.873
 4089SOL     OW13165   0.341   6.643   3.434
 4089SOL    HW113166   0.301   6.727   3.397
 4089SOL    HW213167   0.367   6.583   3.359
 4090SOL     OW13168   2.799   4.057   5.929
 4090SOL    HW113169   2.839   4.086   5.842
 4090SOL    HW213170   2.806   3.958   5.938
 4091SOL     OW13171   5.933   6.487   6.879
 4091SOL    HW113172   5.901   6.470   6.972
 4091SOL    HW213173   5.863   6.536   6.828
 4092SOL     OW13174   6.961   2.645   5.321
 4092SOL    HW113175   6.864   2.624   5.310
 4092SOL    HW213176   7.016   2.574   5.277
 4093SOL     OW13177   4.726   0.328   4.021
 4093SOL    HW113178   4.626   0.323   4.025
 4093SOL    HW213179   4.755   0.332   3.925
 4094SOL     OW13180   2.376   4.979   4.977
 4094SOL    HW113181   2.289   4.951   4.937
 4094SOL    HW213182   2.447   4.979   4.907
 4095SOL     OW13183   1.018   3.901   6.224
 4095SOL    HW113184   1.029   3.805   6.248
 4095SOL    HW213185   1.029   3.958   6.306
 4096SOL     OW13186   4.777   5.699   0.827
 4096SOL    HW113187   4.873   5.700   0.798
 4096SOL    HW213188   4.739   5.791   0.817
 4097SOL     OW13189   3.052   4.173   6.020
 4097SOL    HW113190   2.953   4.178   6.029
 4097SOL    HW213191   3.086   4.253   5.970
 4098SOL     OW13192   0.220   3.033   2.378
 4098SOL    HW113193   0.214   3.126   2.416
 4098SOL    HW213194   0.303   2.989   2.412
 4099SOL     OW13195   2.810   5.097   1.400
 4099SOL    HW113196   2.843   5.075   1.492
 4099SOL    HW213197   2.747   5.026   1.370
 4100SOL     OW13198   5.559   5.818   3.962
 4100SOL    HW113199   5.572   5.915   3.981
 4100SOL    HW213200   5.598   5.796   3.873
 4101SOL     OW13201   5.574   0.678   0.018
 4101SOL    HW113202   5.606   0.629   6.959
 4101SOL    HW213203   5.579   0.776   0.002
 4102SOL     OW13204   6.628   0.501   1.317
 4102SOL    HW113205   6.612   0.542   1.407
 4102SOL    HW213206   6.579   0.554   1.247
 4103SOL     OW13207   0.766   0.797   1.894
 4103SOL    HW113208   0.686   0.778   1.951
 4103SOL    HW213209   0.806   0.884   1.922
 4104SOL     OW13210   1.447   4.745   2.529
 4104SOL    HW113211   1.517   4.680   2.559
 4104SOL    HW213212   1.359   4.720   2.569
 4105SOL     OW13213   4.206   5.625   1.278
 4105SOL    HW113214   4.128   5.670   1.321
 4105SOL    HW213215   4.290   5.649   1.328
 4106SOL     OW13216   0.599   3.465   4.607
 4106SOL    HW113217   0.505   3.500   4.613
 4106SOL    HW213218   0.652   3.500   4.684
 4107SOL     OW13219   0.905   6.403   0.908
 4107SOL    HW113220   0.904   6.481   0.969
 4107SOL    HW213221   0.999   6.369   0.898
 4108SOL     OW13222   0.151   4.850   5.982
 4108SOL    HW113223   0.063   4.875   6.023
 4108SOL    HW213224   0.202   4.793   6.046
 4109SOL     OW13225   4.626   6.398   4.539
 4109SOL    HW113226   4.670   6.487   4.534
 4109SOL    HW213227   4.584   6.386   4.629
 4110SOL     OW13228   4.195   3.877   0.055
 4110SOL    HW113229   4.115   3.911   0.006
 4110SOL    HW213230   4.277   3.896   0.002
 4111SOL     OW13231   3.345   3.025   0.241
 4111SOL    HW113232   3.313   2.930   0.249
 4111SOL    HW213233   3.337   3.071   0.329
 4112SOL     OW13234   5.382   1.710   5.374
 4112SOL    HW113235   5.383   1.652   5.293
 4112SOL    HW213236   5.345   1.658   5.452
 4113SOL     OW13237   3.901   6.083   4.763
 4113SOL    HW113238   3.832   6.048   4.699
 4113SOL    HW213239   3.906   6.022   4.842
 4114SOL     OW13240   3.376   2.143   3.653
 4114SOL    HW113241   3.414   2.146   3.561
 4114SOL    HW213242   3.449   2.118   3.718
 4115SOL     OW13243   5.079   5.997   2.367
 4115SOL    HW113244   5.086   6.097   2.363
 4115SOL    HW213245   4.983   5.971   2.380
 4116SOL     OW13246   4.060   2.160   1.520
 4116SOL    HW113247   4.140   2.210   1.489
 4116SOL    HW213248   3.989   2.226   1.548
 4117SOL     OW13249   0.513   5.102   1.731
 4117SOL    HW113250   0.543   5.127   1.638
 4117SOL    HW213251   0.461   5.178   1.770
 4118SOL     OW13252   1.501   6.727   1.076
 4118SOL    HW113253   1.578   6.663   1.075
 4118SOL    HW213254   1.491   6.769   0.986
 4119SOL     OW13255   4.378   1.432   3.937
 4119SOL    HW113256   4.419   1.491   4.007
 4119SOL    HW213257   4.437   1.432   3.856
 4120SOL     OW13258   4.712   6.290   1.833
 4120SOL    HW113259   4.748   6.228   1.763
 4120SOL    HW213260   4.739   6.256   1.923
 4121SOL     OW13261   6.333   1.861   4.857
 4121SOL    HW113262   6.339   1.928   4.783
 4121SOL    HW213263   6.309   1.772   4.820
 4122SOL     OW13264   0.867   6.419   5.291
 4122SOL    HW113265   0.857   6.345   5.359
 4122SOL    HW213266   0.937   6.394   5.225
 4123SOL     OW13267   5.567   4.634   5.602
 4123SOL    HW113268   5.644   4.698   5.596
 4123SOL    HW213269   5.522   4.643   5.690
 4124SOL     OW13270   6.164   5.665   5.410
 4124SOL    HW113271   6.179   5.616   5.324
 4124SOL    HW213272   6.066   5.674   5.427
 4125SOL     OW13273   5.004   0.592   1.519
 4125SOL    HW113274   4.974   0.648   1.597
 4125SOL    HW213275   4.929   0.532   1.490
 4126SOL     OW13276   1.249   4.084   3.997
 4126SOL    HW113277   1.296   4.160   3.951
 4126SOL    HW213278   1.296   3.999   3.976
 4127SOL     OW13279   5.374   3.815   4.170
 4127SOL    HW113280   5.454   3.756   4.177
 4127SOL    HW213281   5.295   3.760   4.140
 4128SOL     OW13282   1.948   4.047   2.406
 4128SOL    HW113283   2.038   4.089   2.395
 4128SOL    HW213284   1.956   3.948   2.407
 4129SOL     OW13285   5.398   2.000   6.396
 4129SOL    HW113286   5.300   2.008   6.377
 4129SOL    HW213287   5.425   2.071   6.460
 4130SOL     OW13288   6.919   3.381   5.968
 4130SOL    HW113289   6.950   3.390   5.873
 4130SOL    HW213290   6.824   3.411   5.974
 4131SOL     OW13291   1.243   5.685   3.916
 4131SOL    HW113292   1.167   5.635   3.957
 4131SOL    HW213293   1.258   5.770   3.967
 4132SOL     OW13294   6.039   3.963   4.179
 4132SOL    HW113295   5.981   3.932   4.253
 4132SOL    HW213296   6.022   3.908   4.097
 4133SOL     OW13297   3.056   6.734   1.216
 4133SOL    HW113298   3.034   6.830   1.200
 4133SOL    HW213299   3.150   6.716   1.186
 4134SOL     OW13300   1.668   2.132   0.332
 4134SOL    HW113301   1.622   2.150   0.245
 4134SOL    HW213302   1.635   2.198   0.400
 4135SOL     OW13303   2.021   0.897   2.233
 4135SOL    HW113304   1.979   0.987   2.225
 4135SOL    HW213305   2.080   0.880   2.154
 4136SOL     OW13306   0.476   2.365   3.992
 4136SOL    HW113307   0.548   2.418   3.947
 4136SOL    HW213308   0.473   2.273   3.952
 4137SOL     OW13309   2.388   3.863   0.929
 4137SOL    HW113310   2.411   3.788   0.991
 4137SOL    HW213311   2.297   3.847   0.890
 4138SOL     OW13312   3.485   4.901   4.026
 4138SOL    HW113313   3.581   4.887   4.003
 4138SOL    HW213314   3.467   4.999   4.036
 4139SOL     OW13315   2.068   2.451   6.094
 4139SOL    HW113316   2.075   2.372   6.035
 4139SOL    HW213317   2.010   2.429   6.173
 4140SOL     OW13318   3.222   0.362   5.309
 4140SOL    HW113319   3.226   0.459   5.333
 4140SOL    HW213320   3.127   0.336   5.292
 4141SOL     OW13321   5.119   5.422   1.173
 4141SOL    HW113322   5.153   5.350   1.234
 4141SOL    HW213323   5.177   5.426   1.091
 4142SOL     OW13324   6.804   5.608   1.011
 4142SOL    HW113325   6.845   5.541   1.074
 4142SOL    HW213326   6.705   5.611   1.026
 4143SOL     OW13327   0.270   3.423   0.629
 4143SOL    HW113328   0.244   3.421   0.532
 4143SOL    HW213329   0.307   3.513   0.652
 4144SOL     OW13330   5.471   2.560   0.900
 4144SOL    HW113331   5.457   2.468   0.864
 4144SOL    HW213332   5.549   2.602   0.854
 4145SOL     OW13333   6.720   6.094   1.875
 4145SOL    HW113334   6.766   6.033   1.810
 4145SOL    HW213335   6.666   6.040   1.940
 4146SOL     OW13336   6.082   0.805   6.027
 4146SOL    HW113337   6.117   0.711   6.031
 4146SOL    HW213338   6.027   0.817   5.944
 4147SOL     OW13339   3.392   1.797   5.466
 4147SOL    HW113340   3.482   1.775   5.503
 4147SOL    HW213341   3.362   1.886   5.501
 4148SOL     OW13342   0.421   0.163   3.881
 4148SOL    HW113343   0.409   0.087   3.945
 4148SOL    HW213344   0.446   0.128   3.791
 4149SOL     OW13345   0.562   3.506   6.970
 4149SOL    HW113346   0.558   3.408   6.990
 4149SOL    HW213347   0.620   3.551   0.016
 4150SOL     OW13348   5.468   0.857   5.931
 4150SOL    HW113349   5.369   0.853   5.920
 4150SOL    HW213350   5.490   0.862   6.028
 4151SOL     OW13351   5.602   5.823   0.303
 4151SOL    HW113352   5.633   5.728   0.296
 4151SOL    HW213353   5.658   5.871   0.371
 4152SOL     OW13354   3.145   5.044   1.911
 4152SOL    HW113355   3.163   5.105   1.834
 4152SOL    HW213356   3.217   5.054   1.979
 4153SOL     OW13357   5.403   5.547   5.849
 4153SOL    HW113358   5.370   5.452   5.846
 4153SOL    HW213359   5.446   5.564   5.938
 4154SOL     OW13360   6.377   3.817   5.328
 4154SOL    HW113361   6.440   3.895   5.318
 4154SOL    HW213362   6.343   3.813   5.422
 4155SOL     OW13363   0.071   3.379   3.346
 4155SOL    HW113364   0.040   3.284   3.347
 4155SOL    HW213365   0.125   3.396   3.264
 4156SOL     OW13366   5.691   6.989   5.131
 4156SOL    HW113367   5.772   6.972   5.186
 4156SOL    HW213368   5.661   6.904   5.088
 4157SOL     OW13369   3.555   0.253   3.892
 4157SOL    HW113370   3.494   0.332   3.880
 4157SOL    HW213371   3.502   0.169   3.885
 4158SOL     OW13372   1.194   5.153   4.005
 4158SOL    HW113373   1.278   5.206   4.012
 4158SOL    HW213374   1.185   5.093   4.084
 4159SOL     OW13375   1.755   3.122   3.930
 4159SOL    HW113376   1.745   3.098   4.026
 4159SOL    HW213377   1.677   3.179   3.902
 4160SOL     OW13378   6.278   0.538   1.091
 4160SOL    HW113379   6.242   0.523   1.183
 4160SOL    HW213380   6.216   0.599   1.041
 4161SOL     OW13381   2.139   0.404   6.618
 4161SOL    HW113382   2.116   0.364   6.707
 4161SOL    HW213383   2.235   0.430   6.617
 4162SOL     OW13384   6.115   0.367   4.907
 4162SOL    HW113385   6.189   0.389   4.969
 4162SOL    HW213386   6.030   0.354   4.959
 4163SOL     OW13387   5.900   1.566   3.074
 4163SOL    HW113388   5.943   1.493   3.128
 4163SOL    HW213389   5.959   1.647   3.075
 4164SOL     OW13390   1.884   0.242   6.619
 4164SOL    HW113391   1.843   0.294   6.694
 4164SOL    HW213392   1.934   0.303   6.559
 4165SOL     OW13393   4.504   6.606   1.213
 4165SOL    HW113394   4.448   6.555   1.278
 4165SOL    HW213395   4.456   6.689   1.185
 4166SOL     OW13396   4.267   2.447   1.511
 4166SOL    HW113397   4.212   2.503   1.448
 4166SOL    HW213398   4.307   2.371   1.460
 4167SOL     OW13399   2.261   2.884   1.025
 4167SOL    HW113400   2.191   2.830   1.071
 4167SOL    HW213401   2.337   2.825   0.997
 4168SOL     OW13402   0.236   4.554   1.104
 4168SOL    HW113403   0.249   4.653   1.106
 4168SOL    HW213404   0.238   4.522   1.009
 4169SOL     OW13405   5.220   4.057   4.650
 4169SOL    HW113406   5.160   4.047   4.730
 4169SOL    HW213407   5.309   4.013   4.670
 4170SOL     OW13408   4.166   2.954   5.370
 4170SOL    HW113409   4.088   2.984   5.316
 4170SOL    HW213410   4.136   2.926   5.461
 4171SOL     OW13411   5.196   4.173   0.947
 4171SOL    HW113412   5.121   4.142   1.005
 4171SOL    HW213413   5.198   4.118   0.863
 4172SOL     OW13414   0.122   2.355   6.673
 4172SOL    HW113415   0.105   2.361   6.574
 4172SOL    HW213416   0.157   2.443   6.706
 4173SOL     OW13417   5.344   3.114   5.153
 4173SOL    HW113418   5.414   3.109   5.081
 4173SOL    HW213419   5.263   3.160   5.117
 4174SOL     OW13420   4.800   0.976   4.217
 4174SOL    HW113421   4.751   1.016   4.294
 4174SOL    HW213422   4.798   0.876   4.224
 4175SOL     OW13423   3.043   6.883   4.177
 4175SOL    HW113424   3.064   6.824   4.098
 4175SOL    HW213425   3.052   6.830   4.261
 4176SOL     OW13426   3.995   0.168   2.159
 4176SOL    HW113427   3.904   0.143   2.192
 4176SOL    HW213428   4.064   0.137   2.224
 4177SOL     OW13429   0.498   4.832   5.000
 4177SOL    HW113430   0.469   4.749   4.951
 4177SOL    HW213431   0.421   4.894   5.008
 4178SOL     OW13432   3.611   1.096   5.304
 4178SOL    HW113433   3.558   1.011   5.304
 4178SOL    HW213434   3.654   1.108   5.214
 4179SOL     OW13435   5.990   3.146   4.316
 4179SOL    HW113436   6.080   3.189   4.325
 4179SOL    HW213437   5.996   3.067   4.255
 4180SOL     OW13438   5.589   4.322   2.260
 4180SOL    HW113439   5.506   4.300   2.311
 4180SOL    HW213440   5.668   4.318   2.321
 4181SOL     OW13441   1.349   1.984   6.170
 4181SOL    HW113442   1.254   2.013   6.180
 4181SOL    HW213443   1.402   2.018   6.248
 4182SOL     OW13444   0.228   0.507   2.602
 4182SOL    HW113445   0.211   0.413   2.575
 4182SOL    HW213446   0.142   0.551   2.629
 4183SOL     OW13447   2.599   1.756   1.536
 4183SOL    HW113448   2.635   1.669   1.569
 4183SOL    HW213449   2.611   1.762   1.437
 4184SOL     OW13450   3.904   5.392   1.316
 4184SOL    HW113451   3.980   5.332   1.295
 4184SOL    HW213452   3.839   5.343   1.375
 4185SOL     OW13453   0.732   5.670   3.458
 4185SOL    HW113454   0.820   5.637   3.423
 4185SOL    HW213455   0.702   5.748   3.403
 4186SOL     OW13456   2.074   4.248   6.925
 4186SOL    HW113457   2.009   4.193   6.978
 4186SOL    HW213458   2.032   4.275   6.839
 4187SOL     OW13459   3.468   3.298   5.666
 4187SOL    HW113460   3.477   3.199   5.667
 4187SOL    HW213461   3.387   3.324   5.614
 4188SOL     OW13462   4.535   0.808   4.365
 4188SOL    HW113463   4.581   0.875   4.423
 4188SOL    HW213464   4.593   0.728   4.354
 4189SOL     OW13465   3.042   1.751   4.362
 4189SOL    HW113466   3.011   1.747   4.457
 4189SOL    HW213467   2.971   1.793   4.305
 4190SOL     OW13468   2.730   0.060   6.405
 4190SOL    HW113469   2.709   0.158   6.408
 4190SOL    HW213470   2.707   0.018   6.493
 4191SOL     OW13471   5.582   3.108   3.040
 4191SOL    HW113472   5.589   3.073   2.947
 4191SOL    HW213473   5.647   3.059   3.099
 4192SOL     OW13474   6.284   1.497   2.933
 4192SOL    HW113475   6.236   1.443   3.003
 4192SOL    HW213476   6.379   1.510   2.962
 4193SOL     OW13477   2.329   6.433   2.100
 4193SOL    HW113478   2.304   6.427   2.197
 4193SOL    HW213479   2.259   6.387   2.045
 4194SOL     OW13480   6.633   2.057   4.373
 4194SOL    HW113481   6.733   2.056   4.365
 4194SOL    HW213482   6.608   2.054   4.470
 4195SOL     OW13483   3.900   0.396   1.313
 4195SOL    HW113484   3.976   0.334   1.327
 4195SOL    HW213485   3.909   0.474   1.375
 4196SOL     OW13486   5.988   2.437   4.061
 4196SOL    HW113487   6.085   2.458   4.051
 4196SOL    HW213488   5.953   2.479   4.145
 4197SOL     OW13489   5.498   4.324   4.205
 4197SOL    HW113490   5.526   4.298   4.298
 4197SOL    HW213491   5.446   4.249   4.164
 4198SOL     OW13492   5.996   3.778   0.162
 4198SOL    HW113493   6.030   3.684   0.162
 4198SOL    HW213494   5.994   3.813   0.256
 4199SOL     OW13495   3.097   3.034   5.252
 4199SOL    HW113496   3.030   3.103   5.279
 4199SOL    HW213497   3.095   3.024   5.152
 4200SOL     OW13498   2.472   6.645   6.141
 4200SOL    HW113499   2.418   6.718   6.099
 4200SOL    HW213500   2.529   6.601   6.072
 4201SOL     OW13501   6.382   6.348   3.190
 4201SOL    HW113502   6.476   6.316   3.176
 4201SOL    HW213503   6.373   6.387   3.281
 4202SOL     OW13504   4.897   4.570   5.786
 4202SOL    HW113505   4.818   4.589   5.845
 4202SOL    HW213506   4.866   4.550   5.693
 4203SOL     OW13507   4.774   6.125   2.950
 4203SOL    HW113508   4.834   6.075   2.888
 4203SOL    HW213509   4.811   6.216   2.966
 4204SOL     OW13510   3.294   2.869   1.997
 4204SOL    HW113511   3.296   2.958   1.952
 4204SOL    HW213512   3.363   2.867   2.069
 4205SOL     OW13513   3.403   4.933   4.302
 4205SOL    HW113514   3.381   5.030   4.294
 4205SOL    HW213515   3.443   4.900   4.216
 4206SOL     OW13516   4.584   0.648   5.722
 4206SOL    HW113517   4.674   0.607   5.730
 4206SOL    HW213518   4.520   0.583   5.682
 4207SOL     OW13519   1.919   1.237   1.983
 4207SOL    HW113520   1.861   1.314   2.007
 4207SOL    HW213521   1.876   1.184   1.910
 4208SOL     OW13522   1.771   2.594   1.048
 4208SOL    HW113523   1.704   2.602   1.121
 4208SOL    HW213524   1.800   2.499   1.039
 4209SOL     OW13525   1.372   0.281   4.854
 4209SOL    HW113526   1.457   0.307   4.898
 4209SOL    HW213527   1.382   0.286   4.754
 4210SOL     OW13528   3.629   3.557   1.651
 4210SOL    HW113529   3.716   3.604   1.665
 4210SOL    HW213530   3.625   3.521   1.558
 4211SOL     OW13531   4.755   4.940   5.271
 4211SOL    HW113532   4.671   4.983   5.238
 4211SOL    HW213533   4.819   4.930   5.195
 4212SOL     OW13534   6.334   1.667   2.628
 4212SOL    HW113535   6.264   1.606   2.664
 4212SOL    HW213536   6.356   1.737   2.695
 4213SOL     OW13537   2.255   0.951   2.085
 4213SOL    HW113538   2.256   1.033   2.142
 4213SOL    HW213539   2.349   0.923   2.066
 4214SOL     OW13540   0.850   3.517   6.211
 4214SOL    HW113541   0.826   3.558   6.123
 4214SOL    HW213542   0.891   3.586   6.270
 4215SOL     OW13543   0.993   5.581   4.391
 4215SOL    HW113544   1.042   5.498   4.364
 4215SOL    HW213545   0.895   5.568   4.375
 4216SOL     OW13546   1.299   1.873   3.759
 4216SOL    HW113547   1.335   1.798   3.703
 4216SOL    HW213548   1.259   1.835   3.843
 4217SOL     OW13549   0.399   6.926   2.459
 4217SOL    HW113550   0.374   6.885   2.546
 4217SOL    HW213551   0.328   6.907   2.391
 4218SOL     OW13552   4.791   0.388   1.458
 4218SOL    HW113553   4.857   0.322   1.423
 4218SOL    HW213554   4.740   0.347   1.535
 4219SOL     OW13555   3.568   4.905   5.259
 4219SOL    HW113556   3.505   4.840   5.217
 4219SOL    HW213557   3.600   4.970   5.190
 4220SOL     OW13558   6.503   3.453   3.380
 4220SOL    HW113559   6.470   3.454   3.474
 4220SOL    HW213560   6.425   3.453   3.318
 4221SOL     OW13561   5.364   5.867   6.474
 4221SOL    HW113562   5.311   5.901   6.551
 4221SOL    HW213563   5.422   5.791   6.504
 4222SOL     OW13564   5.953   2.391   1.837
 4222SOL    HW113565   5.943   2.484   1.870
 4222SOL    HW213566   6.049   2.363   1.843
 4223SOL     OW13567   3.293   3.846   2.654
 4223SOL    HW113568   3.271   3.785   2.578
 4223SOL    HW213569   3.391   3.838   2.676
 4224SOL     OW13570   4.701   2.698   4.800
 4224SOL    HW113571   4.647   2.749   4.866
 4224SOL    HW213572   4.735   2.614   4.842
 4225SOL     OW13573   5.871   0.839   4.714
 4225SOL    HW113574   5.954   0.835   4.769
 4225SOL    HW213575   5.816   0.756   4.729
 4226SOL     OW13576   1.221   0.964   3.765
 4226SOL    HW113577   1.140   1.016   3.738
 4226SOL    HW213578   1.196   0.895   3.833
 4227SOL     OW13579   4.196   4.815   0.352
 4227SOL    HW113580   4.233   4.893   0.402
 4227SOL    HW213581   4.197   4.734   0.411
 4228SOL     OW13582   5.636   6.443   3.997
 4228SOL    HW113583   5.557   6.414   4.052
 4228SOL    HW213584   5.709   6.474   4.057
 4229SOL     OW13585   4.256   4.685   6.625
 4229SOL    HW113586   4.221   4.702   6.533
 4229SOL    HW213587   4.322   4.756   6.649
 4230SOL     OW13588   2.698   0.225   4.927
 4230SOL    HW113589   2.634   0.301   4.913
 4230SOL    HW213590   2.785   0.261   4.960
 4231SOL     OW13591   5.120   6.295   5.259
 4231SOL    HW113592   5.154   6.377   5.305
 4231SOL    HW213593   5.065   6.241   5.323
 4232SOL     OW13594   1.055   5.356   1.775
 4232SOL    HW113595   1.037   5.432   1.712
 4232SOL    HW213596   1.133   5.303   1.742
 4233SOL     OW13597   6.047   0.438   6.622
 4233SOL    HW113598   6.098   0.386   6.553
 4233SOL    HW213599   5.965   0.476   6.580
 4234SOL     OW13600   2.855   5.093   6.133
 4234SOL    HW113601   2.826   5.022   6.197
 4234SOL    HW213602   2.904   5.052   6.056
 4235SOL     OW13603   6.430   4.521   5.853
 4235SOL    HW113604   6.417   4.507   5.952
 4235SOL    HW213605   6.377   4.453   5.803
 4236SOL     OW13606   0.589   2.848   3.608
 4236SOL    HW113607   0.624   2.898   3.687
 4236SOL    HW213608   0.531   2.773   3.640
 4237SOL     OW13609   5.221   3.792   4.457
 4237SOL    HW113610   5.176   3.728   4.519
 4237SOL    HW213611   5.313   3.812   4.490
 4238SOL     OW13612   3.790   5.363   3.855
 4238SOL    HW113613   3.784   5.273   3.898
 4238SOL    HW213614   3.826   5.429   3.920
 4239SOL     OW13615   4.789   6.664   5.046
 4239SOL    HW113616   4.881   6.680   5.082
 4239SOL    HW213617   4.729   6.634   5.120
 4240SOL     OW13618   2.727   4.975   0.002
 4240SOL    HW113619   2.806   5.014   6.978
 4240SOL    HW213620   2.680   5.047   0.053
 4241SOL     OW13621   5.254   0.199   1.286
 4241SOL    HW113622   5.331   0.262   1.297
 4241SOL    HW213623   5.180   0.244   1.237
 4242SOL     OW13624   2.324   6.712   2.755
 4242SOL    HW113625   2.308   6.631   2.812
 4242SOL    HW213626   2.324   6.685   2.659
 4243SOL     OW13627   0.893   3.646   1.996
 4243SOL    HW113628   0.991   3.624   1.996
 4243SOL    HW213629   0.872   3.703   1.917
 4244SOL     OW13630   4.926   5.951   1.359
 4244SOL    HW113631   4.829   5.936   1.341
 4244SOL    HW213632   4.945   5.936   1.456
 4245SOL     OW13633   6.707   3.032   0.273
 4245SOL    HW113634   6.676   3.085   0.353
 4245SOL    HW213635   6.794   2.988   0.294
 4246SOL     OW13636   5.041   2.168   2.685
 4246SOL    HW113637   5.063   2.126   2.774
 4246SOL    HW213638   4.950   2.209   2.689
 4247SOL     OW13639   2.069   5.062   4.723
 4247SOL    HW113640   2.140   4.996   4.749
 4247SOL    HW213641   1.979   5.023   4.744
 4248SOL     OW13642   1.859   0.711   2.352
 4248SOL    HW113643   1.927   0.782   2.334
 4248SOL    HW213644   1.781   0.752   2.400
 4249SOL     OW13645   0.261   1.393   4.395
 4249SOL    HW113646   0.164   1.374   4.380
 4249SOL    HW213647   0.277   1.491   4.389
 4250SOL     OW13648   0.495   5.806   4.451
 4250SOL    HW113649   0.450   5.754   4.378
 4250SOL    HW213650   0.468   5.768   4.540
 4251SOL     OW13651   5.981   2.623   6.593
 4251SOL    HW113652   5.898   2.587   6.550
 4251SOL    HW213653   6.014   2.702   6.542
 4252SOL     OW13654   6.071   6.400   5.450
 4252SOL    HW113655   6.043   6.476   5.391
 4252SOL    HW213656   6.127   6.436   5.525
 4253SOL     OW13657   3.964   6.058   2.299
 4253SOL    HW113658   4.020   6.092   2.375
 4253SOL    HW213659   4.024   6.027   2.225
 4254SOL     OW13660   2.348   3.234   6.921
 4254SOL    HW113661   2.363   3.313   6.981
 4254SOL    HW213662   2.415   3.163   6.941
 4255SOL     OW13663   0.857   4.221   2.773
 4255SOL    HW113664   0.886   4.209   2.677
 4255SOL    HW213665   0.918   4.286   2.818
 4256SOL     OW13666   0.797   4.772   1.764
 4256SOL    HW113667   0.712   4.756   1.815
 4256SOL    HW213668   0.800   4.868   1.734
 4257SOL     OW13669   6.285   1.443   5.081
 4257SOL    HW113670   6.303   1.504   5.158
 4257SOL    HW213671   6.200   1.392   5.099
 4258SOL     OW13672   3.637   5.591   0.709
 4258SOL    HW113673   3.686   5.508   0.682
 4258SOL    HW213674   3.543   5.567   0.736
 4259SOL     OW13675   1.450   6.525   1.524
 4259SOL    HW113676   1.479   6.489   1.436
 4259SOL    HW213677   1.508   6.603   1.549
 4260SOL     OW13678   5.073   6.629   4.875
 4260SOL    HW113679   5.049   6.708   4.819
 4260SOL    HW213680   5.099   6.660   4.967
 4261SOL     OW13681   2.410   0.287   4.442
 4261SOL    HW113682   2.346   0.308   4.367
 4261SOL    HW213683   2.471   0.213   4.414
 4262SOL     OW13684   1.410   4.958   6.450
 4262SOL    HW113685   1.417   4.929   6.355
 4262SOL    HW213686   1.373   4.884   6.505
 4263SOL     OW13687   2.751   2.340   3.623
 4263SOL    HW113688   2.722   2.257   3.574
 4263SOL    HW213689   2.849   2.336   3.639
 4264SOL     OW13690   5.555   1.324   4.301
 4264SOL    HW113691   5.651   1.323   4.275
 4264SOL    HW213692   5.523   1.230   4.313
 4265SOL     OW13693   2.697   0.368   0.977
 4265SOL    HW113694   2.617   0.420   1.007
 4265SOL    HW213695   2.671   0.274   0.958
 4266SOL     OW13696   1.028   6.839   0.206
 4266SOL    HW113697   0.995   6.747   0.184
 4266SOL    HW213698   1.117   6.832   0.250
 4267SOL     OW13699   2.064   3.877   3.966
 4267SOL    HW113700   2.117   3.961   3.981
 4267SOL    HW213701   2.040   3.871   3.869
 4268SOL     OW13702   1.336   5.240   6.207
 4268SOL    HW113703   1.326   5.283   6.117
 4268SOL    HW213704   1.363   5.145   6.195
 4269SOL     OW13705   3.260   1.711   4.231
 4269SOL    HW113706   3.323   1.771   4.282
 4269SOL    HW213707   3.172   1.707   4.278
 4270SOL     OW13708   3.695   3.049   0.655
 4270SOL    HW113709   3.707   3.149   0.660
 4270SOL    HW213710   3.657   3.017   0.742
 4271SOL     OW13711   6.499   0.405   0.942
 4271SOL    HW113712   6.529   0.454   0.860
 4271SOL    HW213713   6.437   0.463   0.994
 4272SOL     OW13714   6.687   3.494   5.918
 4272SOL    HW113715   6.595   3.496   5.956
 4272SOL    HW213716   6.694   3.560   5.843
 4273SOL     OW13717   4.647   6.090   4.567
 4273SOL    HW113718   4.629   6.057   4.660
 4273SOL    HW213719   4.736   6.136   4.565
 4274SOL     OW13720   6.626   6.930   1.684
 4274SOL    HW113721   6.556   6.905   1.750
 4274SOL    HW213722   6.704   6.869   1.693
 4275SOL     OW13723   0.717   2.426   3.612
 4275SOL    HW113724   0.679   2.516   3.635
 4275SOL    HW213725   0.802   2.437   3.560
 4276SOL     OW13726   2.849   5.467   4.151
 4276SOL    HW113727   2.771   5.424   4.196
 4276SOL    HW213728   2.816   5.534   4.084
 4277SOL     OW13729   6.118   5.535   4.228
 4277SOL    HW113730   6.115   5.599   4.151
 4277SOL    HW213731   6.041   5.552   4.289
 4278SOL     OW13732   0.491   6.905   2.016
 4278SOL    HW113733   0.495   6.831   2.083
 4278SOL    HW213734   0.562   6.973   2.037
 4279SOL     OW13735   1.394   2.004   2.396
 4279SOL    HW113736   1.381   1.905   2.396
 4279SOL    HW213737   1.376   2.041   2.305
 4280SOL     OW13738   6.687   0.014   6.817
 4280SOL    HW113739   6.709   0.111   6.823
 4280SOL    HW213740   6.632   7.009   6.896
 4281SOL     OW13741   4.707   5.452   4.039
 4281SOL    HW113742   4.704   5.524   3.969
 4281SOL    HW213743   4.795   5.405   4.033
 4282SOL     OW13744   3.155   4.407   0.869
 4282SOL    HW113745   3.222   4.334   0.880
 4282SOL    HW213746   3.067   4.367   0.841
 4283SOL     OW13747   4.881   0.840   3.755
 4283SOL    HW113748   4.923   0.917   3.803
 4283SOL    HW213749   4.825   0.787   3.819
 4284SOL     OW13750   4.984   6.007   6.899
 4284SOL    HW113751   5.023   5.953   6.974
 4284SOL    HW213752   5.025   6.098   6.899
 4285SOL     OW13753   3.080   0.748   6.347
 4285SOL    HW113754   3.004   0.771   6.287
 4285SOL    HW213755   3.044   0.709   6.432
 4286SOL     OW13756   6.589   0.897   6.534
 4286SOL    HW113757   6.564   0.875   6.440
 4286SOL    HW213758   6.584   0.996   6.548
 4287SOL     OW13759   4.419   0.727   0.053
 4287SOL    HW113760   4.430   0.787   0.132
 4287SOL    HW213761   4.338   0.755   0.001
 4288SOL     OW13762   6.610   6.156   2.326
 4288SOL    HW113763   6.584   6.246   2.290
 4288SOL    HW213764   6.690   6.121   2.276
 4289SOL     OW13765   0.877   2.776   4.918
 4289SOL    HW113766   0.785   2.738   4.927
 4289SOL    HW213767   0.933   2.715   4.863
 4290SOL     OW13768   0.294   0.701   3.296
 4290SOL    HW113769   0.352   0.753   3.233
 4290SOL    HW213770   0.281   0.753   3.380
 4291SOL     OW13771   4.651   3.111   5.980
 4291SOL    HW113772   4.552   3.117   5.966
 4291SOL    HW213773   4.697   3.104   5.891
 4292SOL     OW13774   5.250   2.011   0.591
 4292SOL    HW113775   5.209   1.923   0.564
 4292SOL    HW213776   5.308   2.045   0.517
 4293SOL     OW13777   4.859   3.860   6.521
 4293SOL    HW113778   4.957   3.879   6.522
 4293SOL    HW213779   4.835   3.808   6.439
 4294SOL     OW13780   3.249   2.215   6.313
 4294SOL    HW113781   3.319   2.177   6.252
 4294SOL    HW213782   3.192   2.279   6.261
 4295SOL     OW13783   4.297   6.588   2.054
 4295SOL    HW113784   4.317   6.674   2.007
 4295SOL    HW213785   4.217   6.545   2.013
 4296SOL     OW13786   2.656   6.613   0.694
 4296SOL    HW113787   2.606   6.639   0.777
 4296SOL    HW213788   2.751   6.595   0.717
 4297SOL     OW13789   6.074   5.687   0.875
 4297SOL    HW113790   6.167   5.713   0.903
 4297SOL    HW213791   6.071   5.680   0.775
 4298SOL     OW13792   3.317   6.301   1.476
 4298SOL    HW113793   3.281   6.216   1.437
 4298SOL    HW213794   3.299   6.377   1.414
 4299SOL     OW13795   0.431   2.608   6.962
 4299SOL    HW113796   0.425   2.578   0.035
 4299SOL    HW213797   0.454   2.530   6.904
 4300SOL     OW13798   4.154   0.704   0.689
 4300SOL    HW113799   4.110   0.659   0.611
 4300SOL    HW213800   4.253   0.696   0.681
 4301SOL     OW13801   3.112   6.455   1.983
 4301SOL    HW113802   3.059   6.411   2.055
 4301SOL    HW213803   3.064   6.536   1.951
 4302SOL     OW13804   1.616   6.201   6.364
 4302SOL    HW113805   1.704   6.202   6.411
 4302SOL    HW213806   1.629   6.172   6.269
 4303SOL     OW13807   5.954   4.636   4.362
 4303SOL    HW113808   5.995   4.571   4.427
 4303SOL    HW213809   5.884   4.588   4.308
 4304SOL     OW13810   3.156   3.595   1.672
 4304SOL    HW113811   3.231   3.657   1.693
 4304SOL    HW213812   3.186   3.500   1.683
 4305SOL     OW13813   0.015   0.123   5.482
 4305SOL    HW113814   6.985   0.049   5.526
 4305SOL    HW213815   0.089   0.084   5.428
 4306SOL     OW13816   4.891   3.819   4.550
 4306SOL    HW113817   4.875   3.722   4.564
 4306SOL    HW213818   4.912   3.837   4.454
 4307SOL     OW13819   6.050   2.394   5.627
 4307SOL    HW113820   5.969   2.405   5.569
 4307SOL    HW213821   6.081   2.299   5.622
 4308SOL     OW13822   5.113   4.678   1.619
 4308SOL    HW113823   5.131   4.709   1.712
 4308SOL    HW213824   5.025   4.630   1.616
 4309SOL     OW13825   0.761   3.352   0.657
 4309SOL    HW113826   0.748   3.350   0.558
 4309SOL    HW213827   0.741   3.262   0.695
 4310SOL     OW13828   0.198   1.700   2.170
 4310SOL    HW113829   0.293   1.675   2.149
 4310SOL    HW213830   0.149   1.620   2.203
 4311SOL     OW13831   1.087   6.360   2.602
 4311SOL    HW113832   1.073   6.265   2.627
 4311SOL    HW213833   1.010   6.392   2.546
 4312SOL     OW13834   0.484   5.206   2.188
 4312SOL    HW113835   0.506   5.119   2.232
 4312SOL    HW213836   0.390   5.232   2.210
 4313SOL     OW13837   5.540   1.733   0.331
 4313SOL    HW113838   5.617   1.671   0.316
 4313SOL    HW213839   5.491   1.706   0.414
 4314SOL     OW13840   6.769   2.991   5.238
 4314SOL    HW113841   6.850   3.050   5.239
 4314SOL    HW213842   6.772   2.929   5.316
 4315SOL     OW13843   2.411   1.117   3.942
 4315SOL    HW113844   2.468   1.181   3.994
 4315SOL    HW213845   2.467   1.039   3.914
 4316SOL     OW13846   5.855   0.267   2.190
 4316SOL    HW113847   5.950   0.298   2.190
 4316SOL    HW213848   5.832   0.230   2.100
 4317SOL     OW13849   4.843   1.061   5.582
 4317SOL    HW113850   4.768   0.996   5.591
 4317SOL    HW213851   4.807   1.153   5.567
 4318SOL     OW13852   0.463   1.041   3.662
 4318SOL    HW113853   0.530   1.113   3.678
 4318SOL    HW213854   0.399   1.037   3.739
 4319SOL     OW13855   1.192   3.578   1.958
 4319SOL    HW113856   1.223   3.509   2.023
 4319SOL    HW213857   1.244   3.568   1.872
 4320SOL     OW13858   3.556   6.197   0.569
 4320SOL    HW113859   3.606   6.113   0.586
 4320SOL    HW213860   3.546   6.212   0.470
 4321SOL     OW13861   6.439   6.607   2.418
 4321SOL    HW113862   6.459   6.637   2.511
 4321SOL    HW213863   6.493   6.660   2.353
 4322SOL     OW13864   0.385   2.630   5.575
 4322SOL    HW113865   0.365   2.672   5.663
 4322SOL    HW213866   0.484   2.615   5.567
 4323SOL     OW13867   4.423   5.449   0.018
 4323SOL    HW113868   4.486   5.477   0.091
 4323SOL    HW213869   4.475   5.406   6.966
 4324SOL     OW13870   0.060   3.648   5.979
 4324SOL    HW113871   7.021   3.572   6.001
 4324SOL    HW213872   0.047   3.722   6.045
 4325SOL     OW13873   2.737   0.900   3.038
 4325SOL    HW113874   2.672   0.895   2.962
 4325SOL    HW213875   2.802   0.974   3.022
 4326SOL     OW13876   5.196   2.682   1.874
 4326SOL    HW113877   5.205   2.744   1.796
 4326SOL    HW213878   5.216   2.731   1.959
 4327SOL     OW13879   3.844   5.480   4.606
 4327SOL    HW113880   3.775   5.551   4.593
 4327SOL    HW213881   3.812   5.394   4.567
 4328SOL     OW13882   6.424   5.618   5.479
 4328SOL    HW113883   6.483   5.690   5.443
 4328SOL    HW213884   6.330   5.634   5.450
 4329SOL     OW13885   5.808   2.988   5.774
 4329SOL    HW113886   5.896   3.034   5.763
 4329SOL    HW213887   5.761   2.984   5.686
 4330SOL     OW13888   2.446   5.313   5.456
 4330SOL    HW113889   2.379   5.387   5.469
 4330SOL    HW213890   2.419   5.258   5.377
 4331SOL     OW13891   6.140   0.565   1.601
 4331SOL    HW113892   6.056   0.618   1.609
 4331SOL    HW213893   6.134   0.485   1.661
 4332SOL     OW13894   0.131   4.210   2.597
 4332SOL    HW113895   0.034   4.235   2.591
 4332SOL    HW213896   0.181   4.252   2.521
 4333SOL     OW13897   4.375   2.139   5.016
 4333SOL    HW113898   4.286   2.150   4.971
 4333SOL    HW213899   4.372   2.059   5.075
 4334SOL     OW13900   1.093   2.634   3.200
 4334SOL    HW113901   1.033   2.695   3.253
 4334SOL    HW213902   1.084   2.657   3.103
 4335SOL     OW13903   3.363   3.080   1.072
 4335SOL    HW113904   3.267   3.064   1.097
 4335SOL    HW213905   3.414   2.995   1.080
 4336SOL     OW13906   2.259   5.904   6.146
 4336SOL    HW113907   2.226   5.843   6.219
 4336SOL    HW213908   2.284   5.992   6.186
 4337SOL     OW13909   1.177   5.770   2.372
 4337SOL    HW113910   1.228   5.687   2.351
 4337SOL    HW213911   1.108   5.785   2.302
 4338SOL     OW13912   5.697   0.770   5.392
 4338SOL    HW113913   5.641   0.755   5.474
 4338SOL    HW213914   5.673   0.703   5.322
 4339SOL     OW13915   4.276   2.352   5.987
 4339SOL    HW113916   4.372   2.373   5.967
 4339SOL    HW213917   4.226   2.436   6.004
 4340SOL     OW13918   6.604   4.076   1.036
 4340SOL    HW113919   6.574   4.156   1.088
 4340SOL    HW213920   6.563   4.077   0.945
 4341SOL     OW13921   0.941   6.205   2.285
 4341SOL    HW113922   0.861   6.149   2.304
 4341SOL    HW213923   1.023   6.158   2.319
 4342SOL     OW13924   4.840   3.790   2.670
 4342SOL    HW113925   4.855   3.694   2.696
 4342SOL    HW213926   4.872   3.804   2.577
 4343SOL     OW13927   4.169   0.729   5.889
 4343SOL    HW113928   4.149   0.653   5.827
 4343SOL    HW213929   4.156   0.699   5.983
 4344SOL     OW13930   0.050   2.430   3.864
 4344SOL    HW113931   6.994   2.485   3.892
 4344SOL    HW213932   0.089   2.385   3.944
 4345SOL     OW13933   2.892   3.336   2.557
 4345SOL    HW113934   2.951   3.258   2.540
 4345SOL    HW213935   2.923   3.414   2.503
 4346SOL     OW13936   2.273   2.670   2.356
 4346SOL    HW113937   2.356   2.642   2.308
 4346SOL    HW213938   2.229   2.745   2.305
 4347SOL     OW13939   5.455   5.232   1.858
 4347SOL    HW113940   5.476   5.279   1.773
 4347SOL    HW213941   5.532   5.174   1.884
 4348SOL     OW13942   6.693   6.034   3.933
 4348SOL    HW113943   6.636   6.115   3.918
 4348SOL    HW213944   6.651   5.977   4.004
 4349SOL     OW13945   0.244   3.807   3.814
 4349SOL    HW113946   0.221   3.711   3.798
 4349SOL    HW213947   0.171   3.851   3.865
 4350SOL     OW13948   5.239   1.498   4.815
 4350SOL    HW113949   5.234   1.475   4.912
 4350SOL    HW213950   5.147   1.510   4.778
 4351SOL     OW13951   1.356   0.028   1.086
 4351SOL    HW113952   1.368   0.072   0.997
 4351SOL    HW213953   1.414   0.074   1.153
 4352SOL     OW13954   4.137   4.012   0.902
 4352SOL    HW113955   4.206   3.987   0.835
 4352SOL    HW213956   4.080   3.933   0.922
 4353SOL     OW13957   3.134   3.253   6.939
 4353SOL    HW113958   3.036   3.260   6.918
 4353SOL    HW213959   3.146   3.244   0.016
 4354SOL     OW13960   6.478   0.515   3.896
 4354SOL    HW113961   6.504   0.424   3.862
 4354SOL    HW213962   6.394   0.507   3.949
 4355SOL     OW13963   1.372   0.036   3.505
 4355SOL    HW113964   1.273   0.047   3.515
 4355SOL    HW213965   1.416   0.042   3.594
 4356SOL     OW13966   5.106   2.811   6.353
 4356SOL    HW113967   5.188   2.811   6.410
 4356SOL    HW213968   5.025   2.814   6.411
 4357SOL     OW13969   6.632   0.498   1.963
 4357SOL    HW113970   6.691   0.575   1.937
 4357SOL    HW213971   6.624   0.495   2.062
 4358SOL     OW13972   0.887   0.505   0.204
 4358SOL    HW113973   0.804   0.551   0.236
 4358SOL    HW213974   0.904   0.530   0.108
 4359SOL     OW13975   2.602   0.797   0.095
 4359SOL    HW113976   2.657   0.784   0.177
 4359SOL    HW213977   2.538   0.721   0.085
 4360SOL     OW13978   1.357   2.672   3.276
 4360SOL    HW113979   1.407   2.710   3.198
 4360SOL    HW213980   1.263   2.650   3.247
 4361SOL     OW13981   1.061   2.129   0.970
 4361SOL    HW113982   1.110   2.148   0.885
 4361SOL    HW213983   0.975   2.180   0.971
 4362SOL     OW13984   1.540   5.853   4.103
 4362SOL    HW113985   1.528   5.950   4.081
 4362SOL    HW213986   1.587   5.807   4.027
 4363SOL     OW13987   4.432   0.756   2.511
 4363SOL    HW113988   4.409   0.824   2.442
 4363SOL    HW213989   4.373   0.676   2.500
 4364SOL     OW13990   3.488   3.799   2.973
 4364SOL    HW113991   3.487   3.831   2.878
 4364SOL    HW213992   3.562   3.734   2.986
 4365SOL     OW13993   3.100   2.103   1.972
 4365SOL    HW113994   3.053   2.189   1.993
 4365SOL    HW213995   3.175   2.122   1.909
 4366SOL     OW13996   5.289   5.993   5.294
 4366SOL    HW113997   5.247   6.030   5.377
 4366SOL    HW213998   5.283   5.893   5.296
 4367SOL     OW13999   3.027   5.585   3.830
 4367SOL    HW114000   3.059   5.500   3.870
 4367SOL    HW214001   2.927   5.586   3.830
 4368SOL     OW14002   4.719   4.889   2.656
 4368SOL    HW114003   4.757   4.980   2.670
 4368SOL    HW214004   4.646   4.872   2.723
 4369SOL     OW14005   4.605   5.069   2.906
 4369SOL    HW114006   4.691   5.024   2.931
 4369SOL    HW214007   4.563   5.108   2.987
 4370SOL     OW14008   3.923   4.692   1.797
 4370SOL    HW114009   3.854   4.625   1.770
 4370SOL    HW214010   3.879   4.779   1.819
 4371SOL     OW14011   2.370   0.788   1.442
 4371SOL    HW114012   2.361   0.709   1.503
 4371SOL    HW214013   2.280   0.815   1.408
 4372SOL     OW14014   2.138   2.630   4.681
 4372SOL    HW114015   2.209   2.696   4.703
 4372SOL    HW214016   2.180   2.544   4.653
 4373SOL     OW14017   4.571   0.910   5.839
 4373SOL    HW114018   4.538   0.883   5.930
 4373SOL    HW214019   4.585   0.828   5.783
 4374SOL     OW14020   2.605   2.119   1.315
 4374SOL    HW114021   2.511   2.101   1.287
 4374SOL    HW214022   2.604   2.172   1.400
 4375SOL     OW14023   3.548   0.629   3.447
 4375SOL    HW114024   3.554   0.726   3.472
 4375SOL    HW214025   3.479   0.618   3.375
 4376SOL     OW14026   6.751   6.638   1.431
 4376SOL    HW114027   6.842   6.624   1.393
 4376SOL    HW214028   6.735   6.735   1.446
 4377SOL     OW14029   6.495   6.149   6.834
 4377SOL    HW114030   6.404   6.107   6.840
 4377SOL    HW214031   6.486   6.248   6.823
 4378SOL     OW14032   2.050   6.043   2.844
 4378SOL    HW114033   2.121   6.112   2.833
 4378SOL    HW214034   2.077   5.959   2.797
 4379SOL     OW14035   1.362   1.039   1.448
 4379SOL    HW114036   1.452   1.006   1.474
 4379SOL    HW214037   1.300   0.961   1.436
 4380SOL     OW14038   2.104   5.953   5.503
 4380SOL    HW114039   2.062   5.913   5.584
 4380SOL    HW214040   2.102   5.888   5.428
 4381SOL     OW14041   4.295   6.645   4.557
 4381SOL    HW114042   4.243   6.565   4.587
 4381SOL    HW214043   4.340   6.687   4.636
 4382SOL     OW14044   5.018   3.875   4.288
 4382SOL    HW114045   5.000   3.805   4.220
 4382SOL    HW214046   5.086   3.841   4.354
 4383SOL     OW14047   1.326   2.386   5.839
 4383SOL    HW114048   1.342   2.297   5.796
 4383SOL    HW214049   1.394   2.401   5.911
 4384SOL     OW14050   3.854   6.300   0.975
 4384SOL    HW114051   3.777   6.241   0.999
 4384SOL    HW214052   3.838   6.340   0.884
 4385SOL     OW14053   0.040   1.530   3.580
 4385SOL    HW114054   6.990   1.467   3.553
 4385SOL    HW214055   0.078   1.574   3.499
 4386SOL     OW14056   0.812   4.003   6.817
 4386SOL    HW114057   0.731   3.966   6.771
 4386SOL    HW214058   0.894   3.973   6.769
 4387SOL     OW14059   6.688   3.144   1.714
 4387SOL    HW114060   6.774   3.176   1.676
 4387SOL    HW214061   6.614   3.160   1.648
 4388SOL     OW14062   3.374   0.619   6.006
 4388SOL    HW114063   3.439   0.606   5.931
 4388SOL    HW214064   3.361   0.533   6.054
 4389SOL     OW14065   5.867   2.919   1.845
 4389SOL    HW114066   5.771   2.938   1.866
 4389SOL    HW214067   5.879   2.909   1.747
 4390SOL     OW14068   4.804   2.093   1.739
 4390SOL    HW114069   4.871   2.113   1.667
 4390SOL    HW214070   4.843   2.026   1.802
 4391SOL     OW14071   0.842   5.786   0.259
 4391SOL    HW114072   0.930   5.754   0.224
 4391SOL    HW214073   0.809   5.864   0.205
 4392SOL     OW14074   5.210   3.207   4.120
 4392SOL    HW114075   5.250   3.297   4.108
 4392SOL    HW214076   5.165   3.202   4.209
 4393SOL     OW14077   5.248   0.275   3.395
 4393SOL    HW114078   5.235   0.334   3.474
 4393SOL    HW214079   5.325   0.213   3.412
 4394SOL     OW14080   5.526   6.504   2.585
 4394SOL    HW114081   5.452   6.451   2.626
 4394SOL    HW214082   5.510   6.516   2.487
 4395SOL     OW14083   4.457   1.343   1.871
 4395SOL    HW114084   4.462   1.386   1.781
 4395SOL    HW214085   4.481   1.410   1.941
 4396SOL     OW14086   0.669   1.104   4.355
 4396SOL    HW114087   0.593   1.070   4.410
 4396SOL    HW214088   0.726   1.163   4.411
 4397SOL     OW14089   7.002   1.118   4.860
 4397SOL    HW114090   6.970   1.208   4.831
 4397SOL    HW214091   0.014   1.124   4.954
 4398SOL     OW14092   0.921   4.330   4.579
 4398SOL    HW114093   1.009   4.334   4.531
 4398SOL    HW214094   0.888   4.423   4.597
 4399SOL     OW14095   2.009   1.325   0.414
 4399SOL    HW114096   2.012   1.244   0.473
 4399SOL    HW214097   2.076   1.315   0.340
 4400SOL     OW14098   2.586   6.709   4.222
 4400SOL    HW114099   2.634   6.627   4.254
 4400SOL    HW214100   2.491   6.686   4.200
 4401SOL     OW14101   5.952   5.822   4.331
 4401SOL    HW114102   5.931   5.800   4.426
 4401SOL    HW214103   5.867   5.821   4.277
 4402SOL     OW14104   0.865   5.716   2.998
 4402SOL    HW114105   0.869   5.749   2.904
 4402SOL    HW214106   0.953   5.731   3.042
 4403SOL     OW14107   6.999   0.139   3.311
 4403SOL    HW114108   6.940   0.065   3.344
 4403SOL    HW214109   0.073   0.110   3.316
 4404SOL     OW14110   0.511   4.123   3.397
 4404SOL    HW114111   0.456   4.068   3.334
 4404SOL    HW214112   0.487   4.219   3.388
 4405SOL     OW14113   2.997   4.909   5.965
 4405SOL    HW114114   2.976   4.811   5.963
 4405SOL    HW214115   3.013   4.941   5.872
 4406SOL     OW14116   5.400   4.458   1.908
 4406SOL    HW114117   5.449   4.380   1.946
 4406SOL    HW214118   5.310   4.466   1.951
 4407SOL     OW14119   6.766   6.206   0.386
 4407SOL    HW114120   6.731   6.287   0.434
 4407SOL    HW214121   6.697   6.133   0.390
 4408SOL     OW14122   4.781   0.320   0.617
 4408SOL    HW114123   4.825   0.378   0.549
 4408SOL    HW214124   4.734   0.244   0.571
 4409SOL     OW14125   3.849   1.773   2.130
 4409SOL    HW114126   3.847   1.750   2.033
 4409SOL    HW214127   3.776   1.724   2.178
 4410SOL     OW14128   2.142   5.095   1.470
 4410SOL    HW114129   2.128   5.086   1.371
 4410SOL    HW214130   2.239   5.092   1.491
 4411SOL     OW14131   3.477   3.217   2.997
 4411SOL    HW114132   3.433   3.140   3.044
 4411SOL    HW214133   3.406   3.278   2.961
 4412SOL     OW14134   3.766   1.113   6.225
 4412SOL    HW114135   3.696   1.182   6.242
 4412SOL    HW214136   3.753   1.073   6.135
 4413SOL     OW14137   3.753   5.674   4.024
 4413SOL    HW114138   3.706   5.600   4.072
 4413SOL    HW214139   3.732   5.761   4.068
 4414SOL     OW14140   4.235   4.665   2.473
 4414SOL    HW114141   4.247   4.723   2.554
 4414SOL    HW214142   4.145   4.682   2.433
 4415SOL     OW14143   5.326   3.978   6.183
 4415SOL    HW114144   5.391   4.048   6.152
 4415SOL    HW214145   5.243   3.983   6.127
 4416SOL     OW14146   2.977   1.300   4.506
 4416SOL    HW114147   2.891   1.266   4.468
 4416SOL    HW214148   3.005   1.383   4.458
 4417SOL     OW14149   0.329   5.244   1.922
 4417SOL    HW114150   0.311   5.330   1.970
 4417SOL    HW214151   0.413   5.203   1.958
 4418SOL     OW14152   4.374   6.202   3.994
 4418SOL    HW114153   4.399   6.238   3.904
 4418SOL    HW214154   4.443   6.228   4.062
 4419SOL     OW14155   6.287   5.176   0.624
 4419SOL    HW114156   6.250   5.266   0.603
 4419SOL    HW214157   6.326   5.136   0.541
 4420SOL     OW14158   4.399   0.642   0.616
 4420SOL    HW114159   4.386   0.613   0.521
 4420SOL    HW214160   4.437   0.566   0.669
 4421SOL     OW14161   1.839   1.927   2.834
 4421SOL    HW114162   1.875   1.996   2.771
 4421SOL    HW214163   1.770   1.968   2.894
 4422SOL     OW14164   2.920   3.750   6.548
 4422SOL    HW114165   2.995   3.804   6.586
 4422SOL    HW214166   2.869   3.806   6.482
 4423SOL     OW14167   1.148   2.203   6.303
 4423SOL    HW114168   1.160   2.150   6.387
 4423SOL    HW214169   1.055   2.240   6.300
 4424SOL     OW14170   5.473   6.292   3.125
 4424SOL    HW114171   5.406   6.361   3.097
 4424SOL    HW214172   5.539   6.277   3.051
 4425SOL     OW14173   3.807   5.795   6.032
 4425SOL    HW114174   3.764   5.779   5.943
 4425SOL    HW214175   3.905   5.814   6.019
 4426SOL     OW14176   0.068   0.754   5.345
 4426SOL    HW114177   0.139   0.793   5.286
 4426SOL    HW214178   7.018   0.821   5.360
 4427SOL     OW14179   0.554   0.533   3.322
 4427SOL    HW114180   0.561   0.627   3.288
 4427SOL    HW214181   0.496   0.532   3.404
 4428SOL     OW14182   2.360   4.812   4.535
 4428SOL    HW114183   2.372   4.761   4.449
 4428SOL    HW214184   2.436   4.876   4.546
 4429SOL     OW14185   2.760   6.368   3.525
 4429SOL    HW114186   2.698   6.404   3.455
 4429SOL    HW214187   2.752   6.268   3.528
 4430SOL     OW14188   3.829   1.675   2.893
 4430SOL    HW114189   3.825   1.589   2.943
 4430SOL    HW214190   3.867   1.658   2.802
 4431SOL     OW14191   2.798   1.684   3.465
 4431SOL    HW114192   2.858   1.755   3.504
 4431SOL    HW214193   2.852   1.602   3.446
 4432SOL     OW14194   3.258   3.425   3.049
 4432SOL    HW114195   3.162   3.398   3.041
 4432SOL    HW214196   3.275   3.504   2.989
 4433SOL     OW14197   5.618   6.546   2.998
 4433SOL    HW114198   5.555   6.621   3.023
 4433SOL    HW214199   5.662   6.568   2.912
 4434SOL     OW14200   5.365   1.322   3.502
 4434SOL    HW114201   5.346   1.298   3.597
 4434SOL    HW214202   5.444   1.382   3.497
 4435SOL     OW14203   3.523   3.075   1.402
 4435SOL    HW114204   3.592   3.143   1.379
 4435SOL    HW214205   3.536   2.994   1.344
 4436SOL     OW14206   3.181   1.832   0.421
 4436SOL    HW114207   3.268   1.805   0.380
 4436SOL    HW214208   3.150   1.919   0.381
 4437SOL     OW14209   4.271   0.651   4.453
 4437SOL    HW114210   4.317   0.739   4.437
 4437SOL    HW214211   4.192   0.665   4.513
 4438SOL     OW14212   4.081   2.145   6.938
 4438SOL    HW114213   4.008   2.206   6.906
 4438SOL    HW214214   4.060   2.112   0.008
 4439SOL     OW14215   0.769   5.284   1.818
 4439SOL    HW114216   0.853   5.336   1.801
 4439SOL    HW214217   0.690   5.345   1.811
 4440SOL     OW14218   1.887   6.163   6.998
 4440SOL    HW114219   1.919   6.152   0.070
 4440SOL    HW214220   1.962   6.149   6.935
 4441SOL     OW14221   6.191   2.819   2.595
 4441SOL    HW114222   6.286   2.788   2.590
 4441SOL    HW214223   6.151   2.819   2.503
 4442SOL     OW14224   3.985   6.180   3.460
 4442SOL    HW114225   4.006   6.178   3.557
 4442SOL    HW214226   3.923   6.105   3.437
 4443SOL     OW14227   2.568   2.256   5.964
 4443SOL    HW114228   2.561   2.159   5.988
 4443SOL    HW214229   2.511   2.310   6.026
 4444SOL     OW14230   4.477   6.303   1.359
 4444SOL    HW114231   4.429   6.388   1.381
 4444SOL    HW214232   4.456   6.278   1.264
 4445SOL     OW14233   1.223   0.759   6.142
 4445SOL    HW114234   1.317   0.735   6.166
 4445SOL    HW214235   1.216   0.768   6.043
 4446SOL     OW14236   6.129   6.898   2.630
 4446SOL    HW114237   6.187   6.976   2.606
 4446SOL    HW214238   6.036   6.929   2.646
 4447SOL     OW14239   5.425   3.150   6.099
 4447SOL    HW114240   5.381   3.238   6.081
 4447SOL    HW214241   5.359   3.087   6.142
 4448SOL     OW14242   2.611   3.374   0.990
 4448SOL    HW114243   2.653   3.465   0.988
 4448SOL    HW214244   2.543   3.367   0.918
 4449SOL     OW14245   2.635   0.521   4.910
 4449SOL    HW114246   2.611   0.556   4.820
 4449SOL    HW214247   2.733   0.536   4.926
 4450SOL     OW14248   3.351   2.946   3.340
 4450SOL    HW114249   3.342   3.034   3.385
 4450SOL    HW214250   3.382   2.878   3.406
 4451SOL     OW14251   6.593   4.185   2.558
 4451SOL    HW114252   6.632   4.170   2.467
 4451SOL    HW214253   6.500   4.220   2.549
 4452SOL     OW14254   6.010   6.279   5.895
 4452SOL    HW114255   5.976   6.245   5.807
 4452SOL    HW214256   5.944   6.258   5.967
 4453SOL     OW14257   5.687   2.642   1.995
 4453SOL    HW114258   5.637   2.622   1.911
 4453SOL    HW214259   5.785   2.651   1.974
 4454SOL     OW14260   5.072   2.737   0.883
 4454SOL    HW114261   5.014   2.772   0.956
 4454SOL    HW214262   5.040   2.772   0.795
 4455SOL     OW14263   3.527   6.574   2.226
 4455SOL    HW114264   3.482   6.622   2.151
 4455SOL    HW214265   3.619   6.610   2.239
 4456SOL     OW14266   1.900   5.452   2.357
 4456SOL    HW114267   1.962   5.438   2.434
 4456SOL    HW214268   1.885   5.550   2.344
 4457SOL     OW14269   4.190   2.146   6.147
 4457SOL    HW114270   4.201   2.241   6.116
 4457SOL    HW214271   4.271   2.118   6.198
 4458SOL     OW14272   2.308   2.518   6.237
 4458SOL    HW114273   2.382   2.525   6.170
 4458SOL    HW214274   2.225   2.488   6.191
 4459SOL     OW14275   4.692   6.760   4.806
 4459SOL    HW114276   4.705   6.723   4.897
 4459SOL    HW214277   4.741   6.847   4.797
 4460SOL     OW14278   2.731   3.508   6.904
 4460SOL    HW114279   2.638   3.516   6.941
 4460SOL    HW214280   2.735   3.554   6.815
 4461SOL     OW14281   1.408   0.398   2.485
 4461SOL    HW114282   1.487   0.342   2.509
 4461SOL    HW214283   1.339   0.341   2.442
 4462SOL     OW14284   6.188   5.123   0.864
 4462SOL    HW114285   6.105   5.177   0.881
 4462SOL    HW214286   6.215   5.133   0.769
 4463SOL     OW14287   1.918   3.496   6.473
 4463SOL    HW114288   1.972   3.416   6.449
 4463SOL    HW214289   1.978   3.576   6.479
 4464SOL     OW14290   5.743   4.379   6.185
 4464SOL    HW114291   5.751   4.331   6.097
 4464SOL    HW214292   5.798   4.333   6.254
 4465SOL     OW14293   1.923   6.137   2.062
 4465SOL    HW114294   1.851   6.138   2.132
 4465SOL    HW214295   1.891   6.084   1.983
 4466SOL     OW14296   0.844   1.476   2.576
 4466SOL    HW114297   0.850   1.544   2.503
 4466SOL    HW214298   0.886   1.512   2.659
 4467SOL     OW14299   1.302   6.775   3.277
 4467SOL    HW114300   1.236   6.811   3.343
 4467SOL    HW214301   1.381   6.836   3.272
 4468SOL     OW14302   0.980   2.279   6.884
 4468SOL    HW114303   1.073   2.246   6.867
 4468SOL    HW214304   0.923   2.203   6.913
 4469SOL     OW14305   3.127   0.381   1.448
 4469SOL    HW114306   3.212   0.394   1.500
 4469SOL    HW214307   3.132   0.436   1.364
 4470SOL     OW14308   4.726   3.748   1.720
 4470SOL    HW114309   4.681   3.837   1.719
 4470SOL    HW214310   4.789   3.743   1.798
 4471SOL     OW14311   0.166   2.387   1.249
 4471SOL    HW114312   0.190   2.477   1.285
 4471SOL    HW214313   0.173   2.388   1.149
 4472SOL     OW14314   1.793   4.449   2.153
 4472SOL    HW114315   1.876   4.395   2.165
 4472SOL    HW214316   1.815   4.546   2.163
 4473SOL     OW14317   0.392   0.154   4.627
 4473SOL    HW114318   0.469   0.193   4.678
 4473SOL    HW214319   0.308   0.203   4.650
 4474SOL     OW14320   3.908   6.944   2.571
 4474SOL    HW114321   3.905   6.951   2.670
 4474SOL    HW214322   3.946   0.006   2.532
 4475SOL     OW14323   1.619   3.971   0.749
 4475SOL    HW114324   1.556   3.953   0.673
 4475SOL    HW214325   1.585   4.049   0.802
 4476SOL     OW14326   5.166   6.530   1.988
 4476SOL    HW114327   5.195   6.619   2.024
 4476SOL    HW214328   5.089   6.496   2.043
 4477SOL     OW14329   1.845   1.033   6.789
 4477SOL    HW114330   1.805   1.037   6.880
 4477SOL    HW214331   1.856   0.937   6.762
 4478SOL     OW14332   2.372   6.637   2.493
 4478SOL    HW114333   2.339   6.604   2.404
 4478SOL    HW214334   2.467   6.666   2.485
 4479SOL     OW14335   1.062   0.606   5.897
 4479SOL    HW114336   1.044   0.701   5.869
 4479SOL    HW214337   0.978   0.553   5.890
 4480SOL     OW14338   1.386   4.121   4.654
 4480SOL    HW114339   1.387   4.081   4.746
 4480SOL    HW214340   1.479   4.129   4.620
 4481SOL     OW14341   1.231   6.495   4.246
 4481SOL    HW114342   1.247   6.404   4.205
 4481SOL    HW214343   1.271   6.565   4.188
 4482SOL     OW14344   1.132   4.433   4.026
 4482SOL    HW114345   1.034   4.421   4.011
 4482SOL    HW214346   1.160   4.383   4.109
 4483SOL     OW14347   6.383   2.771   0.955
 4483SOL    HW114348   6.471   2.749   0.997
 4483SOL    HW214349   6.309   2.749   1.018
 4484SOL     OW14350   3.886   2.709   5.352
 4484SOL    HW114351   3.816   2.646   5.320
 4484SOL    HW214352   3.975   2.664   5.350
 4485SOL     OW14353   5.095   1.682   6.664
 4485SOL    HW114354   5.061   1.764   6.710
 4485SOL    HW214355   5.112   1.611   6.732
 4486SOL     OW14356   0.120   4.186   5.168
 4486SOL    HW114357   0.046   4.130   5.206
 4486SOL    HW214358   0.208   4.143   5.187
 4487SOL     OW14359   2.709   3.607   6.630
 4487SOL    HW114360   2.648   3.578   6.557
 4487SOL    HW214361   2.788   3.656   6.592
 4488SOL     OW14362   6.008   2.139   5.336
 4488SOL    HW114363   6.029   2.121   5.432
 4488SOL    HW214364   5.991   2.052   5.290
 4489SOL     OW14365   5.363   5.375   4.744
 4489SOL    HW114366   5.311   5.448   4.787
 4489SOL    HW214367   5.394   5.404   4.654
 4490SOL     OW14368   5.631   1.409   1.899
 4490SOL    HW114369   5.571   1.347   1.848
 4490SOL    HW214370   5.622   1.390   1.997
 4491SOL     OW14371   1.448   3.708   2.955
 4491SOL    HW114372   1.501   3.629   2.925
 4491SOL    HW214373   1.439   3.773   2.880
 4492SOL     OW14374   5.247   2.183   0.067
 4492SOL    HW114375   5.260   2.093   0.109
 4492SOL    HW214376   5.215   2.248   0.136
 4493SOL     OW14377   4.760   5.444   5.055
 4493SOL    HW114378   4.693   5.466   4.985
 4493SOL    HW214379   4.845   5.414   5.012
 4494SOL     OW14380   0.199   3.655   5.555
 4494SOL    HW114381   0.103   3.631   5.568
 4494SOL    HW214382   0.213   3.684   5.460
 4495SOL     OW14383   5.293   6.726   2.171
 4495SOL    HW114384   5.317   6.785   2.248
 4495SOL    HW214385   5.371   6.717   2.109
 4496SOL     OW14386   5.847   4.496   6.504
 4496SOL    HW114387   5.924   4.560   6.510
 4496SOL    HW214388   5.786   4.510   6.582
 4497SOL     OW14389   5.255   5.939   6.718
 4497SOL    HW114390   5.173   5.893   6.683
 4497SOL    HW214391   5.285   5.895   6.802
 4498SOL     OW14392   0.146   4.204   6.388
 4498SOL    HW114393   0.171   4.183   6.483
 4498SOL    HW214394   0.212   4.269   6.350
 4499SOL     OW14395   0.036   3.298   4.628
 4499SOL    HW114396   0.028   3.395   4.648
 4499SOL    HW214397   0.105   3.257   4.687
 4500SOL     OW14398   2.959   3.528   3.939
 4500SOL    HW114399   2.950   3.430   3.922
 4500SOL    HW214400   2.924   3.579   3.861
 4501SOL     OW14401   1.051   3.897   5.611
 4501SOL    HW114402   1.071   3.995   5.609
 4501SOL    HW214403   0.990   3.877   5.688
 4502SOL     OW14404   1.438   2.706   6.346
 4502SOL    HW114405   1.476   2.798   6.339
 4502SOL    HW214406   1.357   2.698   6.288
 4503SOL     OW14407   2.169   1.189   3.243
 4503SOL    HW114408   2.138   1.096   3.221
 4503SOL    HW214409   2.262   1.202   3.211
 4504SOL     OW14410   5.857   2.662   5.570
 4504SOL    HW114411   5.952   2.692   5.577
 4504SOL    HW214412   5.824   2.632   5.659
 4505SOL     OW14413   0.704   6.231   5.018
 4505SOL    HW114414   0.645   6.278   5.083
 4505SOL    HW214415   0.749   6.154   5.064
 4506SOL     OW14416   3.620   1.723   5.027
 4506SOL    HW114417   3.690   1.712   4.957
 4506SOL    HW214418   3.614   1.819   5.053
 4507SOL     OW14419   4.805   4.691   1.128
 4507SOL    HW114420   4.717   4.682   1.176
 4507SOL    HW214421   4.831   4.603   1.089
 4508SOL     OW14422   1.853   3.536   0.140
 4508SOL    HW114423   1.933   3.597   0.143
 4508SOL    HW214424   1.875   3.450   0.184
 4509SOL     OW14425   4.266   1.987   4.704
 4509SOL    HW114426   4.358   2.020   4.725
 4509SOL    HW214427   4.231   2.036   4.624
 4510SOL     OW14428   5.923   0.746   5.103
 4510SOL    HW114429   5.878   0.671   5.053
 4510SOL    HW214430   5.857   0.819   5.119
 4511SOL     OW14431   0.005   3.119   0.508
 4511SOL    HW114432   0.006   3.038   0.566
 4511SOL    HW214433   7.012   3.200   0.564
 4512SOL     OW14434   2.688   6.883   0.114
 4512SOL    HW114435   2.621   6.826   0.161
 4512SOL    HW214436   2.667   6.979   0.131
 4513SOL     OW14437   4.494   6.398   1.699
 4513SOL    HW114438   4.566   6.361   1.757
 4513SOL    HW214439   4.520   6.489   1.667
 4514SOL     OW14440   3.621   0.898   4.255
 4514SOL    HW114441   3.578   0.933   4.338
 4514SOL    HW214442   3.610   0.965   4.181
 4515SOL     OW14443   6.866   4.761   0.030
 4515SOL    HW114444   6.775   4.727   0.005
 4515SOL    HW214445   6.932   4.735   6.982
 4516SOL     OW14446   1.602   1.433   5.893
 4516SOL    HW114447   1.530   1.483   5.844
 4516SOL    HW214448   1.602   1.337   5.863
 4517SOL     OW14449   3.419   0.008   6.782
 4517SOL    HW114450   3.340   0.012   6.843
 4517SOL    HW214451   3.476   0.089   6.795
 4518SOL     OW14452   0.971   1.761   4.028
 4518SOL    HW114453   0.880   1.786   4.062
 4518SOL    HW214454   1.030   1.842   4.026
 4519SOL     OW14455   0.354   1.714   3.574
 4519SOL    HW114456   0.416   1.765   3.515
 4519SOL    HW214457   0.266   1.703   3.528
 4520SOL     OW14458   5.998   4.553   2.219
 4520SOL    HW114459   6.038   4.631   2.267
 4520SOL    HW214460   6.006   4.566   2.120
 4521SOL     OW14461   4.909   2.351   6.266
 4521SOL    HW114462   4.852   2.269   6.261
 4521SOL    HW214463   5.005   2.325   6.266
 4522SOL     OW14464   5.710   6.906   3.734
 4522SOL    HW114465   5.808   6.893   3.721
 4522SOL    HW214466   5.686   7.001   3.717
 4523SOL     OW14467   2.754   5.071   0.316
 4523SOL    HW114468   2.850   5.045   0.311
 4523SOL    HW214469   2.728   5.117   0.231
 4524SOL     OW14470   5.578   1.473   5.575
 4524SOL    HW114471   5.542   1.386   5.541
 4524SOL    HW214472   5.623   1.521   5.499
 4525SOL     OW14473   6.413   1.662   4.448
 4525SOL    HW114474   6.408   1.654   4.548
 4525SOL    HW214475   6.423   1.571   4.408
 4526SOL     OW14476   4.769   6.595   1.453
 4526SOL    HW114477   4.794   6.572   1.547
 4526SOL    HW214478   4.701   6.668   1.453
 4527SOL     OW14479   4.205   0.871   3.132
 4527SOL    HW114480   4.290   0.882   3.185
 4527SOL    HW214481   4.154   0.793   3.166
 4528SOL     OW14482   5.506   0.304   0.263
 4528SOL    HW114483   5.438   0.234   0.287
 4528SOL    HW214484   5.470   0.361   0.189
 4529SOL     OW14485   2.679   0.506   2.725
 4529SOL    HW114486   2.647   0.579   2.785
 4529SOL    HW214487   2.639   0.519   2.634
 4530SOL     OW14488   0.743   3.228   5.579
 4530SOL    HW114489   0.823   3.168   5.576
 4530SOL    HW214490   0.664   3.176   5.610
 4531SOL     OW14491   1.106   3.424   3.307
 4531SOL    HW114492   1.204   3.409   3.295
 4531SOL    HW214493   1.073   3.483   3.233
 4532SOL     OW14494   6.515   1.513   1.040
 4532SOL    HW114495   6.500   1.423   1.000
 4532SOL    HW214496   6.483   1.514   1.134
 4533SOL     OW14497   1.893   6.199   2.997
 4533SOL    HW114498   1.944   6.146   2.930
 4533SOL    HW214499   1.956   6.242   3.062
 4534SOL     OW14500   5.793   3.855   5.360
 4534SOL    HW114501   5.795   3.757   5.376
 4534SOL    HW214502   5.698   3.887   5.359
 4535SOL     OW14503   4.892   2.864   1.879
 4535SOL    HW114504   4.959   2.832   1.946
 4535SOL    HW214505   4.835   2.935   1.920
 4536SOL     OW14506   5.349   0.739   4.873
 4536SOL    HW114507   5.249   0.745   4.863
 4536SOL    HW214508   5.391   0.818   4.827
 4537SOL     OW14509   3.840   3.119   6.645
 4537SOL    HW114510   3.841   3.143   6.742
 4537SOL    HW214511   3.932   3.091   6.617
 4538SOL     OW14512   3.397   1.593   3.468
 4538SOL    HW114513   3.451   1.520   3.508
 4538SOL    HW214514   3.357   1.649   3.540
 4539SOL     OW14515   2.709   2.101   3.512
 4539SOL    HW114516   2.734   2.059   3.599
 4539SOL    HW214517   2.784   2.089   3.446
 4540SOL     OW14518   3.418   3.602   4.679
 4540SOL    HW114519   3.394   3.698   4.671
 4540SOL    HW214520   3.460   3.585   4.768
 4541SOL     OW14521   4.994   1.196   0.305
 4541SOL    HW114522   4.916   1.256   0.322
 4541SOL    HW214523   4.989   1.161   0.211
 4542SOL     OW14524   6.177   6.077   1.541
 4542SOL    HW114525   6.226   6.157   1.575
 4542SOL    HW214526   6.079   6.092   1.550
 4543SOL     OW14527   5.031   1.926   0.902
 4543SOL    HW114528   4.959   1.857   0.913
 4543SOL    HW214529   5.120   1.880   0.893
 4544SOL     OW14530   2.335   6.092   6.963
 4544SOL    HW114531   2.417   6.133   7.003
 4544SOL    HW214532   2.292   6.032   0.008
 4545SOL     OW14533   4.297   2.234   5.382
 4545SOL    HW114534   4.371   2.278   5.433
 4545SOL    HW214535   4.283   2.141   5.416
 4546SOL     OW14536   1.196   6.442   6.286
 4546SOL    HW114537   1.289   6.472   6.310
 4546SOL    HW214538   1.185   6.346   6.311
 4547SOL     OW14539   5.600   2.619   1.153
 4547SOL    HW114540   5.570   2.552   1.221
 4547SOL    HW214541   5.559   2.597   1.065
 4548SOL     OW14542   0.341   4.751   3.722
 4548SOL    HW114543   0.267   4.706   3.672
 4548SOL    HW214544   0.348   4.713   3.814
 4549SOL     OW14545   6.975   3.195   2.930
 4549SOL    HW114546   6.986   3.279   2.982
 4549SOL    HW214547   6.986   3.214   2.832
 4550SOL     OW14548   1.021   6.153   3.805
 4550SOL    HW114549   0.936   6.198   3.832
 4550SOL    HW214550   1.001   6.076   3.744
 4551SOL     OW14551   0.681   2.654   5.100
 4551SOL    HW114552   0.771   2.682   5.135
 4551SOL    HW214553   0.691   2.614   5.009
 4552SOL     OW14554   0.475   3.158   5.130
 4552SOL    HW114555   0.419   3.183   5.051
 4552SOL    HW214556   0.482   3.059   5.137
 4553SOL     OW14557   4.692   4.792   0.180
 4553SOL    HW114558   4.781   4.833   0.204
 4553SOL    HW214559   4.634   4.862   0.138
 4554SOL     OW14560   4.146   0.085   2.356
 4554SOL    HW114561   4.228   0.058   2.407
 4554SOL    HW214562   4.074   0.111   2.421
 4555SOL     OW14563   4.481   1.913   6.652
 4555SOL    HW114564   4.430   1.964   6.722
 4555SOL    HW214565   4.488   1.970   6.569
 4556SOL     OW14566   4.076   0.610   3.909
 4556SOL    HW114567   4.158   0.600   3.852
 4556SOL    HW214568   4.075   0.702   3.949
 4557SOL     OW14569   5.228   0.117   5.285
 4557SOL    HW114570   5.280   0.176   5.223
 4557SOL    HW214571   5.173   0.053   5.231
 4558SOL     OW14572   6.405   3.492   6.406
 4558SOL    HW114573   6.336   3.477   6.335
 4558SOL    HW214574   6.493   3.513   6.362
 4559SOL     OW14575   1.358   6.330   1.097
 4559SOL    HW114576   1.387   6.322   1.192
 4559SOL    HW214577   1.435   6.310   1.036
 4560SOL     OW14578   4.897   3.160   3.091
 4560SOL    HW114579   4.923   3.065   3.071
 4560SOL    HW214580   4.909   3.216   3.009
 4561SOL     OW14581   3.180   1.313   0.380
 4561SOL    HW114582   3.092   1.266   0.387
 4561SOL    HW214583   3.174   1.401   0.428
 4562SOL     OW14584   3.699   5.820   5.783
 4562SOL    HW114585   3.727   5.811   5.687
 4562SOL    HW214586   3.607   5.783   5.794
 4563SOL     OW14587   5.806   2.507   0.367
 4563SOL    HW114588   5.906   2.510   0.368
 4563SOL    HW214589   5.772   2.495   0.460
 4564SOL     OW14590   0.921   5.102   0.638
 4564SOL    HW114591   1.007   5.117   0.687
 4564SOL    HW214592   0.909   5.004   0.619
 4565SOL     OW14593   0.696   1.605   5.045
 4565SOL    HW114594   0.668   1.670   5.115
 4565SOL    HW214595   0.759   1.650   4.981
 4566SOL     OW14596   0.447   6.897   0.042
 4566SOL    HW114597   0.482   6.990   0.055
 4566SOL    HW214598   0.351   6.893   0.069
 4567SOL     OW14599   0.052   0.661   0.848
 4567SOL    HW114600   0.090   0.747   0.881
 4567SOL    HW214601   0.067   0.589   0.916
 4568SOL     OW14602   2.911   4.855   5.456
 4568SOL    HW114603   2.849   4.931   5.436
 4568SOL    HW214604   2.860   4.769   5.454
 4569SOL     OW14605   1.137   1.614   4.372
 4569SOL    HW114606   1.162   1.525   4.410
 4569SOL    HW214607   1.125   1.679   4.446
 4570SOL     OW14608   0.161   5.764   3.284
 4570SOL    HW114609   0.145   5.700   3.360
 4570SOL    HW214610   0.250   5.807   3.294
 4571SOL     OW14611   2.927   3.525   4.853
 4571SOL    HW114612   2.861   3.487   4.789
 4571SOL    HW214613   3.015   3.536   4.807
 4572SOL     OW14614   0.244   6.916   1.320
 4572SOL    HW114615   0.178   6.841   1.325
 4572SOL    HW214616   0.285   6.931   1.410
 4573SOL     OW14617   6.006   6.152   1.272
 4573SOL    HW114618   6.037   6.207   1.349
 4573SOL    HW214619   5.911   6.175   1.251
 4574SOL     OW14620   0.061   4.640   1.310
 4574SOL    HW114621   6.995   4.603   1.342
 4574SOL    HW214622   0.105   4.573   1.251
 4575SOL     OW14623   6.249   1.921   0.467
 4575SOL    HW114624   6.349   1.925   0.462
 4575SOL    HW214625   6.215   2.005   0.510
 4576SOL     OW14626   2.697   5.654   6.717
 4576SOL    HW114627   2.693   5.571   6.773
 4576SOL    HW214628   2.671   5.632   6.623
 4577SOL     OW14629   0.633   3.341   3.230
 4577SOL    HW114630   0.597   3.283   3.157
 4577SOL    HW214631   0.725   3.311   3.255
 4578SOL     OW14632   0.623   3.848   3.847
 4578SOL    HW114633   0.562   3.857   3.769
 4578SOL    HW214634   0.579   3.888   3.928
 4579SOL     OW14635   4.544   1.711   2.780
 4579SOL    HW114636   4.600   1.661   2.714
 4579SOL    HW214637   4.604   1.756   2.846
 4580SOL     OW14638   5.968   5.317   0.593
 4580SOL    HW114639   6.054   5.367   0.603
 4580SOL    HW214640   5.949   5.266   0.677
 4581SOL     OW14641   3.373   4.932   3.109
 4581SOL    HW114642   3.302   4.872   3.146
 4581SOL    HW214643   3.427   4.970   3.183
 4582SOL     OW14644   5.212   6.728   3.856
 4582SOL    HW114645   5.157   6.809   3.873
 4582SOL    HW214646   5.215   6.709   3.758
 4583SOL     OW14647   2.823   1.913   5.144
 4583SOL    HW114648   2.825   1.853   5.224
 4583SOL    HW214649   2.880   1.874   5.072
 4584SOL     OW14650   0.089   6.084   5.969
 4584SOL    HW114651   0.098   6.146   5.891
 4584SOL    HW214652   0.151   6.007   5.958
 4585SOL     OW14653   3.470   6.622   2.799
 4585SOL    HW114654   3.434   6.682   2.870
 4585SOL    HW214655   3.399   6.558   2.771
 4586SOL     OW14656   3.103   5.160   1.431
 4586SOL    HW114657   3.032   5.119   1.487
 4586SOL    HW214658   3.185   5.177   1.486
 4587SOL     OW14659   4.112   3.253   1.566
 4587SOL    HW114660   4.026   3.203   1.574
 4587SOL    HW214661   4.166   3.240   1.650
 4588SOL     OW14662   3.822   3.959   4.844
 4588SOL    HW114663   3.814   3.891   4.917
 4588SOL    HW214664   3.805   3.917   4.756
 4589SOL     OW14665   6.174   2.314   2.852
 4589SOL    HW114666   6.199   2.252   2.778
 4589SOL    HW214667   6.170   2.408   2.817
 4590SOL     OW14668   4.330   5.934   2.730
 4590SOL    HW114669   4.317   5.906   2.825
 4590SOL    HW214670   4.252   5.903   2.675
 4591SOL     OW14671   6.403   5.860   5.775
 4591SOL    HW114672   6.408   5.950   5.817
 4591SOL    HW214673   6.415   5.789   5.845
 4592SOL     OW14674   4.148   3.033   0.643
 4592SOL    HW114675   4.113   3.118   0.603
 4592SOL    HW214676   4.237   3.052   0.685
 4593SOL     OW14677   4.290   5.626   3.088
 4593SOL    HW114678   4.335   5.627   2.999
 4593SOL    HW214679   4.220   5.698   3.091
 4594SOL     OW14680   3.715   1.947   2.392
 4594SOL    HW114681   3.810   1.951   2.423
 4594SOL    HW214682   3.655   1.929   2.471
 4595SOL     OW14683   3.725   2.886   6.394
 4595SOL    HW114684   3.824   2.902   6.403
 4595SOL    HW214685   3.709   2.818   6.322
 4596SOL     OW14686   5.886   6.251   2.577
 4596SOL    HW114687   5.982   6.225   2.575
 4596SOL    HW214688   5.877   6.347   2.552
 4597SOL     OW14689   5.099   5.105   6.273
 4597SOL    HW114690   5.192   5.111   6.237
 4597SOL    HW214691   5.069   5.195   6.303
 4598SOL     OW14692   1.800   5.175   6.357
 4598SOL    HW114693   1.706   5.166   6.389
 4598SOL    HW214694   1.856   5.100   6.394
 4599SOL     OW14695   1.297   3.940   1.426
 4599SOL    HW114696   1.396   3.931   1.438
 4599SOL    HW214697   1.278   3.984   1.338
 4600SOL     OW14698   3.123   5.113   6.557
 4600SOL    HW114699   3.163   5.121   6.649
 4600SOL    HW214700   3.142   5.197   6.506
 4601SOL     OW14701   1.725   1.184   5.199
 4601SOL    HW114702   1.659   1.249   5.236
 4601SOL    HW214703   1.715   1.096   5.247
 4602SOL     OW14704   1.595   6.765   1.539
 4602SOL    HW114705   1.687   6.777   1.576
 4602SOL    HW214706   1.592   6.799   1.446
 4603SOL     OW14707   3.362   6.468   1.936
 4603SOL    HW114708   3.373   6.461   1.837
 4603SOL    HW214709   3.264   6.464   1.959
 4604SOL     OW14710   3.808   0.286   1.832
 4604SOL    HW114711   3.759   0.227   1.895
 4604SOL    HW214712   3.895   0.313   1.872
 4605SOL     OW14713   4.871   0.701   4.265
 4605SOL    HW114714   4.777   0.673   4.283
 4605SOL    HW214715   4.926   0.620   4.243
 4606SOL     OW14716   0.019   6.610   4.111
 4606SOL    HW114717   6.950   6.584   4.077
 4606SOL    HW214718   0.036   6.564   4.199
 4607SOL     OW14719   2.407   2.409   1.439
 4607SOL    HW114720   2.323   2.431   1.390
 4607SOL    HW214721   2.385   2.352   1.518
 4608SOL     OW14722   1.670   4.858   5.206
 4608SOL    HW114723   1.714   4.771   5.182
 4608SOL    HW214724   1.626   4.897   5.125
 4609SOL     OW14725   4.345   5.718   6.682
 4609SOL    HW114726   4.438   5.707   6.715
 4609SOL    HW214727   4.313   5.811   6.702
 4610SOL     OW14728   6.706   2.690   0.180
 4610SOL    HW114729   6.657   2.776   0.182
 4610SOL    HW214730   6.793   2.700   0.228
 4611SOL     OW14731   0.094   4.020   0.038
 4611SOL    HW114732   0.103   4.053   0.132
 4611SOL    HW214733   0.136   3.930   0.029
 4612SOL     OW14734   1.993   5.886   6.744
 4612SOL    HW114735   2.008   5.974   6.699
 4612SOL    HW214736   2.053   5.817   6.704
 4613SOL     OW14737   2.732   5.052   2.729
 4613SOL    HW114738   2.820   5.080   2.766
 4613SOL    HW214739   2.688   4.988   2.792
 4614SOL     OW14740   1.635   5.731   6.891
 4614SOL    HW114741   1.556   5.733   6.952
 4614SOL    HW214742   1.691   5.650   6.912
 4615SOL     OW14743   1.419   1.517   0.051
 4615SOL    HW114744   1.434   1.606   0.008
 4615SOL    HW214745   1.403   1.448   7.003
 4616SOL     OW14746   6.138   0.685   6.677
 4616SOL    HW114747   6.205   0.704   6.749
 4616SOL    HW214748   6.122   0.587   6.671
 4617SOL     OW14749   0.997   2.273   2.725
 4617SOL    HW114750   1.006   2.217   2.807
 4617SOL    HW214751   1.067   2.344   2.725
 4618SOL     OW14752   1.173   2.587   5.713
 4618SOL    HW114753   1.107   2.512   5.706
 4618SOL    HW214754   1.260   2.552   5.748
 4619SOL     OW14755   4.333   0.118   3.670
 4619SOL    HW114756   4.312   0.186   3.740
 4619SOL    HW214757   4.247   0.084   3.631
 4620SOL     OW14758   3.661   4.570   6.888
 4620SOL    HW114759   3.743   4.527   6.850
 4620SOL    HW214760   3.687   4.629   6.964
 4621SOL     OW14761   6.635   1.783   4.746
 4621SOL    HW114762   6.540   1.755   4.763
 4621SOL    HW214763   6.673   1.727   4.672
 4622SOL     OW14764   1.597   2.966   0.924
 4622SOL    HW114765   1.680   2.936   0.970
 4622SOL    HW214766   1.518   2.953   0.985
 4623SOL     OW14767   6.969   4.872   0.582
 4623SOL    HW114768   0.028   4.902   0.531
 4623SOL    HW214769   6.970   4.772   0.591
 4624SOL     OW14770   4.570   0.783   3.760
 4624SOL    HW114771   4.493   0.836   3.725
 4624SOL    HW214772   4.577   0.697   3.709
 4625SOL     OW14773   1.534   4.627   7.022
 4625SOL    HW114774   1.608   4.663   6.964
 4625SOL    HW214775   1.533   4.527   7.015
 4626SOL     OW14776   6.372   4.423   1.924
 4626SOL    HW114777   6.311   4.499   1.903
 4626SOL    HW214778   6.407   4.385   1.838
 4627SOL     OW14779   3.943   6.442   5.672
 4627SOL    HW114780   3.964   6.492   5.588
 4627SOL    HW214781   3.851   6.466   5.703
 4628SOL     OW14782   6.099   4.984   2.270
 4628SOL    HW114783   6.093   4.890   2.302
 4628SOL    HW214784   6.185   5.025   2.302
 4629SOL     OW14785   1.996   4.908   6.188
 4629SOL    HW114786   2.015   4.949   6.099
 4629SOL    HW214787   2.080   4.908   6.243
 4630SOL     OW14788   2.819   5.854   3.540
 4630SOL    HW114789   2.735   5.801   3.544
 4630SOL    HW214790   2.897   5.794   3.558
 4631SOL     OW14791   2.034   6.399   3.529
 4631SOL    HW114792   2.127   6.368   3.547
 4631SOL    HW214793   2.017   6.485   3.577
 4632SOL     OW14794   4.286   5.655   4.351
 4632SOL    HW114795   4.227   5.596   4.407
 4632SOL    HW214796   4.375   5.665   4.396
 4633SOL     OW14797   6.405   2.039   5.406
 4633SOL    HW114798   6.418   2.137   5.398
 4633SOL    HW214799   6.390   1.999   5.315
 4634SOL     OW14800   2.801   4.670   0.437
 4634SOL    HW114801   2.757   4.749   0.479
 4634SOL    HW214802   2.815   4.599   0.506
 4635SOL     OW14803   5.962   3.375   2.820
 4635SOL    HW114804   5.903   3.418   2.888
 4635SOL    HW214805   5.909   3.308   2.767
 4636SOL     OW14806   2.636   5.216   0.112
 4636SOL    HW114807   2.558   5.208   0.050
 4636SOL    HW214808   2.640   5.309   0.149
 4637SOL     OW14809   1.193   0.625   6.399
 4637SOL    HW114810   1.194   0.636   6.299
 4637SOL    HW214811   1.140   0.544   6.423
 4638SOL     OW14812   3.927   2.847   5.996
 4638SOL    HW114813   3.876   2.920   5.950
 4638SOL    HW214814   3.887   2.830   6.086
 4639SOL     OW14815   0.707   3.945   5.865
 4639SOL    HW114816   0.733   3.942   5.961
 4639SOL    HW214817   0.630   3.883   5.849
 4640SOL     OW14818   4.835   4.723   4.033
 4640SOL    HW114819   4.863   4.629   4.053
 4640SOL    HW214820   4.769   4.753   4.101
 4641SOL     OW14821   2.681   4.799   4.246
 4641SOL    HW114822   2.648   4.770   4.336
 4641SOL    HW214823   2.610   4.780   4.177
 4642SOL     OW14824   6.379   5.406   4.520
 4642SOL    HW114825   6.411   5.461   4.444
 4642SOL    HW214826   6.434   5.322   4.526
 4643SOL     OW14827   4.188   2.598   1.282
 4643SOL    HW114828   4.249   2.676   1.294
 4643SOL    HW214829   4.150   2.599   1.190
 4644SOL     OW14830   1.302   5.537   4.734
 4644SOL    HW114831   1.295   5.493   4.823
 4644SOL    HW214832   1.387   5.591   4.730
 4645SOL     OW14833   2.114   6.627   4.582
 4645SOL    HW114834   2.145   6.619   4.676
 4645SOL    HW214835   2.184   6.589   4.521
 4646SOL     OW14836   3.009   0.196   2.285
 4646SOL    HW114837   3.109   0.204   2.292
 4646SOL    HW214838   2.982   0.207   2.189
 4647SOL     OW14839   0.786   6.950   3.396
 4647SOL    HW114840   0.703   6.966   3.450
 4647SOL    HW214841   0.788   7.013   3.318
 4648SOL     OW14842   3.415   6.862   2.627
 4648SOL    HW114843   3.443   6.778   2.581
 4648SOL    HW214844   3.492   6.899   2.680
 4649SOL     OW14845   5.038   0.855   5.639
 4649SOL    HW114846   4.967   0.916   5.602
 4649SOL    HW214847   5.125   0.903   5.639
 4650SOL     OW14848   4.251   6.429   3.208
 4650SOL    HW114849   4.250   6.529   3.205
 4650SOL    HW214850   4.335   6.398   3.253
 4651SOL     OW14851   0.246   2.206   1.972
 4651SOL    HW114852   0.315   2.212   1.900
 4651SOL    HW214853   0.155   2.211   1.932
 4652SOL     OW14854   0.703   0.287   3.716
 4652SOL    HW114855   0.761   0.314   3.639
 4652SOL    HW214856   0.677   0.368   3.768
 4653SOL     OW14857   6.679   6.341   0.103
 4653SOL    HW114858   6.604   6.383   0.052
 4653SOL    HW214859   6.653   6.333   0.199
 4654SOL     OW14860   0.945   0.041   0.462
 4654SOL    HW114861   0.922   6.979   0.511
 4654SOL    HW214862   0.872   0.063   0.398
 4655SOL     OW14863   0.588   4.708   2.793
 4655SOL    HW114864   0.512   4.702   2.857
 4655SOL    HW214865   0.653   4.634   2.812
 4656SOL     OW14866   0.853   0.661   3.189
 4656SOL    HW114867   0.813   0.725   3.123
 4656SOL    HW214868   0.949   0.644   3.165
 4657SOL     OW14869   4.937   6.952   1.192
 4657SOL    HW114870   4.935   6.877   1.258
 4657SOL    HW214871   5.014   6.940   1.130
 4658SOL     OW14872   4.046   0.201   2.893
 4658SOL    HW114873   4.026   0.126   2.955
 4658SOL    HW214874   4.070   0.283   2.945
 4659SOL     OW14875   1.387   3.006   5.092
 4659SOL    HW114876   1.314   2.977   5.029
 4659SOL    HW214877   1.472   2.961   5.068
 4660SOL     OW14878   0.580   1.812   5.196
 4660SOL    HW114879   0.515   1.738   5.176
 4660SOL    HW214880   0.613   1.803   5.290
 4661SOL     OW14881   3.503   3.961   4.500
 4661SOL    HW114882   3.600   3.937   4.488
 4661SOL    HW214883   3.497   4.056   4.531
 4662SOL     OW14884   5.272   0.480   5.345
 4662SOL    HW114885   5.204   0.500   5.274
 4662SOL    HW214886   5.228   0.481   5.435
 4663SOL     OW14887   0.131   1.814   1.909
 4663SOL    HW114888   0.165   1.795   2.001
 4663SOL    HW214889   0.059   1.884   1.914
 4664SOL     OW14890   2.094   2.725   6.399
 4664SOL    HW114891   2.161   2.759   6.333
 4664SOL    HW214892   2.084   2.792   6.473
 4665SOL     OW14893   5.415   0.318   6.039
 4665SOL    HW114894   5.442   0.228   6.004
 4665SOL    HW214895   5.489   0.355   6.096
 4666SOL     OW14896   2.431   1.799   6.797
 4666SOL    HW114897   2.342   1.816   6.838
 4666SOL    HW214898   2.500   1.855   6.842
 4667SOL     OW14899   6.724   5.236   6.447
 4667SOL    HW114900   6.752   5.170   6.378
 4667SOL    HW214901   6.781   5.318   6.439
 4668SOL     OW14902   6.747   1.614   4.425
 4668SOL    HW114903   6.695   1.533   4.453
 4668SOL    HW214904   6.705   1.653   4.343
 4669SOL     OW14905   1.673   6.100   0.443
 4669SOL    HW114906   1.704   6.041   0.368
 4669SOL    HW214907   1.660   6.193   0.408
 4670SOL     OW14908   3.138   1.137   4.651
 4670SOL    HW114909   3.073   1.174   4.585
 4670SOL    HW214910   3.221   1.193   4.652
 4671SOL     OW14911   6.165   3.086   1.326
 4671SOL    HW114912   6.144   3.003   1.274
 4671SOL    HW214913   6.233   3.066   1.396
 4672SOL     OW14914   1.933   3.993   6.210
 4672SOL    HW114915   2.011   3.997   6.272
 4672SOL    HW214916   1.957   4.037   6.123
 4673SOL     OW14917   3.651   0.330   1.626
 4673SOL    HW114918   3.696   0.407   1.582
 4673SOL    HW214919   3.699   0.307   1.711
 4674SOL     OW14920   5.268   5.420   5.550
 4674SOL    HW114921   5.299   5.437   5.457
 4674SOL    HW214922   5.345   5.431   5.613
 4675SOL     OW14923   1.314   3.745   1.006
 4675SOL    HW114924   1.269   3.810   0.945
 4675SOL    HW214925   1.406   3.778   1.026
 4676SOL     OW14926   1.649   6.164   3.709
 4676SOL    HW114927   1.748   6.173   3.713
 4676SOL    HW214928   1.612   6.224   3.638
 4677SOL     OW14929   1.709   1.644   0.388
 4677SOL    HW114930   1.759   1.625   0.304
 4677SOL    HW214931   1.625   1.590   0.390
 4678SOL     OW14932   2.107   3.959   2.641
 4678SOL    HW114933   2.018   3.995   2.668
 4678SOL    HW214934   2.108   3.860   2.653
 4679SOL     OW14935   5.356   6.404   1.857
 4679SOL    HW114936   5.445   6.450   1.862
 4679SOL    HW214937   5.288   6.457   1.906
 4680SOL     OW14938   3.300   1.654   1.654
 4680SOL    HW114939   3.270   1.738   1.699
 4680SOL    HW214940   3.397   1.662   1.630
 4681SOL     OW14941   5.066   4.391   0.344
 4681SOL    HW114942   4.976   4.355   0.370
 4681SOL    HW214943   5.063   4.491   0.343
 4682SOL     OW14944   4.557   3.493   6.437
 4682SOL    HW114945   4.483   3.428   6.418
 4682SOL    HW214946   4.622   3.493   6.361
 4683SOL     OW14947   5.879   4.212   3.474
 4683SOL    HW114948   5.925   4.266   3.404
 4683SOL    HW214949   5.946   4.174   3.537
 4684SOL     OW14950   4.032   6.021   0.178
 4684SOL    HW114951   4.035   5.978   0.269
 4684SOL    HW214952   4.087   6.104   0.179
 4685SOL     OW14953   2.546   3.862   6.006
 4685SOL    HW114954   2.496   3.809   5.937
 4685SOL    HW214955   2.544   3.959   5.981
 4686SOL     OW14956   3.140   6.150   0.726
 4686SOL    HW114957   3.044   6.175   0.716
 4686SOL    HW214958   3.196   6.232   0.731
 4687SOL     OW14959   3.409   1.833   3.305
 4687SOL    HW114960   3.457   1.918   3.327
 4687SOL    HW214961   3.433   1.763   3.371
 4688SOL     OW14962   5.486   2.323   5.928
 4688SOL    HW114963   5.475   2.294   5.833
 4688SOL    HW214964   5.583   2.329   5.950
 4689SOL     OW14965   5.462   0.401   1.292
 4689SOL    HW114966   5.561   0.389   1.277
 4689SOL    HW214967   5.443   0.396   1.390
 4690SOL     OW14968   2.072   1.494   0.618
 4690SOL    HW114969   2.127   1.425   0.665
 4690SOL    HW214970   2.033   1.455   0.535
 4691SOL     OW14971   5.225   4.719   7.017
 4691SOL    HW114972   5.228   4.621   0.015
 4691SOL    HW214973   5.184   4.733   6.927
 4692SOL     OW14974   6.675   4.465   2.613
 4692SOL    HW114975   6.765   4.434   2.642
 4692SOL    HW214976   6.619   4.485   2.694
 4693SOL     OW14977   1.637   0.569   4.034
 4693SOL    HW114978   1.717   0.576   3.975
 4693SOL    HW214979   1.556   0.548   3.979
 4694SOL     OW14980   2.156   1.527   0.136
 4694SOL    HW114981   2.196   1.618   0.143
 4694SOL    HW214982   2.056   1.535   0.138
 4695SOL     OW14983   1.314   5.982   0.912
 4695SOL    HW114984   1.358   5.896   0.937
 4695SOL    HW214985   1.349   6.014   0.824
 4696SOL     OW14986   1.052   5.189   5.981
 4696SOL    HW114987   1.144   5.200   5.942
 4696SOL    HW214988   0.991   5.151   5.912
 4697SOL     OW14989   1.563   3.885   1.428
 4697SOL    HW114990   1.581   3.793   1.464
 4697SOL    HW214991   1.637   3.913   1.368
 4698SOL     OW14992   4.700   0.112   3.257
 4698SOL    HW114993   4.631   0.044   3.282
 4698SOL    HW214994   4.658   0.181   3.199
 4699SOL     OW14995   0.562   0.697   2.071
 4699SOL    HW114996   0.634   0.655   2.127
 4699SOL    HW214997   0.534   0.633   2.000
 4700SOL     OW14998   6.620   2.240   2.543
 4700SOL    HW114999   6.575   2.210   2.459
 4700SOL    HW215000   6.714   2.267   2.522
 4701SOL     OW15001   3.323   1.668   2.219
 4701SOL    HW115002   3.249   1.603   2.202
 4701SOL    HW215003   3.291   1.761   2.200
 4702SOL     OW15004   5.191   5.060   6.558
 4702SOL    HW115005   5.157   5.133   6.618
 4702SOL    HW215006   5.145   5.065   6.470
 4703SOL     OW15007   0.964   5.183   2.258
 4703SOL    HW115008   0.993   5.087   2.265
 4703SOL    HW215009   0.870   5.186   2.224
 4704SOL     OW15010   0.288   6.310   5.936
 4704SOL    HW115011   0.259   6.228   5.984
 4704SOL    HW215012   0.220   6.336   5.868
 4705SOL     OW15013   2.830   2.772   0.787
 4705SOL    HW115014   2.746   2.746   0.834
 4705SOL    HW215015   2.906   2.774   0.852
 4706SOL     OW15016   1.069   0.183   1.048
 4706SOL    HW115017   1.132   0.249   1.089
 4706SOL    HW215018   1.090   0.091   1.081
 4707SOL     OW15019   1.753   6.607   1.281
 4707SOL    HW115020   1.813   6.626   1.359
 4707SOL    HW215021   1.712   6.692   1.249
 4708SOL     OW15022   1.598   1.698   4.962
 4708SOL    HW115023   1.519   1.733   4.911
 4708SOL    HW215024   1.660   1.651   4.898
 4709SOL     OW15025   5.112   5.106   5.035
 4709SOL    HW115026   5.054   5.145   5.106
 4709SOL    HW215027   5.196   5.158   5.027
 4710SOL     OW15028   5.583   6.761   4.513
 4710SOL    HW115029   5.665   6.784   4.459
 4710SOL    HW215030   5.528   6.694   4.463
 4711SOL     OW15031   6.213   2.773   3.196
 4711SOL    HW115032   6.145   2.700   3.189
 4711SOL    HW215033   6.253   2.789   3.105
 4712SOL     OW15034   4.555   4.274   5.906
 4712SOL    HW115035   4.543   4.177   5.886
 4712SOL    HW215036   4.476   4.307   5.959
 4713SOL     OW15037   5.154   4.808   1.262
 4713SOL    HW115038   5.232   4.772   1.313
 4713SOL    HW215039   5.142   4.757   1.178
 4714SOL     OW15040   6.599   1.908   6.715
 4714SOL    HW115041   6.523   1.850   6.744
 4714SOL    HW215042   6.682   1.853   6.707
 4715SOL     OW15043   6.299   1.902   1.681
 4715SOL    HW115044   6.218   1.904   1.622
 4715SOL    HW215045   6.378   1.876   1.626
 4716SOL     OW15046   4.379   5.419   5.366
 4716SOL    HW115047   4.404   5.375   5.279
 4716SOL    HW215048   4.422   5.509   5.372
 4717SOL     OW15049   2.824   5.710   5.685
 4717SOL    HW115050   2.806   5.612   5.685
 4717SOL    HW215051   2.903   5.730   5.627
 4718SOL     OW15052   5.239   3.007   1.090
 4718SOL    HW115053   5.286   2.919   1.098
 4718SOL    HW215054   5.159   2.997   1.030
 4719SOL     OW15055   5.699   3.370   3.264
 4719SOL    HW115056   5.649   3.326   3.338
 4719SOL    HW215057   5.675   3.325   3.177
 4720SOL     OW15058   3.224   5.411   0.391
 4720SOL    HW115059   3.148   5.476   0.393
 4720SOL    HW215060   3.216   5.348   0.468
 4721SOL     OW15061   6.254   3.328   1.815
 4721SOL    HW115062   6.272   3.397   1.886
 4721SOL    HW215063   6.303   3.244   1.838
 4722SOL     OW15064   1.126   4.671   6.828
 4722SOL    HW115065   1.175   4.678   6.916
 4722SOL    HW215066   1.188   4.633   6.759
 4723SOL     OW15067   3.776   4.709   5.918
 4723SOL    HW115068   3.835   4.658   5.855
 4723SOL    HW215069   3.833   4.763   5.981
 4724SOL     OW15070   0.228   6.768   4.196
 4724SOL    HW115071   0.194   6.800   4.284
 4724SOL    HW215072   0.154   6.723   4.146
 4725SOL     OW15073   5.710   5.304   0.546
 4725SOL    HW115074   5.681   5.208   0.548
 4725SOL    HW215075   5.809   5.309   0.560
 4726SOL     OW15076   1.712   2.725   5.642
 4726SOL    HW115077   1.667   2.718   5.553
 4726SOL    HW215078   1.651   2.772   5.706
 4727SOL     OW15079   0.708   5.359   0.363
 4727SOL    HW115080   0.732   5.448   0.401
 4727SOL    HW215081   0.792   5.310   0.338
 4728SOL     OW15082   6.167   1.366   3.134
 4728SOL    HW115083   6.107   1.357   3.213
 4728SOL    HW215084   6.129   1.313   3.057
 4729SOL     OW15085   4.905   0.510   0.449
 4729SOL    HW115086   4.975   0.538   0.383
 4729SOL    HW215087   4.881   0.588   0.507
 4730SOL     OW15088   3.679   0.038   4.666
 4730SOL    HW115089   3.647   0.084   4.583
 4730SOL    HW215090   3.748   6.992   4.641
 4731SOL     OW15091   2.655   0.528   0.388
 4731SOL    HW115092   2.659   0.515   0.487
 4731SOL    HW215093   2.690   0.447   0.342
 4732SOL     OW15094   0.666   3.349   5.055
 4732SOL    HW115095   0.729   3.366   5.131
 4732SOL    HW215096   0.584   3.304   5.089
 4733SOL     OW15097   2.244   4.059   3.099
 4733SOL    HW115098   2.190   4.142   3.115
 4733SOL    HW215099   2.265   4.052   3.001
 4734SOL     OW15100   4.916   2.906   6.515
 4734SOL    HW115101   4.959   2.879   6.602
 4734SOL    HW215102   4.937   3.002   6.496
 4735SOL     OW15103   0.477   5.935   4.092
 4735SOL    HW115104   0.503   5.969   4.001
 4735SOL    HW215105   0.466   5.836   4.088
 4736SOL     OW15106   6.698   2.195   3.775
 4736SOL    HW115107   6.670   2.231   3.686
 4736SOL    HW215108   6.629   2.216   3.844
 4737SOL     OW15109   1.885   4.549   0.819
 4737SOL    HW115110   1.838   4.534   0.906
 4737SOL    HW215111   1.892   4.462   0.770
 4738SOL     OW15112   3.054   6.980   3.835
 4738SOL    HW115113   3.050   6.895   3.888
 4738SOL    HW215114   3.123   0.019   3.875
 4739SOL     OW15115   6.361   2.526   4.923
 4739SOL    HW115116   6.404   2.461   4.986
 4739SOL    HW215117   6.360   2.617   4.963
 4740SOL     OW15118   0.853   0.967   1.042
 4740SOL    HW115119   0.843   0.882   1.093
 4740SOL    HW215120   0.827   1.044   1.100
 4741SOL     OW15121   4.479   4.646   0.917
 4741SOL    HW115122   4.560   4.678   0.867
 4741SOL    HW215123   4.497   4.555   0.954
 4742SOL     OW15124   2.866   5.953   1.569
 4742SOL    HW115125   2.837   5.865   1.608
 4742SOL    HW215126   2.829   6.028   1.624
 4743SOL     OW15127   2.576   1.229   5.730
 4743SOL    HW115128   2.487   1.195   5.697
 4743SOL    HW215129   2.619   1.160   5.788
 4744SOL     OW15130   1.948   3.001   5.405
 4744SOL    HW115131   1.957   3.016   5.503
 4744SOL    HW215132   2.032   3.028   5.359
 4745SOL     OW15133   3.144   5.253   5.676
 4745SOL    HW115134   3.238   5.249   5.644
 4745SOL    HW215135   3.142   5.285   5.771
 4746SOL     OW15136   6.126   5.929   0.510
 4746SOL    HW115137   6.069   5.958   0.434
 4746SOL    HW215138   6.200   5.995   0.524
 4747SOL     OW15139   0.145   2.911   0.246
 4747SOL    HW115140   0.128   2.866   0.158
 4747SOL    HW215141   0.242   2.937   0.251
 4748SOL     OW15142   1.167   0.852   1.398
 4748SOL    HW115143   1.091   0.885   1.453
 4748SOL    HW215144   1.141   0.764   1.356
 4749SOL     OW15145   2.372   6.530   6.977
 4749SOL    HW115146   2.441   6.486   6.920
 4749SOL    HW215147   2.386   6.629   6.976
 4750SOL     OW15148   0.255   1.800   4.377
 4750SOL    HW115149   0.166   1.778   4.338
 4750SOL    HW215150   0.248   1.804   4.477
 4751SOL     OW15151   2.194   4.604   6.831
 4751SOL    HW115152   2.230   4.656   6.754
 4751SOL    HW215153   2.160   4.516   6.798
 4752SOL     OW15154   2.566   6.330   1.034
 4752SOL    HW115155   2.484   6.302   0.985
 4752SOL    HW215156   2.560   6.300   1.129
 4753SOL     OW15157   5.379   6.859   4.987
 4753SOL    HW115158   5.383   6.834   5.083
 4753SOL    HW215159   5.381   6.776   4.931
 4754SOL     OW15160   6.490   0.268   6.316
 4754SOL    HW115161   6.504   0.192   6.253
 4754SOL    HW215162   6.400   0.309   6.299
 4755SOL     OW15163   2.435   0.918   6.159
 4755SOL    HW115164   2.461   0.970   6.241
 4755SOL    HW215165   2.385   0.836   6.187
 4756SOL     OW15166   5.458   2.043   1.984
 4756SOL    HW115167   5.548   2.084   1.968
 4756SOL    HW215168   5.453   2.009   2.077
 4757SOL     OW15169   2.484   2.579   2.167
 4757SOL    HW115170   2.488   2.481   2.150
 4757SOL    HW215171   2.559   2.624   2.119
 4758SOL     OW15172   3.998   5.728   5.503
 4758SOL    HW115173   4.020   5.825   5.492
 4758SOL    HW215174   4.056   5.688   5.574
 4759SOL     OW15175   5.433   5.859   5.101
 4759SOL    HW115176   5.524   5.895   5.124
 4759SOL    HW215177   5.363   5.914   5.144
 4760SOL     OW15178   2.186   1.185   1.526
 4760SOL    HW115179   2.226   1.247   1.594
 4760SOL    HW215180   2.254   1.117   1.500
 4761SOL     OW15181   5.973   0.295   6.853
 4761SOL    HW115182   6.013   0.357   6.785
 4761SOL    HW215183   6.033   0.290   6.933
 4762SOL     OW15184   2.501   4.513   2.457
 4762SOL    HW115185   2.434   4.440   2.443
 4762SOL    HW215186   2.530   4.549   2.368
 4763SOL     OW15187   6.062   6.018   2.887
 4763SOL    HW115188   6.070   6.109   2.928
 4763SOL    HW215189   6.004   6.023   2.806
 4764SOL     OW15190   4.629   3.863   5.306
 4764SOL    HW115191   4.644   3.782   5.250
 4764SOL    HW215192   4.669   3.943   5.261
 4765SOL     OW15193   4.587   6.274   5.234
 4765SOL    HW115194   4.617   6.342   5.168
 4765SOL    HW215195   4.495   6.242   5.209
 4766SOL     OW15196   3.244   0.980   3.383
 4766SOL    HW115197   3.245   1.080   3.372
 4766SOL    HW215198   3.161   0.954   3.433
 4767SOL     OW15199   4.062   6.744   1.194
 4767SOL    HW115200   4.051   6.789   1.283
 4767SOL    HW215201   4.159   6.741   1.170
 4768SOL     OW15202   4.887   1.550   4.861
 4768SOL    HW115203   4.952   1.588   4.927
 4768SOL    HW215204   4.933   1.482   4.804
 4769SOL     OW15205   3.938   5.510   1.678
 4769SOL    HW115206   3.860   5.546   1.625
 4769SOL    HW215207   4.017   5.503   1.618
 4770SOL     OW15208   2.267   0.445   2.782
 4770SOL    HW115209   2.257   0.446   2.682
 4770SOL    HW215210   2.326   0.369   2.808
 4771SOL     OW15211   3.492   5.040   5.819
 4771SOL    HW115212   3.416   4.974   5.817
 4771SOL    HW215213   3.474   5.112   5.752
 4772SOL     OW15214   3.016   6.989   1.189
 4772SOL    HW115215   3.087   0.001   1.126
 4772SOL    HW215216   2.989   0.041   1.251
 4773SOL     OW15217   0.179   5.371   4.084
 4773SOL    HW115218   0.215   5.465   4.084
 4773SOL    HW215219   0.089   5.370   4.041
 4774SOL     OW15220   0.837   3.078   2.266
 4774SOL    HW115221   0.887   3.119   2.342
 4774SOL    HW215222   0.764   3.020   2.302
 4775SOL     OW15223   5.512   0.414   2.916
 4775SOL    HW115224   5.416   0.412   2.947
 4775SOL    HW215225   5.549   0.506   2.931
 4776SOL     OW15226   2.294   6.366   3.111
 4776SOL    HW115227   2.281   6.446   3.053
 4776SOL    HW215228   2.391   6.344   3.117
 4777SOL     OW15229   2.680   4.222   1.403
 4777SOL    HW115230   2.740   4.210   1.324
 4777SOL    HW215231   2.665   4.134   1.447
 4778SOL     OW15232   5.442   2.801   1.709
 4778SOL    HW115233   5.352   2.841   1.696
 4778SOL    HW215234   5.437   2.727   1.775
 4779SOL     OW15235   6.783   0.286   2.631
 4779SOL    HW115236   6.787   0.190   2.659
 4779SOL    HW215237   6.807   0.345   2.708
 4780SOL     OW15238   0.707   0.914   5.954
 4780SOL    HW115239   0.773   0.885   6.023
 4780SOL    HW215240   0.741   0.995   5.907
 4781SOL     OW15241   2.686   6.233   1.731
 4781SOL    HW115242   2.773   6.213   1.776
 4781SOL    HW215243   2.614   6.175   1.770
 4782SOL     OW15244   4.937   0.084   0.247
 4782SOL    HW115245   4.958   0.069   0.151
 4782SOL    HW215246   4.977   0.011   0.302
 4783SOL     OW15247   4.448   4.463   0.583
 4783SOL    HW115248   4.513   4.388   0.597
 4783SOL    HW215249   4.497   4.550   0.583
 4784SOL     OW15250   6.129   4.806   5.855
 4784SOL    HW115251   6.203   4.844   5.911
 4784SOL    HW215252   6.124   4.855   5.768
 4785SOL     OW15253   6.747   6.528   0.995
 4785SOL    HW115254   6.802   6.520   0.912
 4785SOL    HW215255   6.806   6.511   1.075
 4786SOL     OW15256   1.867   2.417   2.572
 4786SOL    HW115257   1.833   2.416   2.666
 4786SOL    HW215258   1.963   2.445   2.572
 4787SOL     OW15259   3.060   2.212   3.663
 4787SOL    HW115260   3.070   2.215   3.563
 4787SOL    HW215261   3.149   2.191   3.704
 4788SOL     OW15262   1.427   6.034   5.974
 4788SOL    HW115263   1.333   6.013   6.000
 4788SOL    HW215264   1.475   5.950   5.953
 4789SOL     OW15265   4.790   1.004   0.320
 4789SOL    HW115266   4.768   1.024   0.225
 4789SOL    HW215267   4.860   1.067   0.353
 4790SOL     OW15268   5.632   3.123   6.717
 4790SOL    HW115269   5.542   3.157   6.741
 4790SOL    HW215270   5.659   3.160   6.628
 4791SOL     OW15271   5.916   0.572   2.017
 4791SOL    HW115272   5.959   0.510   2.083
 4791SOL    HW215273   5.924   0.666   2.051
 4792SOL     OW15274   2.166   3.108   3.038
 4792SOL    HW115275   2.204   3.063   2.958
 4792SOL    HW215276   2.165   3.044   3.115
 4793SOL     OW15277   1.318   0.656   5.827
 4793SOL    HW115278   1.303   0.752   5.804
 4793SOL    HW215279   1.230   0.611   5.842
 4794SOL     OW15280   3.806   0.099   2.819
 4794SOL    HW115281   3.893   0.142   2.840
 4794SOL    HW215282   3.772   0.132   2.730
 4795SOL     OW15283   6.874   3.087   4.776
 4795SOL    HW115284   6.776   3.101   4.759
 4795SOL    HW215285   6.922   3.174   4.765
 4796SOL     OW15286   5.111   2.373   0.218
 4796SOL    HW115287   5.110   2.470   0.195
 4796SOL    HW215288   5.017   2.339   0.223
 4797SOL     OW15289   1.546   5.799   5.876
 4797SOL    HW115290   1.639   5.834   5.865
 4797SOL    HW215291   1.550   5.699   5.885
 4798SOL     OW15292   0.483   4.297   5.411
 4798SOL    HW115293   0.486   4.388   5.369
 4798SOL    HW215294   0.497   4.305   5.509
 4799SOL     OW15295   5.531   1.687   5.056
 4799SOL    HW115296   5.517   1.741   4.973
 4799SOL    HW215297   5.607   1.726   5.109
 4800SOL     OW15298   3.116   3.213   6.465
 4800SOL    HW115299   3.151   3.223   6.372
 4800SOL    HW215300   3.191   3.224   6.530
 4801SOL     OW15301   2.122   2.136   6.922
 4801SOL    HW115302   2.044   2.125   6.984
 4801SOL    HW215303   2.151   2.231   6.922
 4802SOL     OW15304   1.562   6.559   2.387
 4802SOL    HW115305   1.597   6.629   2.449
 4802SOL    HW215306   1.571   6.591   2.292
 4803SOL     OW15307   0.609   6.807   1.079
 4803SOL    HW115308   0.515   6.775   1.087
 4803SOL    HW215309   0.612   6.888   1.020
 4804SOL     OW15310   4.085   5.587   6.623
 4804SOL    HW115311   4.153   5.627   6.684
 4804SOL    HW215312   4.105   5.490   6.608
 4805SOL     OW15313   6.752   0.150   0.579
 4805SOL    HW115314   6.749   0.109   0.670
 4805SOL    HW215315   6.672   0.209   0.567
 4806SOL     OW15316   6.775   4.000   3.654
 4806SOL    HW115317   6.715   3.949   3.716
 4806SOL    HW215318   6.862   3.950   3.644
 4807SOL     OW15319   0.940   5.745   1.404
 4807SOL    HW115320   0.853   5.748   1.356
 4807SOL    HW215321   0.937   5.805   1.484
 4808SOL     OW15322   5.638   3.524   0.565
 4808SOL    HW115323   5.700   3.543   0.641
 4808SOL    HW215324   5.582   3.604   0.546
 4809SOL     OW15325   3.426   4.521   7.015
 4809SOL    HW115326   3.367   4.597   6.986
 4809SOL    HW215327   3.520   4.540   6.989
 4810SOL     OW15328   1.010   4.931   1.119
 4810SOL    HW115329   1.026   5.029   1.108
 4810SOL    HW215330   1.001   4.909   1.216
 4811SOL     OW15331   2.662   5.493   1.795
 4811SOL    HW115332   2.707   5.450   1.874
 4811SOL    HW215333   2.584   5.439   1.767
 4812SOL     OW15334   6.616   5.346   5.055
 4812SOL    HW115335   6.623   5.355   5.154
 4812SOL    HW215336   6.633   5.252   5.028
 4813SOL     OW15337   5.030   1.403   2.962
 4813SOL    HW115338   5.013   1.437   3.054
 4813SOL    HW215339   4.971   1.323   2.945
 4814SOL     OW15340   6.249   4.636   0.809
 4814SOL    HW115341   6.344   4.606   0.810
 4814SOL    HW215342   6.207   4.615   0.897
 4815SOL     OW15343   5.009   4.991   2.711
 4815SOL    HW115344   5.031   4.894   2.722
 4815SOL    HW215345   4.972   5.026   2.797
 4816SOL     OW15346   5.693   5.267   3.240
 4816SOL    HW115347   5.702   5.272   3.141
 4816SOL    HW215348   5.599   5.246   3.265
 4817SOL     OW15349   0.683   2.160   5.968
 4817SOL    HW115350   0.752   2.113   5.912
 4817SOL    HW215351   0.655   2.101   6.043
 4818SOL     OW15352   0.592   6.753   3.755
 4818SOL    HW115353   0.526   6.760   3.830
 4818SOL    HW215354   0.619   6.844   3.725
 4819SOL     OW15355   1.329   3.301   0.214
 4819SOL    HW115356   1.271   3.347   0.147
 4819SOL    HW215357   1.293   3.209   0.232
 4820SOL     OW15358   6.708   2.868   1.576
 4820SOL    HW115359   6.714   2.954   1.526
 4820SOL    HW215360   6.627   2.817   1.546
 4821SOL     OW15361   0.458   5.938   1.732
 4821SOL    HW115362   0.449   6.024   1.782
 4821SOL    HW215363   0.459   5.861   1.796
 4822SOL     OW15364   1.529   4.041   4.201
 4822SOL    HW115365   1.438   3.999   4.198
 4822SOL    HW215366   1.583   4.009   4.124
 4823SOL     OW15367   1.077   2.543   2.585
 4823SOL    HW115368   1.109   2.511   2.496
 4823SOL    HW215369   0.978   2.558   2.582
 4824SOL     OW15370   5.120   1.395   5.251
 4824SOL    HW115371   5.122   1.366   5.155
 4824SOL    HW215372   5.193   1.460   5.268
 4825SOL     OW15373   0.967   0.609   4.544
 4825SOL    HW115374   0.897   0.538   4.553
 4825SOL    HW215375   1.056   0.565   4.527
 4826SOL     OW15376   4.624   0.358   1.235
 4826SOL    HW115377   4.705   0.381   1.289
 4826SOL    HW215378   4.581   0.443   1.203
 4827SOL     OW15379   6.557   1.451   0.222
 4827SOL    HW115380   6.539   1.536   0.272
 4827SOL    HW215381   6.633   1.466   0.158
 4828SOL     OW15382   4.738   0.259   1.707
 4828SOL    HW115383   4.662   0.269   1.771
 4828SOL    HW215384   4.809   0.200   1.748
 4829SOL     OW15385   4.300   0.333   6.272
 4829SOL    HW115386   4.219   0.317   6.215
 4829SOL    HW215387   4.310   0.256   6.336
 4830SOL     OW15388   4.200   5.876   3.650
 4830SOL    HW115389   4.272   5.872   3.719
 4830SOL    HW215390   4.232   5.929   3.571
 4831SOL     OW15391   3.423   5.771   5.781
 4831SOL    HW115392   3.347   5.755   5.718
 4831SOL    HW215393   3.387   5.800   5.870
 4832SOL     OW15394   3.177   3.444   4.732
 4832SOL    HW115395   3.264   3.478   4.696
 4832SOL    HW215396   3.191   3.406   4.823
 4833SOL     OW15397   5.869   2.414   4.307
 4833SOL    HW115398   5.770   2.425   4.316
 4833SOL    HW215399   5.894   2.321   4.334
 4834SOL     OW15400   2.397   5.165   2.457
 4834SOL    HW115401   2.384   5.165   2.557
 4834SOL    HW215402   2.375   5.256   2.422
 4835SOL     OW15403   6.852   3.563   6.243
 4835SOL    HW115404   6.809   3.588   6.329
 4835SOL    HW215405   6.935   3.510   6.262
 4836SOL     OW15406   4.911   1.091   5.296
 4836SOL    HW115407   4.824   1.048   5.321
 4836SOL    HW215408   4.895   1.161   5.227
 4837SOL     OW15409   6.626   3.044   3.656
 4837SOL    HW115410   6.578   3.021   3.740
 4837SOL    HW215411   6.692   3.117   3.674
 4838SOL     OW15412   1.260   4.901   5.994
 4838SOL    HW115413   1.333   4.873   6.057
 4838SOL    HW215414   1.284   4.988   5.952
 4839SOL     OW15415   1.268   2.414   0.071
 4839SOL    HW115416   1.280   2.447   6.999
 4839SOL    HW215417   1.225   2.485   0.126
 4840SOL     OW15418   5.241   3.916   5.430
 4840SOL    HW115419   5.218   4.005   5.390
 4840SOL    HW215420   5.189   3.902   5.514
 4841SOL     OW15421   3.103   5.178   3.436
 4841SOL    HW115422   3.041   5.184   3.358
 4841SOL    HW215423   3.128   5.270   3.466
 4842SOL     OW15424   2.335   5.149   2.721
 4842SOL    HW115425   2.325   5.059   2.680
 4842SOL    HW215426   2.403   5.145   2.794
 4843SOL     OW15427   0.287   2.893   2.090
 4843SOL    HW115428   0.209   2.925   2.037
 4843SOL    HW215429   0.275   2.919   2.186
 4844SOL     OW15430   1.244   5.160   5.121
 4844SOL    HW115431   1.247   5.069   5.163
 4844SOL    HW215432   1.268   5.152   5.024
 4845SOL     OW15433   4.550   4.388   5.211
 4845SOL    HW115434   4.602   4.323   5.155
 4845SOL    HW215435   4.481   4.433   5.154
 4846SOL     OW15436   0.548   2.701   4.224
 4846SOL    HW115437   0.616   2.633   4.254
 4846SOL    HW215438   0.461   2.656   4.205
 4847SOL     OW15439   2.833   6.779   5.781
 4847SOL    HW115440   2.930   6.801   5.792
 4847SOL    HW215441   2.810   6.701   5.838
 4848SOL     OW15442   2.198   1.330   3.945
 4848SOL    HW115443   2.258   1.250   3.956
 4848SOL    HW215444   2.157   1.353   4.033
 4849SOL     OW15445   2.262   0.776   0.549
 4849SOL    HW115446   2.257   0.832   0.631
 4849SOL    HW215447   2.250   0.833   0.468
 4850SOL     OW15448   4.327   0.715   1.204
 4850SOL    HW115449   4.234   0.740   1.231
 4850SOL    HW215450   4.390   0.787   1.232
 4851SOL     OW15451   3.435   5.859   6.989
 4851SOL    HW115452   3.534   5.851   6.982
 4851SOL    HW215453   3.410   5.955   7.001
 4852SOL     OW15454   3.596   5.666   4.917
 4852SOL    HW115455   3.542   5.698   4.839
 4852SOL    HW215456   3.682   5.716   4.920
 4853SOL     OW15457   3.157   0.922   2.744
 4853SOL    HW115458   3.067   0.888   2.771
 4853SOL    HW215459   3.191   0.869   2.667
 4854SOL     OW15460   5.699   6.116   1.525
 4854SOL    HW115461   5.744   6.155   1.444
 4854SOL    HW215462   5.742   6.028   1.547
 4855SOL     OW15463   7.022   4.425   5.226
 4855SOL    HW115464   0.034   4.344   5.180
 4855SOL    HW215465   0.067   4.457   5.294
 4856SOL     OW15466   0.377   3.524   2.693
 4856SOL    HW115467   0.386   3.623   2.697
 4856SOL    HW215468   0.444   3.482   2.755
 4857SOL     OW15469   2.977   2.204   4.304
 4857SOL    HW115470   2.974   2.148   4.387
 4857SOL    HW215471   2.895   2.262   4.301
 4858SOL     OW15472   0.413   6.986   5.504
 4858SOL    HW115473   0.454   6.899   5.478
 4858SOL    HW215474   0.327   7.000   5.455
 4859SOL     OW15475   0.657   5.609   2.065
 4859SOL    HW115476   0.618   5.540   2.127
 4859SOL    HW215477   0.657   5.573   1.972
 4860SOL     OW15478   4.834   5.266   0.282
 4860SOL    HW115479   4.911   5.329   0.272
 4860SOL    HW215480   4.778   5.269   0.200
 4861SOL     OW15481   6.495   4.767   5.778
 4861SOL    HW115482   6.432   4.690   5.788
 4861SOL    HW215483   6.588   4.736   5.798
 4862SOL     OW15484   2.776   4.722   4.737
 4862SOL    HW115485   2.771   4.667   4.821
 4862SOL    HW215486   2.866   4.764   4.729
 4863SOL     OW15487   4.754   2.913   2.647
 4863SOL    HW115488   4.720   2.835   2.594
 4863SOL    HW215489   4.781   2.986   2.584
 4864SOL     OW15490   3.091   1.515   2.144
 4864SOL    HW115491   3.038   1.432   2.124
 4864SOL    HW215492   3.084   1.578   2.066
 4865SOL     OW15493   3.420   5.286   5.658
 4865SOL    HW115494   3.437   5.227   5.579
 4865SOL    HW215495   3.446   5.380   5.635
 4866SOL     OW15496   6.017   5.065   1.692
 4866SOL    HW115497   6.045   5.104   1.779
 4866SOL    HW215498   5.927   5.024   1.701
 4867SOL     OW15499   5.252   5.138   2.744
 4867SOL    HW115500   5.169   5.085   2.728
 4867SOL    HW215501   5.263   5.206   2.671
 4868SOL     OW15502   0.600   5.065   1.197
 4868SOL    HW115503   0.658   5.104   1.126
 4868SOL    HW215504   0.504   5.090   1.180
 4869SOL     OW15505   6.794   1.312   0.116
 4869SOL    HW115506   6.782   1.298   0.214
 4869SOL    HW215507   6.881   1.358   0.100
 4870SOL     OW15508   4.172   6.107   1.967
 4870SOL    HW115509   4.244   6.133   1.902
 4870SOL    HW215510   4.090   6.162   1.950
 4871SOL     OW15511   1.228   2.120   3.385
 4871SOL    HW115512   1.130   2.101   3.372
 4871SOL    HW215513   1.274   2.117   3.296
 4872SOL     OW15514   1.080   0.248   2.905
 4872SOL    HW115515   1.068   0.206   2.815
 4872SOL    HW215516   1.138   0.190   2.962
 4873SOL     OW15517   0.146   5.216   4.306
 4873SOL    HW115518   0.103   5.251   4.389
 4873SOL    HW215519   0.147   5.287   4.236
 4874SOL     OW15520   5.168   3.769   3.549
 4874SOL    HW115521   5.245   3.807   3.601
 4874SOL    HW215522   5.193   3.678   3.515
 4875SOL     OW15523   5.335   1.628   1.288
 4875SOL    HW115524   5.417   1.616   1.233
 4875SOL    HW215525   5.256   1.593   1.238
 4876SOL     OW15526   6.328   0.820   6.411
 4876SOL    HW115527   6.229   0.821   6.394
 4876SOL    HW215528   6.369   0.900   6.367
 4877SOL     OW15529   6.213   1.796   0.997
 4877SOL    HW115530   6.158   1.823   0.918
 4877SOL    HW215531   6.157   1.801   1.080
 4878SOL     OW15532   0.140   1.347   1.818
 4878SOL    HW115533   0.057   1.292   1.834
 4878SOL    HW215534   0.122   1.413   1.744
 4879SOL     OW15535   3.984   4.807   3.459
 4879SOL    HW115536   3.910   4.758   3.414
 4879SOL    HW215537   4.052   4.742   3.493
 4880SOL     OW15538   5.736   1.128   0.064
 4880SOL    HW115539   5.815   1.170   0.109
 4880SOL    HW215540   5.768   1.079   7.004
 4881SOL     OW15541   3.136   6.808   6.133
 4881SOL    HW115542   3.085   6.845   6.211
 4881SOL    HW215543   3.098   6.843   6.048
 4882SOL     OW15544   6.050   1.299   5.138
 4882SOL    HW115545   6.050   1.229   5.209
 4882SOL    HW215546   5.970   1.286   5.078
 4883SOL     OW15547   6.016   4.629   1.949
 4883SOL    HW115548   5.933   4.612   1.896
 4883SOL    HW215549   6.095   4.636   1.887
 4884SOL     OW15550   3.618   6.521   1.468
 4884SOL    HW115551   3.586   6.581   1.395
 4884SOL    HW215552   3.701   6.558   1.508
 4885SOL     OW15553   1.969   6.967   1.306
 4885SOL    HW115554   1.898   0.012   1.328
 4885SOL    HW215555   1.984   6.908   1.386
 4886SOL     OW15556   6.390   0.449   0.249
 4886SOL    HW115557   6.327   0.526   0.260
 4886SOL    HW215558   6.339   0.363   0.262
 4887SOL     OW15559   0.479   2.301   3.467
 4887SOL    HW115560   0.542   2.371   3.434
 4887SOL    HW215561   0.516   2.260   3.551
 4888SOL     OW15562   1.429   5.901   2.935
 4888SOL    HW115563   1.372   5.829   2.896
 4888SOL    HW215564   1.483   5.944   2.862
 4889SOL     OW15565   1.155   1.968   0.095
 4889SOL    HW115566   1.105   1.892   0.138
 4889SOL    HW215567   1.252   1.946   0.093
 4890SOL     OW15568   0.617   1.132   4.726
 4890SOL    HW115569   0.526   1.164   4.701
 4890SOL    HW215570   0.635   1.045   4.680
 4891SOL     OW15571   0.867   4.842   0.638
 4891SOL    HW115572   0.855   4.843   0.737
 4891SOL    HW215573   0.811   4.770   0.597
 4892SOL     OW15574   1.575   5.770   1.538
 4892SOL    HW115575   1.491   5.775   1.592
 4892SOL    HW215576   1.563   5.823   1.454
 4893SOL     OW15577   6.996   3.767   6.462
 4893SOL    HW115578   0.066   3.802   6.484
 4893SOL    HW215579   6.928   3.814   6.518
 4894SOL     OW15580   1.711   0.627   3.025
 4894SOL    HW115581   1.635   0.666   3.075
 4894SOL    HW215582   1.708   0.527   3.031
 4895SOL     OW15583   0.754   2.985   0.489
 4895SOL    HW115584   0.851   3.000   0.472
 4895SOL    HW215585   0.709   2.958   0.404
 4896SOL     OW15586   3.742   5.109   4.680
 4896SOL    HW115587   3.695   5.038   4.629
 4896SOL    HW215588   3.821   5.069   4.728
 4897SOL     OW15589   3.479   5.607   0.114
 4897SOL    HW115590   3.449   5.682   0.055
 4897SOL    HW215591   3.536   5.643   0.188
 4898SOL     OW15592   5.583   1.942   5.647
 4898SOL    HW115593   5.587   2.042   5.642
 4898SOL    HW215594   5.526   1.914   5.724
 4899SOL     OW15595   6.050   4.345   3.310
 4899SOL    HW115596   6.088   4.294   3.233
 4899SOL    HW215597   6.123   4.396   3.355
 4900SOL     OW15598   0.554   6.713   5.964
 4900SOL    HW115599   0.628   6.705   6.031
 4900SOL    HW215600   0.523   6.808   5.961
 4901SOL     OW15601   0.677   6.480   3.799
 4901SOL    HW115602   0.624   6.537   3.736
 4901SOL    HW215603   0.746   6.537   3.844
 4902SOL     OW15604   2.643   4.921   1.808
 4902SOL    HW115605   2.734   4.907   1.846
 4902SOL    HW215606   2.650   4.951   1.713
 4903SOL     OW15607   4.120   0.062   0.106
 4903SOL    HW115608   4.095   6.997   0.065
 4903SOL    HW215609   4.037   0.117   0.121
 4904SOL     OW15610   1.965   6.053   4.075
 4904SOL    HW115611   2.025   6.096   4.007
 4904SOL    HW215612   1.872   6.088   4.064
 4905SOL     OW15613   5.182   2.879   1.678
 4905SOL    HW115614   5.090   2.889   1.716
 4905SOL    HW215615   5.191   2.936   1.596
 4906SOL     OW15616   4.604   0.132   0.516
 4906SOL    HW115617   4.575   0.056   0.574
 4906SOL    HW215618   4.625   0.098   0.424
 4907SOL     OW15619   4.221   6.975   3.942
 4907SOL    HW115620   4.185   6.950   3.852
 4907SOL    HW215621   4.217   0.052   3.953
 4908SOL     OW15622   3.561   5.928   6.590
 4908SOL    HW115623   3.474   5.922   6.541
 4908SOL    HW215624   3.635   5.942   6.524
 4909SOL     OW15625   6.175   6.668   5.379
 4909SOL    HW115626   6.275   6.666   5.376
 4909SOL    HW215627   6.145   6.714   5.463
 4910SOL     OW15628   5.344   0.695   5.150
 4910SOL    HW115629   5.429   0.664   5.194
 4910SOL    HW215630   5.363   0.718   5.055
 4911SOL     OW15631   0.188   2.480   5.767
 4911SOL    HW115632   0.246   2.426   5.705
 4911SOL    HW215633   0.136   2.547   5.714
 4912SOL     OW15634   3.762   2.176   2.568
 4912SOL    HW115635   3.675   2.207   2.606
 4912SOL    HW215636   3.753   2.162   2.469
 4913SOL     OW15637   3.402   3.741   3.424
 4913SOL    HW115638   3.455   3.669   3.468
 4913SOL    HW215639   3.331   3.700   3.366
 4914SOL     OW15640   2.161   6.860   3.521
 4914SOL    HW115641   2.258   6.882   3.532
 4914SOL    HW215642   2.133   6.879   3.427
 4915SOL     OW15643   3.965   6.440   4.415
 4915SOL    HW115644   3.996   6.349   4.388
 4915SOL    HW215645   4.023   6.509   4.373
 4916SOL     OW15646   2.848   2.152   3.138
 4916SOL    HW115647   2.790   2.072   3.152
 4916SOL    HW215648   2.794   2.235   3.148
 4917SOL     OW15649   1.888   3.962   0.824
 4917SOL    HW115650   1.797   3.979   0.787
 4917SOL    HW215651   1.912   4.035   0.888
 4918SOL     OW15652   2.705   0.193   2.178
 4918SOL    HW115653   2.785   0.241   2.141
 4918SOL    HW215654   2.626   0.212   2.121
 4919SOL     OW15655   1.675   2.232   2.287
 4919SOL    HW115656   1.626   2.248   2.372
 4919SOL    HW215657   1.615   2.249   2.209
 4920SOL     OW15658   4.177   1.011   0.628
 4920SOL    HW115659   4.163   0.960   0.713
 4920SOL    HW215660   4.192   0.947   0.553
 4921SOL     OW15661   2.444   3.973   1.774
 4921SOL    HW115662   2.385   3.914   1.719
 4921SOL    HW215663   2.476   3.922   1.855
 4922SOL     OW15664   1.586   3.076   5.609
 4922SOL    HW115665   1.686   3.077   5.612
 4922SOL    HW215666   1.554   3.142   5.542
 4923SOL     OW15667   5.287   0.616   1.507
 4923SOL    HW115668   5.189   0.637   1.502
 4923SOL    HW215669   5.340   0.698   1.491
 4924SOL     OW15670   0.963   4.122   3.906
 4924SOL    HW115671   1.052   4.112   3.950
 4924SOL    HW215672   0.972   4.100   3.809
 4925SOL     OW15673   4.798   6.367   0.908
 4925SOL    HW115674   4.869   6.299   0.928
 4925SOL    HW215675   4.782   6.422   0.990
 4926SOL     OW15676   5.211   2.426   2.059
 4926SOL    HW115677   5.150   2.504   2.072
 4926SOL    HW215678   5.271   2.417   2.138
 4927SOL     OW15679   3.301   3.039   3.081
 4927SOL    HW115680   3.206   3.062   3.065
 4927SOL    HW215681   3.311   2.996   3.171
 4928SOL     OW15682   0.791   6.596   6.940
 4928SOL    HW115683   0.739   6.656   6.879
 4928SOL    HW215684   0.818   6.513   6.890
 4929SOL     OW15685   1.424   4.911   4.562
 4929SOL    HW115686   1.341   4.878   4.517
 4929SOL    HW215687   1.485   4.833   4.580
 4930SOL     OW15688   0.443   2.015   0.506
 4930SOL    HW115689   0.465   1.941   0.442
 4930SOL    HW215690   0.344   2.013   0.526
 4931SOL     OW15691   0.640   6.958   0.627
 4931SOL    HW115692   0.717   6.908   0.667
 4931SOL    HW215693   0.644   0.032   0.654
 4932SOL     OW15694   2.672   2.490   1.380
 4932SOL    HW115695   2.585   2.446   1.401
 4932SOL    HW215696   2.657   2.587   1.360
 4933SOL     OW15697   2.540   1.301   4.138
 4933SOL    HW115698   2.516   1.276   4.232
 4933SOL    HW215699   2.537   1.401   4.129
 4934SOL     OW15700   0.218   5.023   3.766
 4934SOL    HW115701   0.236   4.925   3.752
 4934SOL    HW215702   0.245   5.073   3.684
 4935SOL     OW15703   2.311   1.340   6.558
 4935SOL    HW115704   2.349   1.398   6.630
 4935SOL    HW215705   2.235   1.287   6.594
 4936SOL     OW15706   3.596   5.809   1.595
 4936SOL    HW115707   3.499   5.832   1.582
 4936SOL    HW215708   3.627   5.846   1.683
 4937SOL     OW15709   1.095   3.378   5.832
 4937SOL    HW115710   1.065   3.284   5.847
 4937SOL    HW215711   1.162   3.403   5.902
 4938SOL     OW15712   3.077   4.716   1.176
 4938SOL    HW115713   3.111   4.805   1.207
 4938SOL    HW215714   3.044   4.664   1.255
 4939SOL     OW15715   1.155   1.516   1.717
 4939SOL    HW115716   1.109   1.588   1.770
 4939SOL    HW215717   1.199   1.452   1.779
 4940SOL     OW15718   6.837   2.634   4.012
 4940SOL    HW115719   6.886   2.713   3.974
 4940SOL    HW215720   6.762   2.609   3.950
 4941SOL     OW15721   4.022   2.458   5.391
 4941SOL    HW115722   4.092   2.454   5.463
 4941SOL    HW215723   4.065   2.484   5.305
 4942SOL     OW15724   5.395   3.006   3.519
 4942SOL    HW115725   5.299   3.016   3.545
 4942SOL    HW215726   5.432   2.923   3.560
 4943SOL     OW15727   5.291   3.386   6.607
 4943SOL    HW115728   5.201   3.345   6.595
 4943SOL    HW215729   5.336   3.346   6.686
 4944SOL     OW15730   1.740   4.483   1.047
 4944SOL    HW115731   1.641   4.472   1.057
 4944SOL    HW215732   1.787   4.419   1.107
 4945SOL     OW15733   2.042   0.968   4.609
 4945SOL    HW115734   2.098   0.954   4.528
 4945SOL    HW215735   1.946   0.953   4.587
 4946SOL     OW15736   1.442   4.391   0.574
 4946SOL    HW115737   1.438   4.306   0.522
 4946SOL    HW215738   1.402   4.376   0.665
 4947SOL     OW15739   2.059   0.946   1.934
 4947SOL    HW115740   2.027   0.852   1.924
 4947SOL    HW215741   2.137   0.949   1.997
 4948SOL     OW15742   1.761   2.476   1.590
 4948SOL    HW115743   1.704   2.557   1.583
 4948SOL    HW215744   1.842   2.496   1.646
 4949SOL     OW15745   6.539   3.306   6.201
 4949SOL    HW115746   6.627   3.265   6.178
 4949SOL    HW215747   6.481   3.238   6.248
 4950SOL     OW15748   2.296   4.587   5.382
 4950SOL    HW115749   2.374   4.544   5.336
 4950SOL    HW215750   2.255   4.656   5.322
 4951SOL     OW15751   5.601   6.681   3.651
 4951SOL    HW115752   5.630   6.768   3.690
 4951SOL    HW215753   5.623   6.678   3.554
 4952SOL     OW15754   6.907   0.208   6.105
 4952SOL    HW115755   6.935   0.298   6.138
 4952SOL    HW215756   6.894   0.211   6.006
 4953SOL     OW15757   1.279   2.068   5.119
 4953SOL    HW115758   1.239   2.097   5.206
 4953SOL    HW215759   1.226   1.992   5.082
 4954SOL     OW15760   2.757   4.132   5.309
 4954SOL    HW115761   2.672   4.102   5.350
 4954SOL    HW215762   2.772   4.085   5.222
 4955SOL     OW15763   3.343   5.952   0.252
 4955SOL    HW115764   3.403   5.893   0.198
 4955SOL    HW215765   3.273   5.896   0.297
 4956SOL     OW15766   2.262   0.425   4.621
 4956SOL    HW115767   2.280   0.407   4.718
 4956SOL    HW215768   2.308   0.355   4.566
 4957SOL     OW15769   6.528   4.002   6.559
 4957SOL    HW115770   6.539   3.968   6.466
 4957SOL    HW215771   6.548   3.929   6.624
 4958SOL     OW15772   2.656   7.003   6.161
 4958SOL    HW115773   2.659   0.021   6.253
 4958SOL    HW215774   2.703   6.915   6.162
 4959SOL     OW15775   6.969   2.555   1.503
 4959SOL    HW115776   6.873   2.527   1.501
 4959SOL    HW215777   7.013   2.517   1.584
 4960SOL     OW15778   3.762   4.891   3.651
 4960SOL    HW115779   3.828   4.839   3.596
 4960SOL    HW215780   3.763   4.987   3.622
 4961SOL     OW15781   2.862   0.864   6.671
 4961SOL    HW115782   2.827   0.823   6.754
 4961SOL    HW215783   2.810   0.830   6.592
 4962SOL     OW15784   6.539   3.547   1.186
 4962SOL    HW115785   6.603   3.471   1.177
 4962SOL    HW215786   6.505   3.572   1.095
 4963SOL     OW15787   0.622   4.215   0.382
 4963SOL    HW115788   0.589   4.301   0.342
 4963SOL    HW215789   0.712   4.230   0.424
 4964SOL     OW15790   2.641   6.706   4.585
 4964SOL    HW115791   2.733   6.743   4.571
 4964SOL    HW215792   2.623   6.700   4.684
 4965SOL     OW15793   1.265   6.754   2.844
 4965SOL    HW115794   1.213   6.789   2.922
 4965SOL    HW215795   1.266   6.821   2.771
 4966SOL     OW15796   3.048   6.690   4.396
 4966SOL    HW115797   3.136   6.677   4.349
 4966SOL    HW215798   3.035   6.618   4.464
 4967SOL     OW15799   3.959   4.586   5.284
 4967SOL    HW115800   3.943   4.489   5.267
 4967SOL    HW215801   3.877   4.626   5.326
 4968SOL     OW15802   0.307   1.066   3.907
 4968SOL    HW115803   0.237   1.119   3.955
 4968SOL    HW215804   0.388   1.058   3.965
 4969SOL     OW15805   0.774   6.359   1.819
 4969SOL    HW115806   0.856   6.358   1.876
 4969SOL    HW215807   0.717   6.437   1.844
 4970SOL     OW15808   1.697   1.063   1.765
 4970SOL    HW115809   1.791   1.048   1.735
 4970SOL    HW215810   1.635   1.054   1.687
 4971SOL     OW15811   6.778   6.191   2.929
 4971SOL    HW115812   6.814   6.104   2.962
 4971SOL    HW215813   6.742   6.244   3.006
 4972SOL     OW15814   1.602   4.138   1.140
 4972SOL    HW115815   1.689   4.148   1.188
 4972SOL    HW215816   1.584   4.041   1.122
 4973SOL     OW15817   0.163   0.516   1.257
 4973SOL    HW115818   0.211   0.601   1.233
 4973SOL    HW215819   0.169   0.501   1.356
 4974SOL     OW15820   4.024   3.929   6.219
 4974SOL    HW115821   4.019   4.025   6.246
 4974SOL    HW215822   3.975   3.915   6.133
 4975SOL     OW15823   5.897   3.649   0.423
 4975SOL    HW115824   5.919   3.552   0.428
 4975SOL    HW215825   5.799   3.662   0.442
 4976SOL     OW15826   0.982   0.116   4.418
 4976SOL    HW115827   0.955   0.135   4.323
 4976SOL    HW215828   0.987   0.018   4.433
 4977SOL     OW15829   2.845   4.897   6.331
 4977SOL    HW115830   2.872   4.800   6.330
 4977SOL    HW215831   2.747   4.904   6.350
 4978SOL     OW15832   4.972   4.469   5.484
 4978SOL    HW115833   5.065   4.484   5.517
 4978SOL    HW215834   4.942   4.548   5.431
 4979SOL     OW15835   1.776   0.210   6.296
 4979SOL    HW115836   1.864   0.188   6.339
 4979SOL    HW215837   1.730   0.125   6.271
 4980SOL     OW15838   6.400   4.326   3.204
 4980SOL    HW115839   6.403   4.323   3.304
 4980SOL    HW215840   6.333   4.259   3.172
 4981SOL     OW15841   3.328   4.805   1.883
 4981SOL    HW115842   3.253   4.830   1.944
 4981SOL    HW215843   3.413   4.800   1.935
 4982SOL     OW15844   4.452   1.368   6.741
 4982SOL    HW115845   4.435   1.270   6.732
 4982SOL    HW215846   4.370   1.419   6.712
 4983SOL     OW15847   6.425   5.158   3.980
 4983SOL    HW115848   6.418   5.075   4.036
 4983SOL    HW215849   6.418   5.134   3.883
 4984SOL     OW15850   4.538   4.376   3.528
 4984SOL    HW115851   4.556   4.336   3.618
 4984SOL    HW215852   4.559   4.474   3.530
 4985SOL     OW15853   5.917   5.865   2.529
 4985SOL    HW115854   5.965   5.810   2.598
 4985SOL    HW215855   5.983   5.900   2.462
 4986SOL     OW15856   0.301   4.538   1.813
 4986SOL    HW115857   0.327   4.595   1.891
 4986SOL    HW215858   0.347   4.571   1.730
 4987SOL     OW15859   1.025   0.089   2.692
 4987SOL    HW115860   0.989   0.117   2.603
 4987SOL    HW215861   0.950   0.055   2.749
 4988SOL     OW15862   5.727   0.582   3.821
 4988SOL    HW115863   5.751   0.574   3.918
 4988SOL    HW215864   5.631   0.609   3.812
 4989SOL     OW15865   5.259   0.828   1.820
 4989SOL    HW115866   5.349   0.804   1.858
 4989SOL    HW215867   5.267   0.911   1.766
 4990SOL     OW15868   4.225   1.484   6.673
 4990SOL    HW115869   4.151   1.473   6.740
 4990SOL    HW215870   4.244   1.582   6.661
 4991SOL     OW15871   0.440   5.691   4.696
 4991SOL    HW115872   0.508   5.754   4.732
 4991SOL    HW215873   0.385   5.654   4.771
 4992SOL     OW15874   6.490   0.718   3.407
 4992SOL    HW115875   6.469   0.695   3.502
 4992SOL    HW215876   6.531   0.639   3.361
 4993SOL     OW15877   4.631   6.622   5.254
 4993SOL    HW115878   4.684   6.574   5.324
 4993SOL    HW215879   4.534   6.619   5.277
 4994SOL     OW15880   2.547   5.401   5.009
 4994SOL    HW115881   2.583   5.334   5.074
 4994SOL    HW215882   2.448   5.395   5.006
 4995SOL     OW15883   0.886   0.319   4.664
 4995SOL    HW115884   0.889   0.224   4.693
 4995SOL    HW215885   0.850   0.324   4.571
 4996SOL     OW15886   0.293   2.185   4.314
 4996SOL    HW115887   0.309   2.092   4.347
 4996SOL    HW215888   0.218   2.185   4.249
 4997SOL     OW15889   3.467   2.094   1.228
 4997SOL    HW115890   3.386   2.109   1.285
 4997SOL    HW215891   3.441   2.039   1.148
 4998SOL     OW15892   1.357   3.303   3.377
 4998SOL    HW115893   1.443   3.303   3.429
 4998SOL    HW215894   1.290   3.246   3.425
 4999SOL     OW15895   0.782   3.519   4.840
 4999SOL    HW115896   0.756   3.448   4.905
 4999SOL    HW215897   0.863   3.567   4.874
 5000SOL     OW15898   3.290   6.187   3.410
 5000SOL    HW115899   3.323   6.275   3.373
 5000SOL    HW215900   3.190   6.189   3.417
 5001SOL     OW15901   0.488   5.396   2.423
 5001SOL    HW115902   0.405   5.357   2.382
 5001SOL    HW215903   0.478   5.398   2.522
 5002SOL     OW15904   0.573   4.958   2.247
 5002SOL    HW115905   0.651   4.937   2.188
 5002SOL    HW215906   0.519   4.875   2.263
 5003SOL     OW15907   4.114   5.847   3.096
 5003SOL    HW115908   4.136   5.831   3.192
 5003SOL    HW215909   4.119   5.945   3.077
 5004SOL     OW15910   3.888   5.637   6.276
 5004SOL    HW115911   3.854   5.692   6.200
 5004SOL    HW215912   3.850   5.545   6.270
 5005SOL     OW15913   2.653   3.272   6.521
 5005SOL    HW115914   2.724   3.252   6.589
 5005SOL    HW215915   2.686   3.245   6.430
 5006SOL     OW15916   5.594   1.640   2.301
 5006SOL    HW115917   5.655   1.715   2.276
 5006SOL    HW215918   5.499   1.669   2.291
 5007SOL     OW15919   6.608   0.544   0.700
 5007SOL    HW115920   6.545   0.602   0.649
 5007SOL    HW215921   6.701   0.579   0.691
 5008SOL     OW15922   6.732   6.535   1.677
 5008SOL    HW115923   6.731   6.559   1.580
 5008SOL    HW215924   6.714   6.437   1.687
 5009SOL     OW15925   0.551   2.783   0.592
 5009SOL    HW115926   0.609   2.850   0.544
 5009SOL    HW215927   0.559   2.796   0.690
 5010SOL     OW15928   3.171   2.335   0.745
 5010SOL    HW115929   3.255   2.323   0.693
 5010SOL    HW215930   3.177   2.285   0.832
 5011SOL     OW15931   1.602   3.618   0.238
 5011SOL    HW115932   1.577   3.531   0.280
 5011SOL    HW215933   1.693   3.610   0.197
 5012SOL     OW15934   5.636   2.428   5.467
 5012SOL    HW115935   5.723   2.388   5.438
 5012SOL    HW215936   5.591   2.471   5.389
 5013SOL     OW15937   6.346   0.731   5.494
 5013SOL    HW115938   6.307   0.804   5.438
 5013SOL    HW215939   6.431   0.699   5.453
 5014SOL     OW15940   6.654   4.389   6.986
 5014SOL    HW115941   6.647   4.395   6.886
 5014SOL    HW215942   6.637   4.479   0.004
 5015SOL     OW15943   5.423   0.466   4.832
 5015SOL    HW115944   5.342   0.407   4.839
 5015SOL    HW215945   5.398   0.560   4.859
 5016SOL     OW15946   1.142   3.095   4.675
 5016SOL    HW115947   1.215   3.100   4.606
 5016SOL    HW215948   1.082   3.174   4.666
 5017SOL     OW15949   0.748   2.693   1.288
 5017SOL    HW115950   0.822   2.670   1.351
 5017SOL    HW215951   0.665   2.713   1.339
 5018SOL     OW15952   0.581   4.902   1.902
 5018SOL    HW115953   0.560   4.983   1.848
 5018SOL    HW215954   0.675   4.909   1.937
 5019SOL     OW15955   2.111   5.701   5.387
 5019SOL    HW115956   2.164   5.641   5.447
 5019SOL    HW215957   2.159   5.710   5.300
 5020SOL     OW15958   0.389   6.835   5.182
 5020SOL    HW115959   0.432   6.878   5.103
 5020SOL    HW215960   0.437   6.750   5.205
 5021SOL     OW15961   1.451   0.400   1.281
 5021SOL    HW115962   1.485   0.492   1.296
 5021SOL    HW215963   1.485   0.339   1.354
 5022SOL     OW15964   0.154   2.667   1.393
 5022SOL    HW115965   0.070   2.636   1.437
 5022SOL    HW215966   0.233   2.644   1.449
 5023SOL     OW15967   0.274   3.983   1.708
 5023SOL    HW115968   0.180   3.954   1.689
 5023SOL    HW215969   0.303   3.947   1.796
 5024SOL     OW15970   5.289   4.802   0.769
 5024SOL    HW115971   5.280   4.703   0.757
 5024SOL    HW215972   5.251   4.849   0.690
 5025SOL     OW15973   3.807   1.582   3.998
 5025SOL    HW115974   3.753   1.510   4.041
 5025SOL    HW215975   3.836   1.553   3.907
 5026SOL     OW15976   6.536   5.131   4.519
 5026SOL    HW115977   6.621   5.115   4.469
 5026SOL    HW215978   6.458   5.107   4.460
 5027SOL     OW15979   5.744   0.415   1.290
 5027SOL    HW115980   5.760   0.483   1.218
 5027SOL    HW215981   5.730   0.461   1.377
 5028SOL     OW15982   0.107   1.631   2.951
 5028SOL    HW115983   0.033   1.574   2.989
 5028SOL    HW215984   0.176   1.646   3.021
 5029SOL     OW15985   6.730   3.116   2.316
 5029SOL    HW115986   6.813   3.166   2.341
 5029SOL    HW215987   6.662   3.180   2.281
 5030SOL     OW15988   6.829   5.547   5.954
 5030SOL    HW115989   6.916   5.529   6.001
 5030SOL    HW215990   6.776   5.613   6.005
 5031SOL     OW15991   0.010   1.174   5.351
 5031SOL    HW115992   0.023   1.100   5.285
 5031SOL    HW215993   6.936   1.202   5.351
 5032SOL     OW15994   3.247   2.248   6.611
 5032SOL    HW115995   3.152   2.226   6.634
 5032SOL    HW215996   3.259   2.241   6.512
 5033SOL     OW15997   2.171   1.272   0.188
 5033SOL    HW115998   2.089   1.227   0.152
 5033SOL    HW215999   2.168   1.370   0.165
 5034SOL     OW16000   4.892   7.000   4.255
 5034SOL    HW116001   4.918   6.997   4.352
 5034SOL    HW216002   4.837   6.919   4.234
 5035SOL     OW16003   0.373   4.095   5.226
 5035SOL    HW116004   0.393   4.180   5.275
 5035SOL    HW216005   0.456   4.060   5.183
 5036SOL     OW16006   6.878   4.650   5.985
 5036SOL    HW116007   6.818   4.626   6.061
 5036SOL    HW216008   6.969   4.611   6.000
 5037SOL     OW16009   4.368   4.442   1.473
 5037SOL    HW116010   4.421   4.357   1.476
 5037SOL    HW216011   4.325   4.458   1.562
 5038SOL     OW16012   3.673   3.726   4.376
 5038SOL    HW116013   3.651   3.778   4.293
 5038SOL    HW216014   3.600   3.659   4.393
 5039SOL     OW16015   2.190   3.888   5.776
 5039SOL    HW116016   2.277   3.906   5.729
 5039SOL    HW216017   2.156   3.798   5.749
 5040SOL     OW16018   1.088   5.703   5.351
 5040SOL    HW116019   1.115   5.730   5.259
 5040SOL    HW216020   1.137   5.620   5.377
 5041SOL     OW16021   1.042   2.765   2.269
 5041SOL    HW116022   1.005   2.774   2.361
 5041SOL    HW216023   1.139   2.742   2.274
 5042SOL     OW16024   6.789   3.723   0.025
 5042SOL    HW116025   6.693   3.703   0.043
 5042SOL    HW216026   6.838   3.639   0.003
 5043SOL     OW16027   4.176   1.142   0.293
 5043SOL    HW116028   4.149   1.179   0.382
 5043SOL    HW216029   4.181   1.043   0.299
 5044SOL     OW16030   0.401   5.904   1.479
 5044SOL    HW116031   0.443   5.914   1.570
 5044SOL    HW216032   0.360   5.813   1.471
 5045SOL     OW16033   6.161   5.069   5.662
 5045SOL    HW116034   6.150   5.147   5.600
 5045SOL    HW216035   6.258   5.053   5.678
 5046SOL     OW16036   3.897   3.788   3.576
 5046SOL    HW116037   3.853   3.852   3.639
 5046SOL    HW216038   3.955   3.725   3.627
 5047SOL     OW16039   2.046   3.622   2.932
 5047SOL    HW116040   2.092   3.690   2.990
 5047SOL    HW216041   2.058   3.531   2.972
 5048SOL     OW16042   1.480   0.908   5.223
 5048SOL    HW116043   1.395   0.857   5.214
 5048SOL    HW216044   1.534   0.898   5.139
 5049SOL     OW16045   5.799   1.270   6.488
 5049SOL    HW116046   5.782   1.293   6.584
 5049SOL    HW216047   5.855   1.186   6.483
 5050SOL     OW16048   1.505   1.646   6.701
 5050SOL    HW116049   1.444   1.571   6.725
 5050SOL    HW216050   1.584   1.609   6.651
 5051SOL     OW16051   4.345   4.410   1.086
 5051SOL    HW116052   4.297   4.476   1.144
 5051SOL    HW216053   4.303   4.319   1.098
 5052SOL     OW16054   3.730   2.085   6.143
 5052SOL    HW116055   3.796   2.117   6.075
 5052SOL    HW216056   3.761   2.114   6.234
 5053SOL     OW16057   0.800   5.200   3.078
 5053SOL    HW116058   0.873   5.155   3.027
 5053SOL    HW216059   0.807   5.299   3.066
 5054SOL     OW16060   3.904   4.842   6.103
 5054SOL    HW116061   3.878   4.775   6.173
 5054SOL    HW216062   4.001   4.864   6.113
 5055SOL     OW16063   1.052   2.264   5.739
 5055SOL    HW116064   1.145   2.275   5.772
 5055SOL    HW216065   0.988   2.278   5.814
 5056SOL     OW16066   5.524   3.959   5.361
 5056SOL    HW116067   5.520   4.019   5.441
 5056SOL    HW216068   5.431   3.936   5.332
 5057SOL     OW16069   0.595   6.856   2.286
 5057SOL    HW116070   0.620   6.945   2.247
 5057SOL    HW216071   0.531   6.869   2.361
 5058SOL     OW16072   3.569   4.916   6.797
 5058SOL    HW116073   3.496   4.870   6.848
 5058SOL    HW216074   3.542   4.924   6.700
 5059SOL     OW16075   6.988   0.448   3.651
 5059SOL    HW116076   6.943   0.360   3.638
 5059SOL    HW216077   0.058   0.444   3.613
 5060SOL     OW16078   6.677   2.089   6.525
 5060SOL    HW116079   6.652   2.011   6.583
 5060SOL    HW216080   6.762   2.069   6.477
 5061SOL     OW16081   4.532   2.216   0.068
 5061SOL    HW116082   4.464   2.147   0.094
 5061SOL    HW216083   4.602   2.174   0.010
 5062SOL     OW16084   0.035   6.995   2.504
 5062SOL    HW116085   6.991   6.926   2.533
 5062SOL    HW216086   0.033   7.004   2.405
 5063SOL     OW16087   0.242   6.677   1.786
 5063SOL    HW116088   0.292   6.690   1.701
 5063SOL    HW216089   0.161   6.621   1.768
 5064SOL     OW16090   4.858   3.118   0.406
 5064SOL    HW116091   4.937   3.071   0.444
 5064SOL    HW216092   4.862   3.215   0.430
 5065SOL     OW16093   3.093   0.103   5.664
 5065SOL    HW116094   3.058   0.197   5.660
 5065SOL    HW216095   3.083   0.068   5.757
 5066SOL     OW16096   5.385   3.807   2.058
 5066SOL    HW116097   5.473   3.761   2.048
 5066SOL    HW216098   5.312   3.739   2.058
 5067SOL     OW16099   5.484   1.361   0.672
 5067SOL    HW116100   5.505   1.443   0.726
 5067SOL    HW216101   5.554   1.350   0.601
 5068SOL     OW16102   2.721   4.287   1.115
 5068SOL    HW116103   2.685   4.373   1.151
 5068SOL    HW216104   2.645   4.231   1.081
 5069SOL     OW16105   1.084   4.415   2.305
 5069SOL    HW116106   1.164   4.446   2.356
 5069SOL    HW216107   1.009   4.480   2.318
 5070SOL     OW16108   4.925   3.525   3.701
 5070SOL    HW116109   5.008   3.472   3.684
 5070SOL    HW216110   4.887   3.500   3.790
 5071SOL     OW16111   4.325   2.305   4.735
 5071SOL    HW116112   4.269   2.223   4.726
 5071SOL    HW216113   4.295   2.357   4.815
 5072SOL     OW16114   0.537   5.323   0.569
 5072SOL    HW116115   0.585   5.318   0.481
 5072SOL    HW216116   0.598   5.295   0.642
 5073SOL     OW16117   6.636   6.494   2.645
 5073SOL    HW116118   6.623   6.398   2.668
 5073SOL    HW216119   6.712   6.503   2.581
 5074SOL     OW16120   3.212   4.318   6.967
 5074SOL    HW116121   3.166   4.288   0.028
 5074SOL    HW216122   3.298   4.362   6.991
 5075SOL     OW16123   0.161   0.971   5.787
 5075SOL    HW116124   0.139   0.874   5.779
 5075SOL    HW216125   0.188   0.992   5.881
 5076SOL     OW16126   3.786   1.030   1.033
 5076SOL    HW116127   3.713   1.061   0.973
 5076SOL    HW216128   3.851   0.975   0.980
 5077SOL     OW16129   1.655   2.013   3.621
 5077SOL    HW116130   1.624   2.047   3.710
 5077SOL    HW216131   1.743   1.966   3.632
 5078SOL     OW16132   1.183   1.713   3.367
 5078SOL    HW116133   1.253   1.704   3.438
 5078SOL    HW216134   1.205   1.791   3.309
 5079SOL     OW16135   2.632   5.134   5.986
 5079SOL    HW116136   2.719   5.156   6.029
 5079SOL    HW216137   2.648   5.078   5.905
 5080SOL     OW16138   5.713   6.406   5.126
 5080SOL    HW116139   5.756   6.388   5.214
 5080SOL    HW216140   5.624   6.359   5.122
 5081SOL     OW16141   3.292   3.627   2.884
 5081SOL    HW116142   3.370   3.676   2.925
 5081SOL    HW216143   3.258   3.680   2.806
 5082SOL     OW16144   5.794   6.727   5.504
 5082SOL    HW116145   5.731   6.803   5.515
 5082SOL    HW216146   5.779   6.660   5.577
 5083SOL     OW16147   1.542   6.697   2.106
 5083SOL    HW116148   1.519   6.794   2.105
 5083SOL    HW216149   1.458   6.643   2.102
 5084SOL     OW16150   1.560   4.325   4.164
 5084SOL    HW116151   1.509   4.384   4.228
 5084SOL    HW216152   1.525   4.232   4.171
 5085SOL     OW16153   5.391   1.451   6.691
 5085SOL    HW116154   5.470   1.408   6.735
 5085SOL    HW216155   5.315   1.458   6.755
 5086SOL     OW16156   6.113   4.781   4.152
 5086SOL    HW116157   6.097   4.854   4.219
 5086SOL    HW216158   6.081   4.694   4.190
 5087SOL     OW16159   6.604   6.332   3.893
 5087SOL    HW116160   6.628   6.413   3.946
 5087SOL    HW216161   6.649   6.336   3.804
 5088SOL     OW16162   6.274   1.117   6.209
 5088SOL    HW116163   6.191   1.079   6.167
 5088SOL    HW216164   6.256   1.139   6.304
 5089SOL     OW16165   6.247   3.845   3.441
 5089SOL    HW116166   6.295   3.877   3.360
 5089SOL    HW216167   6.201   3.759   3.420
 5090SOL     OW16168   2.043   4.524   1.332
 5090SOL    HW116169   2.064   4.622   1.336
 5090SOL    HW216170   2.117   4.472   1.376
 5091SOL     OW16171   0.985   6.131   2.713
 5091SOL    HW116172   1.039   6.067   2.767
 5091SOL    HW216173   0.945   6.083   2.634
 5092SOL     OW16174   3.598   2.523   1.738
 5092SOL    HW116175   3.523   2.473   1.694
 5092SOL    HW216176   3.657   2.459   1.786
 5093SOL     OW16177   0.961   2.599   1.795
 5093SOL    HW116178   0.865   2.570   1.799
 5093SOL    HW216179   1.020   2.519   1.797
 5094SOL     OW16180   0.888   0.325   5.974
 5094SOL    HW116181   0.848   0.233   5.974
 5094SOL    HW216182   0.982   0.320   5.941
 5095SOL     OW16183   1.402   0.796   4.578
 5095SOL    HW116184   1.352   0.772   4.662
 5095SOL    HW216185   1.451   0.715   4.545
 5096SOL     OW16186   4.626   3.337   1.008
 5096SOL    HW116187   4.720   3.311   0.989
 5096SOL    HW216188   4.570   3.254   1.021
 5097SOL     OW16189   1.691   0.719   6.094
 5097SOL    HW116190   1.779   0.766   6.087
 5097SOL    HW216191   1.687   0.644   6.028
 5098SOL     OW16192   1.015   0.707   1.837
 5098SOL    HW116193   0.925   0.746   1.857
 5098SOL    HW216194   1.086   0.763   1.879
 5099SOL     OW16195   1.085   0.530   5.586
 5099SOL    HW116196   0.994   0.534   5.545
 5099SOL    HW216197   1.084   0.578   5.674
 5100SOL     OW16198   4.920   0.090   6.414
 5100SOL    HW116199   4.994   0.095   6.348
 5100SOL    HW216200   4.931   0.009   6.472
 5101SOL     OW16201   4.948   6.264   0.098
 5101SOL    HW116202   4.960   6.292   0.002
 5101SOL    HW216203   4.901   6.337   0.148
 5102SOL     OW16204   5.720   0.770   5.885
 5102SOL    HW116205   5.769   0.841   5.834
 5102SOL    HW216206   5.623   0.791   5.887
 5103SOL     OW16207   0.054   0.850   3.991
 5103SOL    HW116208   0.038   0.762   3.946
 5103SOL    HW216209   0.002   0.921   3.944
 5104SOL     OW16210   1.769   0.471   1.443
 5104SOL    HW116211   1.846   0.434   1.391
 5104SOL    HW216212   1.718   0.536   1.387
 5105SOL     OW16213   4.383   3.988   6.916
 5105SOL    HW116214   4.406   4.083   6.897
 5105SOL    HW216215   4.421   3.929   6.844
 5106SOL     OW16216   3.688   0.171   2.586
 5106SOL    HW116217   3.733   0.174   2.497
 5106SOL    HW216218   3.612   0.107   2.583
 5107SOL     OW16219   2.771   0.742   6.899
 5107SOL    HW116220   2.842   0.696   6.952
 5107SOL    HW216221   2.706   0.787   6.961
 5108SOL     OW16222   2.950   3.688   3.723
 5108SOL    HW116223   2.878   3.705   3.656
 5108SOL    HW216224   3.034   3.662   3.675
 5109SOL     OW16225   0.697   1.815   1.290
 5109SOL    HW116226   0.669   1.819   1.194
 5109SOL    HW216227   0.731   1.905   1.318
 5110SOL     OW16228   1.961   6.527   5.921
 5110SOL    HW116229   1.885   6.464   5.905
 5110SOL    HW216230   2.012   6.539   5.836
 5111SOL     OW16231   0.895   1.021   6.162
 5111SOL    HW116232   0.965   1.088   6.136
 5111SOL    HW216233   0.817   1.067   6.202
 5112SOL     OW16234   0.232   6.832   3.674
 5112SOL    HW116235   0.248   6.804   3.768
 5112SOL    HW216236   0.277   6.767   3.612
 5113SOL     OW16237   0.780   0.523   0.679
 5113SOL    HW116238   0.686   0.525   0.713
 5113SOL    HW216239   0.784   0.472   0.593
 5114SOL     OW16240   3.321   4.292   0.359
 5114SOL    HW116241   3.408   4.315   0.315
 5114SOL    HW216242   3.305   4.355   0.436
 5115SOL     OW16243   1.558   4.073   6.069
 5115SOL    HW116244   1.640   4.020   6.051
 5115SOL    HW216245   1.501   4.075   5.987
 5116SOL     OW16246   4.882   4.931   6.292
 5116SOL    HW116247   4.899   4.838   6.325
 5116SOL    HW216248   4.969   4.980   6.282
 5117SOL     OW16249   2.491   4.854   3.731
 5117SOL    HW116250   2.524   4.939   3.688
 5117SOL    HW216251   2.540   4.776   3.691
 5118SOL     OW16252   4.542   6.215   0.846
 5118SOL    HW116253   4.468   6.277   0.821
 5118SOL    HW216254   4.629   6.265   0.851
 5119SOL     OW16255   5.465   0.851   1.510
 5119SOL    HW116256   5.528   0.827   1.583
 5119SOL    HW216257   5.517   0.871   1.426
 5120SOL     OW16258   5.803   1.207   3.064
 5120SOL    HW116259   5.782   1.249   2.976
 5120SOL    HW216260   5.901   1.189   3.070
 5121SOL     OW16261   0.518   3.447   6.177
 5121SOL    HW116262   0.591   3.440   6.109
 5121SOL    HW216263   0.531   3.531   6.230
 5122SOL     OW16264   2.612   0.568   3.441
 5122SOL    HW116265   2.551   0.489   3.435
 5122SOL    HW216266   2.632   0.602   3.349
 5123SOL     OW16267   5.419   3.873   3.682
 5123SOL    HW116268   5.482   3.882   3.605
 5123SOL    HW216269   5.466   3.831   3.759
 5124SOL     OW16270   3.062   6.206   6.720
 5124SOL    HW116271   2.964   6.191   6.707
 5124SOL    HW216272   3.080   6.227   6.816
 5125SOL     OW16273   0.214   3.879   4.103
 5125SOL    HW116274   0.207   3.977   4.083
 5125SOL    HW216275   0.303   3.861   4.146
 5126SOL     OW16276   6.304   5.081   6.425
 5126SOL    HW116277   6.364   5.146   6.470
 5126SOL    HW216278   6.310   5.092   6.326
 5127SOL     OW16279   5.674   3.944   6.983
 5127SOL    HW116280   5.766   3.962   6.949
 5127SOL    HW216281   5.680   3.916   0.057
 5128SOL     OW16282   1.454   0.940   6.666
 5128SOL    HW116283   1.423   0.845   6.659
 5128SOL    HW216284   1.533   0.953   6.607
 5129SOL     OW16285   5.194   0.125   2.282
 5129SOL    HW116286   5.204   0.224   2.270
 5129SOL    HW216287   5.234   0.078   2.203
 5130SOL     OW16288   0.978   5.253   4.775
 5130SOL    HW116289   0.984   5.343   4.732
 5130SOL    HW216290   0.949   5.186   4.706
 5131SOL     OW16291   3.191   4.919   3.359
 5131SOL    HW116292   3.158   5.010   3.386
 5131SOL    HW216293   3.113   4.860   3.339
 5132SOL     OW16294   3.447   1.512   6.300
 5132SOL    HW116295   3.378   1.460   6.351
 5132SOL    HW216296   3.451   1.605   6.335
 5133SOL     OW16297   3.379   5.587   6.564
 5133SOL    HW116298   3.384   5.627   6.472
 5133SOL    HW216299   3.356   5.659   6.630
 5134SOL     OW16300   6.522   6.837   1.452
 5134SOL    HW116301   6.516   6.916   1.391
 5134SOL    HW216302   6.578   6.861   1.531
 5135SOL     OW16303   6.540   3.442   2.588
 5135SOL    HW116304   6.574   3.529   2.551
 5135SOL    HW216305   6.600   3.368   2.558
 5136SOL     OW16306   0.526   0.711   6.314
 5136SOL    HW116307   0.518   0.611   6.316
 5136SOL    HW216308   0.613   0.738   6.356
 5137SOL     OW16309   5.250   2.300   5.315
 5137SOL    HW116310   5.337   2.264   5.280
 5137SOL    HW216311   5.237   2.270   5.409
 5138SOL     OW16312   3.841   4.011   4.223
 5138SOL    HW116313   3.854   4.057   4.311
 5138SOL    HW216314   3.922   3.957   4.201
 5139SOL     OW16315   1.615   0.336   4.931
 5139SOL    HW116316   1.689   0.399   4.909
 5139SOL    HW216317   1.644   0.274   5.003
 5140SOL     OW16318   4.286   1.886   5.820
 5140SOL    HW116319   4.217   1.820   5.790
 5140SOL    HW216320   4.375   1.860   5.782
 5141SOL     OW16321   6.777   2.670   1.785
 5141SOL    HW116322   6.695   2.613   1.783
 5141SOL    HW216323   6.779   2.729   1.705
 5142SOL     OW16324   6.832   6.669   3.641
 5142SOL    HW116325   6.915   6.615   3.655
 5142SOL    HW216326   6.805   6.711   3.728
 5143SOL     OW16327   0.760   4.702   4.339
 5143SOL    HW116328   0.797   4.681   4.429
 5143SOL    HW216329   0.801   4.786   4.305
 5144SOL     OW16330   2.025   3.482   6.781
 5144SOL    HW116331   1.991   3.499   6.688
 5144SOL    HW216332   1.956   3.431   6.833
 5145SOL     OW16333   3.331   6.353   6.665
 5145SOL    HW116334   3.262   6.322   6.600
 5145SOL    HW216335   3.341   6.452   6.658
 5146SOL     OW16336   4.302   4.449   5.438
 5146SOL    HW116337   4.303   4.352   5.416
 5146SOL    HW216338   4.388   4.474   5.484
 5147SOL     OW16339   4.938   3.386   3.229
 5147SOL    HW116340   4.944   3.368   3.328
 5147SOL    HW216341   4.937   3.300   3.180
 5148SOL     OW16342   0.427   1.060   1.808
 5148SOL    HW116343   0.457   1.030   1.898
 5148SOL    HW216344   0.436   0.985   1.743
 5149SOL     OW16345   5.621   4.474   3.764
 5149SOL    HW116346   5.614   4.481   3.864
 5149SOL    HW216347   5.675   4.550   3.729
 5150SOL     OW16348   1.598   4.358   3.839
 5150SOL    HW116349   1.612   4.355   3.938
 5150SOL    HW216350   1.589   4.452   3.809
 5151SOL     OW16351   5.677   4.821   2.022
 5151SOL    HW116352   5.769   4.857   2.016
 5151SOL    HW216353   5.680   4.721   2.025
 5152SOL     OW16354   1.654   0.664   6.462
 5152SOL    HW116355   1.615   0.681   6.372
 5152SOL    HW216356   1.657   0.565   6.479
 5153SOL     OW16357   1.486   1.469   0.749
 5153SOL    HW116358   1.505   1.566   0.757
 5153SOL    HW216359   1.517   1.422   0.831
 5154SOL     OW16360   1.035   2.614   6.721
 5154SOL    HW116361   1.059   2.685   6.655
 5154SOL    HW216362   0.987   2.540   6.675
 5155SOL     OW16363   2.305   1.970   0.292
 5155SOL    HW116364   2.296   1.891   0.231
 5155SOL    HW216365   2.237   1.963   0.366
 5156SOL     OW16366   5.596   5.331   5.466
 5156SOL    HW116367   5.685   5.292   5.446
 5156SOL    HW216368   5.559   5.290   5.549
 5157SOL     OW16369   3.788   1.347   2.157
 5157SOL    HW116370   3.721   1.355   2.230
 5157SOL    HW216371   3.765   1.411   2.084
 5158SOL     OW16372   3.761   0.984   2.510
 5158SOL    HW116373   3.686   1.006   2.448
 5158SOL    HW216374   3.726   0.935   2.590
 5159SOL     OW16375   6.124   3.672   6.455
 5159SOL    HW116376   6.127   3.609   6.378
 5159SOL    HW216377   6.147   3.764   6.425
 5160SOL     OW16378   0.117   6.296   3.360
 5160SOL    HW116379   0.128   6.215   3.303
 5160SOL    HW216380   0.020   6.318   3.369
 5161SOL     OW16381   0.705   2.856   0.261
 5161SOL    HW116382   0.771   2.782   0.268
 5161SOL    HW216383   0.728   2.915   0.184
 5162SOL     OW16384   0.156   6.259   2.570
 5162SOL    HW116385   0.091   6.289   2.500
 5162SOL    HW216386   0.107   6.239   2.655
 5163SOL     OW16387   3.334   6.109   1.686
 5163SOL    HW116388   3.334   6.011   1.668
 5163SOL    HW216389   3.345   6.159   1.600
 5164SOL     OW16390   2.799   3.506   1.297
 5164SOL    HW116391   2.833   3.485   1.388
 5164SOL    HW216392   2.711   3.461   1.283
 5165SOL     OW16393   1.495   5.011   6.917
 5165SOL    HW116394   1.449   4.978   6.835
 5165SOL    HW216395   1.520   5.108   6.905
 5166SOL     OW16396   1.865   5.400   1.605
 5166SOL    HW116397   1.791   5.347   1.646
 5166SOL    HW216398   1.952   5.353   1.621
 5167SOL     OW16399   5.065   3.250   5.548
 5167SOL    HW116400   5.105   3.342   5.541
 5167SOL    HW216401   4.997   3.238   5.476
 5168SOL     OW16402   4.489   1.939   2.072
 5168SOL    HW116403   4.528   1.910   2.160
 5168SOL    HW216404   4.447   2.029   2.083
 5169SOL     OW16405   3.906   0.470   4.126
 5169SOL    HW116406   3.942   0.380   4.100
 5169SOL    HW216407   3.978   0.539   4.117
 5170SOL     OW16408   1.382   3.616   6.424
 5170SOL    HW116409   1.409   3.525   6.392
 5170SOL    HW216410   1.398   3.623   6.523
 5171SOL     OW16411   2.232   5.504   5.565
 5171SOL    HW116412   2.221   5.504   5.665
 5171SOL    HW216413   2.196   5.419   5.527
 5172SOL     OW16414   0.659   4.979   3.800
 5172SOL    HW116415   0.736   4.997   3.862
 5172SOL    HW216416   0.688   4.915   3.729
 5173SOL     OW16417   4.621   3.721   5.840
 5173SOL    HW116418   4.594   3.778   5.762
 5173SOL    HW216419   4.539   3.697   5.893
 5174SOL     OW16420   1.885   6.512   3.137
 5174SOL    HW116421   1.788   6.536   3.133
 5174SOL    HW216422   1.923   6.511   3.044
 5175SOL     OW16423   2.657   4.256   0.126
 5175SOL    HW116424   2.680   4.354   0.128
 5175SOL    HW216425   2.669   4.221   0.033
 5176SOL     OW16426   5.646   5.409   6.679
 5176SOL    HW116427   5.740   5.397   6.710
 5176SOL    HW216428   5.607   5.321   6.654
 5177SOL     OW16429   4.575   0.272   0.967
 5177SOL    HW116430   4.580   0.331   1.047
 5177SOL    HW216431   4.647   0.203   0.971
 5178SOL     OW16432   0.839   3.395   1.861
 5178SOL    HW116433   0.823   3.430   1.768
 5178SOL    HW216434   0.864   3.471   1.921
 5179SOL     OW16435   5.856   4.520   3.214
 5179SOL    HW116436   5.923   4.453   3.246
 5179SOL    HW216437   5.902   4.591   3.162
 5180SOL     OW16438   2.678   0.062   1.291
 5180SOL    HW116439   2.739   0.142   1.289
 5180SOL    HW216440   2.731   7.003   1.268
 5181SOL     OW16441   0.358   0.851   6.884
 5181SOL    HW116442   0.428   0.875   6.816
 5181SOL    HW216443   0.395   0.782   6.946
 5182SOL     OW16444   4.238   4.650   3.469
 5182SOL    HW116445   4.269   4.556   3.456
 5182SOL    HW216446   4.286   4.691   3.546
 5183SOL     OW16447   4.104   1.851   3.735
 5183SOL    HW116448   4.009   1.860   3.706
 5183SOL    HW216449   4.165   1.863   3.657
 5184SOL     OW16450   2.193   1.910   3.983
 5184SOL    HW116451   2.175   2.008   3.993
 5184SOL    HW216452   2.291   1.893   3.989
 5185SOL     OW16453   5.367   0.457   1.859
 5185SOL    HW116454   5.273   0.492   1.856
 5185SOL    HW216455   5.415   0.483   1.775
 5186SOL     OW16456   6.727   3.239   5.777
 5186SOL    HW116457   6.721   3.310   5.848
 5186SOL    HW216458   6.809   3.184   5.791
 5187SOL     OW16459   2.230   4.871   4.770
 5187SOL    HW116460   2.202   4.779   4.797
 5187SOL    HW216461   2.278   4.867   4.682
 5188SOL     OW16462   0.003   6.549   1.744
 5188SOL    HW116463   0.014   6.457   1.781
 5188SOL    HW216464   6.928   6.572   1.739
 5189SOL     OW16465   5.906   0.506   6.361
 5189SOL    HW116466   5.888   0.542   6.269
 5189SOL    HW216467   5.849   0.425   6.377
 5190SOL     OW16468   1.910   2.894   1.843
 5190SOL    HW116469   1.856   2.976   1.863
 5190SOL    HW216470   1.915   2.837   1.925
 5191SOL     OW16471   2.836   5.728   2.253
 5191SOL    HW116472   2.797   5.651   2.304
 5191SOL    HW216473   2.773   5.755   2.180
 5192SOL     OW16474   2.057   5.251   1.678
 5192SOL    HW116475   2.112   5.221   1.600
 5192SOL    HW216476   2.096   5.213   1.762
 5193SOL     OW16477   5.414   0.443   6.687
 5193SOL    HW116478   5.397   0.361   6.742
 5193SOL    HW216479   5.492   0.493   6.725
 5194SOL     OW16480   4.354   1.682   0.080
 5194SOL    HW116481   4.280   1.667   0.146
 5194SOL    HW216482   4.400   1.595   0.061
 5195SOL     OW16483   0.280   0.851   4.187
 5195SOL    HW116484   0.224   0.787   4.239
 5195SOL    HW216485   0.221   0.918   4.142
 5196SOL     OW16486   4.500   6.970   3.307
 5196SOL    HW116487   4.497   6.872   3.286
 5196SOL    HW216488   4.414   7.012   3.278
 5197SOL     OW16489   1.234   4.207   6.058
 5197SOL    HW116490   1.295   4.253   5.993
 5197SOL    HW216491   1.159   4.163   6.007
 5198SOL     OW16492   5.401   5.856   3.046
 5198SOL    HW116493   5.311   5.901   3.041
 5198SOL    HW216494   5.472   5.921   3.019
 5199SOL     OW16495   6.918   5.441   1.192
 5199SOL    HW116496   7.004   5.409   1.150
 5199SOL    HW216497   6.909   5.402   1.283
 5200SOL     OW16498   0.129   4.171   5.698
 5200SOL    HW116499   0.177   4.119   5.769
 5200SOL    HW216500   0.172   4.261   5.687
 5201SOL     OW16501   1.538   5.912   3.771
 5201SOL    HW116502   1.587   5.976   3.713
 5201SOL    HW216503   1.604   5.854   3.820
 5202SOL     OW16504   6.558   3.457   6.893
 5202SOL    HW116505   6.645   3.413   6.870
 5202SOL    HW216506   6.502   3.393   6.945
 5203SOL     OW16507   0.572   3.013   6.866
 5203SOL    HW116508   0.635   2.947   6.824
 5203SOL    HW216509   0.479   2.978   6.861
 5204SOL     OW16510   4.611   4.975   0.433
 5204SOL    HW116511   4.633   5.062   0.477
 5204SOL    HW216512   4.641   4.977   0.338
 5205SOL     OW16513   1.914   0.490   1.647
 5205SOL    HW116514   1.844   0.506   1.578
 5205SOL    HW216515   1.915   0.393   1.672
 5206SOL     OW16516   0.055   4.303   6.816
 5206SOL    HW116517   7.014   4.317   6.892
 5206SOL    HW216518   0.017   4.345   6.734
 5207SOL     OW16519   1.861   5.314   4.092
 5207SOL    HW116520   1.933   5.364   4.141
 5207SOL    HW216521   1.794   5.379   4.057
 5208SOL     OW16522   3.844   0.745   0.607
 5208SOL    HW116523   3.845   0.844   0.589
 5208SOL    HW216524   3.929   0.705   0.573
 5209SOL     OW16525   5.973   6.191   3.520
 5209SOL    HW116526   5.988   6.162   3.425
 5209SOL    HW216527   5.884   6.235   3.528
 5210SOL     OW16528   5.040   3.461   4.195
 5210SOL    HW116529   4.983   3.492   4.271
 5210SOL    HW216530   5.133   3.497   4.205
 5211SOL     OW16531   3.204   3.450   3.814
 5211SOL    HW116532   3.253   3.533   3.837
 5211SOL    HW216533   3.116   3.449   3.863
 5212SOL     OW16534   0.440   2.280   0.115
 5212SOL    HW116535   0.486   2.232   0.189
 5212SOL    HW216536   0.349   2.240   0.101
 5213SOL     OW16537   5.012   2.569   5.748
 5213SOL    HW116538   5.073   2.635   5.703
 5213SOL    HW216539   5.065   2.493   5.784
 5214SOL     OW16540   5.748   1.824   5.191
 5214SOL    HW116541   5.674   1.854   5.251
 5214SOL    HW216542   5.835   1.836   5.238
 5215SOL     OW16543   5.445   4.753   3.554
 5215SOL    HW116544   5.435   4.848   3.523
 5215SOL    HW216545   5.497   4.701   3.486
 5216SOL     OW16546   5.307   4.550   1.393
 5216SOL    HW116547   5.279   4.563   1.298
 5216SOL    HW216548   5.252   4.609   1.452
 5217SOL     OW16549   3.387   5.444   3.942
 5217SOL    HW116550   3.432   5.429   3.854
 5217SOL    HW216551   3.289   5.430   3.932
 5218SOL     OW16552   1.712   0.057   4.325
 5218SOL    HW116553   1.699   6.994   4.376
 5218SOL    HW216554   1.708   0.037   4.227
 5219SOL     OW16555   3.630   0.163   6.581
 5219SOL    HW116556   3.572   0.171   6.662
 5219SOL    HW216557   3.689   0.243   6.573
 5220SOL     OW16558   1.122   5.343   2.078
 5220SOL    HW116559   1.099   5.337   1.980
 5220SOL    HW216560   1.082   5.265   2.126
 5221SOL     OW16561   5.513   1.621   4.344
 5221SOL    HW116562   5.527   1.531   4.387
 5221SOL    HW216563   5.545   1.618   4.250
 5222SOL     OW16564   2.334   0.388   3.725
 5222SOL    HW116565   2.431   0.375   3.705
 5222SOL    HW216566   2.313   0.351   3.815
 5223SOL     OW16567   4.665   7.003   1.171
 5223SOL    HW116568   4.755   6.963   1.155
 5223SOL    HW216569   4.657   0.009   1.266
 5224SOL     OW16570   6.815   2.566   2.588
 5224SOL    HW116571   6.829   2.661   2.616
 5224SOL    HW216572   6.903   2.520   2.583
 5225SOL     OW16573   6.972   0.434   3.272
 5225SOL    HW116574   0.017   0.466   3.339
 5225SOL    HW216575   6.962   0.335   3.279
 5226SOL     OW16576   0.757   6.184   4.424
 5226SOL    HW116577   0.713   6.149   4.342
 5226SOL    HW216578   0.688   6.212   4.490
 5227SOL     OW16579   6.746   5.041   3.698
 5227SOL    HW116580   6.792   4.959   3.663
 5227SOL    HW216581   6.805   5.120   3.685
 5228SOL     OW16582   5.634   1.964   0.634
 5228SOL    HW116583   5.591   1.891   0.581
 5228SOL    HW216584   5.564   2.013   0.685
 5229SOL     OW16585   1.072   4.382   6.569
 5229SOL    HW116586   1.107   4.337   6.487
 5229SOL    HW216587   1.147   4.425   6.619
 5230SOL     OW16588   0.391   0.754   1.185
 5230SOL    HW116589   0.463   0.743   1.117
 5230SOL    HW216590   0.416   0.827   1.249
 5231SOL     OW16591   3.823   3.025   4.520
 5231SOL    HW116592   3.775   2.959   4.578
 5231SOL    HW216593   3.865   3.096   4.577
 5232SOL     OW16594   4.256   1.803   6.435
 5232SOL    HW116595   4.327   1.873   6.426
 5232SOL    HW216596   4.259   1.765   6.528
 5233SOL     OW16597   6.289   6.674   1.569
 5233SOL    HW116598   6.375   6.718   1.541
 5233SOL    HW216599   6.263   6.606   1.500
 5234SOL     OW16600   3.452   0.816   0.823
 5234SOL    HW116601   3.453   0.800   0.922
 5234SOL    HW216602   3.386   0.754   0.780
 5235SOL     OW16603   1.208   2.810   0.681
 5235SOL    HW116604   1.130   2.755   0.653
 5235SOL    HW216605   1.250   2.770   0.762
 5236SOL     OW16606   5.633   2.882   1.220
 5236SOL    HW116607   5.630   2.793   1.176
 5236SOL    HW216608   5.596   2.875   1.313
 5237SOL     OW16609   2.938   2.014   5.563
 5237SOL    HW116610   3.004   1.948   5.600
 5237SOL    HW216611   2.904   1.981   5.475
 5238SOL     OW16612   1.283   5.270   0.406
 5238SOL    HW116613   1.375   5.294   0.438
 5238SOL    HW216614   1.239   5.352   0.369
 5239SOL     OW16615   2.870   3.581   4.227
 5239SOL    HW116616   2.900   3.569   4.132
 5239SOL    HW216617   2.772   3.602   4.229
 5240SOL     OW16618   3.160   2.156   5.338
 5240SOL    HW116619   3.068   2.172   5.375
 5240SOL    HW216620   3.188   2.235   5.283
 5241SOL     OW16621   0.863   6.037   6.772
 5241SOL    HW116622   0.837   6.070   6.681
 5241SOL    HW216623   0.796   5.970   6.803
 5242SOL     OW16624   6.370   1.651   5.691
 5242SOL    HW116625   6.422   1.671   5.774
 5242SOL    HW216626   6.335   1.558   5.694
 5243SOL     OW16627   1.065   5.900   0.726
 5243SOL    HW116628   1.101   5.826   0.668
 5243SOL    HW216629   1.135   5.971   0.737
 5244SOL     OW16630   3.829   4.104   5.729
 5244SOL    HW116631   3.814   4.181   5.791
 5244SOL    HW216632   3.920   4.111   5.689
 5245SOL     OW16633   4.110   4.181   5.763
 5245SOL    HW116634   4.077   4.218   5.850
 5245SOL    HW216635   4.202   4.215   5.744
 5246SOL     OW16636   0.152   3.476   2.831
 5246SOL    HW116637   0.091   3.413   2.784
 5246SOL    HW216638   0.238   3.483   2.781
 5247SOL     OW16639   0.313   5.860   0.055
 5247SOL    HW116640   0.384   5.852   0.126
 5247SOL    HW216641   0.335   5.936   7.016
 5248SOL     OW16642   5.622   0.541   5.731
 5248SOL    HW116643   5.529   0.526   5.762
 5248SOL    HW216644   5.667   0.608   5.790
 5249SOL     OW16645   1.101   5.336   4.280
 5249SOL    HW116646   1.182   5.364   4.228
 5249SOL    HW216647   1.113   5.241   4.311
 5250SOL     OW16648   0.266   1.660   6.213
 5250SOL    HW116649   0.188   1.643   6.153
 5250SOL    HW216650   0.288   1.757   6.214
 5251SOL     OW16651   6.879   3.177   1.148
 5251SOL    HW116652   6.953   3.233   1.186
 5251SOL    HW216653   6.914   3.122   1.072
 5252SOL     OW16654   2.253   5.728   1.212
 5252SOL    HW116655   2.337   5.722   1.266
 5252SOL    HW216656   2.195   5.800   1.249
 5253SOL     OW16657   5.883   3.483   4.641
 5253SOL    HW116658   5.865   3.474   4.738
 5253SOL    HW216659   5.875   3.394   4.597
 5254SOL     OW16660   4.720   1.272   3.900
 5254SOL    HW116661   4.668   1.295   3.982
 5254SOL    HW216662   4.805   1.225   3.926
 5255SOL     OW16663   4.031   0.222   4.721
 5255SOL    HW116664   4.037   0.283   4.641
 5255SOL    HW216665   3.944   0.236   4.767
 5256SOL     OW16666   4.788   1.606   3.355
 5256SOL    HW116667   4.852   1.675   3.322
 5256SOL    HW216668   4.711   1.599   3.292
 5257SOL     OW16669   3.848   6.627   1.595
 5257SOL    HW116670   3.840   6.727   1.599
 5257SOL    HW216671   3.945   6.602   1.586
 5258SOL     OW16672   5.102   4.157   1.922
 5258SOL    HW116673   5.130   4.130   1.830
 5258SOL    HW216674   5.003   4.168   1.925
 5259SOL     OW16675   4.716   6.155   2.075
 5259SOL    HW116676   4.739   6.139   2.171
 5259SOL    HW216677   4.632   6.210   2.070
 5260SOL     OW16678   5.214   3.938   0.693
 5260SOL    HW116679   5.277   3.864   0.718
 5260SOL    HW216680   5.179   3.922   0.601
 5261SOL     OW16681   0.614   2.271   4.979
 5261SOL    HW116682   0.569   2.184   4.995
 5261SOL    HW216683   0.682   2.287   5.051
 5262SOL     OW16684   2.761   6.950   2.600
 5262SOL    HW116685   2.838   6.918   2.545
 5262SOL    HW216686   2.732   0.018   2.567
 5263SOL     OW16687   2.000   0.477   6.170
 5263SOL    HW116688   1.939   0.540   6.123
 5263SOL    HW216689   1.969   0.465   6.265
 5264SOL     OW16690   6.454   1.570   1.296
 5264SOL    HW116691   6.532   1.600   1.350
 5264SOL    HW216692   6.369   1.586   1.346
 5265SOL     OW16693   5.538   3.863   2.618
 5265SOL    HW116694   5.498   3.868   2.527
 5265SOL    HW216695   5.635   3.885   2.613
 5266SOL     OW16696   2.499   6.668   1.656
 5266SOL    HW116697   2.581   6.611   1.664
 5266SOL    HW216698   2.512   6.751   1.709
 5267SOL     OW16699   4.650   4.894   6.038
 5267SOL    HW116700   4.612   4.982   6.066
 5267SOL    HW216701   4.616   4.870   5.947
 5268SOL     OW16702   6.550   5.794   5.288
 5268SOL    HW116703   6.485   5.871   5.283
 5268SOL    HW216704   6.560   5.753   5.198
 5269SOL     OW16705   2.346   5.569   3.868
 5269SOL    HW116706   2.414   5.635   3.901
 5269SOL    HW216707   2.348   5.567   3.768
 5270SOL     OW16708   5.308   2.273   1.136
 5270SOL    HW116709   5.225   2.328   1.128
 5270SOL    HW216710   5.370   2.316   1.202
 5271SOL     OW16711   4.169   5.185   5.129
 5271SOL    HW116712   4.227   5.106   5.145
 5271SOL    HW216713   4.220   5.253   5.076
 5272SOL     OW16714   1.022   5.951   4.877
 5272SOL    HW116715   1.081   5.874   4.903
 5272SOL    HW216716   1.017   5.957   4.778
 5273SOL     OW16717   0.958   2.299   3.954
 5273SOL    HW116718   1.010   2.260   4.030
 5273SOL    HW216719   0.976   2.246   3.871
 5274SOL     OW16720   6.441   5.093   3.709
 5274SOL    HW116721   6.539   5.100   3.693
 5274SOL    HW216722   6.416   4.996   3.721
 5275SOL     OW16723   3.448   0.130   6.357
 5275SOL    HW116724   3.512   0.118   6.434
 5275SOL    HW216725   3.474   0.069   6.283
 5276SOL     OW16726   0.134   6.585   0.776
 5276SOL    HW116727   0.116   6.574   0.678
 5276SOL    HW216728   0.211   6.648   0.789
 5277SOL     OW16729   2.068   1.780   3.286
 5277SOL    HW116730   2.035   1.775   3.192
 5277SOL    HW216731   2.038   1.700   3.337
 5278SOL     OW16732   5.887   6.427   6.306
 5278SOL    HW116733   5.880   6.396   6.212
 5278SOL    HW216734   5.926   6.519   6.309
 5279SOL     OW16735   1.124   5.619   6.361
 5279SOL    HW116736   1.110   5.564   6.279
 5279SOL    HW216737   1.162   5.708   6.335
 5280SOL     OW16738   3.776   6.098   5.194
 5280SOL    HW116739   3.852   6.135   5.248
 5280SOL    HW216740   3.749   6.165   5.125
 5281SOL     OW16741   1.215   0.807   4.793
 5281SOL    HW116742   1.117   0.816   4.778
 5281SOL    HW216743   1.236   0.714   4.825
 5282SOL     OW16744   2.002   0.186   2.463
 5282SOL    HW116745   1.962   0.094   2.469
 5282SOL    HW216746   1.996   0.218   2.368
 5283SOL     OW16747   1.387   0.689   3.870
 5283SOL    HW116748   1.385   0.692   3.970
 5283SOL    HW216749   1.434   0.770   3.835
 5284SOL     OW16750   4.961   2.376   2.358
 5284SOL    HW116751   4.879   2.342   2.312
 5284SOL    HW216752   5.031   2.304   2.357
 5285SOL     OW16753   0.884   3.242   3.269
 5285SOL    HW116754   0.869   3.194   3.356
 5285SOL    HW216755   0.960   3.306   3.280
 5286SOL     OW16756   6.450   3.614   0.931
 5286SOL    HW116757   6.357   3.626   0.895
 5286SOL    HW216758   6.513   3.668   0.876
 5287SOL     OW16759   2.899   5.266   1.758
 5287SOL    HW116760   2.865   5.311   1.676
 5287SOL    HW216761   2.844   5.294   1.837
 5288SOL     OW16762   4.758   0.151   2.286
 5288SOL    HW116763   4.671   0.101   2.288
 5288SOL    HW216764   4.749   0.229   2.224
 5289SOL     OW16765   2.052   5.108   0.090
 5289SOL    HW116766   2.055   5.010   0.108
 5289SOL    HW216767   2.145   5.142   0.075
 5290SOL     OW16768   1.661   4.415   5.489
 5290SOL    HW116769   1.757   4.425   5.516
 5290SOL    HW216770   1.618   4.344   5.545
 5291SOL     OW16771   2.972   4.549   5.614
 5291SOL    HW116772   2.927   4.548   5.524
 5291SOL    HW216773   3.003   4.457   5.637
 5292SOL     OW16774   6.026   3.683   5.825
 5292SOL    HW116775   6.117   3.672   5.786
 5292SOL    HW216776   6.033   3.704   5.922
 5293SOL     OW16777   2.062   5.798   4.463
 5293SOL    HW116778   2.136   5.860   4.489
 5293SOL    HW216779   2.039   5.811   4.367
 5294SOL     OW16780   4.411   1.341   5.746
 5294SOL    HW116781   4.464   1.287   5.681
 5294SOL    HW216782   4.381   1.425   5.701
 5295SOL     OW16783   3.904   0.829   3.520
 5295SOL    HW116784   3.837   0.887   3.474
 5295SOL    HW216785   3.894   0.734   3.488
 5296SOL     OW16786   3.583   3.808   0.349
 5296SOL    HW116787   3.576   3.897   0.303
 5296SOL    HW216788   3.675   3.771   0.334
 5297SOL     OW16789   2.360   3.131   0.912
 5297SOL    HW116790   2.287   3.077   0.954
 5297SOL    HW216791   2.335   3.155   0.818
 5298SOL     OW16792   2.410   6.284   6.763
 5298SOL    HW116793   2.493   6.338   6.778
 5298SOL    HW216794   2.398   6.219   6.837
 5299SOL     OW16795   3.226   2.205   0.962
 5299SOL    HW116796   3.156   2.203   1.033
 5299SOL    HW216797   3.263   2.112   0.950
 5300SOL     OW16798   0.808   4.928   0.938
 5300SOL    HW116799   0.887   4.931   0.999
 5300SOL    HW216800   0.756   5.013   0.947
 5301SOL     OW16801   4.181   0.443   6.702
 5301SOL    HW116802   4.108   0.441   6.771
 5301SOL    HW216803   4.203   0.538   6.680
 5302SOL     OW16804   5.396   6.499   3.616
 5302SOL    HW116805   5.427   6.442   3.540
 5302SOL    HW216806   5.471   6.559   3.645
 5303SOL     OW16807   0.282   5.067   5.335
 5303SOL    HW116808   0.339   5.001   5.382
 5303SOL    HW216809   0.208   5.098   5.396
 5304SOL     OW16810   5.781   1.056   0.479
 5304SOL    HW116811   5.789   1.076   0.382
 5304SOL    HW216812   5.855   0.994   0.507
 5305SOL     OW16813   0.936   5.571   2.690
 5305SOL    HW116814   0.893   5.661   2.701
 5305SOL    HW216815   1.006   5.559   2.761
 5306SOL     OW16816   0.282   4.469   5.700
 5306SOL    HW116817   0.349   4.399   5.724
 5306SOL    HW216818   0.295   4.549   5.758
 5307SOL     OW16819   4.516   1.982   0.521
 5307SOL    HW116820   4.517   2.079   0.499
 5307SOL    HW216821   4.464   1.932   0.452
 5308SOL     OW16822   1.191   4.747   2.148
 5308SOL    HW116823   1.149   4.668   2.105
 5308SOL    HW216824   1.266   4.718   2.206
 5309SOL     OW16825   3.479   5.350   2.202
 5309SOL    HW116826   3.524   5.261   2.191
 5309SOL    HW216827   3.427   5.350   2.288
 5310SOL     OW16828   6.490   3.964   2.213
 5310SOL    HW116829   6.547   4.040   2.245
 5310SOL    HW216830   6.395   3.994   2.206
 5311SOL     OW16831   5.410   6.981   6.849
 5311SOL    HW116832   5.484   0.001   6.901
 5311SOL    HW216833   5.388   6.892   6.888
 5312SOL     OW16834   0.163   5.772   1.907
 5312SOL    HW116835   0.182   5.720   1.823
 5312SOL    HW216836   0.214   5.732   1.983
 5313SOL     OW16837   0.740   4.196   5.755
 5313SOL    HW116838   0.749   4.106   5.797
 5313SOL    HW216839   0.762   4.190   5.658
 5314SOL     OW16840   4.142   6.892   0.529
 5314SOL    HW116841   4.182   6.944   0.604
 5314SOL    HW216842   4.179   6.799   0.530
 5315SOL     OW16843   4.734   2.813   2.897
 5315SOL    HW116844   4.822   2.821   2.943
 5315SOL    HW216845   4.737   2.861   2.809
 5316SOL     OW16846   1.369   3.789   5.627
 5316SOL    HW116847   1.276   3.825   5.619
 5316SOL    HW216848   1.385   3.758   5.721
 5317SOL     OW16849   6.230   1.783   5.996
 5317SOL    HW116850   6.175   1.775   5.914
 5317SOL    HW216851   6.224   1.876   6.033
 5318SOL     OW16852   0.287   2.703   0.584
 5318SOL    HW116853   0.233   2.784   0.606
 5318SOL    HW216854   0.384   2.728   0.579
 5319SOL     OW16855   4.443   6.167   1.115
 5319SOL    HW116856   4.361   6.115   1.094
 5319SOL    HW216857   4.492   6.187   1.030
 5320SOL     OW16858   4.161   5.293   0.997
 5320SOL    HW116859   4.178   5.391   0.995
 5320SOL    HW216860   4.118   5.268   1.083
 5321SOL     OW16861   2.437   4.565   4.737
 5321SOL    HW116862   2.363   4.502   4.763
 5321SOL    HW216863   2.462   4.549   4.641
 5322SOL     OW16864   5.606   6.641   6.983
 5322SOL    HW116865   5.512   6.640   6.949
 5322SOL    HW216866   5.612   6.582   0.042
 5323SOL     OW16867   3.814   1.154   5.515
 5323SOL    HW116868   3.911   1.130   5.516
 5323SOL    HW216869   3.768   1.105   5.442
 5324SOL     OW16870   3.397   2.349   0.332
 5324SOL    HW116871   3.461   2.288   0.379
 5324SOL    HW216872   3.355   2.411   0.399
 5325SOL     OW16873   3.768   1.172   4.625
 5325SOL    HW116874   3.727   1.172   4.534
 5325SOL    HW216875   3.827   1.092   4.635
 5326SOL     OW16876   6.768   5.528   3.268
 5326SOL    HW116877   6.749   5.431   3.284
 5326SOL    HW216878   6.853   5.537   3.216
 5327SOL     OW16879   5.897   2.443   5.109
 5327SOL    HW116880   5.876   2.420   5.014
 5327SOL    HW216881   5.971   2.510   5.111
 5328SOL     OW16882   3.078   3.911   6.254
 5328SOL    HW116883   3.131   3.945   6.332
 5328SOL    HW216884   3.125   3.936   6.169
 5329SOL     OW16885   0.722   5.270   6.731
 5329SOL    HW116886   0.651   5.339   6.720
 5329SOL    HW216887   0.688   5.195   6.787
 5330SOL     OW16888   3.684   4.170   7.001
 5330SOL    HW116889   3.615   4.176   6.929
 5330SOL    HW216890   3.767   4.218   6.971
 5331SOL     OW16891   5.781   1.967   6.380
 5331SOL    HW116892   5.728   2.016   6.311
 5331SOL    HW216893   5.746   1.987   6.471
 5332SOL     OW16894   1.239   3.165   1.473
 5332SOL    HW116895   1.260   3.067   1.471
 5332SOL    HW216896   1.263   3.203   1.562
 5333SOL     OW16897   1.129   1.073   2.876
 5333SOL    HW116898   1.107   1.046   2.782
 5333SOL    HW216899   1.212   1.025   2.906
 5334SOL     OW16900   3.161   0.759   4.462
 5334SOL    HW116901   3.186   0.760   4.559
 5334SOL    HW216902   3.081   0.701   4.449
 5335SOL     OW16903   0.114   6.042   0.548
 5335SOL    HW116904   0.145   6.108   0.616
 5335SOL    HW216905   0.194   5.997   0.507
 5336SOL     OW16906   2.132   3.402   2.612
 5336SOL    HW116907   2.206   3.338   2.593
 5336SOL    HW216908   2.094   3.384   2.703
 5337SOL     OW16909   4.978   4.313   1.178
 5337SOL    HW116910   4.969   4.233   1.119
 5337SOL    HW216911   4.933   4.296   1.265
 5338SOL     OW16912   5.770   1.588   0.359
 5338SOL    HW116913   5.811   1.550   0.276
 5338SOL    HW216914   5.839   1.594   0.431
 5339SOL     OW16915   6.885   1.673   3.791
 5339SOL    HW116916   6.926   1.671   3.882
 5339SOL    HW216917   6.952   1.642   3.724
 5340SOL     OW16918   5.600   4.403   0.850
 5340SOL    HW116919   5.653   4.474   0.804
 5340SOL    HW216920   5.661   4.346   0.905
 5341SOL     OW16921   3.836   2.534   6.723
 5341SOL    HW116922   3.744   2.504   6.697
 5341SOL    HW216923   3.870   2.599   6.655
 5342SOL     OW16924   3.765   0.708   4.439
 5342SOL    HW116925   3.728   0.781   4.382
 5342SOL    HW216926   3.736   0.720   4.533
 5343SOL     OW16927   3.417   3.577   4.179
 5343SOL    HW116928   3.318   3.591   4.171
 5343SOL    HW216929   3.444   3.592   4.274
 5344SOL     OW16930   2.179   2.015   2.466
 5344SOL    HW116931   2.191   2.109   2.497
 5344SOL    HW216932   2.101   2.010   2.404
 5345SOL     OW16933   4.136   6.584   1.704
 5345SOL    HW116934   4.135   6.516   1.630
 5345SOL    HW216935   4.230   6.596   1.736
 5346SOL     OW16936   3.177   6.320   3.931
 5346SOL    HW116937   3.095   6.350   3.981
 5346SOL    HW216938   3.179   6.220   3.929
 5347SOL     OW16939   0.086   2.465   1.733
 5347SOL    HW116940   0.078   2.530   1.808
 5347SOL    HW216941   0.178   2.471   1.693
 5348SOL     OW16942   0.507   1.243   0.623
 5348SOL    HW116943   0.549   1.168   0.571
 5348SOL    HW216944   0.579   1.298   0.665
 5349SOL     OW16945   1.055   2.203   0.199
 5349SOL    HW116946   1.086   2.282   0.146
 5349SOL    HW216947   1.089   2.120   0.156
 5350SOL     OW16948   2.125   0.292   5.988
 5350SOL    HW116949   2.045   0.327   6.038
 5350SOL    HW216950   2.152   0.358   5.918
 5351SOL     OW16951   5.433   5.660   2.068
 5351SOL    HW116952   5.446   5.695   2.160
 5351SOL    HW216953   5.407   5.563   2.073
 5352SOL     OW16954   1.564   5.641   4.458
 5352SOL    HW116955   1.632   5.704   4.420
 5352SOL    HW216956   1.473   5.682   4.449
 5353SOL     OW16957   3.096   5.811   4.582
 5353SOL    HW116958   3.121   5.717   4.559
 5353SOL    HW216959   3.003   5.829   4.550
 5354SOL     OW16960   1.735   5.123   1.999
 5354SOL    HW116961   1.707   5.027   1.996
 5354SOL    HW216962   1.666   5.177   2.046
 5355SOL     OW16963   4.683   2.285   4.008
 5355SOL    HW116964   4.761   2.234   3.973
 5355SOL    HW216965   4.607   2.281   3.943
 5356SOL     OW16966   5.907   4.370   1.680
 5356SOL    HW116967   5.829   4.329   1.632
 5356SOL    HW216968   5.992   4.331   1.644
 5357SOL     OW16969   3.208   0.077   1.018
 5357SOL    HW116970   3.283   0.021   1.054
 5357SOL    HW216971   3.226   0.173   1.038
 5358SOL     OW16972   3.942   1.790   0.804
 5358SOL    HW116973   4.025   1.840   0.780
 5358SOL    HW216974   3.948   1.759   0.899
 5359SOL     OW16975   1.997   1.706   6.957
 5359SOL    HW116976   2.019   1.618   6.915
 5359SOL    HW216977   1.916   1.744   6.914
 5360SOL     OW16978   4.113   6.502   4.675
 5360SOL    HW116979   4.016   6.478   4.674
 5360SOL    HW216980   4.132   6.561   4.754
 5361SOL     OW16981   2.131   6.840   4.328
 5361SOL    HW116982   2.038   6.805   4.331
 5361SOL    HW216983   2.169   6.843   4.420
 5362SOL     OW16984   5.103   4.274   3.732
 5362SOL    HW116985   5.175   4.263   3.663
 5362SOL    HW216986   5.127   4.221   3.814
 5363SOL     OW16987   0.858   6.088   6.347
 5363SOL    HW116988   0.837   5.998   6.385
 5363SOL    HW216989   0.888   6.077   6.252
 5364SOL     OW16990   6.922   5.867   1.457
 5364SOL    HW116991   6.824   5.856   1.475
 5364SOL    HW216992   6.944   5.965   1.454
 5365SOL     OW16993   3.844   3.168   6.918
 5365SOL    HW116994   3.923   3.110   6.937
 5365SOL    HW216995   3.850   3.251   6.974
 5366SOL     OW16996   5.119   5.183   1.897
 5366SOL    HW116997   5.217   5.166   1.897
 5366SOL    HW216998   5.071   5.106   1.855
 5367SOL     OW16999   0.383   5.276   0.894
 5367SOL    HW117000   0.381   5.373   0.873
 5367SOL    HW217001   0.310   5.229   0.845
 5368SOL     OW17002   5.094   0.962   3.003
 5368SOL    HW117003   5.189   0.964   3.034
 5368SOL    HW217004   5.037   1.014   3.068
 5369SOL     OW17005   3.075   6.333   3.535
 5369SOL    HW117006   2.982   6.369   3.534
 5369SOL    HW217007   3.137   6.400   3.493
 5370SOL     OW17008   3.912   3.100   1.455
 5370SOL    HW117009   3.865   3.155   1.387
 5370SOL    HW217010   3.849   3.032   1.492
 5371SOL     OW17011   1.828   3.417   4.112
 5371SOL    HW117012   1.802   3.427   4.016
 5371SOL    HW217013   1.925   3.392   4.118
 5372SOL     OW17014   2.187   5.623   2.887
 5372SOL    HW117015   2.102   5.637   2.937
 5372SOL    HW217016   2.253   5.577   2.946
 5373SOL     OW17017   3.038   5.042   4.013
 5373SOL    HW117018   3.103   5.000   3.949
 5373SOL    HW217019   2.997   4.971   4.070
 5374SOL     OW17020   1.014   3.823   6.687
 5374SOL    HW117021   1.009   3.726   6.667
 5374SOL    HW217022   1.095   3.862   6.644
 5375SOL     OW17023   1.789   4.389   4.791
 5375SOL    HW117024   1.819   4.469   4.739
 5375SOL    HW217025   1.693   4.400   4.818
 5376SOL     OW17026   1.843   2.845   0.988
 5376SOL    HW117027   1.879   2.881   0.902
 5376SOL    HW217028   1.799   2.756   0.971
 5377SOL     OW17029   6.889   6.890   1.538
 5377SOL    HW117030   6.899   6.936   1.627
 5377SOL    HW217031   6.965   6.827   1.525
 5378SOL     OW17032   6.916   0.442   1.413
 5378SOL    HW117033   6.835   0.476   1.367
 5378SOL    HW217034   6.895   0.423   1.509
 5379SOL     OW17035   0.817   5.268   5.026
 5379SOL    HW117036   0.890   5.322   4.984
 5379SOL    HW217037   0.797   5.189   4.968
 5380SOL     OW17038   1.983   0.964   3.215
 5380SOL    HW117039   1.888   0.987   3.237
 5380SOL    HW217040   1.992   0.864   3.207
 5381SOL     OW17041   6.758   4.071   0.642
 5381SOL    HW117042   6.765   4.056   0.543
 5381SOL    HW217043   6.810   4.001   0.690
 5382SOL     OW17044   2.952   0.250   2.023
 5382SOL    HW117045   2.904   0.266   1.937
 5382SOL    HW217046   3.039   0.206   2.005
 5383SOL     OW17047   2.553   2.357   5.228
 5383SOL    HW117048   2.473   2.403   5.267
 5383SOL    HW217049   2.576   2.278   5.283
 5384SOL     OW17050   6.236   0.564   4.033
 5384SOL    HW117051   6.195   0.593   4.120
 5384SOL    HW217052   6.198   0.618   3.958
 5385SOL     OW17053   2.979   3.449   3.049
 5385SOL    HW117054   2.970   3.523   3.117
 5385SOL    HW217055   2.961   3.486   2.958
 5386SOL     OW17056   4.363   0.063   4.424
 5386SOL    HW117057   4.306   7.014   4.384
 5386SOL    HW217058   4.447   0.022   4.460
 5387SOL     OW17059   2.581   5.774   3.481
 5387SOL    HW117060   2.584   5.720   3.397
 5387SOL    HW217061   2.502   5.836   3.478
 5388SOL     OW17062   5.452   7.015   3.262
 5388SOL    HW117063   5.353   0.000   3.277
 5388SOL    HW217064   5.499   0.066   3.313
 5389SOL     OW17065   5.259   1.043   1.650
 5389SOL    HW117066   5.309   0.996   1.576
 5389SOL    HW217067   5.232   1.134   1.618
 5390SOL     OW17068   4.258   4.786   3.905
 5390SOL    HW117069   4.301   4.875   3.922
 5390SOL    HW217070   4.302   4.743   3.826
 5391SOL     OW17071   1.825   2.440   0.530
 5391SOL    HW117072   1.903   2.395   0.573
 5391SOL    HW217073   1.748   2.443   0.594
 5392SOL     OW17074   5.834   3.530   0.795
 5392SOL    HW117075   5.905   3.521   0.725
 5392SOL    HW217076   5.802   3.624   0.799
 5393SOL     OW17077   6.065   6.468   6.595
 5393SOL    HW117078   6.015   6.515   6.667
 5393SOL    HW217079   6.088   6.533   6.522
 5394SOL     OW17080   6.913   4.002   6.596
 5394SOL    HW117081   6.826   4.017   6.644
 5394SOL    HW217082   6.987   3.995   6.662
 5395SOL     OW17083   5.000   1.217   1.801
 5395SOL    HW117084   5.030   1.124   1.779
 5395SOL    HW217085   5.041   1.245   1.888
 5396SOL     OW17086   5.111   3.905   2.782
 5396SOL    HW117087   5.082   4.001   2.783
 5396SOL    HW217088   5.054   3.851   2.843
 5397SOL     OW17089   6.531   2.517   1.767
 5397SOL    HW117090   6.469   2.438   1.761
 5397SOL    HW217091   6.487   2.590   1.819
 5398SOL     OW17092   3.276   1.796   2.470
 5398SOL    HW117093   3.274   1.753   2.379
 5398SOL    HW217094   3.348   1.753   2.525
 5399SOL     OW17095   2.551   6.214   0.032
 5399SOL    HW117096   2.558   6.205   0.131
 5399SOL    HW217097   2.640   6.196   7.013
 5400SOL     OW17098   2.516   4.056   0.706
 5400SOL    HW117099   2.457   4.035   0.784
 5400SOL    HW217100   2.491   3.998   0.628
 5401SOL     OW17101   5.603   3.179   1.634
 5401SOL    HW117102   5.688   3.191   1.584
 5401SOL    HW217103   5.528   3.220   1.582
 5402SOL     OW17104   2.379   5.464   1.457
 5402SOL    HW117105   2.352   5.469   1.553
 5402SOL    HW217106   2.458   5.403   1.447
 5403SOL     OW17107   5.859   3.249   6.063
 5403SOL    HW117108   5.786   3.223   5.999
 5403SOL    HW217109   5.916   3.169   6.082
 5404SOL     OW17110   0.762   1.347   3.013
 5404SOL    HW117111   0.792   1.263   2.969
 5404SOL    HW217112   0.751   1.332   3.111
 5405SOL     OW17113   6.299   5.440   0.303
 5405SOL    HW117114   6.322   5.532   0.271
 5405SOL    HW217115   6.329   5.429   0.398
 5406SOL     OW17116   2.282   1.929   6.562
 5406SOL    HW117117   2.211   1.999   6.571
 5406SOL    HW217118   2.319   1.907   6.652
 5407SOL     OW17119   4.541   3.068   1.045
 5407SOL    HW117120   4.573   2.988   0.993
 5407SOL    HW217121   4.442   3.063   1.055
 5408SOL     OW17122   2.876   1.407   6.364
 5408SOL    HW117123   2.799   1.358   6.403
 5408SOL    HW217124   2.847   1.498   6.334
 5409SOL     OW17125   5.127   0.665   3.652
 5409SOL    HW117126   5.078   0.742   3.692
 5409SOL    HW217127   5.100   0.655   3.556
 5410SOL     OW17128   2.847   2.141   1.647
 5410SOL    HW117129   2.822   2.193   1.728
 5410SOL    HW217130   2.770   2.085   1.618
 5411SOL     OW17131   6.527   5.363   5.329
 5411SOL    HW117132   6.508   5.427   5.403
 5411SOL    HW217133   6.442   5.340   5.282
 5412SOL     OW17134   4.900   1.707   0.564
 5412SOL    HW117135   4.850   1.793   0.571
 5412SOL    HW217136   4.917   1.672   0.656
 5413SOL     OW17137   2.837   1.902   1.168
 5413SOL    HW117138   2.817   1.897   1.070
 5413SOL    HW217139   2.823   1.996   1.200
 5414SOL     OW17140   4.991   1.975   4.892
 5414SOL    HW117141   4.927   1.945   4.963
 5414SOL    HW217142   4.943   1.978   4.804
 5415SOL     OW17143   1.087   5.711   1.133
 5415SOL    HW117144   1.060   5.693   1.228
 5415SOL    HW217145   1.013   5.682   1.072
 5416SOL     OW17146   5.004   5.361   5.962
 5416SOL    HW117147   4.967   5.275   5.997
 5416SOL    HW217148   4.928   5.421   5.936
 5417SOL     OW17149   4.046   6.829   5.328
 5417SOL    HW117150   3.974   6.807   5.262
 5417SOL    HW217151   4.065   6.927   5.324
 5418SOL     OW17152   3.422   6.638   3.819
 5418SOL    HW117153   3.335   6.594   3.797
 5418SOL    HW217154   3.447   6.700   3.745
 5419SOL     OW17155   3.816   5.181   0.347
 5419SOL    HW117156   3.743   5.246   0.367
 5419SOL    HW217157   3.902   5.229   0.337
 5420SOL     OW17158   1.821   2.757   2.636
 5420SOL    HW117159   1.722   2.746   2.639
 5420SOL    HW217160   1.844   2.854   2.640
 5421SOL     OW17161   2.223   2.925   2.256
 5421SOL    HW117162   2.317   2.951   2.277
 5421SOL    HW217163   2.164   3.005   2.261
 5422SOL     OW17164   0.572   4.967   0.519
 5422SOL    HW117165   0.568   4.900   0.592
 5422SOL    HW217166   0.631   5.043   0.547
 5423SOL     OW17167   6.414   3.169   0.326
 5423SOL    HW117168   6.386   3.099   0.392
 5423SOL    HW217169   6.452   3.126   0.245
 5424SOL     OW17170   5.702   2.897   3.584
 5424SOL    HW117171   5.684   2.799   3.579
 5424SOL    HW217172   5.794   2.916   3.548
 5425SOL     OW17173   4.304   0.904   4.283
 5425SOL    HW117174   4.277   0.909   4.187
 5425SOL    HW217175   4.402   0.889   4.290
 5426SOL     OW17176   6.609   5.863   4.141
 5426SOL    HW117177   6.560   5.800   4.081
 5426SOL    HW217178   6.549   5.893   4.215
 5427SOL     OW17179   4.866   4.998   6.774
 5427SOL    HW117180   4.957   5.034   6.795
 5427SOL    HW217181   4.826   5.052   6.701
 5428SOL     OW17182   0.040   6.431   1.477
 5428SOL    HW117183   0.139   6.423   1.468
 5428SOL    HW217184   0.018   6.482   1.560
 5429SOL     OW17185   2.106   2.192   6.352
 5429SOL    HW117186   2.074   2.286   6.369
 5429SOL    HW217187   2.095   2.138   6.436
 5430SOL     OW17188   0.173   2.922   6.238
 5430SOL    HW117189   0.095   2.985   6.241
 5430SOL    HW217190   0.238   2.947   6.309
 5431SOL     OW17191   2.905   6.326   0.228
 5431SOL    HW117192   3.004   6.312   0.235
 5431SOL    HW217193   2.861   6.293   0.312
 5432SOL     OW17194   5.328   0.252   6.887
 5432SOL    HW117195   5.229   0.268   6.894
 5432SOL    HW217196   5.350   0.165   6.931
 5433SOL     OW17197   0.230   1.849   4.663
 5433SOL    HW117198   0.310   1.892   4.705
 5433SOL    HW217199   0.214   1.760   4.705
 5434SOL     OW17200   3.206   0.580   5.485
 5434SOL    HW117201   3.163   0.502   5.530
 5434SOL    HW217202   3.252   0.637   5.554
 5435SOL     OW17203   6.070   0.443   2.219
 5435SOL    HW117204   6.152   0.422   2.165
 5435SOL    HW217205   6.095   0.447   2.316
 5436SOL     OW17206   5.201   3.609   3.994
 5436SOL    HW117207   5.110   3.577   4.019
 5436SOL    HW217208   5.199   3.647   3.901
 5437SOL     OW17209   2.405   4.266   0.314
 5437SOL    HW117210   2.329   4.312   0.269
 5437SOL    HW217211   2.475   4.242   0.247
 5438SOL     OW17212   6.649   2.874   2.892
 5438SOL    HW117213   6.614   2.931   2.817
 5438SOL    HW217214   6.649   2.927   2.977
 5439SOL     OW17215   0.763   2.342   0.600
 5439SOL    HW117216   0.666   2.316   0.604
 5439SOL    HW217217   0.819   2.262   0.581
 5440SOL     OW17218   0.928   1.281   1.013
 5440SOL    HW117219   0.982   1.263   0.930
 5440SOL    HW217220   0.990   1.301   1.088
 5441SOL     OW17221   4.673   2.051   3.016
 5441SOL    HW117222   4.615   1.979   3.053
 5441SOL    HW217223   4.685   2.038   2.918
 5442SOL     OW17224   2.882   6.027   3.915
 5442SOL    HW117225   2.937   5.957   3.960
 5442SOL    HW217226   2.938   6.078   3.850
 5443SOL     OW17227   3.185   0.614   4.024
 5443SOL    HW117228   3.252   0.678   4.063
 5443SOL    HW217229   3.155   0.647   3.935
 5444SOL     OW17230   1.400   0.395   4.236
 5444SOL    HW117231   1.432   0.489   4.246
 5444SOL    HW217232   1.301   0.392   4.248
 5445SOL     OW17233   5.957   3.873   3.546
 5445SOL    HW117234   5.991   3.808   3.478
 5445SOL    HW217235   6.015   3.955   3.545
 5446SOL     OW17236   6.367   4.882   4.907
 5446SOL    HW117237   6.411   4.797   4.878
 5446SOL    HW217238   6.398   4.957   4.849
 5447SOL     OW17239   3.173   2.379   6.946
 5447SOL    HW117240   3.203   2.334   6.862
 5447SOL    HW217241   3.251   2.423   6.991
 5448SOL     OW17242   4.432   3.079   5.356
 5448SOL    HW117243   4.426   3.047   5.451
 5448SOL    HW217244   4.344   3.066   5.311
 5449SOL     OW17245   1.434   3.077   6.120
 5449SOL    HW117246   1.437   3.106   6.024
 5449SOL    HW217247   1.527   3.066   6.155
 5450SOL     OW17248   1.585   0.353   1.623
 5450SOL    HW117249   1.595   0.254   1.614
 5450SOL    HW217250   1.655   0.399   1.570
 5451SOL     OW17251   1.761   6.361   3.408
 5451SOL    HW117252   1.776   6.276   3.357
 5451SOL    HW217253   1.843   6.384   3.460
 5452SOL     OW17254   2.064   4.847   0.158
 5452SOL    HW117255   2.157   4.833   0.190
 5452SOL    HW217256   2.002   4.785   0.207
 5453SOL     OW17257   5.661   4.249   1.068
 5453SOL    HW117258   5.747   4.198   1.072
 5453SOL    HW217259   5.584   4.185   1.068
 5454SOL     OW17260   0.100   4.026   6.772
 5454SOL    HW117261   0.132   3.989   6.860
 5454SOL    HW217262   0.085   4.124   6.781
 5455SOL     OW17263   6.239   3.618   0.236
 5455SOL    HW117264   6.219   3.657   0.146
 5455SOL    HW217265   6.244   3.518   0.228
 5456SOL     OW17266   3.510   6.691   0.008
 5456SOL    HW117267   3.477   6.761   0.071
 5456SOL    HW217268   3.527   6.731   6.940
 5457SOL     OW17269   5.780   2.322   0.165
 5457SOL    HW117270   5.811   2.362   0.079
 5457SOL    HW217271   5.785   2.392   0.237
 5458SOL     OW17272   0.357   4.611   6.796
 5458SOL    HW117273   0.302   4.694   6.805
 5458SOL    HW217274   0.337   4.550   6.873
 5459SOL     OW17275   2.331   4.472   0.021
 5459SOL    HW117276   2.280   4.529   6.979
 5459SOL    HW217277   2.380   4.530   0.086
 5460SOL     OW17278   2.623   6.701   2.625
 5460SOL    HW117279   2.635   6.668   2.719
 5460SOL    HW217280   2.649   6.797   2.620
 5461SOL     OW17281   5.953   6.604   5.243
 5461SOL    HW117282   6.026   6.644   5.298
 5461SOL    HW217283   5.865   6.623   5.286
 5462SOL     OW17284   0.684   0.730   7.021
 5462SOL    HW117285   0.737   0.680   6.953
 5462SOL    HW217286   0.688   0.828   7.002
 5463SOL     OW17287   6.258   2.333   0.188
 5463SOL    HW117288   6.280   2.430   0.184
 5463SOL    HW217289   6.183   2.318   0.252
 5464SOL     OW17290   1.435   0.695   4.147
 5464SOL    HW117291   1.528   0.663   4.130
 5464SOL    HW217292   1.438   0.788   4.184
 5465SOL     OW17293   3.698   6.654   3.333
 5465SOL    HW117294   3.679   6.562   3.368
 5465SOL    HW217295   3.752   6.705   3.400
 5466SOL     OW17296   5.832   4.215   5.333
 5466SOL    HW117297   5.775   4.173   5.262
 5466SOL    HW217298   5.776   4.234   5.414
 5467SOL     OW17299   5.118   2.372   3.001
 5467SOL    HW117300   5.052   2.301   3.025
 5467SOL    HW217301   5.097   2.407   2.909
 5468SOL     OW17302   4.752   2.129   4.492
 5468SOL    HW117303   4.742   2.220   4.451
 5468SOL    HW217304   4.666   2.079   4.482
 5469SOL     OW17305   3.929   4.704   0.033
 5469SOL    HW117306   3.976   4.634   7.000
 5469SOL    HW217307   3.993   4.777   0.056
 5470SOL     OW17308   2.619   5.617   3.266
 5470SOL    HW117309   2.693   5.572   3.317
 5470SOL    HW217310   2.595   5.561   3.186
 5471SOL     OW17311   5.362   0.004   2.097
 5471SOL    HW117312   5.443   0.024   2.153
 5471SOL    HW217313   5.381   6.949   2.036
 5472SOL     OW17314   3.660   3.447   5.889
 5472SOL    HW117315   3.755   3.429   5.864
 5472SOL    HW217316   3.657   3.487   5.980
 5473SOL     OW17317   0.701   3.604   3.331
 5473SOL    HW117318   0.679   3.511   3.300
 5473SOL    HW217319   0.632   3.634   3.397
 5474SOL     OW17320   1.333   4.309   3.872
 5474SOL    HW117321   1.417   4.358   3.847
 5474SOL    HW217322   1.278   4.365   3.933
 5475SOL     OW17323   2.381   2.294   0.552
 5475SOL    HW117324   2.350   2.364   0.616
 5475SOL    HW217325   2.311   2.279   0.483
 5476SOL     OW17326   2.583   3.755   6.255
 5476SOL    HW117327   2.628   3.812   6.324
 5476SOL    HW217328   2.549   3.814   6.181
 5477SOL     OW17329   1.878   3.518   3.572
 5477SOL    HW117330   1.967   3.494   3.610
 5477SOL    HW217331   1.876   3.615   3.549
 5478SOL     OW17332   4.769   5.066   5.533
 5478SOL    HW117333   4.676   5.103   5.532
 5478SOL    HW217334   4.779   4.999   5.459
 5479SOL     OW17335   4.976   1.111   5.856
 5479SOL    HW117336   4.953   1.096   5.760
 5479SOL    HW217337   4.923   1.048   5.913
 5480SOL     OW17338   0.258   3.533   3.508
 5480SOL    HW117339   0.288   3.443   3.476
 5480SOL    HW217340   0.201   3.576   3.438
 5481SOL     OW17341   3.687   0.706   4.056
 5481SOL    HW117342   3.652   0.767   4.127
 5481SOL    HW217343   3.781   0.681   4.079
 5482SOL     OW17344   3.766   4.446   1.707
 5482SOL    HW117345   3.712   4.363   1.692
 5482SOL    HW217346   3.706   4.517   1.744
 5483SOL     OW17347   0.472   2.975   5.800
 5483SOL    HW117348   0.523   3.045   5.851
 5483SOL    HW217349   0.406   2.931   5.861
 5484SOL     OW17350   4.786   0.815   5.040
 5484SOL    HW117351   4.708   0.856   5.086
 5484SOL    HW217352   4.775   0.715   5.037
 5485SOL     OW17353   3.976   0.264   5.459
 5485SOL    HW117354   3.900   0.268   5.395
 5485SOL    HW217355   3.945   0.223   5.545
 5486SOL     OW17356   2.853   5.964   5.386
 5486SOL    HW117357   2.767   5.974   5.436
 5486SOL    HW217358   2.882   6.054   5.351
 5487SOL     OW17359   3.016   4.066   6.694
 5487SOL    HW117360   3.089   4.055   6.626
 5487SOL    HW217361   3.011   4.162   6.722
 5488SOL     OW17362   6.993   1.108   0.551
 5488SOL    HW117363   6.972   1.177   0.482
 5488SOL    HW217364   0.064   1.124   0.586
 5489SOL     OW17365   6.398   3.534   2.157
 5489SOL    HW117366   6.458   3.455   2.144
 5489SOL    HW217367   6.365   3.565   2.067
 5490SOL     OW17368   1.548   0.133   2.268
 5490SOL    HW117369   1.583   0.211   2.217
 5490SOL    HW217370   1.560   0.149   2.366
 5491SOL     OW17371   0.411   3.032   0.837
 5491SOL    HW117372   0.343   3.046   0.766
 5491SOL    HW217373   0.375   3.065   0.925
 5492SOL     OW17374   1.292   3.340   5.442
 5492SOL    HW117375   1.210   3.373   5.489
 5492SOL    HW217376   1.371   3.391   5.474
 5493SOL     OW17377   4.093   3.632   2.084
 5493SOL    HW117378   4.188   3.610   2.104
 5493SOL    HW217379   4.050   3.673   2.165
 5494SOL     OW17380   6.640   4.048   4.998
 5494SOL    HW117381   6.626   4.136   5.043
 5494SOL    HW217382   6.618   4.056   4.901
 5495SOL     OW17383   5.818   1.154   0.971
 5495SOL    HW117384   5.772   1.103   0.899
 5495SOL    HW217385   5.777   1.245   0.979
 5496SOL     OW17386   4.510   0.466   3.887
 5496SOL    HW117387   4.583   0.461   3.819
 5496SOL    HW217388   4.535   0.533   3.957
 5497SOL     OW17389   0.268   1.071   6.023
 5497SOL    HW117390   0.346   1.020   6.058
 5497SOL    HW217391   0.277   1.167   6.050
 5498SOL     OW17392   6.979   5.186   1.827
 5498SOL    HW117393   6.898   5.212   1.775
 5498SOL    HW217394   0.009   5.118   1.775
 5499SOL     OW17395   0.398   0.523   3.574
 5499SOL    HW117396   0.315   0.480   3.538
 5499SOL    HW217397   0.375   0.576   3.655
 5500SOL     OW17398   1.384   0.660   0.016
 5500SOL    HW117399   1.368   0.753   7.005
 5500SOL    HW217400   1.299   0.608   0.014
 5501SOL     OW17401   4.184   2.367   0.486
 5501SOL    HW117402   4.165   2.381   0.583
 5501SOL    HW217403   4.177   2.454   0.438
 5502SOL     OW17404   5.211   3.963   6.435
 5502SOL    HW117405   5.248   3.971   6.342
 5502SOL    HW217406   5.163   3.876   6.445
 5503SOL     OW17407   0.543   4.008   0.807
 5503SOL    HW117408   0.504   4.099   0.795
 5503SOL    HW217409   0.617   3.993   0.741
 5504SOL     OW17410   4.917   1.344   6.031
 5504SOL    HW117411   4.947   1.252   6.009
 5504SOL    HW217412   4.992   1.394   6.075
 5505SOL     OW17413   2.121   3.959   3.686
 5505SOL    HW117414   2.204   4.009   3.663
 5505SOL    HW217415   2.068   4.010   3.754
 5506SOL     OW17416   6.770   3.304   6.824
 5506SOL    HW117417   6.853   3.270   6.780
 5506SOL    HW217418   6.726   3.229   6.875
 5507SOL     OW17419   3.553   0.581   5.788
 5507SOL    HW117420   3.617   0.532   5.847
 5507SOL    HW217421   3.565   0.551   5.693
 5508SOL     OW17422   1.271   0.778   0.323
 5508SOL    HW117423   1.178   0.779   0.360
 5508SOL    HW217424   1.267   0.793   0.224
 5509SOL     OW17425   0.755   5.323   0.724
 5509SOL    HW117426   0.812   5.242   0.712
 5509SOL    HW217427   0.811   5.398   0.760
 5510SOL     OW17428   5.286   5.700   6.866
 5510SOL    HW117429   5.353   5.671   6.934
 5510SOL    HW217430   5.259   5.622   6.810
 5511SOL     OW17431   0.875   1.393   5.097
 5511SOL    HW117432   0.805   1.462   5.082
 5511SOL    HW217433   0.964   1.428   5.068
 5512SOL     OW17434   3.733   0.732   1.455
 5512SOL    HW117435   3.757   0.808   1.395
 5512SOL    HW217436   3.813   0.675   1.472
 5513SOL     OW17437   3.492   5.233   6.073
 5513SOL    HW117438   3.566   5.275   6.021
 5513SOL    HW217439   3.465   5.147   6.030
 5514SOL     OW17440   3.578   6.790   4.981
 5514SOL    HW117441   3.583   6.713   4.917
 5514SOL    HW217442   3.531   6.867   4.938
 5515SOL     OW17443   1.859   5.726   2.315
 5515SOL    HW117444   1.776   5.783   2.320
 5515SOL    HW217445   1.925   5.770   2.254
 5516SOL     OW17446   2.337   2.704   5.077
 5516SOL    HW117447   2.371   2.661   4.993
 5516SOL    HW217448   2.371   2.798   5.082
 5517SOL     OW17449   1.703   3.846   2.377
 5517SOL    HW117450   1.782   3.798   2.415
 5517SOL    HW217451   1.662   3.790   2.305
 5518SOL     OW17452   6.059   4.757   6.213
 5518SOL    HW117453   5.974   4.779   6.261
 5518SOL    HW217454   6.044   4.761   6.114
 5519SOL     OW17455   4.807   3.063   3.650
 5519SOL    HW117456   4.852   3.040   3.563
 5519SOL    HW217457   4.709   3.051   3.640
 5520SOL     OW17458   5.708   6.081   2.434
 5520SOL    HW117459   5.767   6.156   2.467
 5520SOL    HW217460   5.754   6.034   2.359
 5521SOL     OW17461   5.321   5.509   1.625
 5521SOL    HW117462   5.255   5.491   1.698
 5521SOL    HW217463   5.413   5.491   1.659
 5522SOL     OW17464   6.195   5.459   1.386
 5522SOL    HW117465   6.147   5.522   1.325
 5522SOL    HW217466   6.129   5.405   1.438
 5523SOL     OW17467   5.371   0.935   3.082
 5523SOL    HW117468   5.337   0.857   3.030
 5523SOL    HW217469   5.471   0.936   3.080
 5524SOL     OW17470   3.600   0.405   5.531
 5524SOL    HW117471   3.647   0.394   5.444
 5524SOL    HW217472   3.502   0.390   5.518
 5525SOL     OW17473   6.972   2.875   0.643
 5525SOL    HW117474   6.877   2.888   0.669
 5525SOL    HW217475   0.001   2.836   0.721
 5526SOL     OW17476   4.792   3.925   2.967
 5526SOL    HW117477   4.797   3.901   2.870
 5526SOL    HW217478   4.871   3.886   3.015
 5527SOL     OW17479   4.904   2.977   4.319
 5527SOL    HW117480   4.859   2.887   4.317
 5527SOL    HW217481   4.935   3.001   4.227
 5528SOL     OW17482   0.844   2.055   1.835
 5528SOL    HW117483   0.905   2.035   1.912
 5528SOL    HW217484   0.750   2.032   1.860
 5529SOL     OW17485   2.351   0.354   3.436
 5529SOL    HW117486   2.290   0.393   3.367
 5529SOL    HW217487   2.299   0.333   3.519
 5530SOL     OW17488   7.010   2.590   2.205
 5530SOL    HW117489   0.009   2.622   2.112
 5530SOL    HW217490   6.968   2.664   2.257
 5531SOL     OW17491   3.512   4.236   1.139
 5531SOL    HW117492   3.575   4.159   1.135
 5531SOL    HW217493   3.563   4.322   1.133
 5532SOL     OW17494   1.673   2.487   0.311
 5532SOL    HW117495   1.603   2.415   0.315
 5532SOL    HW217496   1.737   2.476   0.386
 5533SOL     OW17497   4.810   1.336   4.509
 5533SOL    HW117498   4.808   1.410   4.442
 5533SOL    HW217499   4.717   1.298   4.519
 5534SOL     OW17500   1.152   1.259   5.485
 5534SOL    HW117501   1.108   1.281   5.398
 5534SOL    HW217502   1.242   1.220   5.468
 5535SOL     OW17503   0.642   1.343   2.425
 5535SOL    HW117504   0.706   1.385   2.489
 5535SOL    HW217505   0.593   1.269   2.472
 5536SOL     OW17506   3.451   0.958   4.474
 5536SOL    HW117507   3.483   0.920   4.561
 5536SOL    HW217508   3.351   0.953   4.470
 5537SOL     OW17509   3.830   1.356   2.911
 5537SOL    HW117510   3.845   1.272   2.964
 5537SOL    HW217511   3.800   1.332   2.819
 5538SOL     OW17512   4.381   5.737   4.707
 5538SOL    HW117513   4.334   5.779   4.785
 5538SOL    HW217514   4.479   5.757   4.712
 5539SOL     OW17515   2.081   2.551   0.890
 5539SOL    HW117516   2.089   2.563   0.989
 5539SOL    HW217517   2.057   2.638   0.848
 5540SOL     OW17518   4.902   4.678   3.616
 5540SOL    HW117519   4.980   4.668   3.554
 5540SOL    HW217520   4.900   4.601   3.679
 5541SOL     OW17521   4.412   2.057   6.398
 5541SOL    HW117522   4.478   2.022   6.332
 5541SOL    HW217523   4.431   2.153   6.416
 5542SOL     OW17524   3.769   4.312   5.914
 5542SOL    HW117525   3.686   4.271   5.951
 5542SOL    HW217526   3.839   4.318   5.986
 5543SOL     OW17527   6.627   3.775   6.701
 5543SOL    HW117528   6.623   3.689   6.650
 5543SOL    HW217529   6.638   3.756   6.798
 5544SOL     OW17530   5.756   1.093   5.909
 5544SOL    HW117531   5.700   1.018   5.943
 5544SOL    HW217532   5.830   1.111   5.974
 5545SOL     OW17533   4.356   2.080   2.382
 5545SOL    HW117534   4.265   2.086   2.339
 5545SOL    HW217535   4.399   2.170   2.380
 5546SOL     OW17536   2.026   5.009   5.943
 5546SOL    HW117537   2.116   5.049   5.958
 5546SOL    HW217538   1.978   5.062   5.872
 5547SOL     OW17539   3.406   5.369   5.318
 5547SOL    HW117540   3.498   5.372   5.356
 5547SOL    HW217541   3.378   5.273   5.305
 5548SOL     OW17542   6.004   3.526   5.477
 5548SOL    HW117543   5.920   3.561   5.435
 5548SOL    HW217544   5.980   3.464   5.552
 5549SOL     OW17545   2.753   4.706   7.019
 5549SOL    HW117546   2.821   4.687   6.948
 5549SOL    HW217547   2.729   4.803   7.015
 5550SOL     OW17548   2.324   6.486   1.213
 5550SOL    HW117549   2.368   6.542   1.282
 5550SOL    HW217550   2.303   6.396   1.251
 5551SOL     OW17551   1.358   1.524   3.167
 5551SOL    HW117552   1.451   1.562   3.171
 5551SOL    HW217553   1.333   1.488   3.257
 5552SOL     OW17554   0.027   1.914   1.130
 5552SOL    HW117555   6.985   1.990   1.118
 5552SOL    HW217556   7.016   1.854   1.202
 5553SOL     OW17557   4.345   6.259   0.386
 5553SOL    HW117558   4.404   6.333   0.417
 5553SOL    HW217559   4.323   6.199   0.464
 5554SOL     OW17560   2.883   2.205   5.057
 5554SOL    HW117561   2.946   2.269   5.012
 5554SOL    HW217562   2.930   2.119   5.075
 5555SOL     OW17563   0.185   4.862   3.434
 5555SOL    HW117564   0.187   4.851   3.335
 5555SOL    HW217565   0.146   4.779   3.476
 5556SOL     OW17566   0.458   2.050   5.043
 5556SOL    HW117567   0.490   1.968   5.091
 5556SOL    HW217568   0.394   2.100   5.102
 5557SOL     OW17569   2.336   6.179   3.637
 5557SOL    HW117570   2.315   6.127   3.721
 5557SOL    HW217571   2.390   6.122   3.576
 5558SOL     OW17572   5.135   3.070   4.822
 5558SOL    HW117573   5.051   3.046   4.773
 5558SOL    HW217574   5.190   2.989   4.837
 5559SOL     OW17575   1.740   0.454   0.769
 5559SOL    HW117576   1.705   0.496   0.685
 5559SOL    HW217577   1.749   0.524   0.840
 5560SOL     OW17578   0.202   1.388   3.788
 5560SOL    HW117579   0.148   1.435   3.718
 5560SOL    HW217580   0.146   1.317   3.830
 5561SOL     OW17581   1.513   3.162   3.222
 5561SOL    HW117582   1.459   3.230   3.272
 5561SOL    HW217583   1.514   3.076   3.272
 5562SOL     OW17584   2.185   3.356   5.934
 5562SOL    HW117585   2.268   3.301   5.946
 5562SOL    HW217586   2.203   3.450   5.963
 5563SOL     OW17587   4.882   6.216   2.572
 5563SOL    HW117588   4.843   6.185   2.486
 5563SOL    HW217589   4.827   6.291   2.610
 5564SOL     OW17590   5.086   3.659   1.800
 5564SOL    HW117591   5.029   3.578   1.789
 5564SOL    HW217592   5.040   3.724   1.861
 5565SOL     OW17593   3.708   2.512   5.330
 5565SOL    HW117594   3.638   2.514   5.402
 5565SOL    HW217595   3.764   2.430   5.340
 5566SOL     OW17596   1.931   4.970   1.619
 5566SOL    HW117597   1.997   5.035   1.581
 5566SOL    HW217598   1.840   5.012   1.622
 5567SOL     OW17599   1.717   5.531   1.426
 5567SOL    HW117600   1.777   5.482   1.490
 5567SOL    HW217601   1.668   5.604   1.475
 5568SOL     OW17602   3.985   1.298   1.395
 5568SOL    HW117603   3.940   1.381   1.428
 5568SOL    HW217604   3.941   1.269   1.309
 5569SOL     OW17605   3.795   1.546   0.302
 5569SOL    HW117606   3.792   1.572   0.398
 5569SOL    HW217607   3.853   1.465   0.291
 5570SOL     OW17608   6.325   4.403   5.420
 5570SOL    HW117609   6.269   4.322   5.432
 5570SOL    HW217610   6.271   4.485   5.441
 5571SOL     OW17611   6.777   5.648   0.440
 5571SOL    HW117612   6.846   5.705   0.484
 5571SOL    HW217613   6.819   5.592   0.369
 5572SOL     OW17614   4.682   2.637   6.603
 5572SOL    HW117615   4.644   2.546   6.615
 5572SOL    HW217616   4.730   2.642   6.515
 5573SOL     OW17617   1.105   3.690   1.201
 5573SOL    HW117618   1.020   3.709   1.151
 5573SOL    HW217619   1.175   3.662   1.136
 5574SOL     OW17620   0.755   6.004   5.404
 5574SOL    HW117621   0.756   6.096   5.444
 5574SOL    HW217622   0.787   6.008   5.309
 5575SOL     OW17623   0.962   1.596   0.912
 5575SOL    HW117624   0.881   1.540   0.929
 5575SOL    HW217625   1.028   1.582   0.987
 5576SOL     OW17626   5.883   6.304   0.679
 5576SOL    HW117627   5.928   6.348   0.757
 5576SOL    HW217628   5.948   6.298   0.603
 5577SOL     OW17629   1.621   4.134   5.383
 5577SOL    HW117630   1.582   4.079   5.309
 5577SOL    HW217631   1.609   4.231   5.363
 5578SOL     OW17632   4.379   2.649   0.022
 5578SOL    HW117633   4.469   2.691   0.015
 5578SOL    HW217634   4.309   2.719   0.017
 5579SOL     OW17635   5.082   4.074   6.675
 5579SOL    HW117636   5.136   4.020   6.609
 5579SOL    HW217637   5.065   4.019   6.757
 5580SOL     OW17638   5.656   1.355   0.456
 5580SOL    HW117639   5.721   1.288   0.419
 5580SOL    HW217640   5.681   1.446   0.423
 5581SOL     OW17641   2.317   1.510   6.306
 5581SOL    HW117642   2.351   1.455   6.382
 5581SOL    HW217643   2.233   1.470   6.270
 5582SOL     OW17644   3.682   3.493   3.754
 5582SOL    HW117645   3.738   3.569   3.789
 5582SOL    HW217646   3.708   3.408   3.800
 5583SOL     OW17647   3.755   0.113   1.464
 5583SOL    HW117648   3.831   0.093   1.402
 5583SOL    HW217649   3.770   0.202   1.506
 5584SOL     OW17650   6.608   3.300   3.155
 5584SOL    HW117651   6.595   3.337   3.063
 5584SOL    HW217652   6.538   3.337   3.216
 5585SOL     OW17653   6.141   0.478   4.655
 5585SOL    HW117654   6.143   0.395   4.599
 5585SOL    HW217655   6.120   0.454   4.750
 5586SOL     OW17656   1.886   1.080   5.790
 5586SOL    HW117657   1.906   1.121   5.700
 5586SOL    HW217658   1.956   1.107   5.855
 5587SOL     OW17659   3.337   0.420   3.878
 5587SOL    HW117660   3.346   0.481   3.957
 5587SOL    HW217661   3.367   0.468   3.796
 5588SOL     OW17662   2.671   6.993   5.759
 5588SOL    HW117663   2.718   6.906   5.744
 5588SOL    HW217664   2.653   0.015   5.672
 5589SOL     OW17665   4.429   2.794   6.278
 5589SOL    HW117666   4.351   2.745   6.318
 5589SOL    HW217667   4.415   2.803   6.179
 5590SOL     OW17668   0.700   5.517   4.372
 5590SOL    HW117669   0.685   5.505   4.470
 5590SOL    HW217670   0.634   5.584   4.337
 5591SOL     OW17671   5.671   0.642   0.603
 5591SOL    HW117672   5.617   0.721   0.573
 5591SOL    HW217673   5.668   0.635   0.702
 5592SOL     OW17674   1.511   3.195   2.737
 5592SOL    HW117675   1.601   3.231   2.761
 5592SOL    HW217676   1.491   3.115   2.794
 5593SOL     OW17677   1.610   2.842   5.907
 5593SOL    HW117678   1.648   2.882   5.990
 5593SOL    HW217679   1.510   2.850   5.908
 5594SOL     OW17680   2.205   0.625   0.272
 5594SOL    HW117681   2.188   0.703   0.332
 5594SOL    HW217682   2.267   0.561   0.317
 5595SOL     OW17683   6.964   2.592   5.978
 5595SOL    HW117684   6.949   2.617   6.074
 5595SOL    HW217685   6.908   2.649   5.919
 5596SOL     OW17686   5.025   0.198   2.965
 5596SOL    HW117687   5.011   0.228   3.059
 5596SOL    HW217688   4.937   0.177   2.922
 5597SOL     OW17689   6.803   0.737   6.197
 5597SOL    HW117690   6.768   0.661   6.252
 5597SOL    HW217691   6.892   0.765   6.233
 5598SOL     OW17692   6.585   1.776   3.867
 5598SOL    HW117693   6.632   1.802   3.951
 5598SOL    HW217694   6.623   1.691   3.833
 5599SOL     OW17695   5.194   3.125   2.909
 5599SOL    HW117696   5.218   3.166   2.997
 5599SOL    HW217697   5.122   3.057   2.922
 5600SOL     OW17698   2.088   1.402   2.348
 5600SOL    HW117699   2.010   1.444   2.394
 5600SOL    HW217700   2.170   1.456   2.367
 5601SOL     OW17701   5.622   2.733   5.453
 5601SOL    HW117702   5.624   2.681   5.368
 5601SOL    HW217703   5.700   2.706   5.510
 5602SOL     OW17704   0.190   2.266   3.180
 5602SOL    HW117705   0.130   2.297   3.255
 5602SOL    HW217706   0.136   2.252   3.098
 5603SOL     OW17707   4.152   2.103   4.478
 5603SOL    HW117708   4.089   2.050   4.420
 5603SOL    HW217709   4.176   2.188   4.431
 5604SOL     OW17710   0.577   0.239   4.109
 5604SOL    HW117711   0.509   0.220   4.038
 5604SOL    HW217712   0.531   0.255   4.196
 5605SOL     OW17713   2.834   5.890   4.523
 5605SOL    HW117714   2.816   5.794   4.503
 5605SOL    HW217715   2.760   5.927   4.578
 5606SOL     OW17716   4.743   2.322   0.746
 5606SOL    HW117717   4.660   2.267   0.735
 5606SOL    HW217718   4.822   2.262   0.757
 5607SOL     OW17719   6.244   3.070   2.170
 5607SOL    HW117720   6.268   2.983   2.212
 5607SOL    HW217721   6.213   3.134   2.240
 5608SOL     OW17722   4.420   0.972   3.585
 5608SOL    HW117723   4.324   1.002   3.589
 5608SOL    HW217724   4.470   1.011   3.662
 5609SOL     OW17725   6.586   6.759   0.927
 5609SOL    HW117726   6.618   6.667   0.903
 5609SOL    HW217727   6.573   6.764   1.026
 5610SOL     OW17728   5.069   4.632   6.801
 5610SOL    HW117729   5.079   4.554   6.862
 5610SOL    HW217730   4.972   4.654   6.789
 5611SOL     OW17731   6.805   5.038   0.745
 5611SOL    HW117732   6.853   5.065   0.828
 5611SOL    HW217733   6.868   4.988   0.685
 5612SOL     OW17734   2.507   1.240   0.891
 5612SOL    HW117735   2.565   1.298   0.834
 5612SOL    HW217736   2.495   1.151   0.847
 5613SOL     OW17737   6.760   5.565   5.545
 5613SOL    HW117738   6.769   5.608   5.455
 5613SOL    HW217739   6.791   5.629   5.615
 5614SOL     OW17740   6.127   2.557   4.413
 5614SOL    HW117741   6.209   2.603   4.379
 5614SOL    HW217742   6.154   2.470   4.456
 5615SOL     OW17743   0.388   3.299   3.403
 5615SOL    HW117744   0.447   3.308   3.323
 5615SOL    HW217745   0.333   3.215   3.396
 5616SOL     OW17746   1.755   3.278   2.794
 5616SOL    HW117747   1.826   3.318   2.736
 5616SOL    HW217748   1.793   3.258   2.884
 5617SOL     OW17749   2.134   5.518   6.284
 5617SOL    HW117750   2.124   5.584   6.209
 5617SOL    HW217751   2.172   5.432   6.247
 5618SOL     OW17752   0.038   5.773   3.695
 5618SOL    HW117753   6.976   5.733   3.731
 5618SOL    HW217754   0.025   5.870   3.677
 5619SOL     OW17755   3.764   2.995   4.252
 5619SOL    HW117756   3.792   2.996   4.348
 5619SOL    HW217757   3.759   2.900   4.221
 5620SOL     OW17758   4.851   4.317   5.940
 5620SOL    HW117759   4.763   4.275   5.921
 5620SOL    HW217760   4.853   4.410   5.905
 5621SOL     OW17761   1.228   2.302   5.478
 5621SOL    HW117762   1.289   2.254   5.541
 5621SOL    HW217763   1.262   2.395   5.463
 5622SOL     OW17764   4.977   5.645   4.610
 5622SOL    HW117765   4.963   5.680   4.517
 5622SOL    HW217766   4.921   5.697   4.674
 5623SOL     OW17767   5.120   6.220   3.921
 5623SOL    HW117768   5.155   6.309   3.893
 5623SOL    HW217769   5.194   6.153   3.920
 5624SOL     OW17770   6.769   4.727   4.494
 5624SOL    HW117771   6.839   4.742   4.425
 5624SOL    HW217772   6.812   4.692   4.578
 5625SOL     OW17773   1.281   6.110   5.357
 5625SOL    HW117774   1.366   6.068   5.324
 5625SOL    HW217775   1.225   6.137   5.280
 5626SOL     OW17776   1.748   4.037   4.795
 5626SOL    HW117777   1.734   4.034   4.894
 5626SOL    HW217778   1.842   4.065   4.776
 5627SOL     OW17779   1.043   5.635   6.866
 5627SOL    HW117780   1.002   5.544   6.862
 5627SOL    HW217781   1.141   5.629   6.845
 5628SOL     OW17782   2.868   2.708   1.111
 5628SOL    HW117783   2.893   2.666   1.198
 5628SOL    HW217784   2.849   2.805   1.125
 5629SOL     OW17785   5.112   3.855   1.476
 5629SOL    HW117786   5.127   3.918   1.553
 5629SOL    HW217787   5.016   3.828   1.473
 5630SOL     OW17788   2.571   4.067   6.919
 5630SOL    HW117789   2.639   4.069   6.845
 5630SOL    HW217790   2.500   4.135   6.901
 5631SOL     OW17791   4.530   1.248   1.555
 5631SOL    HW117792   4.430   1.246   1.545
 5631SOL    HW217793   4.573   1.211   1.473
 5632SOL     OW17794   5.633   0.262   5.812
 5632SOL    HW117795   5.564   0.226   5.748
 5632SOL    HW217796   5.641   0.361   5.799
 5633SOL     OW17797   0.936   5.399   5.506
 5633SOL    HW117798   0.925   5.330   5.577
 5633SOL    HW217799   1.017   5.376   5.450
 5634SOL     OW17800   2.579   6.666   0.262
 5634SOL    HW117801   2.635   6.682   0.344
 5634SOL    HW217802   2.635   6.619   0.193
 5635SOL     OW17803   2.163   0.696   6.860
 5635SOL    HW117804   2.238   0.714   6.795
 5635SOL    HW217805   2.187   0.617   6.916
 5636SOL     OW17806   6.163   1.701   5.475
 5636SOL    HW117807   6.228   1.710   5.550
 5636SOL    HW217808   6.088   1.642   5.503
 5637SOL     OW17809   5.032   6.904   4.757
 5637SOL    HW117810   5.123   6.939   4.737
 5637SOL    HW217811   4.997   6.855   4.677
 5638SOL     OW17812   5.320   5.240   1.061
 5638SOL    HW117813   5.296   5.164   1.001
 5638SOL    HW217814   5.412   5.226   1.098
 5639SOL     OW17815   0.633   0.660   1.705
 5639SOL    HW117816   0.705   0.707   1.757
 5639SOL    HW217817   0.582   0.727   1.651
 5640SOL     OW17818   2.621   5.367   3.093
 5640SOL    HW117819   2.714   5.400   3.075
 5640SOL    HW217820   2.623   5.269   3.109
 5641SOL     OW17821   0.525   4.001   4.061
 5641SOL    HW117822   0.485   3.977   4.150
 5641SOL    HW217823   0.596   4.070   4.075
 5642SOL     OW17824   1.512   4.851   0.331
 5642SOL    HW117825   1.509   4.761   0.374
 5642SOL    HW217826   1.438   4.908   0.368
 5643SOL     OW17827   4.532   2.026   4.768
 5643SOL    HW117828   4.601   1.954   4.756
 5643SOL    HW217829   4.571   2.100   4.823
 5644SOL     OW17830   4.443   1.222   5.133
 5644SOL    HW117831   4.358   1.274   5.128
 5644SOL    HW217832   4.501   1.247   5.055
 5645SOL     OW17833   5.875   5.666   3.769
 5645SOL    HW117834   5.902   5.677   3.864
 5645SOL    HW217835   5.928   5.728   3.711
 5646SOL     OW17836   0.446   6.448   3.982
 5646SOL    HW117837   0.537   6.435   3.943
 5646SOL    HW217838   0.453   6.505   4.064
 5647SOL     OW17839   5.797   5.560   6.458
 5647SOL    HW117840   5.717   5.581   6.514
 5647SOL    HW217841   5.798   5.617   6.377
 5648SOL     OW17842   1.924   1.781   4.031
 5648SOL    HW117843   2.017   1.817   4.024
 5648SOL    HW217844   1.876   1.826   4.106
 5649SOL     OW17845   0.911   1.155   5.287
 5649SOL    HW117846   0.927   1.220   5.213
 5649SOL    HW217847   0.978   1.080   5.280
 5650SOL     OW17848   6.548   4.488   6.733
 5650SOL    HW117849   6.448   4.487   6.738
 5650SOL    HW217850   6.577   4.432   6.655
 5651SOL     OW17851   6.860   1.086   2.051
 5651SOL    HW117852   6.874   1.154   2.123
 5651SOL    HW217853   6.899   1.120   1.965
 5652SOL     OW17854   4.810   5.263   1.525
 5652SOL    HW117855   4.731   5.249   1.586
 5652SOL    HW217856   4.818   5.185   1.463
 5653SOL     OW17857   0.214   5.893   5.771
 5653SOL    HW117858   0.237   5.969   5.710
 5653SOL    HW217859   0.155   5.828   5.722
 5654SOL     OW17860   6.728   0.207   5.569
 5654SOL    HW117861   6.822   0.223   5.599
 5654SOL    HW217862   6.673   0.288   5.586
 5655SOL     OW17863   0.239   3.606   4.084
 5655SOL    HW117864   0.213   3.701   4.099
 5655SOL    HW217865   0.259   3.591   3.987
 5656SOL     OW17866   3.698   4.040   0.228
 5656SOL    HW117867   3.718   4.079   0.139
 5656SOL    HW217868   3.769   3.973   0.252
 5657SOL     OW17869   3.508   0.119   1.792
 5657SOL    HW117870   3.420   0.161   1.815
 5657SOL    HW217871   3.531   0.141   1.697
 5658SOL     OW17872   3.722   7.016   5.664
 5658SOL    HW117873   3.694   6.931   5.707
 5658SOL    HW217874   3.728   7.004   5.565
 5659SOL     OW17875   2.909   3.760   2.632
 5659SOL    HW117876   2.963   3.842   2.653
 5659SOL    HW217877   2.838   3.783   2.566
 5660SOL     OW17878   4.775   0.447   6.960
 5660SOL    HW117879   4.770   0.406   0.030
 5660SOL    HW217880   4.710   0.522   6.954
 5661SOL     OW17881   6.997   5.684   4.195
 5661SOL    HW117882   6.972   5.751   4.125
 5661SOL    HW217883   6.948   5.705   4.280
 5662SOL     OW17884   2.159   4.531   3.957
 5662SOL    HW117885   2.081   4.559   3.901
 5662SOL    HW217886   2.149   4.570   4.049
 5663SOL     OW17887   1.140   3.966   0.878
 5663SOL    HW117888   1.080   3.886   0.873
 5663SOL    HW217889   1.160   3.998   0.785
 5664SOL     OW17890   0.123   4.524   2.256
 5664SOL    HW117891   0.086   4.616   2.272
 5664SOL    HW217892   0.121   4.505   2.157
 5665SOL     OW17893   2.274   3.185   5.521
 5665SOL    HW117894   2.219   3.173   5.604
 5665SOL    HW217895   2.370   3.191   5.546
 5666SOL     OW17896   5.211   5.339   0.715
 5666SOL    HW117897   5.130   5.387   0.748
 5666SOL    HW217898   5.292   5.394   0.735
 5667SOL     OW17899   6.494   5.084   2.889
 5667SOL    HW117900   6.523   5.131   2.972
 5667SOL    HW217901   6.445   5.148   2.830
 5668SOL     OW17902   5.163   2.278   6.316
 5668SOL    HW117903   5.173   2.315   6.409
 5668SOL    HW217904   5.211   2.338   6.251
 5669SOL     OW17905   0.662   4.853   6.263
 5669SOL    HW117906   0.705   4.773   6.221
 5669SOL    HW217907   0.732   4.921   6.283
 5670SOL     OW17908   0.392   3.377   4.292
 5670SOL    HW117909   0.396   3.477   4.284
 5670SOL    HW217910   0.455   3.347   4.364
 5671SOL     OW17911   1.883   0.810   6.511
 5671SOL    HW117912   1.793   0.766   6.520
 5671SOL    HW217913   1.944   0.776   6.582
 5672SOL     OW17914   5.085   4.255   6.111
 5672SOL    HW117915   5.002   4.275   6.058
 5672SOL    HW217916   5.161   4.309   6.075
 5673SOL     OW17917   0.172   0.348   2.015
 5673SOL    HW117918   0.203   0.358   2.109
 5673SOL    HW217919   0.196   0.258   1.980
 5674SOL     OW17920   6.748   3.377   1.483
 5674SOL    HW117921   6.661   3.422   1.465
 5674SOL    HW217922   6.795   3.423   1.558
 5675SOL     OW17923   4.482   2.532   5.339
 5675SOL    HW117924   4.557   2.575   5.289
 5675SOL    HW217925   4.400   2.589   5.332
 5676SOL     OW17926   1.980   0.209   1.565
 5676SOL    HW117927   2.049   0.265   1.519
 5676SOL    HW217928   1.919   0.168   1.497
 5677SOL     OW17929   6.144   0.752   3.836
 5677SOL    HW117930   6.210   0.827   3.836
 5677SOL    HW217931   6.057   0.784   3.797
 5678SOL     OW17932   3.425   0.033   3.012
 5678SOL    HW117933   3.430   0.074   3.103
 5678SOL    HW217934   3.376   6.968   3.017
 5679SOL     OW17935   2.243   6.513   5.029
 5679SOL    HW117936   2.186   6.459   5.091
 5679SOL    HW217937   2.286   6.587   5.081
 5680SOL     OW17938   2.154   5.780   6.435
 5680SOL    HW117939   2.108   5.703   6.390
 5680SOL    HW217940   2.245   5.751   6.465
 5681SOL     OW17941   1.230   2.495   6.842
 5681SOL    HW117942   1.148   2.510   6.788
 5681SOL    HW217943   1.297   2.567   6.822
 5682SOL     OW17944   1.322   2.851   5.903
 5682SOL    HW117945   1.258   2.867   5.978
 5682SOL    HW217946   1.272   2.816   5.823
 5683SOL     OW17947   3.353   2.642   6.545
 5683SOL    HW117948   3.260   2.646   6.583
 5683SOL    HW217949   3.353   2.587   6.462
 5684SOL     OW17950   3.633   3.859   4.085
 5684SOL    HW117951   3.709   3.917   4.113
 5684SOL    HW217952   3.660   3.804   4.006
 5685SOL     OW17953   0.222   4.554   2.596
 5685SOL    HW117954   0.125   4.554   2.570
 5685SOL    HW217955   0.246   4.645   2.629
 5686SOL     OW17956   3.659   6.940   1.008
 5686SOL    HW117957   3.659   0.014   0.980
 5686SOL    HW217958   3.672   6.882   0.927
 5687SOL     OW17959   5.514   4.420   5.405
 5687SOL    HW117960   5.548   4.482   5.475
 5687SOL    HW217961   5.502   4.469   5.319
 5688SOL     OW17962   5.560   2.395   1.290
 5688SOL    HW117963   5.647   2.419   1.333
 5688SOL    HW217964   5.487   2.398   1.358
 5689SOL     OW17965   4.405   1.831   1.161
 5689SOL    HW117966   4.432   1.750   1.108
 5689SOL    HW217967   4.403   1.911   1.101
 5690SOL     OW17968   4.477   5.855   1.065
 5690SOL    HW117969   4.492   5.757   1.051
 5690SOL    HW217970   4.380   5.872   1.078
 5691SOL     OW17971   2.635   6.957   2.003
 5691SOL    HW117972   2.583   6.902   2.068
 5691SOL    HW217973   2.659   0.023   2.045
 5692SOL     OW17974   6.397   3.066   5.753
 5692SOL    HW117975   6.332   3.010   5.804
 5692SOL    HW217976   6.442   3.010   5.684
 5693SOL     OW17977   4.705   2.685   2.397
 5693SOL    HW117978   4.632   2.640   2.346
 5693SOL    HW217979   4.750   2.753   2.339
 5694SOL     OW17980   7.011   0.794   3.612
 5694SOL    HW117981   0.080   0.770   3.578
 5694SOL    HW217982   6.993   0.891   3.595
 5695SOL     OW17983   1.657   2.524   3.286
 5695SOL    HW117984   1.644   2.622   3.277
 5695SOL    HW217985   1.580   2.484   3.336
 5696SOL     OW17986   2.556   1.238   5.048
 5696SOL    HW117987   2.606   1.209   4.966
 5696SOL    HW217988   2.616   1.293   5.106
 5697SOL     OW17989   6.968   2.500   0.326
 5697SOL    HW117990   6.926   2.541   0.407
 5697SOL    HW217991   0.030   2.549   0.304
 5698SOL     OW17992   0.904   2.945   2.030
 5698SOL    HW117993   0.823   2.917   1.980
 5698SOL    HW217994   0.877   2.988   2.116
 5699SOL     OW17995   6.443   1.051   4.767
 5699SOL    HW117996   6.355   1.097   4.757
 5699SOL    HW217997   6.429   0.953   4.780
 5700SOL     OW17998   1.642   6.193   5.133
 5700SOL    HW117999   1.591   6.116   5.171
 5700SOL    HW218000   1.579   6.256   5.088
 5701SOL     OW18001   0.145   6.013   2.090
 5701SOL    HW118002   0.159   6.019   2.189
 5701SOL    HW218003   0.176   5.924   2.057
 5702SOL     OW18004   2.166   6.535   6.402
 5702SOL    HW118005   2.084   6.581   6.436
 5702SOL    HW218006   2.146   6.495   6.312
 5703SOL     OW18007   4.510   4.600   0.091
 5703SOL    HW118008   4.460   4.518   0.120
 5703SOL    HW218009   4.567   4.633   0.166
 5704SOL     OW18010   4.739   5.323   3.313
 5704SOL    HW118011   4.822   5.269   3.302
 5704SOL    HW218012   4.755   5.416   3.281
 5705SOL     OW18013   5.955   0.072   1.141
 5705SOL    HW118014   5.990   0.157   1.180
 5705SOL    HW218015   5.864   0.087   1.104
 5706SOL     OW18016   1.326   1.442   6.755
 5706SOL    HW118017   1.253   1.510   6.757
 5706SOL    HW218018   1.294   1.359   6.711
 5707SOL     OW18019   1.940   0.813   6.107
 5707SOL    HW118020   1.992   0.788   6.025
 5707SOL    HW218021   2.002   0.843   6.179
 5708SOL     OW18022   5.082   0.352   2.054
 5708SOL    HW118023   5.154   0.370   2.121
 5708SOL    HW218024   5.082   0.425   1.986
 5709SOL     OW18025   0.782   6.091   3.527
 5709SOL    HW118026   0.881   6.076   3.521
 5709SOL    HW218027   0.756   6.108   3.623
 5710SOL     OW18028   3.166   3.280   6.176
 5710SOL    HW118029   3.082   3.334   6.185
 5710SOL    HW218030   3.198   3.284   6.081
 5711SOL     OW18031   5.083   1.355   3.945
 5711SOL    HW118032   5.157   1.323   4.005
 5711SOL    HW218033   5.022   1.415   3.997
 5712SOL     OW18034   6.909   6.655   5.622
 5712SOL    HW118035   6.970   6.617   5.692
 5712SOL    HW218036   6.874   6.581   5.564
 5713SOL     OW18037   0.004   2.921   2.096
 5713SOL    HW118038   6.978   3.009   2.096
 5713SOL    HW218039   7.016   2.877   2.185
 5714SOL     OW18040   1.471   0.616   6.201
 5714SOL    HW118041   1.479   0.519   6.224
 5714SOL    HW218042   1.552   0.645   6.151
 5715SOL     OW18043   1.506   6.303   2.481
 5715SOL    HW118044   1.523   6.394   2.445
 5715SOL    HW218045   1.470   6.311   2.575
 5716SOL     OW18046   1.684   3.824   6.305
 5716SOL    HW118047   1.624   3.838   6.226
 5716SOL    HW218048   1.739   3.742   6.291
 5717SOL     OW18049   1.231   4.337   1.200
 5717SOL    HW118050   1.211   4.262   1.138
 5717SOL    HW218051   1.314   4.317   1.253
 5718SOL     OW18052   1.935   4.901   6.445
 5718SOL    HW118053   1.947   4.887   6.347
 5718SOL    HW218054   1.854   4.851   6.476
 5719SOL     OW18055   3.646   0.630   6.347
 5719SOL    HW118056   3.588   0.625   6.428
 5719SOL    HW218057   3.692   0.718   6.345
 5720SOL     OW18058   1.147   5.412   4.965
 5720SOL    HW118059   1.083   5.354   4.916
 5720SOL    HW218060   1.181   5.363   5.046
 5721SOL     OW18061   0.686   3.096   0.752
 5721SOL    HW118062   0.721   3.059   0.666
 5721SOL    HW218063   0.620   3.031   0.791
 5722SOL     OW18064   5.600   0.582   5.200
 5722SOL    HW118065   5.543   0.510   5.239
 5722SOL    HW218066   5.675   0.540   5.148
 5723SOL     OW18067   3.940   5.612   0.203
 5723SOL    HW118068   4.035   5.637   0.184
 5723SOL    HW218069   3.898   5.575   0.120
 5724SOL     OW18070   5.312   2.443   6.140
 5724SOL    HW118071   5.274   2.536   6.138
 5724SOL    HW218072   5.371   2.429   6.061
 5725SOL     OW18073   5.047   5.254   4.469
 5725SOL    HW118074   5.026   5.157   4.469
 5725SOL    HW218075   5.134   5.270   4.421
 5726SOL     OW18076   5.454   3.357   5.858
 5726SOL    HW118077   5.367   3.346   5.906
 5726SOL    HW218078   5.518   3.287   5.891
 5727SOL     OW18079   5.782   2.095   3.184
 5727SOL    HW118080   5.869   2.137   3.210
 5727SOL    HW218081   5.799   2.008   3.137
 5728SOL     OW18082   6.367   1.368   5.492
 5728SOL    HW118083   6.309   1.382   5.571
 5728SOL    HW218084   6.331   1.419   5.414
 5729SOL     OW18085   6.862   1.188   6.180
 5729SOL    HW118086   6.789   1.148   6.123
 5729SOL    HW218087   6.834   1.185   6.276
 5730SOL     OW18088   4.002   6.001   5.610
 5730SOL    HW118089   3.967   6.070   5.548
 5730SOL    HW218090   3.972   6.021   5.703
 5731SOL     OW18091   1.893   0.355   3.748
 5731SOL    HW118092   1.978   0.396   3.715
 5731SOL    HW218093   1.896   0.347   3.848
 5732SOL     OW18094   6.230   5.075   4.658
 5732SOL    HW118095   6.236   5.112   4.565
 5732SOL    HW218096   6.312   5.100   4.709
 5733SOL     OW18097   3.316   0.642   0.214
 5733SOL    HW118098   3.300   0.730   0.170
 5733SOL    HW218099   3.323   0.654   0.313
 5734SOL     OW18100   1.749   6.927   5.633
 5734SOL    HW118101   1.663   6.977   5.647
 5734SOL    HW218102   1.819   6.989   5.598
 5735SOL     OW18103   4.468   1.036   2.364
 5735SOL    HW118104   4.411   1.088   2.301
 5735SOL    HW218105   4.435   1.048   2.457
 5736SOL     OW18106   4.818   4.550   6.511
 5736SOL    HW118107   4.897   4.585   6.462
 5736SOL    HW218108   4.810   4.596   6.600
 5737SOL     OW18109   4.967   5.488   1.572
 5737SOL    HW118110   5.008   5.542   1.499
 5737SOL    HW218111   4.914   5.413   1.532
 5738SOL     OW18112   3.565   1.174   6.554
 5738SOL    HW118113   3.639   1.238   6.533
 5738SOL    HW218114   3.548   1.174   6.653
 5739SOL     OW18115   2.336   0.065   5.757
 5739SOL    HW118116   2.346   0.019   5.669
 5739SOL    HW218117   2.341   7.019   5.831
 5740SOL     OW18118   5.347   3.698   0.785
 5740SOL    HW118119   5.419   3.663   0.845
 5740SOL    HW218120   5.278   3.626   0.771
 5741SOL     OW18121   0.940   4.190   4.316
 5741SOL    HW118122   0.914   4.222   4.407
 5741SOL    HW218123   0.971   4.095   4.322
 5742SOL     OW18124   4.154   0.208   3.320
 5742SOL    HW118125   4.232   0.270   3.331
 5742SOL    HW218126   4.071   0.261   3.304
 5743SOL     OW18127   3.593   4.571   5.787
 5743SOL    HW118128   3.654   4.608   5.858
 5743SOL    HW218129   3.646   4.522   5.719
 5744SOL     OW18130   5.634   0.114   2.761
 5744SOL    HW118131   5.576   0.157   2.692
 5744SOL    HW218132   5.578   0.089   2.840
 5745SOL     OW18133   2.473   2.591   3.977
 5745SOL    HW118134   2.376   2.574   3.960
 5745SOL    HW218135   2.526   2.566   3.896
 5746SOL     OW18136   3.629   0.453   3.090
 5746SOL    HW118137   3.640   0.354   3.089
 5746SOL    HW218138   3.540   0.476   3.130
 5747SOL     OW18139   1.172   5.938   1.842
 5747SOL    HW118140   1.095   5.999   1.861
 5747SOL    HW218141   1.191   5.883   1.923
 5748SOL     OW18142   0.198   6.060   0.206
 5748SOL    HW118143   0.274   6.122   0.187
 5748SOL    HW218144   0.217   5.971   0.164
 5749SOL     OW18145   2.057   6.463   5.239
 5749SOL    HW118146   2.080   6.491   5.332
 5749SOL    HW218147   1.960   6.438   5.235
 5750SOL     OW18148   7.007   4.209   4.321
 5750SOL    HW118149   6.914   4.179   4.301
 5750SOL    HW218150   0.008   4.185   4.416
 5751SOL     OW18151   2.224   3.929   4.209
 5751SOL    HW118152   2.199   3.842   4.252
 5751SOL    HW218153   2.249   3.913   4.113
 5752SOL     OW18154   5.462   0.053   0.726
 5752SOL    HW118155   5.493   6.998   0.671
 5752SOL    HW218156   5.367   0.073   0.706
 5753SOL     OW18157   3.107   4.012   5.036
 5753SOL    HW118158   3.150   4.087   5.086
 5753SOL    HW218159   3.168   3.980   4.963
 5754SOL     OW18160   1.108   6.369   1.766
 5754SOL    HW118161   1.151   6.324   1.688
 5754SOL    HW218162   1.062   6.301   1.823
 5755SOL     OW18163   2.418   2.597   6.916
 5755SOL    HW118164   2.508   2.569   6.949
 5755SOL    HW218165   2.418   2.599   6.816
 5756SOL     OW18166   6.437   6.483   1.893
 5756SOL    HW118167   6.445   6.434   1.806
 5756SOL    HW218168   6.528   6.490   1.935
 5757SOL     OW18169   6.713   6.236   3.577
 5757SOL    HW118170   6.710   6.143   3.541
 5757SOL    HW218171   6.621   6.274   3.579
 5758SOL     OW18172   1.412   6.261   2.748
 5758SOL    HW118173   1.477   6.303   2.811
 5758SOL    HW218174   1.319   6.288   2.774
 5759SOL     OW18175   4.380   6.783   1.468
 5759SOL    HW118176   4.326   6.866   1.482
 5759SOL    HW218177   4.477   6.803   1.485
 5760SOL     OW18178   6.769   3.377   2.149
 5760SOL    HW118179   6.771   3.416   2.056
 5760SOL    HW218180   6.826   3.434   2.209
 5761SOL     OW18181   5.503   5.725   4.715
 5761SOL    HW118182   5.430   5.756   4.654
 5761SOL    HW218183   5.474   5.735   4.810
 5762SOL     OW18184   5.547   4.301   0.217
 5762SOL    HW118185   5.514   4.216   0.256
 5762SOL    HW218186   5.532   4.302   0.118
 5763SOL     OW18187   5.056   0.378   0.703
 5763SOL    HW118188   5.072   0.476   0.714
 5763SOL    HW218189   4.963   0.364   0.669
 5764SOL     OW18190   4.368   5.268   3.764
 5764SOL    HW118191   4.418   5.246   3.680
 5764SOL    HW218192   4.406   5.352   3.804
 5765SOL     OW18193   6.512   5.193   0.827
 5765SOL    HW118194   6.436   5.155   0.774
 5765SOL    HW218195   6.596   5.144   0.804
 5766SOL     OW18196   1.375   1.803   4.845
 5766SOL    HW118197   1.299   1.764   4.793
 5766SOL    HW218198   1.405   1.888   4.802
 5767SOL     OW18199   1.702   0.545   0.520
 5767SOL    HW118200   1.639   0.605   0.471
 5767SOL    HW218201   1.786   0.535   0.466
 5768SOL     OW18202   6.896   7.010   3.564
 5768SOL    HW118203   6.971   0.042   3.602
 5768SOL    HW218204   6.929   6.921   3.536
 5769SOL     OW18205   2.208   5.664   6.799
 5769SOL    HW118206   2.139   5.690   6.867
 5769SOL    HW218207   2.290   5.719   6.811
 5770SOL     OW18208   0.913   6.284   0.484
 5770SOL    HW118209   0.891   6.262   0.389
 5770SOL    HW218210   0.947   6.202   0.531
 5771SOL     OW18211   2.060   5.648   3.947
 5771SOL    HW118212   2.094   5.700   3.869
 5771SOL    HW218213   2.110   5.561   3.954
 5772SOL     OW18214   4.811   0.795   1.689
 5772SOL    HW118215   4.758   0.867   1.734
 5772SOL    HW218216   4.752   0.744   1.627
 5773SOL     OW18217   4.643   2.033   2.294
 5773SOL    HW118218   4.658   2.131   2.305
 5773SOL    HW218219   4.608   1.994   2.380
 5774SOL     OW18220   1.451   6.604   4.395
 5774SOL    HW118221   1.386   6.676   4.420
 5774SOL    HW218222   1.407   6.539   4.333
 5775SOL     OW18223   0.312   5.604   2.944
 5775SOL    HW118224   0.353   5.525   2.990
 5775SOL    HW218225   0.339   5.688   2.993
 5776SOL     OW18226   1.901   0.669   2.722
 5776SOL    HW118227   1.819   0.620   2.692
 5776SOL    HW218228   1.942   0.621   2.800
 5777SOL     OW18229   1.499   0.419   3.091
 5777SOL    HW118230   1.399   0.427   3.089
 5777SOL    HW218231   1.531   0.430   3.185
 5778SOL     OW18232   1.328   1.183   6.665
 5778SOL    HW118233   1.373   1.094   6.662
 5778SOL    HW218234   1.229   1.170   6.659
 5779SOL     OW18235   4.998   2.418   6.874
 5779SOL    HW118236   4.920   2.457   6.924
 5779SOL    HW218237   4.969   2.392   6.782
 5780SOL     OW18238   5.916   5.521   4.403
 5780SOL    HW118239   5.860   5.584   4.456
 5780SOL    HW218240   5.866   5.437   4.386
 5781SOL     OW18241   6.505   4.485   5.250
 5781SOL    HW118242   6.553   4.551   5.308
 5781SOL    HW218243   6.436   4.437   5.304
 5782SOL     OW18244   0.701   1.623   0.353
 5782SOL    HW118245   0.782   1.607   0.295
 5782SOL    HW218246   0.714   1.577   0.441
 5783SOL     OW18247   1.496   1.610   1.946
 5783SOL    HW118248   1.477   1.655   1.858
 5783SOL    HW218249   1.409   1.580   1.986
 5784SOL     OW18250   0.696   5.840   6.889
 5784SOL    HW118251   0.647   5.753   6.884
 5784SOL    HW218252   0.658   5.895   6.963
 5785SOL     OW18253   2.704   1.956   0.211
 5785SOL    HW118254   2.627   2.020   0.207
 5785SOL    HW218255   2.669   1.863   0.221
 5786SOL     OW18256   6.377   4.262   0.557
 5786SOL    HW118257   6.456   4.258   0.495
 5786SOL    HW218258   6.337   4.171   0.565
 5787SOL     OW18259   1.912   2.018   5.701
 5787SOL    HW118260   1.979   1.966   5.649
 5787SOL    HW218261   1.906   1.983   5.794
 5788SOL     OW18262   2.507   1.409   2.623
 5788SOL    HW118263   2.459   1.496   2.617
 5788SOL    HW218264   2.587   1.411   2.564
 5789SOL     OW18265   3.376   5.040   6.459
 5789SOL    HW118266   3.282   5.008   6.469
 5789SOL    HW218267   3.387   5.128   6.506
 5790SOL     OW18268   0.067   3.426   4.239
 5790SOL    HW118269   0.133   3.479   4.186
 5790SOL    HW218270   0.017   3.487   4.301
 5791SOL     OW18271   3.307   0.293   2.307
 5791SOL    HW118272   3.341   0.299   2.213
 5791SOL    HW218273   3.363   0.230   2.360
 5792SOL     OW18274   0.776   2.351   3.064
 5792SOL    HW118275   0.711   2.325   2.993
 5792SOL    HW218276   0.731   2.410   3.131
 5793SOL     OW18277   5.887   1.183   3.462
 5793SOL    HW118278   5.968   1.124   3.456
 5793SOL    HW218279   5.805   1.131   3.439
 5794SOL     OW18280   3.808   2.476   0.277
 5794SOL    HW118281   3.882   2.539   0.302
 5794SOL    HW218282   3.822   2.443   0.184
 5795SOL     OW18283   5.852   5.244   5.423
 5795SOL    HW118284   5.880   5.208   5.513
 5795SOL    HW218285   5.912   5.208   5.353
 5796SOL     OW18286   3.557   0.829   0.277
 5796SOL    HW118287   3.556   0.900   0.347
 5796SOL    HW218288   3.479   0.841   0.216
 5797SOL     OW18289   4.346   1.456   4.616
 5797SOL    HW118290   4.362   1.472   4.519
 5797SOL    HW218291   4.397   1.523   4.669
 5798SOL     OW18292   0.521   3.762   5.827
 5798SOL    HW118293   0.424   3.783   5.819
 5798SOL    HW218294   0.560   3.746   5.737
 5799SOL     OW18295   5.466   0.827   4.077
 5799SOL    HW118296   5.392   0.766   4.047
 5799SOL    HW218297   5.548   0.773   4.094
 5800SOL     OW18298   5.543   6.178   0.977
 5800SOL    HW118299   5.479   6.174   0.900
 5800SOL    HW218300   5.496   6.150   1.060
 5801SOL     OW18301   0.674   2.176   4.437
 5801SOL    HW118302   0.668   2.166   4.338
 5801SOL    HW218303   0.584   2.196   4.475
 5802SOL     OW18304   0.639   4.661   6.841
 5802SOL    HW118305   0.691   4.616   6.913
 5802SOL    HW218306   0.544   4.628   6.843
 5803SOL     OW18307   1.499   5.097   1.365
 5803SOL    HW118308   1.548   5.030   1.310
 5803SOL    HW218309   1.532   5.189   1.342
 5804SOL     OW18310   6.233   4.307   3.758
 5804SOL    HW118311   6.328   4.317   3.788
 5804SOL    HW218312   6.180   4.263   3.831
 5805SOL     OW18313   3.852   4.225   6.590
 5805SOL    HW118314   3.912   4.147   6.573
 5805SOL    HW218315   3.773   4.195   6.644
 5806SOL     OW18316   0.535   6.453   6.726
 5806SOL    HW118317   0.624   6.424   6.761
 5806SOL    HW218318   0.468   6.452   6.800
 5807SOL     OW18319   1.219   3.819   2.061
 5807SOL    HW118320   1.213   3.726   2.024
 5807SOL    HW218321   1.261   3.816   2.152
 5808SOL     OW18322   5.278   3.790   3.069
 5808SOL    HW118323   5.200   3.750   3.022
 5808SOL    HW218324   5.284   3.887   3.047
 5809SOL     OW18325   0.013   2.928   4.616
 5809SOL    HW118326   6.969   2.983   4.667
 5809SOL    HW218327   6.996   2.905   4.527
 5810SOL     OW18328   2.935   0.847   4.115
 5810SOL    HW118329   2.979   0.762   4.146
 5810SOL    HW218330   2.983   0.881   4.035
 5811SOL     OW18331   3.192   0.866   4.720
 5811SOL    HW118332   3.146   0.951   4.695
 5811SOL    HW218333   3.223   0.871   4.814
 5812SOL     OW18334   5.549   0.196   4.516
 5812SOL    HW118335   5.553   0.224   4.612
 5812SOL    HW218336   5.517   0.102   4.510
 5813SOL     OW18337   1.321   1.332   6.052
 5813SOL    HW118338   1.336   1.425   6.018
 5813SOL    HW218339   1.400   1.304   6.106
 5814SOL     OW18340   6.498   4.503   0.769
 5814SOL    HW118341   6.566   4.430   0.769
 5814SOL    HW218342   6.499   4.550   0.681
 5815SOL     OW18343   4.317   2.343   3.612
 5815SOL    HW118344   4.226   2.375   3.639
 5815SOL    HW218345   4.324   2.245   3.629
 5816SOL     OW18346   5.394   6.480   0.707
 5816SOL    HW118347   5.308   6.451   0.749
 5816SOL    HW218348   5.464   6.490   0.779
 5817SOL     OW18349   5.407   2.811   5.884
 5817SOL    HW118350   5.447   2.895   5.847
 5817SOL    HW218351   5.362   2.760   5.811
 5818SOL     OW18352   0.019   6.159   4.519
 5818SOL    HW118353   6.942   6.148   4.508
 5818SOL    HW218354   0.065   6.125   4.437
 5819SOL     OW18355   4.036   0.571   0.486
 5819SOL    HW118356   3.946   0.528   0.481
 5819SOL    HW218357   4.080   0.565   0.396
 5820SOL     OW18358   4.442   0.125   4.012
 5820SOL    HW118359   4.397   0.196   3.957
 5820SOL    HW218360   4.415   0.035   3.979
 5821SOL     OW18361   1.620   0.223   2.516
 5821SOL    HW118362   1.654   0.147   2.571
 5821SOL    HW218363   1.696   0.284   2.493
 5822SOL     OW18364   0.521   1.930   2.172
 5822SOL    HW118365   0.602   1.972   2.214
 5822SOL    HW218366   0.529   1.831   2.176
 5823SOL     OW18367   0.951   1.122   5.616
 5823SOL    HW118368   1.022   1.181   5.577
 5823SOL    HW218369   0.967   1.027   5.588
 5824SOL     OW18370   0.065   6.276   2.863
 5824SOL    HW118371   7.001   6.254   2.909
 5824SOL    HW218372   0.079   6.375   2.863
 5825SOL     OW18373   2.224   2.375   5.655
 5825SOL    HW118374   2.165   2.369   5.575
 5825SOL    HW218375   2.262   2.285   5.676
 5826SOL     OW18376   0.123   5.689   5.596
 5826SOL    HW118377   0.195   5.619   5.599
 5826SOL    HW218378   0.144   5.756   5.525
 5827SOL     OW18379   1.561   5.163   4.599
 5827SOL    HW118380   1.502   5.083   4.589
 5827SOL    HW218381   1.627   5.166   4.523
 5828SOL     OW18382   6.942   3.160   2.067
 5828SOL    HW118383   6.980   3.192   1.981
 5828SOL    HW218384   6.887   3.233   2.108
 5829SOL     OW18385   2.863   1.408   2.889
 5829SOL    HW118386   2.916   1.455   2.960
 5829SOL    HW218387   2.906   1.422   2.800
 5830SOL     OW18388   3.964   0.579   5.312
 5830SOL    HW118389   3.975   0.489   5.269
 5830SOL    HW218390   3.904   0.570   5.391
 5831SOL     OW18391   6.713   0.038   4.416
 5831SOL    HW118392   6.663   0.051   4.501
 5831SOL    HW218393   6.687   0.110   4.351
 5832SOL     OW18394   3.874   3.714   5.581
 5832SOL    HW118395   3.845   3.736   5.674
 5832SOL    HW218396   3.974   3.705   5.579
 5833SOL     OW18397   3.568   3.159   4.498
 5833SOL    HW118398   3.659   3.117   4.503
 5833SOL    HW218399   3.536   3.179   4.591
 5834SOL     OW18400   5.889   2.070   0.731
 5834SOL    HW118401   5.800   2.037   0.699
 5834SOL    HW218402   5.879   2.161   0.769
 5835SOL     OW18403   4.990   2.570   2.787
 5835SOL    HW118404   5.089   2.585   2.788
 5835SOL    HW218405   4.959   2.565   2.692
 5836SOL     OW18406   2.563   6.454   3.359
 5836SOL    HW118407   2.602   6.388   3.296
 5836SOL    HW218408   2.466   6.434   3.372
 5837SOL     OW18409   4.305   4.596   6.268
 5837SOL    HW118410   4.321   4.682   6.218
 5837SOL    HW218411   4.382   4.579   6.329
 5838SOL     OW18412   2.221   1.461   5.781
 5838SOL    HW118413   2.283   1.495   5.711
 5838SOL    HW218414   2.172   1.538   5.823
 5839SOL     OW18415   0.580   2.513   2.396
 5839SOL    HW118416   0.534   2.516   2.308
 5839SOL    HW218417   0.517   2.477   2.466
 5840SOL     OW18418   1.404   5.253   0.069
 5840SOL    HW118419   1.414   5.352   0.075
 5840SOL    HW218420   1.405   5.214   0.161
 5841SOL     OW18421   5.792   2.887   2.347
 5841SOL    HW118422   5.825   2.965   2.401
 5841SOL    HW218423   5.735   2.921   2.272
 5842SOL     OW18424   4.305   3.546   1.294
 5842SOL    HW118425   4.343   3.592   1.374
 5842SOL    HW218426   4.257   3.612   1.236
 5843SOL     OW18427   2.226   4.070   2.405
 5843SOL    HW118428   2.209   4.018   2.488
 5843SOL    HW218429   2.204   4.013   2.325
 5844SOL     OW18430   0.146   0.031   6.046
 5844SOL    HW118431   0.138   6.974   5.985
 5844SOL    HW218432   0.059   0.080   6.047
 5845SOL     OW18433   0.948   0.677   2.884
 5845SOL    HW118434   0.996   0.674   2.796
 5845SOL    HW218435   0.959   0.767   2.925
 5846SOL     OW18436   6.575   3.276   4.878
 5846SOL    HW118437   6.636   3.332   4.820
 5846SOL    HW218438   6.591   3.299   4.974
 5847SOL     OW18439   2.040   1.783   2.425
 5847SOL    HW118440   2.083   1.872   2.439
 5847SOL    HW218441   1.949   1.796   2.386
 5848SOL     OW18442   2.654   4.621   3.630
 5848SOL    HW118443   2.636   4.579   3.541
 5848SOL    HW218444   2.748   4.656   3.632
 5849SOL     OW18445   0.144   0.678   6.119
 5849SOL    HW118446   0.073   0.719   6.062
 5849SOL    HW218447   0.222   0.652   6.062
 5850SOL     OW18448   1.223   3.112   1.867
 5850SOL    HW118449   1.293   3.042   1.883
 5850SOL    HW218450   1.164   3.119   1.947
 5851SOL     OW18451   5.008   2.896   2.937
 5851SOL    HW118452   5.054   2.822   2.986
 5851SOL    HW218453   5.020   2.884   2.838
 5852SOL     OW18454   4.891   6.613   2.794
 5852SOL    HW118455   4.866   6.589   2.700
 5852SOL    HW218456   4.969   6.557   2.824
 5853SOL     OW18457   3.192   5.995   5.544
 5853SOL    HW118458   3.202   5.896   5.533
 5853SOL    HW218459   3.261   6.041   5.488
 5854SOL     OW18460   6.494   3.555   6.101
 5854SOL    HW118461   6.557   3.631   6.113
 5854SOL    HW218462   6.525   3.477   6.155
 5855SOL     OW18463   0.684   0.608   4.981
 5855SOL    HW118464   0.730   0.598   4.893
 5855SOL    HW218465   0.636   0.524   5.003
 5856SOL     OW18466   2.218   5.260   3.818
 5856SOL    HW118467   2.249   5.316   3.741
 5856SOL    HW218468   2.264   5.289   3.902
 5857SOL     OW18469   5.354   2.671   4.661
 5857SOL    HW118470   5.401   2.756   4.638
 5857SOL    HW218471   5.276   2.659   4.600
 5858SOL     OW18472   2.674   2.374   1.872
 5858SOL    HW118473   2.648   2.439   1.801
 5858SOL    HW218474   2.772   2.382   1.891
 5859SOL     OW18475   5.539   6.499   0.928
 5859SOL    HW118476   5.449   6.512   0.969
 5859SOL    HW218477   5.572   6.407   0.950
 5860SOL     OW18478   2.104   3.734   1.916
 5860SOL    HW118479   2.141   3.645   1.945
 5860SOL    HW218480   2.160   3.807   1.954
 5861SOL     OW18481   5.367   1.444   3.860
 5861SOL    HW118482   5.270   1.445   3.835
 5861SOL    HW218483   5.401   1.350   3.856
 5862SOL     OW18484   4.546   4.935   3.280
 5862SOL    HW118485   4.468   4.876   3.256
 5862SOL    HW218486   4.529   5.028   3.248
 5863SOL     OW18487   2.773   0.822   5.059
 5863SOL    HW118488   2.787   0.813   4.961
 5863SOL    HW218489   2.676   0.838   5.078
 5864SOL     OW18490   3.997   3.983   1.689
 5864SOL    HW118491   3.898   3.992   1.703
 5864SOL    HW218492   4.014   3.921   1.612
 5865SOL     OW18493   5.171   0.410   4.081
 5865SOL    HW118494   5.105   0.430   4.154
 5865SOL    HW218495   5.133   0.439   3.993
 5866SOL     OW18496   3.743   6.269   6.504
 5866SOL    HW118497   3.693   6.334   6.448
 5866SOL    HW218498   3.718   6.280   6.600
 5867SOL     OW18499   0.468   3.335   0.823
 5867SOL    HW118500   0.497   3.240   0.811
 5867SOL    HW218501   0.449   3.376   0.734
 5868SOL     OW18502   0.170   0.641   4.903
 5868SOL    HW118503   0.090   0.599   4.860
 5868SOL    HW218504   0.145   0.732   4.937
 5869SOL     OW18505   1.826   5.027   3.729
 5869SOL    HW118506   1.881   5.090   3.784
 5869SOL    HW218507   1.883   4.986   3.658
 5870SOL     OW18508   4.868   5.766   5.363
 5870SOL    HW118509   4.863   5.789   5.460
 5870SOL    HW218510   4.833   5.674   5.348
 5871SOL     OW18511   4.302   4.084   0.474
 5871SOL    HW118512   4.295   4.180   0.504
 5871SOL    HW218513   4.320   4.026   0.553
 5872SOL     OW18514   4.092   5.392   6.903
 5872SOL    HW118515   3.992   5.383   6.905
 5872SOL    HW218516   4.121   5.459   6.971
 5873SOL     OW18517   1.877   2.706   0.482
 5873SOL    HW118518   1.865   2.610   0.458
 5873SOL    HW218519   1.822   2.728   0.563
 5874SOL     OW18520   2.971   2.905   1.429
 5874SOL    HW118521   2.954   2.911   1.528
 5874SOL    HW218522   3.050   2.963   1.406
 5875SOL     OW18523   3.937   1.332   0.294
 5875SOL    HW118524   4.013   1.345   0.230
 5875SOL    HW218525   3.972   1.303   0.383
 5876SOL     OW18526   3.527   2.854   6.574
 5876SOL    HW118527   3.588   2.876   6.498
 5876SOL    HW218528   3.462   2.783   6.547
 5877SOL     OW18529   6.069   6.638   1.290
 5877SOL    HW118530   6.047   6.652   1.193
 5877SOL    HW218531   6.161   6.601   1.298
 5878SOL     OW18532   5.752   6.100   3.174
 5878SOL    HW118533   5.775   6.196   3.162
 5878SOL    HW218534   5.754   6.076   3.271
 5879SOL     OW18535   3.528   2.766   5.964
 5879SOL    HW118536   3.465   2.843   5.967
 5879SOL    HW218537   3.548   2.742   5.869
 5880SOL     OW18538   4.572   3.926   5.640
 5880SOL    HW118539   4.522   3.954   5.559
 5880SOL    HW218540   4.548   3.985   5.717
 5881SOL     OW18541   1.267   6.990   2.693
 5881SOL    HW118542   1.351   0.015   2.721
 5881SOL    HW218543   1.188   0.017   2.728
 5882SOL     OW18544   1.550   6.764   5.950
 5882SOL    HW118545   1.564   6.800   5.858
 5882SOL    HW218546   1.600   6.821   6.016
 5883SOL     OW18547   0.173   2.644   0.255
 5883SOL    HW118548   0.173   2.744   0.257
 5883SOL    HW218549   0.266   2.610   0.264
 5884SOL     OW18550   6.711   0.905   4.549
 5884SOL    HW118551   6.788   0.915   4.486
 5884SOL    HW218552   6.742   0.921   4.643
 5885SOL     OW18553   0.707   5.652   0.438
 5885SOL    HW118554   0.766   5.685   0.364
 5885SOL    HW218555   0.646   5.725   0.467
 5886SOL     OW18556   1.221   3.038   3.315
 5886SOL    HW118557   1.174   3.063   3.400
 5886SOL    HW218558   1.177   3.083   3.238
 5887SOL     OW18559   2.336   2.023   1.724
 5887SOL    HW118560   2.277   2.023   1.805
 5887SOL    HW218561   2.361   1.929   1.701
 5888SOL     OW18562   2.942   0.461   0.929
 5888SOL    HW118563   2.846   0.436   0.944
 5888SOL    HW218564   2.987   0.473   1.018
 5889SOL     OW18565   6.966   1.765   1.330
 5889SOL    HW118566   7.001   1.674   1.349
 5889SOL    HW218567   6.867   1.767   1.348
 5890SOL     OW18568   2.011   6.587   2.127
 5890SOL    HW118569   2.001   6.498   2.171
 5890SOL    HW218570   1.927   6.607   2.075
 5891SOL     OW18571   2.674   3.269   0.338
 5891SOL    HW118572   2.713   3.296   0.426
 5891SOL    HW218573   2.577   3.246   0.350
 5892SOL     OW18574   0.452   4.247   0.762
 5892SOL    HW118575   0.517   4.323   0.769
 5892SOL    HW218576   0.394   4.260   0.682
 5893SOL     OW18577   1.400   5.177   1.065
 5893SOL    HW118578   1.484   5.227   1.042
 5893SOL    HW218579   1.407   5.140   1.158
 5894SOL     OW18580   0.891   5.713   5.788
 5894SOL    HW118581   0.910   5.742   5.694
 5894SOL    HW218582   0.801   5.669   5.792
 5895SOL     OW18583   6.272   3.196   4.454
 5895SOL    HW118584   6.337   3.124   4.478
 5895SOL    HW218585   6.254   3.253   4.534
 5896SOL     OW18586   5.601   1.299   1.540
 5896SOL    HW118587   5.544   1.379   1.520
 5896SOL    HW218588   5.579   1.264   1.631
 5897SOL     OW18589   3.911   1.749   1.644
 5897SOL    HW118590   3.818   1.785   1.632
 5897SOL    HW218591   3.973   1.823   1.669
 5898SOL     OW18592   2.323   2.144   5.745
 5898SOL    HW118593   2.421   2.164   5.747
 5898SOL    HW218594   2.303   2.082   5.668
 5899SOL     OW18595   6.971   5.233   5.904
 5899SOL    HW118596   6.984   5.302   5.976
 5899SOL    HW218597   6.889   5.255   5.851
 5900SOL     OW18598   0.254   5.244   2.697
 5900SOL    HW118599   0.290   5.159   2.659
 5900SOL    HW218600   0.326   5.291   2.748
 5901SOL     OW18601   0.891   0.555   6.932
 5901SOL    HW118602   0.872   0.491   6.858
 5901SOL    HW218603   0.985   0.542   6.964
 5902SOL     OW18604   5.542   3.443   4.779
 5902SOL    HW118605   5.619   3.393   4.818
 5902SOL    HW218606   5.572   3.492   4.697
 5903SOL     OW18607   5.465   2.904   0.052
 5903SOL    HW118608   5.478   2.806   0.032
 5903SOL    HW218609   5.554   2.950   0.048
 5904SOL     OW18610   1.197   4.716   1.264
 5904SOL    HW118611   1.290   4.750   1.274
 5904SOL    HW218612   1.175   4.654   1.340
 5905SOL     OW18613   5.393   0.978   3.588
 5905SOL    HW118614   5.337   1.008   3.511
 5905SOL    HW218615   5.385   1.045   3.662
 5906SOL     OW18616   5.689   1.507   5.301
 5906SOL    HW118617   5.640   1.569   5.240
 5906SOL    HW218618   5.663   1.413   5.281
 5907SOL     OW18619   1.616   0.768   0.373
 5907SOL    HW118620   1.516   0.759   0.381
 5907SOL    HW218621   1.638   0.817   0.289
 5908SOL     OW18622   4.787   3.412   0.368
 5908SOL    HW118623   4.830   3.487   0.317
 5908SOL    HW218624   4.730   3.358   0.307
 5909SOL     OW18625   0.788   4.210   5.485
 5909SOL    HW118626   0.746   4.213   5.394
 5909SOL    HW218627   0.859   4.280   5.492
 5910SOL     OW18628   1.068   4.088   1.436
 5910SOL    HW118629   1.148   4.032   1.457
 5910SOL    HW218630   1.097   4.178   1.405
 5911SOL     OW18631   0.478   5.693   6.224
 5911SOL    HW118632   0.468   5.631   6.302
 5911SOL    HW218633   0.427   5.777   6.241
 5912SOL     OW18634   6.021   3.501   6.916
 5912SOL    HW118635   5.973   3.475   7.000
 5912SOL    HW218636   5.986   3.589   6.884
 5913SOL     OW18637   2.280   2.614   5.752
 5913SOL    HW118638   2.264   2.528   5.704
 5913SOL    HW218639   2.196   2.643   5.797
 5914SOL     OW18640   2.789   6.193   6.948
 5914SOL    HW118641   2.798   6.123   6.877
 5914SOL    HW218642   2.876   6.242   6.958
 5915SOL     OW18643   5.332   2.864   2.638
 5915SOL    HW118644   5.382   2.940   2.679
 5915SOL    HW218645   5.234   2.881   2.646
 5916SOL     OW18646   4.603   0.295   5.942
 5916SOL    HW118647   4.522   0.346   5.915
 5916SOL    HW218648   4.627   0.229   5.870
 5917SOL     OW18649   3.946   3.004   3.636
 5917SOL    HW118650   4.036   2.997   3.593
 5917SOL    HW218651   3.937   2.936   3.708
 5918SOL     OW18652   1.615   3.505   4.434
 5918SOL    HW118653   1.572   3.595   4.448
 5918SOL    HW218654   1.712   3.511   4.458
 5919SOL     OW18655   2.898   2.371   0.654
 5919SOL    HW118656   2.807   2.410   0.669
 5919SOL    HW218657   2.952   2.379   0.738
 5920SOL     OW18658   3.191   6.834   0.202
 5920SOL    HW118659   3.100   6.832   0.162
 5920SOL    HW218660   3.188   6.798   0.296
 5921SOL     OW18661   4.093   5.375   5.380
 5921SOL    HW118662   4.104   5.291   5.328
 5921SOL    HW218663   4.183   5.413   5.402
 5922SOL     OW18664   6.469   4.525   2.802
 5922SOL    HW118665   6.387   4.509   2.747
 5922SOL    HW218666   6.443   4.548   2.896
 5923SOL     OW18667   6.641   0.390   3.516
 5923SOL    HW118668   6.696   0.322   3.564
 5923SOL    HW218669   6.675   0.481   3.538
 5924SOL     OW18670   5.416   2.427   4.752
 5924SOL    HW118671   5.421   2.436   4.852
 5924SOL    HW218672   5.398   2.516   4.711
 5925SOL     OW18673   4.500   6.024   2.926
 5925SOL    HW118674   4.480   6.024   2.828
 5925SOL    HW218675   4.582   6.079   2.944
 5926SOL     OW18676   3.351   5.374   1.963
 5926SOL    HW118677   3.383   5.359   2.056
 5926SOL    HW218678   3.423   5.418   1.909
 5927SOL     OW18679   2.686   5.920   1.297
 5927SOL    HW118680   2.766   5.891   1.348
 5927SOL    HW218681   2.604   5.875   1.334
 5928SOL     OW18682   1.957   0.523   2.180
 5928SOL    HW118683   1.882   0.460   2.158
 5928SOL    HW218684   1.925   0.590   2.247
 5929SOL     OW18685   0.994   6.465   5.835
 5929SOL    HW118686   0.986   6.492   5.931
 5929SOL    HW218687   1.088   6.435   5.817
 5930SOL     OW18688   6.167   1.468   4.114
 5930SOL    HW118689   6.077   1.424   4.110
 5930SOL    HW218690   6.159   1.563   4.083
 5931SOL     OW18691   6.007   5.440   1.847
 5931SOL    HW118692   5.908   5.442   1.858
 5931SOL    HW218693   6.042   5.352   1.880
 5932SOL     OW18694   2.542   6.612   0.953
 5932SOL    HW118695   2.564   6.525   0.997
 5932SOL    HW218696   2.443   6.616   0.937
 5933SOL     OW18697   0.135   3.991   2.289
 5933SOL    HW118698   0.174   4.081   2.307
 5933SOL    HW218699   0.205   3.921   2.300
 5934SOL     OW18700   4.092   3.309   3.123
 5934SOL    HW118701   4.077   3.233   3.186
 5934SOL    HW218702   4.103   3.394   3.174
 5935SOL     OW18703   3.792   4.115   4.553
 5935SOL    HW118704   3.852   4.145   4.627
 5935SOL    HW218705   3.698   4.142   4.573
 5936SOL     OW18706   4.691   4.383   6.763
 5936SOL    HW118707   4.695   4.363   6.665
 5936SOL    HW218708   4.779   4.361   6.805
 5937SOL     OW18709   0.779   3.503   1.621
 5937SOL    HW118710   0.862   3.497   1.565
 5937SOL    HW218711   0.702   3.533   1.564
 5938SOL     OW18712   1.577   5.011   3.458
 5938SOL    HW118713   1.505   5.013   3.527
 5938SOL    HW218714   1.646   5.081   3.479
 5939SOL     OW18715   3.328   0.699   2.996
 5939SOL    HW118716   3.266   0.777   2.989
 5939SOL    HW218717   3.413   0.720   2.946
 5940SOL     OW18718   3.797   6.675   2.047
 5940SOL    HW118719   3.884   6.709   2.014
 5940SOL    HW218720   3.726   6.693   1.978
 5941SOL     OW18721   5.895   4.981   2.015
 5941SOL    HW118722   5.907   4.999   1.918
 5941SOL    HW218723   5.985   4.965   2.058
 5942SOL     OW18724   4.096   3.167   6.571
 5942SOL    HW118725   4.154   3.089   6.550
 5942SOL    HW218726   4.137   3.222   6.643
 5943SOL     OW18727   2.437   6.221   0.649
 5943SOL    HW118728   2.447   6.315   0.618
 5943SOL    HW218729   2.341   6.194   0.644
 5944SOL     OW18730   5.409   1.494   1.515
 5944SOL    HW118731   5.354   1.524   1.437
 5944SOL    HW218732   5.398   1.561   1.590
 5945SOL     OW18733   6.764   4.974   5.266
 5945SOL    HW118734   6.815   4.894   5.236
 5945SOL    HW218735   6.666   4.952   5.270
 5946SOL     OW18736   3.270   4.032   6.083
 5946SOL    HW118737   3.180   4.076   6.073
 5946SOL    HW218738   3.307   4.012   5.992
 5947SOL     OW18739   4.146   3.170   1.836
 5947SOL    HW118740   4.098   3.083   1.827
 5947SOL    HW218741   4.104   3.224   1.909
 5948SOL     OW18742   3.945   5.096   2.858
 5948SOL    HW118743   3.870   5.036   2.828
 5948SOL    HW218744   3.936   5.114   2.956
 5949SOL     OW18745   3.675   4.669   1.036
 5949SOL    HW118746   3.621   4.731   0.980
 5949SOL    HW218747   3.739   4.618   0.978
 5950SOL     OW18748   5.489   1.800   4.549
 5950SOL    HW118749   5.494   1.893   4.512
 5950SOL    HW218750   5.504   1.734   4.475
 5951SOL     OW18751   1.641   6.578   4.588
 5951SOL    HW118752   1.593   6.585   4.501
 5951SOL    HW218753   1.636   6.484   4.621
 5952SOL     OW18754   6.559   5.751   3.770
 5952SOL    HW118755   6.475   5.750   3.716
 5952SOL    HW218756   6.536   5.750   3.867
 5953SOL     OW18757   0.205   3.319   5.141
 5953SOL    HW118758   0.253   3.277   5.219
 5953SOL    HW218759   0.143   3.252   5.100
 5954SOL     OW18760   6.764   4.726   5.734
 5954SOL    HW118761   6.809   4.664   5.798
 5954SOL    HW218762   6.832   4.766   5.672
 5955SOL     OW18763   5.728   5.737   2.007
 5955SOL    HW118764   5.647   5.680   2.018
 5955SOL    HW218765   5.713   5.803   1.933
 5956SOL     OW18766   4.007   1.874   0.050
 5956SOL    HW118767   3.909   1.856   0.064
 5956SOL    HW218768   4.058   1.789   0.060
 5957SOL     OW18769   4.733   6.405   6.101
 5957SOL    HW118770   4.790   6.348   6.161
 5957SOL    HW218771   4.637   6.396   6.129
 5958SOL     OW18772   6.461   6.358   2.189
 5958SOL    HW118773   6.412   6.361   2.276
 5958SOL    HW218774   6.398   6.330   2.116
 5959SOL     OW18775   3.112   1.858   5.699
 5959SOL    HW118776   3.138   1.890   5.790
 5959SOL    HW218777   3.153   1.769   5.681
 5960SOL     OW18778   3.283   7.021   4.112
 5960SOL    HW118779   3.360   6.959   4.128
 5960SOL    HW218780   3.198   6.977   4.141
 5961SOL     OW18781   4.077   0.884   4.040
 5961SOL    HW118782   4.037   0.876   4.132
 5961SOL    HW218783   4.041   0.966   3.996
 5962SOL     OW18784   5.479   5.424   2.785
 5962SOL    HW118785   5.412   5.399   2.715
 5962SOL    HW218786   5.473   5.522   2.803
 5963SOL     OW18787   3.312   3.829   3.678
 5963SOL    HW118788   3.348   3.754   3.734
 5963SOL    HW218789   3.358   3.829   3.589
 5964SOL     OW18790   6.506   5.265   6.864
 5964SOL    HW118791   6.597   5.306   6.868
 5964SOL    HW218792   6.509   5.172   6.901
 5965SOL     OW18793   1.727   2.236   6.618
 5965SOL    HW118794   1.772   2.261   6.704
 5965SOL    HW218795   1.725   2.314   6.556
 5966SOL     OW18796   3.176   5.604   4.842
 5966SOL    HW118797   3.217   5.681   4.792
 5966SOL    HW218798   3.235   5.524   4.834
 5967SOL     OW18799   4.248   6.210   2.235
 5967SOL    HW118800   4.223   6.160   2.151
 5967SOL    HW218801   4.167   6.257   2.270
 5968SOL     OW18802   6.061   2.202   3.081
 5968SOL    HW118803   6.093   2.260   3.007
 5968SOL    HW218804   6.091   2.108   3.065
 5969SOL     OW18805   6.145   2.909   4.910
 5969SOL    HW118806   6.185   2.918   4.819
 5969SOL    HW218807   6.060   2.962   4.914
 5970SOL     OW18808   1.060   3.797   2.400
 5970SOL    HW118809   1.130   3.736   2.438
 5970SOL    HW218810   0.997   3.744   2.343
 5971SOL     OW18811   1.508   0.137   3.030
 5971SOL    HW118812   1.502   0.228   3.070
 5971SOL    HW218813   1.477   0.140   2.935
 5972SOL     OW18814   4.737   6.437   0.625
 5972SOL    HW118815   4.655   6.494   0.630
 5972SOL    HW218816   4.794   6.453   0.706
 5973SOL     OW18817   1.905   5.103   2.313
 5973SOL    HW118818   1.936   5.093   2.218
 5973SOL    HW218819   1.811   5.138   2.313
 5974SOL     OW18820   6.346   3.777   6.227
 5974SOL    HW118821   6.363   3.688   6.185
 5974SOL    HW218822   6.247   3.793   6.230
 5975SOL     OW18823   4.121   2.566   1.005
 5975SOL    HW118824   4.143   2.549   0.909
 5975SOL    HW218825   4.022   2.564   1.018
 5976SOL     OW18826   3.410   2.891   4.504
 5976SOL    HW118827   3.465   2.943   4.439
 5976SOL    HW218828   3.326   2.941   4.523
 5977SOL     OW18829   1.622   4.813   1.667
 5977SOL    HW118830   1.651   4.727   1.625
 5977SOL    HW218831   1.692   4.882   1.653
 5978SOL     OW18832   4.963   4.155   2.813
 5978SOL    HW118833   5.025   4.196   2.747
 5978SOL    HW218834   4.878   4.128   2.768
 5979SOL     OW18835   6.249   0.094   3.489
 5979SOL    HW118836   6.250   0.194   3.483
 5979SOL    HW218837   6.288   0.066   3.577
 5980SOL     OW18838   4.259   4.204   0.065
 5980SOL    HW118839   4.293   4.126   0.117
 5980SOL    HW218840   4.319   4.221   7.008
 5981SOL     OW18841   6.767   1.500   1.781
 5981SOL    HW118842   6.799   1.587   1.743
 5981SOL    HW218843   6.679   1.514   1.827
 5982SOL     OW18844   6.074   2.172   6.516
 5982SOL    HW118845   6.071   2.073   6.501
 5982SOL    HW218846   6.040   2.192   6.608
 5983SOL     OW18847   2.210   1.819   4.247
 5983SOL    HW118848   2.200   1.855   4.154
 5983SOL    HW218849   2.152   1.871   4.309
 5984SOL     OW18850   0.189   6.334   4.642
 5984SOL    HW118851   0.134   6.260   4.603
 5984SOL    HW218852   0.148   6.364   4.728
 5985SOL     OW18853   5.320   1.891   3.550
 5985SOL    HW118854   5.329   1.966   3.484
 5985SOL    HW218855   5.377   1.814   3.521
 5986SOL     OW18856   3.285   3.213   3.717
 5986SOL    HW118857   3.292   3.204   3.618
 5986SOL    HW218858   3.243   3.301   3.740
 5987SOL     OW18859   4.640   0.632   5.286
 5987SOL    HW118860   4.704   0.644   5.362
 5987SOL    HW218861   4.691   0.609   5.203
 5988SOL     OW18862   4.091   6.876   4.747
 5988SOL    HW118863   4.152   6.948   4.714
 5988SOL    HW218864   4.144   6.808   4.797
 5989SOL     OW18865   2.614   6.336   6.495
 5989SOL    HW118866   2.576   6.327   6.403
 5989SOL    HW218867   2.588   6.424   6.534
 5990SOL     OW18868   3.592   4.585   0.404
 5990SOL    HW118869   3.661   4.515   0.424
 5990SOL    HW218870   3.605   4.619   0.310
 5991SOL     OW18871   4.314   5.004   5.293
 5991SOL    HW118872   4.304   4.905   5.306
 5991SOL    HW218873   4.394   5.022   5.235
 5992SOL     OW18874   3.530   1.014   4.000
 5992SOL    HW118875   3.508   1.092   3.941
 5992SOL    HW218876   3.610   0.966   3.963
 5993SOL     OW18877   3.751   6.506   5.264
 5993SOL    HW118878   3.688   6.478   5.336
 5993SOL    HW218879   3.755   6.434   5.194
 5994SOL     OW18880   6.263   2.389   1.778
 5994SOL    HW118881   6.276   2.311   1.840
 5994SOL    HW218882   6.268   2.357   1.683
 5995SOL     OW18883   0.338   5.110   1.106
 5995SOL    HW118884   0.346   5.176   1.031
 5995SOL    HW218885   0.285   5.151   1.181
 5996SOL     OW18886   0.627   5.547   6.607
 5996SOL    HW118887   0.696   5.569   6.539
 5996SOL    HW218888   0.536   5.562   6.567
 5997SOL     OW18889   0.274   0.043   1.972
 5997SOL    HW118890   0.347   7.010   2.012
 5997SOL    HW218891   0.312   0.101   1.900
 5998SOL     OW18892   5.503   2.348   2.565
 5998SOL    HW118893   5.413   2.392   2.557
 5998SOL    HW218894   5.514   2.312   2.658
 5999SOL     OW18895   0.854   1.706   3.400
 5999SOL    HW118896   0.953   1.693   3.398
 5999SOL    HW218897   0.821   1.724   3.308
 6000SOL     OW18898   4.060   5.331   2.465
 6000SOL    HW118899   4.109   5.245   2.450
 6000SOL    HW218900   4.009   5.325   2.551
 6001SOL     OW18901   6.954   3.222   6.619
 6001SOL    HW118902   7.016   3.247   6.544
 6001SOL    HW218903   6.861   3.214   6.584
 6002SOL     OW18904   0.342   6.443   1.194
 6002SOL    HW118905   0.342   6.442   1.294
 6002SOL    HW218906   0.390   6.363   1.160
 6003SOL     OW18907   5.152   3.543   4.575
 6003SOL    HW118908   5.202   3.517   4.492
 6003SOL    HW218909   5.115   3.460   4.618
 6004SOL     OW18910   0.351   3.672   3.209
 6004SOL    HW118911   0.409   3.636   3.137
 6004SOL    HW218912   0.386   3.644   3.298
 6005SOL     OW18913   4.189   5.392   4.199
 6005SOL    HW118914   4.102   5.360   4.161
 6005SOL    HW218915   4.200   5.489   4.182
 6006SOL     OW18916   3.267   0.445   6.540
 6006SOL    HW118917   3.218   0.398   6.466
 6006SOL    HW218918   3.334   0.383   6.581
 6007SOL     OW18919   5.197   3.118   3.727
 6007SOL    HW118920   5.250   3.096   3.808
 6007SOL    HW218921   5.153   3.035   3.693
 6008SOL     OW18922   3.300   5.642   5.301
 6008SOL    HW118923   3.246   5.662   5.220
 6008SOL    HW218924   3.342   5.552   5.292
 6009SOL     OW18925   2.530   1.672   4.792
 6009SOL    HW118926   2.478   1.712   4.716
 6009SOL    HW218927   2.574   1.587   4.761
 6010SOL     OW18928   2.043   4.504   2.358
 6010SOL    HW118929   1.988   4.468   2.434
 6010SOL    HW218930   1.982   4.550   2.293
 6011SOL     OW18931   5.069   2.459   1.539
 6011SOL    HW118932   5.032   2.445   1.630
 6011SOL    HW218933   5.069   2.557   1.518
 6012SOL     OW18934   6.427   2.111   6.848
 6012SOL    HW118935   6.444   2.063   6.762
 6012SOL    HW218936   6.514   2.138   6.889
 6013SOL     OW18937   6.301   1.611   1.925
 6013SOL    HW118938   6.353   1.566   1.852
 6013SOL    HW218939   6.260   1.543   1.985
 6014SOL     OW18940   5.769   1.829   0.893
 6014SOL    HW118941   5.707   1.844   0.970
 6014SOL    HW218942   5.718   1.789   0.817
 6015SOL     OW18943   5.896   2.383   5.377
 6015SOL    HW118944   5.953   2.303   5.360
 6015SOL    HW218945   5.882   2.432   5.290
 6016SOL     OW18946   0.686   1.167   6.228
 6016SOL    HW118947   0.608   1.108   6.246
 6016SOL    HW218948   0.658   1.242   6.167
 6017SOL     OW18949   5.925   5.712   3.489
 6017SOL    HW118950   5.936   5.749   3.397
 6017SOL    HW218951   5.875   5.625   3.484
 6018SOL     OW18952   3.245   3.273   0.162
 6018SOL    HW118953   3.295   3.195   0.200
 6018SOL    HW218954   3.246   3.349   0.227
 6019SOL     OW18955   4.797   1.610   2.960
 6019SOL    HW118956   4.840   1.522   2.940
 6019SOL    HW218957   4.727   1.598   3.031
 6020SOL     OW18958   3.213   6.903   2.258
 6020SOL    HW118959   3.189   6.970   2.328
 6020SOL    HW218960   3.138   6.838   2.248
 6021SOL     OW18961   4.642   0.432   2.837
 6021SOL    HW118962   4.618   0.521   2.798
 6021SOL    HW218963   4.560   0.376   2.844
 6022SOL     OW18964   4.854   1.091   3.411
 6022SOL    HW118965   4.795   1.026   3.364
 6022SOL    HW218966   4.806   1.129   3.490
 6023SOL     OW18967   6.095   1.063   3.658
 6023SOL    HW118968   6.110   1.129   3.731
 6023SOL    HW218969   6.183   1.023   3.631
 6024SOL     OW18970   0.338   4.771   1.991
 6024SOL    HW118971   0.273   4.801   2.060
 6024SOL    HW218972   0.430   4.800   2.017
 6025SOL     OW18973   4.404   0.599   1.570
 6025SOL    HW118974   4.499   0.594   1.538
 6025SOL    HW218975   4.380   0.695   1.588
 6026SOL     OW18976   0.380   4.804   4.474
 6026SOL    HW118977   0.389   4.775   4.379
 6026SOL    HW218978   0.430   4.890   4.487
 6027SOL     OW18979   2.258   4.423   6.182
 6027SOL    HW118980   2.342   4.371   6.195
 6027SOL    HW218981   2.213   4.393   6.098
 6028SOL     OW18982   1.448   4.102   0.308
 6028SOL    HW118983   1.428   4.004   0.305
 6028SOL    HW218984   1.536   4.117   0.352
 6029SOL     OW18985   2.244   6.380   0.384
 6029SOL    HW118986   2.301   6.417   0.457
 6029SOL    HW218987   2.156   6.349   0.422
 6030SOL     OW18988   2.382   0.803   3.059
 6030SOL    HW118989   2.397   0.902   3.049
 6030SOL    HW218990   2.320   0.771   2.988
 6031SOL     OW18991   4.721   5.843   5.619
 6031SOL    HW118992   4.768   5.926   5.647
 6031SOL    HW218993   4.717   5.779   5.695
 6032SOL     OW18994   1.607   3.509   2.852
 6032SOL    HW118995   1.640   3.420   2.881
 6032SOL    HW218996   1.613   3.516   2.752
 6033SOL     OW18997   2.440   2.267   3.434
 6033SOL    HW118998   2.517   2.205   3.423
 6033SOL    HW218999   2.460   2.354   3.389
 6034SOL     OW19000   2.629   4.693   4.486
 6034SOL    HW119001   2.683   4.714   4.567
 6034SOL    HW219002   2.592   4.600   4.494
 6035SOL     OW19003   5.333   1.143   4.539
 6035SOL    HW119004   5.376   1.222   4.583
 6035SOL    HW219005   5.254   1.174   4.485
 6036SOL     OW19006   7.002   6.920   5.171
 6036SOL    HW119007   0.074   6.914   5.203
 6036SOL    HW219008   6.941   6.941   5.247
 6037SOL     OW19009   4.992   4.645   6.084
 6037SOL    HW119010   4.940   4.727   6.063
 6037SOL    HW219011   5.054   4.624   6.008
 6038SOL     OW19012   0.634   3.219   6.691
 6038SOL    HW119013   0.585   3.164   6.759
 6038SOL    HW219014   0.732   3.215   6.710
 6039SOL     OW19015   3.279   3.319   2.500
 6039SOL    HW119016   3.372   3.354   2.484
 6039SOL    HW219017   3.273   3.282   2.592
 6040SOL     OW19018   0.553   1.665   6.555
 6040SOL    HW119019   0.546   1.723   6.637
 6040SOL    HW219020   0.627   1.599   6.568
 6041SOL     OW19021   1.264   2.206   6.881
 6041SOL    HW119022   1.363   2.191   6.887
 6041SOL    HW219023   1.246   2.303   6.869
 6042SOL     OW19024   5.555   5.186   2.472
 6042SOL    HW119025   5.592   5.095   2.494
 6042SOL    HW219026   5.611   5.256   2.517
 6043SOL     OW19027   1.287   5.096   4.842
 6043SOL    HW119028   1.240   5.011   4.820
 6043SOL    HW219029   1.252   5.170   4.785
 6044SOL     OW19030   0.153   1.936   1.404
 6044SOL    HW119031   0.073   1.883   1.374
 6044SOL    HW219032   0.234   1.904   1.354
 6045SOL     OW19033   5.321   5.707   0.814
 6045SOL    HW119034   5.339   5.617   0.852
 6045SOL    HW219035   5.239   5.704   0.758
 6046SOL     OW19036   2.902   2.212   0.435
 6046SOL    HW119037   2.802   2.213   0.428
 6046SOL    HW219038   2.932   2.281   0.501
 6047SOL     OW19039   6.082   0.842   4.234
 6047SOL    HW119040   6.062   0.776   4.307
 6047SOL    HW219041   6.001   0.852   4.176
 6048SOL     OW19042   3.889   0.538   3.702
 6048SOL    HW119043   3.848   0.447   3.703
 6048SOL    HW219044   3.946   0.549   3.784
 6049SOL     OW19045   4.389   3.124   5.988
 6049SOL    HW119046   4.380   3.209   6.039
 6049SOL    HW219047   4.306   3.069   5.998
 6050SOL     OW19048   3.978   4.581   5.783
 6050SOL    HW119049   4.003   4.541   5.695
 6050SOL    HW219050   4.012   4.675   5.787
 6051SOL     OW19051   2.147   2.518   2.820
 6051SOL    HW119052   2.118   2.557   2.907
 6051SOL    HW219053   2.106   2.428   2.808
 6052SOL     OW19054   6.665   0.520   0.339
 6052SOL    HW119055   6.711   0.606   0.364
 6052SOL    HW219056   6.576   0.540   0.300
 6053SOL     OW19057   3.135   0.421   0.204
 6053SOL    HW119058   3.215   0.480   0.215
 6053SOL    HW219059   3.132   0.354   0.278
 6054SOL     OW19060   2.357   4.063   1.141
 6054SOL    HW119061   2.343   4.044   1.044
 6054SOL    HW219062   2.450   4.039   1.167
 6055SOL     OW19063   5.545   0.822   5.598
 6055SOL    HW119064   5.478   0.781   5.660
 6055SOL    HW219065   5.585   0.903   5.641
 6056SOL     OW19066   4.157   1.253   5.784
 6056SOL    HW119067   4.254   1.277   5.787
 6056SOL    HW219068   4.103   1.332   5.814
 6057SOL     OW19069   4.609   1.286   4.657
 6057SOL    HW119070   4.613   1.382   4.682
 6057SOL    HW219071   4.675   1.234   4.711
 6058SOL     OW19072   5.867   3.180   3.825
 6058SOL    HW119073   5.904   3.176   3.732
 6058SOL    HW219074   5.787   3.120   3.832
 6059SOL     OW19075   4.555   5.505   6.289
 6059SOL    HW119076   4.469   5.534   6.331
 6059SOL    HW219077   4.615   5.585   6.278
 6060SOL     OW19078   4.015   4.365   6.031
 6060SOL    HW119079   4.056   4.374   6.121
 6060SOL    HW219080   4.055   4.432   5.969
 6061SOL     OW19081   3.507   2.077   6.741
 6061SOL    HW119082   3.415   2.059   6.774
 6061SOL    HW219083   3.519   2.176   6.728
 6062SOL     OW19084   2.296   1.242   4.575
 6062SOL    HW119085   2.227   1.263   4.506
 6062SOL    HW219086   2.314   1.323   4.631
 6063SOL     OW19087   4.159   1.104   6.131
 6063SOL    HW119088   4.094   1.060   6.069
 6063SOL    HW219089   4.210   1.034   6.182
 6064SOL     OW19090   1.714   5.852   2.915
 6064SOL    HW119091   1.691   5.897   3.001
 6064SOL    HW219092   1.680   5.907   2.839
 6065SOL     OW19093   6.530   6.623   1.187
 6065SOL    HW119094   6.551   6.615   1.284
 6065SOL    HW219095   6.598   6.573   1.133
 6066SOL     OW19096   4.558   1.462   1.392
 6066SOL    HW119097   4.606   1.397   1.451
 6066SOL    HW219098   4.592   1.555   1.410
 6067SOL     OW19099   6.397   2.022   6.432
 6067SOL    HW119100   6.481   2.040   6.483
 6067SOL    HW219101   6.347   2.108   6.419
 6068SOL     OW19102   4.879   2.924   5.072
 6068SOL    HW119103   4.785   2.941   5.102
 6068SOL    HW219104   4.938   2.998   5.104
 6069SOL     OW19105   6.993   3.632   5.717
 6069SOL    HW119106   7.016   3.653   5.812
 6069SOL    HW219107   6.935   3.705   5.681
 6070SOL     OW19108   3.895   1.898   6.585
 6070SOL    HW119109   3.958   1.898   6.507
 6070SOL    HW219110   3.820   1.962   6.568
 6071SOL     OW19111   4.049   6.020   5.922
 6071SOL    HW119112   4.136   6.007   5.876
 6071SOL    HW219113   4.063   6.071   6.007
 6072SOL     OW19114   1.026   1.709   1.833
 6072SOL    HW119115   0.999   1.799   1.799
 6072SOL    HW219116   0.986   1.694   1.923
 6073SOL     OW19117   6.254   3.344   0.454
 6073SOL    HW119118   6.309   3.345   0.537
 6073SOL    HW219119   6.286   3.271   0.394
 6074SOL     OW19120   0.949   6.968   5.013
 6074SOL    HW119121   1.006   0.022   5.045
 6074SOL    HW219122   0.956   6.963   4.913
 6075SOL     OW19123   6.448   3.039   0.098
 6075SOL    HW119124   6.461   2.940   0.105
 6075SOL    HW219125   6.492   3.072   0.014
 6076SOL     OW19126   2.588   6.778   4.856
 6076SOL    HW119127   2.633   6.867   4.857
 6076SOL    HW219128   2.592   6.736   4.947
 6077SOL     OW19129   5.164   5.672   2.614
 6077SOL    HW119130   5.173   5.704   2.520
 6077SOL    HW219131   5.154   5.751   2.675
 6078SOL     OW19132   3.437   5.392   3.669
 6078SOL    HW119133   3.532   5.405   3.641
 6078SOL    HW219134   3.375   5.426   3.597
 6079SOL     OW19135   2.289   3.529   6.803
 6079SOL    HW119136   2.192   3.543   6.784
 6079SOL    HW219137   2.332   3.481   6.727
 6080SOL     OW19138   6.449   1.994   0.723
 6080SOL    HW119139   6.500   1.909   0.708
 6080SOL    HW219140   6.391   1.984   0.804
 6081SOL     OW19141   6.020   3.673   4.258
 6081SOL    HW119142   6.020   3.577   4.229
 6081SOL    HW219143   6.113   3.709   4.254
 6082SOL     OW19144   3.705   0.191   3.085
 6082SOL    HW119145   3.749   0.168   2.998
 6082SOL    HW219146   3.704   0.110   3.144
 6083SOL     OW19147   1.349   5.351   6.467
 6083SOL    HW119148   1.315   5.311   6.381
 6083SOL    HW219149   1.272   5.388   6.518
 6084SOL     OW19150   6.809   5.000   4.471
 6084SOL    HW119151   6.762   4.912   4.474
 6084SOL    HW219152   6.836   5.021   4.377
 6085SOL     OW19153   0.021   4.196   0.273
 6085SOL    HW119154   0.020   4.295   0.287
 6085SOL    HW219155   6.949   4.163   0.271
 6086SOL     OW19156   3.840   1.112   4.271
 6086SOL    HW119157   3.904   1.179   4.310
 6086SOL    HW219158   3.875   1.020   4.287
 6087SOL     OW19159   5.524   6.875   0.110
 6087SOL    HW119160   5.560   6.796   0.059
 6087SOL    HW219161   5.509   6.950   0.046
 6088SOL     OW19162   0.035   6.471   4.339
 6088SOL    HW119163   0.134   6.483   4.328
 6088SOL    HW219164   0.017   6.425   4.427
 6089SOL     OW19165   0.301   3.381   1.405
 6089SOL    HW119166   0.262   3.310   1.462
 6089SOL    HW219167   0.241   3.461   1.405
 6090SOL     OW19168   0.711   6.172   5.903
 6090SOL    HW119169   0.694   6.103   5.832
 6090SOL    HW219170   0.706   6.263   5.863
 6091SOL     OW19171   0.426   1.344   1.835
 6091SOL    HW119172   0.328   1.326   1.827
 6091SOL    HW219173   0.474   1.258   1.856
 6092SOL     OW19174   2.642   0.907   2.759
 6092SOL    HW119175   2.631   0.857   2.673
 6092SOL    HW219176   2.556   0.952   2.782
 6093SOL     OW19177   1.825   3.274   1.887
 6093SOL    HW119178   1.804   3.371   1.897
 6093SOL    HW219179   1.765   3.233   1.819
 6094SOL     OW19180   1.855   1.595   1.369
 6094SOL    HW119181   1.804   1.542   1.300
 6094SOL    HW219182   1.904   1.532   1.429
 6095SOL     OW19183   5.123   2.825   0.162
 6095SOL    HW119184   5.044   2.854   0.109
 6095SOL    HW219185   5.188   2.900   0.169
 6096SOL     OW19186   5.454   1.045   4.296
 6096SOL    HW119187   5.402   1.062   4.379
 6096SOL    HW219188   5.407   0.978   4.240
 6097SOL     OW19189   2.394   0.355   2.454
 6097SOL    HW119190   2.356   0.263   2.462
 6097SOL    HW219191   2.325   0.422   2.481
 6098SOL     OW19192   1.513   2.411   6.039
 6098SOL    HW119193   1.584   2.352   6.000
 6098SOL    HW219194   1.492   2.382   6.132
 6099SOL     OW19195   5.913   5.274   5.105
 6099SOL    HW119196   5.835   5.213   5.120
 6099SOL    HW219197   5.975   5.234   5.038
 6100SOL     OW19198   6.673   3.747   6.118
 6100SOL    HW119199   6.699   3.777   6.027
 6100SOL    HW219200   6.753   3.709   6.165
 6101SOL     OW19201   6.644   2.263   5.854
 6101SOL    HW119202   6.647   2.231   5.759
 6101SOL    HW219203   6.549   2.276   5.881
 6102SOL     OW19204   2.909   0.895   4.411
 6102SOL    HW119205   2.937   0.872   4.318
 6102SOL    HW219206   2.854   0.821   4.448
 6103SOL     OW19207   0.325   0.663   3.802
 6103SOL    HW119208   0.285   0.636   3.890
 6103SOL    HW219209   0.368   0.753   3.811
 6104SOL     OW19210   5.659   2.205   6.594
 6104SOL    HW119211   5.683   2.284   6.649
 6104SOL    HW219212   5.683   2.121   6.643
 6105SOL     OW19213   3.611   6.123   5.583
 6105SOL    HW119214   3.705   6.155   5.565
 6105SOL    HW219215   3.595   6.120   5.682
 6106SOL     OW19216   3.223   5.098   6.088
 6106SOL    HW119217   3.198   5.070   6.181
 6106SOL    HW219218   3.170   5.045   6.022
 6107SOL     OW19219   2.107   4.675   4.541
 6107SOL    HW119220   2.170   4.752   4.533
 6107SOL    HW219221   2.128   4.607   4.471
 6108SOL     OW19222   0.886   1.499   3.896
 6108SOL    HW119223   0.902   1.581   3.951
 6108SOL    HW219224   0.842   1.525   3.810
 6109SOL     OW19225   5.315   2.386   0.409
 6109SOL    HW119226   5.295   2.455   0.479
 6109SOL    HW219227   5.242   2.386   0.341
 6110SOL     OW19228   2.814   2.424   5.963
 6110SOL    HW119229   2.730   2.374   5.985
 6110SOL    HW219230   2.880   2.361   5.922
 6111SOL     OW19231   0.945   5.140   2.801
 6111SOL    HW119232   0.975   5.064   2.858
 6111SOL    HW219233   0.982   5.129   2.708
 6112SOL     OW19234   1.744   1.765   3.144
 6112SOL    HW119235   1.715   1.858   3.169
 6112SOL    HW219236   1.832   1.768   3.098
 6113SOL     OW19237   1.070   0.391   6.483
 6113SOL    HW119238   0.972   0.383   6.463
 6113SOL    HW219239   1.115   0.305   6.460
 6114SOL     OW19240   5.695   5.584   0.179
 6114SOL    HW119241   5.732   5.659   0.125
 6114SOL    HW219242   5.699   5.499   0.125
 6115SOL     OW19243   4.943   5.139   2.941
 6115SOL    HW119244   4.925   5.122   3.038
 6115SOL    HW219245   4.951   5.238   2.926
 6116SOL     OW19246   2.858   1.298   1.536
 6116SOL    HW119247   2.855   1.210   1.488
 6116SOL    HW219248   2.791   1.360   1.496
 6117SOL     OW19249   6.086   0.059   4.082
 6117SOL    HW119250   6.004   0.002   4.077
 6117SOL    HW219251   6.062   0.154   4.059
 6118SOL     OW19252   6.431   1.874   2.436
 6118SOL    HW119253   6.381   1.828   2.509
 6118SOL    HW219254   6.370   1.889   2.358
 6119SOL     OW19255   0.402   4.359   4.775
 6119SOL    HW119256   0.378   4.402   4.862
 6119SOL    HW219257   0.474   4.292   4.789
 6120SOL     OW19258   2.956   6.587   3.565
 6120SOL    HW119259   2.867   6.541   3.570
 6120SOL    HW219260   2.942   6.686   3.571
 6121SOL     OW19261   0.714   2.913   3.842
 6121SOL    HW119262   0.634   2.947   3.891
 6121SOL    HW219263   0.785   2.983   3.841
 6122SOL     OW19264   3.899   6.116   2.754
 6122SOL    HW119265   3.959   6.133   2.676
 6122SOL    HW219266   3.846   6.033   2.737
 6123SOL     OW19267   6.933   1.130   1.467
 6123SOL    HW119268   6.889   1.040   1.471
 6123SOL    HW219269   0.002   1.125   1.508
 6124SOL     OW19270   4.151   0.101   5.296
 6124SOL    HW119271   4.201   0.139   5.218
 6124SOL    HW219272   4.106   0.174   5.346
 6125SOL     OW19273   2.590   6.265   1.296
 6125SOL    HW119274   2.685   6.295   1.307
 6125SOL    HW219275   2.585   6.166   1.308
 6126SOL     OW19276   4.927   5.597   4.242
 6126SOL    HW119277   4.918   5.605   4.143
 6126SOL    HW219278   4.911   5.686   4.284
 6127SOL     OW19279   2.675   7.015   1.590
 6127SOL    HW119280   2.738   6.937   1.599
 6127SOL    HW219281   2.658   0.011   1.493
 6128SOL     OW19282   0.187   3.438   0.371
 6128SOL    HW119283   0.266   3.422   0.311
 6128SOL    HW219284   0.108   3.387   0.337
 6129SOL     OW19285   6.458   3.742   2.981
 6129SOL    HW119286   6.403   3.667   3.016
 6129SOL    HW219287   6.462   3.816   3.048
 6130SOL     OW19288   5.810   2.625   3.811
 6130SOL    HW119289   5.880   2.554   3.802
 6130SOL    HW219290   5.826   2.678   3.894
 6131SOL     OW19291   6.642   1.104   5.654
 6131SOL    HW119292   6.669   1.197   5.631
 6131SOL    HW219293   6.721   1.054   5.689
 6132SOL     OW19294   3.920   2.080   0.264
 6132SOL    HW119295   3.843   2.066   0.202
 6132SOL    HW219296   3.983   2.146   0.224
 6133SOL     OW19297   0.564   3.428   1.844
 6133SOL    HW119298   0.513   3.347   1.815
 6133SOL    HW219299   0.661   3.405   1.852
 6134SOL     OW19300   3.554   3.152   6.825
 6134SOL    HW119301   3.516   3.218   6.889
 6134SOL    HW219302   3.652   3.141   6.842
 6135SOL     OW19303   6.890   0.004   1.294
 6135SOL    HW119304   6.793   0.009   1.268
 6135SOL    HW219305   6.899   6.968   1.375
 6136SOL     OW19306   0.952   1.213   2.513
 6136SOL    HW119307   0.922   1.308   2.527
 6136SOL    HW219308   0.911   1.155   2.583
 6137SOL     OW19309   3.314   0.274   5.571
 6137SOL    HW119310   3.260   0.218   5.635
 6137SOL    HW219311   3.269   0.275   5.482
 6138SOL     OW19312   3.877   6.491   2.634
 6138SOL    HW119313   3.838   6.486   2.726
 6138SOL    HW219314   3.803   6.484   2.566
 6139SOL     OW19315   1.769   3.492   5.019
 6139SOL    HW119316   1.712   3.416   5.051
 6139SOL    HW219317   1.864   3.477   5.046
 6140SOL     OW19318   0.849   7.009   1.450
 6140SOL    HW119319   0.757   6.981   1.423
 6140SOL    HW219320   0.909   6.929   1.455
 6141SOL     OW19321   6.852   5.736   5.035
 6141SOL    HW119322   6.907   5.816   5.011
 6141SOL    HW219323   6.912   5.657   5.049
 6142SOL     OW19324   6.716   4.338   0.746
 6142SOL    HW119325   6.793   4.369   0.802
 6142SOL    HW219326   6.728   4.241   0.723
 6143SOL     OW19327   6.337   5.092   6.168
 6143SOL    HW119328   6.366   5.158   6.099
 6143SOL    HW219329   6.333   5.001   6.127
 6144SOL     OW19330   7.010   4.039   3.157
 6144SOL    HW119331   6.953   3.957   3.157
 6144SOL    HW219332   6.982   4.100   3.083
 6145SOL     OW19333   5.240   5.265   3.623
 6145SOL    HW119334   5.322   5.218   3.591
 6145SOL    HW219335   5.171   5.197   3.649
 6146SOL     OW19336   4.695   1.068   3.669
 6146SOL    HW119337   4.721   0.973   3.681
 6146SOL    HW219338   4.646   1.100   3.750
 6147SOL     OW19339   2.301   4.697   2.825
 6147SOL    HW119340   2.277   4.640   2.747
 6147SOL    HW219341   2.230   4.767   2.838
 6148SOL     OW19342   6.678   6.180   4.251
 6148SOL    HW119343   6.731   6.256   4.214
 6148SOL    HW219344   6.606   6.155   4.186
 6149SOL     OW19345   3.547   5.039   3.325
 6149SOL    HW119346   3.643   5.011   3.320
 6149SOL    HW219347   3.504   4.997   3.405
 6150SOL     OW19348   4.941   5.861   6.665
 6150SOL    HW119349   4.903   5.929   6.602
 6150SOL    HW219350   4.971   5.905   6.749
 6151SOL     OW19351   5.596   2.739   5.151
 6151SOL    HW119352   5.584   2.641   5.135
 6151SOL    HW219353   5.506   2.781   5.166
 6152SOL     OW19354   5.368   5.089   6.141
 6152SOL    HW119355   5.451   5.043   6.171
 6152SOL    HW219356   5.309   5.024   6.094
 6153SOL     OW19357   4.522   4.210   1.572
 6153SOL    HW119358   4.476   4.130   1.536
 6153SOL    HW219359   4.490   4.228   1.665
 6154SOL     OW19360   5.914   1.693   2.002
 6154SOL    HW119361   5.889   1.656   1.913
 6154SOL    HW219362   5.937   1.618   2.065
 6155SOL     OW19363   0.682   3.774   4.211
 6155SOL    HW119364   0.598   3.813   4.250
 6155SOL    HW219365   0.750   3.762   4.283
 6156SOL     OW19366   5.272   6.403   2.692
 6156SOL    HW119367   5.238   6.469   2.759
 6156SOL    HW219368   5.198   6.377   2.630
 6157SOL     OW19369   2.212   2.216   3.851
 6157SOL    HW119370   2.139   2.211   3.784
 6157SOL    HW219371   2.300   2.223   3.805
 6158SOL     OW19372   4.449   0.711   6.729
 6158SOL    HW119373   4.514   0.785   6.748
 6158SOL    HW219374   4.497   0.638   6.679
 6159SOL     OW19375   5.122   1.484   0.107
 6159SOL    HW119376   5.161   1.431   0.182
 6159SOL    HW219377   5.128   1.581   0.129
 6160SOL     OW19378   5.630   5.547   1.122
 6160SOL    HW119379   5.623   5.538   1.023
 6160SOL    HW219380   5.715   5.593   1.146
 6161SOL     OW19381   5.751   0.982   5.660
 6161SOL    HW119382   5.833   0.934   5.629
 6161SOL    HW219383   5.772   1.033   5.744
 6162SOL     OW19384   1.501   5.448   4.285
 6162SOL    HW119385   1.521   5.511   4.360
 6162SOL    HW219386   1.540   5.358   4.306
 6163SOL     OW19387   5.393   4.352   1.151
 6163SOL    HW119388   5.472   4.356   1.090
 6163SOL    HW219389   5.422   4.316   1.240
 6164SOL     OW19390   2.081   1.971   1.138
 6164SOL    HW119391   2.081   2.071   1.143
 6164SOL    HW219392   2.026   1.934   1.212
 6165SOL     OW19393   4.032   5.897   0.410
 6165SOL    HW119394   4.113   5.864   0.458
 6165SOL    HW219395   3.951   5.849   0.446
 6166SOL     OW19396   3.245   1.114   5.776
 6166SOL    HW119397   3.265   1.019   5.749
 6166SOL    HW219398   3.168   1.115   5.839
 6167SOL     OW19399   0.703   4.483   2.579
 6167SOL    HW119400   0.758   4.548   2.632
 6167SOL    HW219401   0.641   4.434   2.640
 6168SOL     OW19402   0.356   3.659   1.818
 6168SOL    HW119403   0.422   3.723   1.778
 6168SOL    HW219404   0.402   3.574   1.841
 6169SOL     OW19405   2.238   3.974   2.024
 6169SOL    HW119406   2.268   4.067   2.043
 6169SOL    HW219407   2.198   3.934   2.106
 6170SOL     OW19408   0.418   3.485   5.533
 6170SOL    HW119409   0.322   3.510   5.536
 6170SOL    HW219410   0.429   3.398   5.485
 6171SOL     OW19411   0.913   0.494   0.897
 6171SOL    HW119412   0.867   0.506   0.809
 6171SOL    HW219413   0.864   0.427   0.952
 6172SOL     OW19414   0.628   2.875   3.139
 6172SOL    HW119415   0.624   2.778   3.117
 6172SOL    HW219416   0.575   2.893   3.222
 6173SOL     OW19417   0.047   6.563   2.967
 6173SOL    HW119418   6.974   6.568   2.934
 6173SOL    HW219419   0.083   6.655   2.979
 6174SOL     OW19420   5.298   4.801   3.047
 6174SOL    HW119421   5.254   4.782   2.959
 6174SOL    HW219422   5.237   4.772   3.121
 6175SOL     OW19423   3.541   0.890   4.755
 6175SOL    HW119424   3.608   0.854   4.820
 6175SOL    HW219425   3.487   0.962   4.799
 6176SOL     OW19426   4.218   4.142   5.322
 6176SOL    HW119427   4.200   4.219   5.261
 6176SOL    HW219428   4.164   4.063   5.294
 6177SOL     OW19429   5.347   1.648   1.747
 6177SOL    HW119430   5.342   1.650   1.847
 6177SOL    HW219431   5.396   1.728   1.714
 6178SOL     OW19432   4.938   3.602   2.190
 6178SOL    HW119433   4.997   3.552   2.126
 6178SOL    HW219434   4.914   3.542   2.266
 6179SOL     OW19435   6.719   4.948   1.880
 6179SOL    HW119436   6.681   4.976   1.792
 6179SOL    HW219437   6.817   4.928   1.870
 6180SOL     OW19438   2.677   5.166   0.630
 6180SOL    HW119439   2.724   5.217   0.558
 6180SOL    HW219440   2.704   5.203   0.720
 6181SOL     OW19441   4.522   5.100   6.169
 6181SOL    HW119442   4.458   5.176   6.174
 6181SOL    HW219443   4.495   5.030   6.235
 6182SOL     OW19444   3.606   3.076   0.175
 6182SOL    HW119445   3.633   3.167   0.143
 6182SOL    HW219446   3.507   3.073   0.189
 6183SOL     OW19447   1.580   2.213   0.807
 6183SOL    HW119448   1.552   2.170   0.721
 6183SOL    HW219449   1.570   2.312   0.799
 6184SOL     OW19450   2.673   1.298   6.109
 6184SOL    HW119451   2.674   1.345   6.021
 6184SOL    HW219452   2.745   1.229   6.111
 6185SOL     OW19453   3.523   2.863   4.921
 6185SOL    HW119454   3.527   2.912   5.009
 6185SOL    HW219455   3.456   2.789   4.928
 6186SOL     OW19456   5.915   2.201   2.172
 6186SOL    HW119457   5.980   2.181   2.245
 6186SOL    HW219458   5.890   2.115   2.126
 6187SOL     OW19459   4.913   2.716   5.396
 6187SOL    HW119460   4.918   2.698   5.298
 6187SOL    HW219461   4.843   2.658   5.437
 6188SOL     OW19462   2.309   2.061   5.474
 6188SOL    HW119463   2.321   1.962   5.480
 6188SOL    HW219464   2.234   2.081   5.410
 6189SOL     OW19465   4.646   5.613   2.376
 6189SOL    HW119466   4.716   5.685   2.378
 6189SOL    HW219467   4.687   5.525   2.397
 6190SOL     OW19468   6.211   2.867   5.858
 6190SOL    HW119469   6.269   2.795   5.821
 6190SOL    HW219470   6.122   2.828   5.883
 6191SOL     OW19471   2.604   3.483   6.206
 6191SOL    HW119472   2.612   3.583   6.206
 6191SOL    HW219473   2.685   3.444   6.162
 6192SOL     OW19474   2.203   1.880   6.913
 6192SOL    HW119475   2.192   1.977   6.931
 6192SOL    HW219476   2.132   1.829   6.963
 6193SOL     OW19477   5.254   5.471   0.119
 6193SOL    HW119478   5.303   5.490   0.034
 6193SOL    HW219479   5.318   5.476   0.196
 6194SOL     OW19480   6.445   0.446   6.810
 6194SOL    HW119481   6.472   0.531   6.765
 6194SOL    HW219482   6.489   0.440   6.900
 6195SOL     OW19483   6.158   0.594   5.308
 6195SOL    HW119484   6.194   0.637   5.390
 6195SOL    HW219485   6.078   0.644   5.275
 6196SOL     OW19486   4.947   4.420   3.352
 6196SOL    HW119487   5.026   4.380   3.306
 6196SOL    HW219488   4.898   4.348   3.401
 6197SOL     OW19489   2.371   5.406   1.734
 6197SOL    HW119490   2.341   5.311   1.743
 6197SOL    HW219491   2.320   5.463   1.799
 6198SOL     OW19492   6.234   6.216   6.652
 6198SOL    HW119493   6.203   6.305   6.620
 6198SOL    HW219494   6.186   6.144   6.602
 6199SOL     OW19495   0.712   0.226   0.693
 6199SOL    HW119496   0.752   0.176   0.769
 6199SOL    HW219497   0.784   0.275   0.644
 6200SOL     OW19498   1.660   1.398   2.056
 6200SOL    HW119499   1.621   1.467   1.995
 6200SOL    HW219500   1.712   1.444   2.129
 6201SOL     OW19501   6.619   4.126   3.995
 6201SOL    HW119502   6.542   4.184   4.022
 6201SOL    HW219503   6.630   4.053   4.062
 6202SOL     OW19504   6.501   1.647   3.123
 6202SOL    HW119505   6.593   1.650   3.163
 6202SOL    HW219506   6.451   1.569   3.160
 6203SOL     OW19507   6.270   5.531   1.742
 6203SOL    HW119508   6.243   5.601   1.675
 6203SOL    HW219509   6.188   5.481   1.771
 6204SOL     OW19510   1.391   6.514   5.276
 6204SOL    HW119511   1.400   6.541   5.180
 6204SOL    HW219512   1.312   6.562   5.315
 6205SOL     OW19513   4.898   3.787   2.413
 6205SOL    HW119514   4.978   3.751   2.363
 6205SOL    HW219515   4.827   3.812   2.347
 6206SOL     OW19516   5.176   1.786   3.759
 6206SOL    HW119517   5.233   1.819   3.684
 6206SOL    HW219518   5.109   1.721   3.724
 6207SOL     OW19519   1.394   5.836   4.568
 6207SOL    HW119520   1.332   5.853   4.646
 6207SOL    HW219521   1.484   5.873   4.589
 6208SOL     OW19522   3.700   2.853   5.544
 6208SOL    HW119523   3.713   2.952   5.541
 6208SOL    HW219524   3.687   2.818   5.451
 6209SOL     OW19525   3.585   4.470   1.450
 6209SOL    HW119526   3.518   4.466   1.525
 6209SOL    HW219527   3.627   4.380   1.439
 6210SOL     OW19528   4.922   3.331   3.510
 6210SOL    HW119529   4.964   3.272   3.579
 6210SOL    HW219530   4.885   3.413   3.554
 6211SOL     OW19531   5.119   5.836   4.872
 6211SOL    HW119532   5.136   5.910   4.937
 6211SOL    HW219533   5.036   5.855   4.820
 6212SOL     OW19534   3.225   5.332   5.936
 6212SOL    HW119535   3.311   5.372   5.905
 6212SOL    HW219536   3.244   5.251   5.992
 6213SOL     OW19537   4.639   5.966   0.874
 6213SOL    HW119538   4.610   6.062   0.871
 6213SOL    HW219539   4.595   5.921   0.952
 6214SOL     OW19540   5.835   6.265   5.352
 6214SOL    HW119541   5.914   6.300   5.401
 6214SOL    HW219542   5.845   6.166   5.338
 6215SOL     OW19543   5.265   3.010   6.251
 6215SOL    HW119544   5.199   2.936   6.257
 6215SOL    HW219545   5.289   3.041   6.343
 6216SOL     OW19546   5.106   2.904   3.570
 6216SOL    HW119547   5.032   2.884   3.506
 6216SOL    HW219548   5.150   2.819   3.598
 6217SOL     OW19549   0.907   4.690   2.437
 6217SOL    HW119550   0.955   4.769   2.400
 6217SOL    HW219551   0.857   4.643   2.364
 6218SOL     OW19552   5.020   6.349   0.597
 6218SOL    HW119553   4.926   6.382   0.585
 6218SOL    HW219554   5.036   6.273   0.534
 6219SOL     OW19555   1.078   0.934   5.211
 6219SOL    HW119556   1.005   0.901   5.152
 6219SOL    HW219557   1.125   0.856   5.254
 6220SOL     OW19558   3.554   1.202   0.924
 6220SOL    HW119559   3.479   1.218   0.987
 6220SOL    HW219560   3.605   1.286   0.910
 6221SOL     OW19561   6.898   5.848   0.022
 6221SOL    HW119562   6.927   5.898   0.103
 6221SOL    HW219563   6.826   5.900   6.997
 6222SOL     OW19564   5.787   1.216   2.270
 6222SOL    HW119565   5.863   1.281   2.277
 6222SOL    HW219566   5.791   1.152   2.346
 6223SOL     OW19567   0.079   4.627   3.664
 6223SOL    HW119568   0.006   4.562   3.681
 6223SOL    HW219569   0.138   4.593   3.591
 6224SOL     OW19570   4.737   1.856   6.660
 6224SOL    HW119571   4.772   1.851   6.754
 6224SOL    HW219572   4.639   1.877   6.663
 6225SOL     OW19573   3.977   0.480   6.887
 6225SOL    HW119574   3.901   0.425   6.921
 6225SOL    HW219575   3.942   0.564   6.844
 6226SOL     OW19576   1.302   1.180   3.993
 6226SOL    HW119577   1.213   1.172   4.038
 6226SOL    HW219578   1.314   1.105   3.928
 6227SOL     OW19579   2.425   4.209   5.609
 6227SOL    HW119580   2.344   4.187   5.554
 6227SOL    HW219581   2.505   4.214   5.549
 6228SOL     OW19582   2.250   2.545   3.455
 6228SOL    HW119583   2.245   2.461   3.510
 6228SOL    HW219584   2.170   2.549   3.394
 6229SOL     OW19585   0.324   3.434   4.613
 6229SOL    HW119586   0.233   3.476   4.609
 6229SOL    HW219587   0.338   3.378   4.532
 6230SOL     OW19588   0.210   1.011   2.237
 6230SOL    HW119589   0.208   1.104   2.202
 6230SOL    HW219590   0.229   0.948   2.162
 6231SOL     OW19591   6.018   4.526   0.074
 6231SOL    HW119592   6.107   4.563   0.048
 6231SOL    HW219593   6.026   4.479   0.162
 6232SOL     OW19594   5.746   0.763   0.230
 6232SOL    HW119595   5.692   0.691   0.186
 6232SOL    HW219596   5.691   0.809   0.299
 6233SOL     OW19597   0.251   3.025   1.786
 6233SOL    HW119598   0.181   2.959   1.761
 6233SOL    HW219599   0.220   3.080   1.863
 6234SOL     OW19600   6.664   6.670   4.200
 6234SOL    HW119601   6.750   6.718   4.212
 6234SOL    HW219602   6.598   6.701   4.268
 6235SOL     OW19603   6.776   0.905   2.731
 6235SOL    HW119604   6.833   0.924   2.651
 6235SOL    HW219605   6.704   0.840   2.705
 6236SOL     OW19606   0.518   4.589   0.588
 6236SOL    HW119607   0.430   4.550   0.562
 6236SOL    HW219608   0.503   4.673   0.641
 6237SOL     OW19609   4.161   0.031   0.925
 6237SOL    HW119610   4.087   0.055   0.987
 6237SOL    HW219611   4.249   0.056   0.967
 6238SOL     OW19612   2.618   6.477   4.402
 6238SOL    HW119613   2.646   6.545   4.470
 6238SOL    HW219614   2.699   6.447   4.351
 6239SOL     OW19615   5.128   0.589   2.398
 6239SOL    HW119616   5.218   0.622   2.424
 6239SOL    HW219617   5.067   0.590   2.477
 6240SOL     OW19618   3.584   3.287   4.807
 6240SOL    HW119619   3.658   3.222   4.826
 6240SOL    HW219620   3.502   3.238   4.778
 6241SOL     OW19621   2.245   6.722   3.765
 6241SOL    HW119622   2.288   6.635   3.740
 6241SOL    HW219623   2.174   6.744   3.698
 6242SOL     OW19624   2.923   1.973   3.362
 6242SOL    HW119625   2.965   2.051   3.316
 6242SOL    HW219626   2.994   1.909   3.391
 6243SOL     OW19627   6.044   1.887   6.213
 6243SOL    HW119628   5.981   1.959   6.241
 6243SOL    HW219629   6.009   1.841   6.132
 6244SOL     OW19630   4.152   4.921   2.791
 6244SOL    HW119631   4.092   5.000   2.810
 6244SOL    HW219632   4.224   4.949   2.728
 6245SOL     OW19633   0.621   4.496   2.032
 6245SOL    HW119634   0.571   4.421   2.076
 6245SOL    HW219635   0.660   4.463   1.946
 6246SOL     OW19636   1.271   6.292   4.564
 6246SOL    HW119637   1.233   6.380   4.593
 6246SOL    HW219638   1.204   6.243   4.509
 6247SOL     OW19639   6.954   5.381   3.470
 6247SOL    HW119640   6.987   5.473   3.493
 6247SOL    HW219641   6.854   5.380   3.477
 6248SOL     OW19642   3.639   2.854   6.888
 6248SOL    HW119643   3.725   2.896   6.918
 6248SOL    HW219644   3.633   2.858   6.788
 6249SOL     OW19645   6.829   2.591   0.530
 6249SOL    HW119646   6.856   2.598   0.626
 6249SOL    HW219647   6.749   2.649   0.514
 6250SOL     OW19648   0.114   0.472   0.509
 6250SOL    HW119649   0.188   0.412   0.540
 6250SOL    HW219650   0.026   0.431   0.531
 6251SOL     OW19651   2.790   6.626   3.970
 6251SOL    HW119652   2.726   6.649   4.044
 6251SOL    HW219653   2.745   6.566   3.905
 6252SOL     OW19654   2.438   5.052   6.907
 6252SOL    HW119655   2.453   4.956   6.929
 6252SOL    HW219656   2.525   5.095   6.884
 6253SOL     OW19657   3.162   4.867   4.422
 6253SOL    HW119658   3.128   4.942   4.365
 6253SOL    HW219659   3.261   4.858   4.408
 6254SOL     OW19660   0.691   6.108   0.604
 6254SOL    HW119661   0.730   6.198   0.585
 6254SOL    HW219662   0.753   6.055   0.661
 6255SOL     OW19663   0.601   1.839   1.029
 6255SOL    HW119664   0.532   1.907   1.004
 6255SOL    HW219665   0.677   1.843   0.965
 6256SOL     OW19666   5.021   5.749   3.135
 6256SOL    HW119667   5.036   5.651   3.127
 6256SOL    HW219668   4.952   5.767   3.205
 6257SOL     OW19669   4.154   4.291   1.435
 6257SOL    HW119670   4.227   4.357   1.446
 6257SOL    HW219671   4.087   4.303   1.508
 6258SOL     OW19672   4.441   0.037   6.093
 6258SOL    HW119673   4.446   7.019   6.002
 6258SOL    HW219674   4.388   0.121   6.091
 6259SOL     OW19675   2.333   0.068   5.230
 6259SOL    HW119676   2.351   0.160   5.198
 6259SOL    HW219677   2.236   0.045   5.215
 6260SOL     OW19678   2.200   0.959   0.313
 6260SOL    HW119679   2.240   1.045   0.345
 6260SOL    HW219680   2.147   0.976   0.229
 6261SOL     OW19681   4.103   6.416   1.481
 6261SOL    HW119682   4.015   6.409   1.434
 6261SOL    HW219683   4.115   6.338   1.542
 6262SOL     OW19684   6.307   6.224   2.033
 6262SOL    HW119685   6.348   6.196   1.946
 6262SOL    HW219686   6.213   6.191   2.038
 6263SOL     OW19687   0.144   5.984   4.302
 6263SOL    HW119688   0.050   5.955   4.285
 6263SOL    HW219689   0.182   5.932   4.377
 6264SOL     OW19690   0.781   0.050   1.173
 6264SOL    HW119691   0.693   0.039   1.127
 6264SOL    HW219692   0.767   0.043   1.272
 6265SOL     OW19693   4.305   2.075   0.187
 6265SOL    HW119694   4.301   1.981   0.221
 6265SOL    HW219695   4.216   2.118   0.198
 6266SOL     OW19696   3.177   5.444   3.509
 6266SOL    HW119697   3.104   5.511   3.515
 6266SOL    HW219698   3.244   5.473   3.441
 6267SOL     OW19699   1.271   6.869   5.251
 6267SOL    HW119700   1.206   6.812   5.199
 6267SOL    HW219701   1.222   6.947   5.291
 6268SOL     OW19702   3.127   0.514   2.066
 6268SOL    HW119703   3.224   0.502   2.042
 6268SOL    HW219704   3.116   0.507   2.165
 6269SOL     OW19705   5.323   6.392   1.472
 6269SOL    HW119706   5.365   6.381   1.562
 6269SOL    HW219707   5.225   6.410   1.482
 6270SOL     OW19708   1.730   6.375   0.007
 6270SOL    HW119709   1.798   6.303   7.016
 6270SOL    HW219710   1.649   6.354   6.975
 6271SOL     OW19711   6.045   3.104   6.708
 6271SOL    HW119712   5.966   3.087   6.649
 6271SOL    HW219713   6.072   3.200   6.701
 6272SOL     OW19714   5.577   0.115   7.008
 6272SOL    HW119715   5.638   0.174   6.955
 6272SOL    HW219716   5.544   0.164   0.066
 6273SOL     OW19717   0.006   0.049   1.754
 6273SOL    HW119718   6.956   0.110   1.720
 6273SOL    HW219719   0.038   0.081   1.843
 6274SOL     OW19720   3.477   5.842   4.699
 6274SOL    HW119721   3.404   5.869   4.637
 6274SOL    HW219722   3.480   5.905   4.777
 6275SOL     OW19723   2.175   6.184   0.612
 6275SOL    HW119724   2.129   6.125   0.678
 6275SOL    HW219725   2.107   6.242   0.567
 6276SOL     OW19726   1.866   5.376   3.123
 6276SOL    HW119727   1.875   5.459   3.067
 6276SOL    HW219728   1.854   5.297   3.064
 6277SOL     OW19729   5.118   2.475   1.184
 6277SOL    HW119730   5.057   2.441   1.256
 6277SOL    HW219731   5.139   2.572   1.201
 6278SOL     OW19732   2.960   0.240   5.275
 6278SOL    HW119733   2.930   0.317   5.332
 6278SOL    HW219734   2.904   0.160   5.295
 6279SOL     OW19735   3.416   6.464   1.667
 6279SOL    HW119736   3.387   6.385   1.614
 6279SOL    HW219737   3.484   6.516   1.616
 6280SOL     OW19738   0.011   1.638   6.877
 6280SOL    HW119739   0.029   1.561   6.939
 6280SOL    HW219740   7.021   1.604   6.784
 6281SOL     OW19741   6.324   4.246   4.643
 6281SOL    HW119742   6.314   4.313   4.716
 6281SOL    HW219743   6.233   4.219   4.610
 6282SOL     OW19744   0.915   3.570   6.579
 6282SOL    HW119745   0.884   3.498   6.642
 6282SOL    HW219746   0.967   3.528   6.505
 6283SOL     OW19747   1.250   6.415   5.768
 6283SOL    HW119748   1.282   6.424   5.674
 6283SOL    HW219749   1.317   6.365   5.822
 6284SOL     OW19750   2.330   3.846   0.083
 6284SOL    HW119751   2.368   3.916   0.022
 6284SOL    HW219752   2.405   3.795   0.125
 6285SOL     OW19753   1.347   3.309   3.027
 6285SOL    HW119754   1.364   3.401   2.991
 6285SOL    HW219755   1.386   3.301   3.119
 6286SOL     OW19756   0.852   3.018   4.770
 6286SOL    HW119757   0.937   3.061   4.741
 6286SOL    HW219758   0.871   2.923   4.796
 6287SOL     OW19759   4.148   4.817   5.162
 6287SOL    HW119760   4.184   4.879   5.092
 6287SOL    HW219761   4.061   4.852   5.196
 6288SOL     OW19762   3.571   3.150   6.519
 6288SOL    HW119763   3.579   3.162   6.420
 6288SOL    HW219764   3.661   3.131   6.557
 6289SOL     OW19765   2.574   4.894   6.369
 6289SOL    HW119766   2.533   4.855   6.286
 6289SOL    HW219767   2.548   4.839   6.448
 6290SOL     OW19768   5.863   5.505   5.211
 6290SOL    HW119769   5.902   5.416   5.186
 6290SOL    HW219770   5.765   5.496   5.224
 6291SOL     OW19771   3.426   3.310   3.256
 6291SOL    HW119772   3.472   3.261   3.182
 6291SOL    HW219773   3.341   3.350   3.223
 6292SOL     OW19774   2.043   2.919   4.514
 6292SOL    HW119775   2.072   2.868   4.596
 6292SOL    HW219776   1.967   2.979   4.538
 6293SOL     OW19777   4.949   1.035   6.778
 6293SOL    HW119778   4.956   0.935   6.775
 6293SOL    HW219779   5.037   1.073   6.809
 6294SOL     OW19780   2.399   1.061   3.492
 6294SOL    HW119781   2.398   1.145   3.438
 6294SOL    HW219782   2.480   1.060   3.550
 6295SOL     OW19783   5.874   4.593   5.490
 6295SOL    HW119784   5.840   4.542   5.570
 6295SOL    HW219785   5.842   4.687   5.495
 6296SOL     OW19786   0.366   3.099   6.416
 6296SOL    HW119787   0.290   3.105   6.480
 6296SOL    HW219788   0.412   3.187   6.411
 6297SOL     OW19789   5.874   0.563   4.540
 6297SOL    HW119790   5.818   0.510   4.603
 6297SOL    HW219791   5.969   0.564   4.571
 6298SOL     OW19792   6.006   4.554   0.444
 6298SOL    HW119793   5.912   4.531   0.471
 6298SOL    HW219794   6.026   4.648   0.470
 6299SOL     OW19795   4.801   2.311   2.697
 6299SOL    HW119796   4.770   2.354   2.783
 6299SOL    HW219797   4.742   2.342   2.622
 6300SOL     OW19798   3.680   0.399   5.967
 6300SOL    HW119799   3.618   0.397   6.045
 6300SOL    HW219800   3.774   0.417   5.999
 6301SOL     OW19801   3.419   6.850   0.679
 6301SOL    HW119802   3.341   6.808   0.633
 6301SOL    HW219803   3.476   6.778   0.720
 6302SOL     OW19804   3.107   0.978   5.341
 6302SOL    HW119805   3.076   0.970   5.246
 6302SOL    HW219806   3.037   0.943   5.403
 6303SOL     OW19807   1.206   5.895   6.331
 6303SOL    HW119808   1.300   5.912   6.361
 6303SOL    HW219809   1.193   5.935   6.240
 6304SOL     OW19810   3.963   0.943   2.344
 6304SOL    HW119811   3.899   0.955   2.420
 6304SOL    HW219812   4.005   1.032   2.322
 6305SOL     OW19813   0.666   5.456   5.579
 6305SOL    HW119814   0.610   5.377   5.554
 6305SOL    HW219815   0.763   5.430   5.579
 6306SOL     OW19816   6.529   4.708   3.975
 6306SOL    HW119817   6.625   4.730   3.958
 6306SOL    HW219818   6.524   4.620   4.024
 6307SOL     OW19819   4.083   3.813   3.196
 6307SOL    HW119820   4.004   3.781   3.249
 6307SOL    HW219821   4.156   3.745   3.200
 6308SOL     OW19822   0.342   2.851   6.876
 6308SOL    HW119823   0.259   2.822   6.925
 6308SOL    HW219824   0.411   2.779   6.882
 6309SOL     OW19825   1.125   6.716   5.066
 6309SOL    HW119826   1.097   6.794   5.009
 6309SOL    HW219827   1.097   6.631   5.022
 6310SOL     OW19828   1.867   6.824   2.961
 6310SOL    HW119829   1.916   6.903   2.997
 6310SOL    HW219830   1.768   6.838   2.974
 6311SOL     OW19831   5.391   1.347   5.935
 6311SOL    HW119832   5.384   1.343   6.034
 6311SOL    HW219833   5.307   1.388   5.897
 6312SOL     OW19834   3.250   6.854   6.534
 6312SOL    HW119835   3.228   6.949   6.511
 6312SOL    HW219836   3.319   6.820   6.471
 6313SOL     OW19837   5.258   6.159   3.304
 6313SOL    HW119838   5.291   6.067   3.326
 6313SOL    HW219839   5.336   6.219   3.285
 6314SOL     OW19840   2.199   0.585   1.583
 6314SOL    HW119841   2.101   0.570   1.596
 6314SOL    HW219842   2.250   0.532   1.651
 6315SOL     OW19843   2.273   2.767   4.059
 6315SOL    HW119844   2.234   2.682   4.024
 6315SOL    HW219845   2.373   2.759   4.062
 6316SOL     OW19846   5.549   1.930   4.782
 6316SOL    HW119847   5.630   1.898   4.831
 6316SOL    HW219848   5.531   1.870   4.704
 6317SOL     OW19849   4.925   4.404   2.129
 6317SOL    HW119850   4.975   4.480   2.088
 6317SOL    HW219851   4.989   4.349   2.184
 6318SOL     OW19852   6.409   0.721   6.091
 6318SOL    HW119853   6.381   0.648   6.153
 6318SOL    HW219854   6.456   0.793   6.143
 6319SOL     OW19855   5.336   2.304   4.379
 6319SOL    HW119856   5.307   2.226   4.324
 6319SOL    HW219857   5.293   2.388   4.344
 6320SOL     OW19858   0.056   1.232   3.956
 6320SOL    HW119859   0.003   1.166   3.903
 6320SOL    HW219860   0.020   1.237   4.049
 6321SOL     OW19861   5.475   2.316   0.670
 6321SOL    HW119862   5.471   2.223   0.633
 6321SOL    HW219863   5.398   2.330   0.733
 6322SOL     OW19864   1.507   0.905   1.160
 6322SOL    HW119865   1.556   0.954   1.088
 6322SOL    HW219866   1.439   0.965   1.201
 6323SOL     OW19867   2.405   3.054   1.212
 6323SOL    HW119868   2.323   3.052   1.154
 6323SOL    HW219869   2.462   2.974   1.191
 6324SOL     OW19870   4.520   1.665   1.015
 6324SOL    HW119871   4.545   1.656   0.919
 6324SOL    HW219872   4.586   1.616   1.072
 6325SOL     OW19873   1.409   2.317   2.751
 6325SOL    HW119874   1.434   2.231   2.796
 6325SOL    HW219875   1.348   2.369   2.810
 6326SOL     OW19876   5.253   5.148   5.798
 6326SOL    HW119877   5.163   5.105   5.787
 6326SOL    HW219878   5.281   5.144   5.893
 6327SOL     OW19879   0.055   1.332   3.283
 6327SOL    HW119880   7.003   1.312   3.348
 6327SOL    HW219881   0.015   1.360   3.195
 6328SOL     OW19882   4.370   3.434   5.961
 6328SOL    HW119883   4.429   3.420   5.881
 6328SOL    HW219884   4.347   3.531   5.969
 6329SOL     OW19885   1.499   2.843   5.466
 6329SOL    HW119886   1.521   2.931   5.508
 6329SOL    HW219887   1.404   2.819   5.485
 6330SOL     OW19888   5.735   0.389   3.622
 6330SOL    HW119889   5.794   0.418   3.547
 6330SOL    HW219890   5.740   0.456   3.696
 6331SOL     OW19891   6.882   3.617   3.769
 6331SOL    HW119892   6.915   3.572   3.852
 6331SOL    HW219893   6.802   3.673   3.792
 6332SOL     OW19894   1.872   1.982   0.710
 6332SOL    HW119895   1.821   1.922   0.648
 6332SOL    HW219896   1.960   2.006   0.668
 6333SOL     OW19897   5.107   0.645   0.728
 6333SOL    HW119898   5.084   0.666   0.823
 6333SOL    HW219899   5.056   0.706   0.667
 6334SOL     OW19900   2.924   1.302   2.057
 6334SOL    HW119901   2.900   1.305   1.960
 6334SOL    HW219902   2.844   1.274   2.110
 6335SOL     OW19903   5.687   0.989   0.782
 6335SOL    HW119904   5.593   1.022   0.780
 6335SOL    HW219905   5.733   1.015   0.697
 6336SOL     OW19906   0.573   3.690   6.314
 6336SOL    HW119907   0.608   3.686   6.407
 6336SOL    HW219908   0.630   3.752   6.259
 6337SOL     OW19909   4.782   5.518   5.313
 6337SOL    HW119910   4.814   5.448   5.377
 6337SOL    HW219911   4.794   5.486   5.219
 6338SOL     OW19912   3.005   1.769   3.720
 6338SOL    HW119913   3.068   1.742   3.648
 6338SOL    HW219914   3.051   1.832   3.783
 6339SOL     OW19915   1.187   4.070   3.124
 6339SOL    HW119916   1.274   4.022   3.111
 6339SOL    HW219917   1.125   4.014   3.177
 6340SOL     OW19918   2.295   3.854   1.598
 6340SOL    HW119919   2.338   3.765   1.612
 6340SOL    HW219920   2.226   3.847   1.526
 6341SOL     OW19921   0.980   4.568   3.767
 6341SOL    HW119922   0.949   4.498   3.831
 6341SOL    HW219923   1.013   4.524   3.683
 6342SOL     OW19924   2.032   1.456   1.754
 6342SOL    HW119925   2.028   1.443   1.853
 6342SOL    HW219926   1.961   1.520   1.726
 6343SOL     OW19927   2.765   5.970   0.330
 6343SOL    HW119928   2.863   5.966   0.350
 6343SOL    HW219929   2.734   6.065   0.335
 6344SOL     OW19930   6.530   1.964   3.622
 6344SOL    HW119931   6.595   2.040   3.631
 6344SOL    HW219932   6.555   1.890   3.684
 6345SOL     OW19933   5.938   3.367   1.627
 6345SOL    HW119934   6.018   3.402   1.579
 6345SOL    HW219935   5.857   3.381   1.570
 6346SOL     OW19936   0.004   4.609   5.528
 6346SOL    HW119937   0.008   4.578   5.623
 6346SOL    HW219938   0.093   4.593   5.484
 6347SOL     OW19939   2.697   2.180   2.720
 6347SOL    HW119940   2.712   2.250   2.650
 6347SOL    HW219941   2.743   2.095   2.693
 6348SOL     OW19942   0.323   2.106   5.456
 6348SOL    HW119943   0.306   2.151   5.369
 6348SOL    HW219944   0.263   2.027   5.465
 6349SOL     OW19945   0.271   0.607   0.322
 6349SOL    HW119946   0.251   0.700   0.292
 6349SOL    HW219947   0.192   0.569   0.370
 6350SOL     OW19948   1.158   4.291   1.821
 6350SOL    HW119949   1.162   4.270   1.918
 6350SOL    HW219950   1.107   4.376   1.807
 6351SOL     OW19951   5.806   3.496   3.008
 6351SOL    HW119952   5.847   3.446   3.084
 6351SOL    HW219953   5.784   3.589   3.037
 6352SOL     OW19954   2.252   0.296   4.200
 6352SOL    HW119955   2.168   0.349   4.193
 6352SOL    HW219956   2.230   0.198   4.196
 6353SOL     OW19957   2.971   5.596   6.245
 6353SOL    HW119958   2.992   5.643   6.330
 6353SOL    HW219959   2.975   5.497   6.259
 6354SOL     OW19960   4.754   4.033   2.595
 6354SOL    HW119961   4.739   3.935   2.608
 6354SOL    HW219962   4.666   4.081   2.597
 6355SOL     OW19963   2.481   4.720   0.668
 6355SOL    HW119964   2.545   4.779   0.619
 6355SOL    HW219965   2.462   4.638   0.615
 6356SOL     OW19966   5.246   4.869   6.748
 6356SOL    HW119967   5.184   4.795   6.722
 6356SOL    HW219968   5.231   4.948   6.690
 6357SOL     OW19969   5.965   1.953   1.744
 6357SOL    HW119970   6.050   1.951   1.796
 6357SOL    HW219971   5.956   2.040   1.696
 6358SOL     OW19972   1.667   2.732   6.595
 6358SOL    HW119973   1.621   2.814   6.630
 6358SOL    HW219974   1.754   2.759   6.552
 6359SOL     OW19975   5.550   6.424   0.490
 6359SOL    HW119976   5.595   6.338   0.510
 6359SOL    HW219977   5.491   6.450   0.567
 6360SOL     OW19978   0.563   2.323   2.881
 6360SOL    HW119979   0.467   2.350   2.874
 6360SOL    HW219980   0.602   2.311   2.790
 6361SOL     OW19981   0.539   0.053   6.855
 6361SOL    HW119982   0.633   0.086   6.870
 6361SOL    HW219983   0.478   0.093   6.923
 6362SOL     OW19984   1.111   5.483   6.591
 6362SOL    HW119985   1.112   5.521   6.499
 6362SOL    HW219986   1.057   5.543   6.651
 6363SOL     OW19987   2.869   5.094   3.676
 6363SOL    HW119988   2.953   5.044   3.659
 6363SOL    HW219989   2.854   5.101   3.775
 6364SOL     OW19990   2.408   2.184   4.943
 6364SOL    HW119991   2.494   2.234   4.948
 6364SOL    HW219992   2.347   2.213   5.017
 6365SOL     OW19993   5.633   5.816   3.686
 6365SOL    HW119994   5.727   5.799   3.713
 6365SOL    HW219995   5.609   5.757   3.609
 6366SOL     OW19996   6.318   6.602   4.830
 6366SOL    HW119997   6.351   6.556   4.748
 6366SOL    HW219998   6.326   6.540   4.908
 6367SOL     OW19999   3.053   2.180   2.746
 6367SOL    HW120000   3.002   2.219   2.823
 6367SOL    HW220001   2.999   2.188   2.662
 6368SOL     OW20002   5.019   3.355   4.723
 6368SOL    HW120003   5.031   3.374   4.820
 6368SOL    HW220004   4.930   3.311   4.708
 6369SOL     OW20005   3.295   6.153   5.768
 6369SOL    HW120006   3.235   6.219   5.814
 6369SOL    HW220007   3.248   6.116   5.688
 6370SOL     OW20008   5.519   3.762   3.901
 6370SOL    HW120009   5.462   3.787   3.979
 6370SOL    HW220010   5.614   3.751   3.930
 6371SOL     OW20011   5.539   3.673   1.516
 6371SOL    HW120012   5.544   3.699   1.420
 6371SOL    HW220013   5.443   3.655   1.541
 6372SOL     OW20014   0.012   0.978   3.124
 6372SOL    HW120015   6.973   1.007   3.197
 6372SOL    HW220016   0.064   0.898   3.154
 6373SOL     OW20017   5.243   4.067   1.313
 6373SOL    HW120018   5.184   4.023   1.381
 6373SOL    HW220019   5.238   4.017   1.227
 6374SOL     OW20020   4.721   2.850   0.461
 6374SOL    HW120021   4.786   2.873   0.389
 6374SOL    HW220022   4.667   2.931   0.483
 6375SOL     OW20023   6.921   2.805   2.332
 6375SOL    HW120024   6.947   2.867   2.406
 6375SOL    HW220025   6.825   2.819   2.308
 6376SOL     OW20026   3.493   0.883   5.840
 6376SOL    HW120027   3.567   0.948   5.854
 6376SOL    HW220028   3.520   0.794   5.877
 6377SOL     OW20029   6.878   0.068   0.050
 6377SOL    HW120030   6.919   7.000   0.060
 6377SOL    HW220031   6.806   0.080   0.119
 6378SOL     OW20032   5.552   5.673   3.351
 6378SOL    HW120033   5.465   5.662   3.304
 6378SOL    HW220034   5.619   5.712   3.289
 6379SOL     OW20035   3.066   5.702   6.552
 6379SOL    HW120036   3.110   5.745   6.631
 6379SOL    HW220037   3.066   5.603   6.563
 6380SOL     OW20038   1.499   3.157   5.337
 6380SOL    HW120039   1.474   3.091   5.266
 6380SOL    HW220040   1.416   3.196   5.377
 6381SOL     OW20041   4.710   3.192   0.190
 6381SOL    HW120042   4.611   3.182   0.184
 6381SOL    HW220043   4.741   3.172   0.283
 6382SOL     OW20044   2.387   1.483   1.438
 6382SOL    HW120045   2.349   1.465   1.529
 6382SOL    HW220046   2.393   1.398   1.387
 6383SOL     OW20047   1.833   2.122   2.655
 6383SOL    HW120048   1.753   2.063   2.658
 6383SOL    HW220049   1.847   2.155   2.562
 6384SOL     OW20050   6.819   2.358   2.194
 6384SOL    HW120051   6.790   2.386   2.103
 6384SOL    HW220052   6.881   2.427   2.232
 6385SOL     OW20053   0.049   3.042   1.444
 6385SOL    HW120054   0.098   3.002   1.367
 6385SOL    HW220055   6.996   3.099   1.411
 6386SOL     OW20056   2.329   3.222   0.644
 6386SOL    HW120057   2.367   3.250   0.556
 6386SOL    HW220058   2.231   3.206   0.635
 6387SOL     OW20059   6.189   0.608   0.026
 6387SOL    HW120060   6.174   0.510   0.011
 6387SOL    HW220061   6.100   0.654   0.030
 6388SOL     OW20062   6.271   5.294   3.042
 6388SOL    HW120063   6.367   5.320   3.040
 6388SOL    HW220064   6.233   5.298   2.950
 6389SOL     OW20065   1.649   0.594   7.002
 6389SOL    HW120066   1.550   0.587   6.993
 6389SOL    HW220067   1.692   0.517   6.955
 6390SOL     OW20068   6.531   1.144   6.616
 6390SOL    HW120069   6.513   1.215   6.548
 6390SOL    HW220070   6.554   1.186   6.703
 6391SOL     OW20071   1.728   1.553   5.174
 6391SOL    HW120072   1.668   1.589   5.102
 6391SOL    HW220073   1.764   1.629   5.228
 6392SOL     OW20074   3.335   6.028   3.636
 6392SOL    HW120075   3.431   6.001   3.624
 6392SOL    HW220076   3.310   6.094   3.565
 6393SOL     OW20077   6.268   6.211   1.249
 6393SOL    HW120078   6.170   6.195   1.263
 6393SOL    HW220079   6.320   6.138   1.292
 6394SOL     OW20080   1.129   5.175   1.094
 6394SOL    HW120081   1.097   5.263   1.060
 6394SOL    HW220082   1.224   5.161   1.067
 6395SOL     OW20083   1.558   4.211   3.245
 6395SOL    HW120084   1.525   4.181   3.155
 6395SOL    HW220085   1.541   4.139   3.312
 6396SOL     OW20086   6.757   4.011   0.345
 6396SOL    HW120087   6.721   3.923   0.377
 6396SOL    HW220088   6.800   3.999   0.256
 6397SOL     OW20089   5.531   2.448   3.540
 6397SOL    HW120090   5.468   2.423   3.614
 6397SOL    HW220091   5.624   2.419   3.565
 6398SOL     OW20092   0.994   6.905   1.182
 6398SOL    HW120093   0.986   6.851   1.098
 6398SOL    HW220094   0.915   6.964   1.191
 6399SOL     OW20095   2.454   0.305   5.820
 6399SOL    HW120096   2.401   0.244   5.761
 6399SOL    HW220097   2.493   0.254   5.896
 6400SOL     OW20098   1.416   5.662   3.103
 6400SOL    HW120099   1.458   5.753   3.097
 6400SOL    HW220100   1.412   5.633   3.198
 6401SOL     OW20101   3.860   5.374   3.362
 6401SOL    HW120102   3.947   5.331   3.337
 6401SOL    HW220103   3.825   5.426   3.284
 6402SOL     OW20104   2.075   4.551   4.804
 6402SOL    HW120105   2.135   4.476   4.774
 6402SOL    HW220106   2.059   4.613   4.728
 6403SOL     OW20107   5.090   6.332   4.987
 6403SOL    HW120108   5.085   6.312   5.085
 6403SOL    HW220109   5.118   6.427   4.974
 6404SOL     OW20110   3.657   0.372   2.241
 6404SOL    HW120111   3.684   0.448   2.182
 6404SOL    HW220112   3.644   0.405   2.334
 6405SOL     OW20113   5.508   1.683   2.666
 6405SOL    HW120114   5.507   1.603   2.606
 6405SOL    HW220115   5.415   1.719   2.674
 6406SOL     OW20116   1.001   2.862   2.565
 6406SOL    HW120117   0.944   2.944   2.568
 6406SOL    HW220118   0.945   2.782   2.581
 6407SOL     OW20119   2.314   5.965   3.175
 6407SOL    HW120120   2.343   6.006   3.088
 6407SOL    HW220121   2.223   5.923   3.164
 6408SOL     OW20122   6.527   0.300   0.548
 6408SOL    HW120123   6.485   0.322   0.460
 6408SOL    HW220124   6.545   0.384   0.598
 6409SOL     OW20125   5.923   4.999   3.776
 6409SOL    HW120126   6.011   5.045   3.786
 6409SOL    HW220127   5.880   4.989   3.866
 6410SOL     OW20128   3.279   1.631   5.652
 6410SOL    HW120129   3.306   1.688   5.574
 6410SOL    HW220130   3.304   1.536   5.635
 6411SOL     OW20131   0.307   2.341   2.870
 6411SOL    HW120132   0.265   2.359   2.960
 6411SOL    HW220133   0.259   2.265   2.826
 6412SOL     OW20134   3.193   0.652   6.927
 6412SOL    HW120135   3.196   0.677   0.002
 6412SOL    HW220136   3.119   0.587   6.912
 6413SOL     OW20137   4.385   5.038   3.945
 6413SOL    HW120138   4.434   5.075   4.024
 6413SOL    HW220139   4.408   5.092   3.864
 6414SOL     OW20140   1.016   6.757   6.854
 6414SOL    HW120141   1.023   6.766   6.953
 6414SOL    HW220142   1.088   6.812   6.811
 6415SOL     OW20143   1.025   2.387   3.282
 6415SOL    HW120144   1.051   2.418   3.373
 6415SOL    HW220145   1.037   2.462   3.216
 6416SOL     OW20146   2.910   0.351   6.454
 6416SOL    HW120147   2.969   0.429   6.475
 6416SOL    HW220148   2.930   0.319   6.361
 6417SOL     OW20149   4.676   1.456   1.139
 6417SOL    HW120150   4.765   1.497   1.160
 6417SOL    HW220151   4.617   1.463   1.219
 6418SOL     OW20152   4.327   4.781   1.126
 6418SOL    HW120153   4.397   4.746   1.064
 6418SOL    HW220154   4.282   4.704   1.172
 6419SOL     OW20155   0.462   6.595   6.329
 6419SOL    HW120156   0.451   6.505   6.370
 6419SOL    HW220157   0.391   6.657   6.365
 6420SOL     OW20158   1.692   3.161   4.232
 6420SOL    HW120159   1.671   3.259   4.228
 6420SOL    HW220160   1.785   3.148   4.267
 6421SOL     OW20161   4.969   0.137   1.366
 6421SOL    HW120162   4.930   0.069   1.304
 6421SOL    HW220163   5.066   0.147   1.347
 6422SOL     OW20164   6.330   2.596   4.673
 6422SOL    HW120165   6.237   2.627   4.692
 6422SOL    HW220166   6.373   2.566   4.758
 6423SOL     OW20167   2.539   4.504   4.203
 6423SOL    HW120168   2.619   4.540   4.155
 6423SOL    HW220169   2.479   4.459   4.137
 6424SOL     OW20170   0.794   3.958   4.920
 6424SOL    HW120171   0.779   3.992   4.828
 6424SOL    HW220172   0.804   3.859   4.918
 6425SOL     OW20173   0.437   6.395   2.865
 6425SOL    HW120174   0.414   6.463   2.935
 6425SOL    HW220175   0.410   6.304   2.896
 6426SOL     OW20176   4.498   4.516   4.902
 6426SOL    HW120177   4.422   4.517   4.968
 6426SOL    HW220178   4.470   4.562   4.818
 6427SOL     OW20179   2.950   3.239   3.574
 6427SOL    HW120180   3.027   3.213   3.516
 6427SOL    HW220181   2.898   3.313   3.529
 6428SOL     OW20182   4.855   2.676   0.242
 6428SOL    HW120183   4.856   2.772   0.212
 6428SOL    HW220184   4.916   2.665   0.320
 6429SOL     OW20185   2.294   0.586   4.925
 6429SOL    HW120186   2.198   0.614   4.923
 6429SOL    HW220187   2.334   0.606   5.014
 6430SOL     OW20188   6.755   0.255   5.291
 6430SOL    HW120189   6.750   0.210   5.380
 6430SOL    HW220190   6.832   0.320   5.291
 6431SOL     OW20191   4.203   5.097   2.417
 6431SOL    HW120192   4.221   5.040   2.337
 6431SOL    HW220193   4.290   5.120   2.462
 6432SOL     OW20194   4.219   4.182   6.288
 6432SOL    HW120195   4.168   4.268   6.292
 6432SOL    HW220196   4.304   4.192   6.339
 6433SOL     OW20197   2.625   5.770   6.967
 6433SOL    HW120198   2.535   5.805   6.941
 6433SOL    HW220199   2.674   5.740   6.885
 6434SOL     OW20200   3.253   5.741   5.551
 6434SOL    HW120201   3.163   5.698   5.542
 6434SOL    HW220202   3.303   5.733   5.465
 6435SOL     OW20203   5.069   0.681   1.021
 6435SOL    HW120204   5.085   0.779   1.034
 6435SOL    HW220205   5.145   0.630   1.061
 6436SOL     OW20206   6.952   3.816   4.023
 6436SOL    HW120207   6.901   3.879   3.965
 6436SOL    HW220208   7.012   3.868   4.085
 6437SOL     OW20209   0.653   1.322   5.705
 6437SOL    HW120210   0.683   1.417   5.719
 6437SOL    HW220211   0.720   1.260   5.744
 6438SOL     OW20212   0.499   5.605   0.238
 6438SOL    HW120213   0.501   5.705   0.237
 6438SOL    HW220214   0.567   5.571   0.304
 6439SOL     OW20215   5.802   0.780   3.381
 6439SOL    HW120216   5.723   0.790   3.441
 6439SOL    HW220217   5.782   0.822   3.292
 6440SOL     OW20218   2.592   1.025   5.952
 6440SOL    HW120219   2.552   0.993   5.866
 6440SOL    HW220220   2.528   1.008   6.027
 6441SOL     OW20221   0.160   0.804   2.732
 6441SOL    HW120222   0.201   0.811   2.641
 6441SOL    HW220223   0.176   0.888   2.783
 6442SOL     OW20224   3.039   2.629   5.715
 6442SOL    HW120225   3.113   2.562   5.705
 6442SOL    HW220226   2.955   2.591   5.676
 6443SOL     OW20227   4.560   2.424   0.961
 6443SOL    HW120228   4.631   2.419   0.891
 6443SOL    HW220229   4.530   2.519   0.972
 6444SOL     OW20230   0.230   3.104   5.321
 6444SOL    HW120231   0.327   3.125   5.333
 6444SOL    HW220232   0.208   3.020   5.371
 6445SOL     OW20233   2.948   3.764   2.965
 6445SOL    HW120234   2.891   3.729   2.890
 6445SOL    HW220235   3.028   3.810   2.928
 6446SOL     OW20236   2.039   1.441   6.854
 6446SOL    HW120237   2.079   1.376   6.791
 6446SOL    HW220238   1.953   1.404   6.891
 6447SOL     OW20239   5.894   4.698   1.266
 6447SOL    HW120240   5.915   4.725   1.360
 6447SOL    HW220241   5.823   4.628   1.266
 6448SOL     OW20242   5.036   5.447   2.066
 6448SOL    HW120243   5.048   5.473   1.970
 6448SOL    HW220244   4.996   5.355   2.071
 6449SOL     OW20245   2.171   5.471   1.280
 6449SOL    HW120246   2.249   5.430   1.328
 6449SOL    HW220247   2.193   5.565   1.256
 6450SOL     OW20248   0.376   3.666   1.071
 6450SOL    HW120249   0.426   3.591   1.115
 6450SOL    HW220250   0.365   3.740   1.137
 6451SOL     OW20251   3.226   2.624   1.238
 6451SOL    HW120252   3.143   2.606   1.290
 6451SOL    HW220253   3.290   2.675   1.295
 6452SOL     OW20254   5.188   2.757   3.078
 6452SOL    HW120255   5.169   2.672   3.127
 6452SOL    HW220256   5.254   2.811   3.131
 6453SOL     OW20257   3.408   6.966   1.117
 6453SOL    HW120258   3.495   6.969   1.068
 6453SOL    HW220259   3.424   6.977   1.215
 6454SOL     OW20260   5.875   2.682   2.934
 6454SOL    HW120261   5.928   2.739   2.872
 6454SOL    HW220262   5.806   2.631   2.881
 6455SOL     OW20263   6.122   4.094   3.577
 6455SOL    HW120264   6.126   4.157   3.655
 6455SOL    HW220265   6.214   4.079   3.541
 6456SOL     OW20266   6.542   1.334   2.936
 6456SOL    HW120267   6.522   1.404   2.868
 6456SOL    HW220268   6.549   1.245   2.892
 6457SOL     OW20269   4.646   0.052   1.435
 6457SOL    HW120270   4.687   0.107   1.509
 6457SOL    HW220271   4.630   6.981   1.468
 6458SOL     OW20272   1.243   4.799   3.734
 6458SOL    HW120273   1.160   4.748   3.710
 6458SOL    HW220274   1.257   4.794   3.833
 6459SOL     OW20275   6.541   3.005   2.672
 6459SOL    HW120276   6.536   2.961   2.582
 6459SOL    HW220277   6.451   3.004   2.714
 6460SOL     OW20278   0.206   5.794   6.182
 6460SOL    HW120279   0.175   5.779   6.276
 6460SOL    HW220280   0.175   5.719   6.124
 6461SOL     OW20281   2.968   4.880   0.966
 6461SOL    HW120282   2.987   4.815   1.040
 6461SOL    HW220283   2.916   4.834   0.894
 6462SOL     OW20284   1.563   4.349   5.173
 6462SOL    HW120285   1.654   4.375   5.206
 6462SOL    HW220286   1.566   4.340   5.073
 6463SOL     OW20287   4.189   1.101   1.304
 6463SOL    HW120288   4.110   1.117   1.363
 6463SOL    HW220289   4.252   1.178   1.310
 6464SOL     OW20290   1.007   5.947   4.612
 6464SOL    HW120291   1.042   5.902   4.529
 6464SOL    HW220292   1.013   6.046   4.602
 6465SOL     OW20293   4.881   2.253   3.095
 6465SOL    HW120294   4.864   2.351   3.092
 6465SOL    HW220295   4.797   2.203   3.075
 6466SOL     OW20296   0.406   3.402   0.213
 6466SOL    HW120297   0.490   3.450   0.188
 6466SOL    HW220298   0.389   3.328   0.148
 6467SOL     OW20299   3.264   1.268   0.827
 6467SOL    HW120300   3.305   1.343   0.774
 6467SOL    HW220301   3.229   1.198   0.764
 6468SOL     OW20302   2.879   0.297   0.685
 6468SOL    HW120303   2.855   0.211   0.730
 6468SOL    HW220304   2.971   0.325   0.714
 6469SOL     OW20305   3.854   1.826   3.607
 6469SOL    HW120306   3.880   1.788   3.519
 6469SOL    HW220307   3.779   1.773   3.647
 6470SOL     OW20308   6.351   2.341   6.699
 6470SOL    HW120309   6.364   2.417   6.762
 6470SOL    HW220310   6.327   2.258   6.750
 6471SOL     OW20311   0.333   6.122   5.003
 6471SOL    HW120312   0.244   6.125   4.958
 6471SOL    HW220313   0.358   6.026   5.021
 6472SOL     OW20314   6.733   5.696   2.636
 6472SOL    HW120315   6.798   5.771   2.632
 6472SOL    HW220316   6.780   5.612   2.664
 6473SOL     OW20317   1.950   1.216   3.739
 6473SOL    HW120318   2.001   1.231   3.654
 6473SOL    HW220319   2.009   1.236   3.817
 6474SOL     OW20320   4.406   6.348   4.785
 6474SOL    HW120321   4.385   6.257   4.822
 6474SOL    HW220322   4.328   6.382   4.733
 6475SOL     OW20323   5.773   5.002   2.960
 6475SOL    HW120324   5.856   5.043   2.999
 6475SOL    HW220325   5.710   5.075   2.935
 6476SOL     OW20326   4.212   1.450   6.372
 6476SOL    HW120327   4.187   1.491   6.459
 6476SOL    HW220328   4.237   1.521   6.307
 6477SOL     OW20329   6.672   6.152   1.515
 6477SOL    HW120330   6.667   6.062   1.557
 6477SOL    HW220331   6.749   6.155   1.451
 6478SOL     OW20332   3.402   5.774   1.991
 6478SOL    HW120333   3.324   5.735   1.942
 6478SOL    HW220334   3.398   5.874   1.987
 6479SOL     OW20335   3.462   6.235   4.067
 6479SOL    HW120336   3.386   6.183   4.103
 6479SOL    HW220337   3.430   6.295   3.993
 6480SOL     OW20338   3.218   1.227   6.719
 6480SOL    HW120339   3.167   1.168   6.657
 6480SOL    HW220340   3.235   1.178   6.805
 6481SOL     OW20341   3.388   2.389   1.614
 6481SOL    HW120342   3.301   2.426   1.582
 6481SOL    HW220343   3.371   2.319   1.683
 6482SOL     OW20344   6.887   3.399   5.329
 6482SOL    HW120345   6.963   3.461   5.307
 6482SOL    HW220346   6.924   3.309   5.352
 6483SOL     OW20347   1.468   5.973   5.225
 6483SOL    HW120348   1.467   5.954   5.126
 6483SOL    HW220349   1.472   5.886   5.275
 6484SOL     OW20350   2.587   0.930   3.817
 6484SOL    HW120351   2.511   0.866   3.803
 6484SOL    HW220352   2.632   0.910   3.904
 6485SOL     OW20353   1.893   6.706   4.404
 6485SOL    HW120354   1.963   6.674   4.468
 6485SOL    HW220355   1.820   6.752   4.455
 6486SOL     OW20356   1.612   5.322   3.289
 6486SOL    HW120357   1.675   5.285   3.221
 6486SOL    HW220358   1.538   5.256   3.306
 6487SOL     OW20359   0.127   4.644   4.053
 6487SOL    HW120360   0.156   4.608   4.141
 6487SOL    HW220361   0.165   4.735   4.040
 6488SOL     OW20362   4.833   5.822   4.781
 6488SOL    HW120363   4.779   5.823   4.697
 6488SOL    HW220364   4.776   5.848   4.858
 6489SOL     OW20365   4.168   2.973   5.912
 6489SOL    HW120366   4.224   2.897   5.880
 6489SOL    HW220367   4.082   2.937   5.950
 6490SOL     OW20368   1.803   2.003   6.436
 6490SOL    HW120369   1.778   1.916   6.479
 6490SOL    HW220370   1.818   2.071   6.508
 6491SOL     OW20371   1.482   0.269   0.577
 6491SOL    HW120372   1.411   0.292   0.643
 6491SOL    HW220373   1.549   0.343   0.572
 6492SOL     OW20374   3.235   3.821   4.848
 6492SOL    HW120375   3.268   3.824   4.754
 6492SOL    HW220376   3.136   3.813   4.849
 6493SOL     OW20377   0.954   4.502   6.343
 6493SOL    HW120378   0.976   4.470   6.435
 6493SOL    HW220379   0.982   4.433   6.276
 6494SOL     OW20380   6.161   6.449   1.870
 6494SOL    HW120381   6.118   6.539   1.865
 6494SOL    HW220382   6.259   6.459   1.886
 6495SOL     OW20383   0.239   0.109   3.390
 6495SOL    HW120384   0.213   0.124   3.485
 6495SOL    HW220385   0.336   0.133   3.378
 6496SOL     OW20386   4.716   0.391   2.159
 6496SOL    HW120387   4.656   0.455   2.111
 6496SOL    HW220388   4.811   0.407   2.132
 6497SOL     OW20389   0.283   1.680   0.730
 6497SOL    HW120390   0.195   1.634   0.722
 6497SOL    HW220391   0.275   1.755   0.796
 6498SOL     OW20392   0.993   4.420   3.514
 6498SOL    HW120393   0.905   4.376   3.503
 6498SOL    HW220394   1.051   4.363   3.573
 6499SOL     OW20395   6.167   3.891   4.644
 6499SOL    HW120396   6.108   3.825   4.598
 6499SOL    HW220397   6.115   3.973   4.666
 6500SOL     OW20398   1.657   3.532   2.580
 6500SOL    HW120399   1.707   3.616   2.560
 6500SOL    HW220400   1.586   3.518   2.511
 6501SOL     OW20401   6.471   2.020   1.154
 6501SOL    HW120402   6.406   2.078   1.105
 6501SOL    HW220403   6.472   1.929   1.112
 6502SOL     OW20404   5.965   3.589   2.027
 6502SOL    HW120405   5.955   3.498   1.986
 6502SOL    HW220406   5.957   3.582   2.126
 6503SOL     OW20407   6.609   3.206   5.538
 6503SOL    HW120408   6.567   3.290   5.504
 6503SOL    HW220409   6.644   3.221   5.631
 6504SOL     OW20410   4.437   6.423   6.237
 6504SOL    HW120411   4.447   6.521   6.221
 6504SOL    HW220412   4.420   6.407   6.335
 6505SOL     OW20413   5.910   6.066   0.031
 6505SOL    HW120414   5.817   6.101   0.020
 6505SOL    HW220415   5.969   6.103   6.981
 6506SOL     OW20416   0.179   2.834   2.682
 6506SOL    HW120417   0.127   2.759   2.723
 6506SOL    HW220418   0.118   2.889   2.625
 6507SOL     OW20419   3.788   4.377   6.348
 6507SOL    HW120420   3.836   4.323   6.418
 6507SOL    HW220421   3.694   4.392   6.377
 6508SOL     OW20422   1.324   6.556   1.785
 6508SOL    HW120423   1.243   6.496   1.780
 6508SOL    HW220424   1.391   6.527   1.717
 6509SOL     OW20425   3.774   1.617   5.777
 6509SOL    HW120426   3.812   1.707   5.798
 6509SOL    HW220427   3.846   1.548   5.786
 6510SOL     OW20428   4.261   5.950   5.586
 6510SOL    HW120429   4.164   5.973   5.592
 6510SOL    HW220430   4.299   5.945   5.679
 6511SOL     OW20431   3.888   1.276   6.801
 6511SOL    HW120432   3.845   1.294   6.712
 6511SOL    HW220433   3.923   1.361   6.839
 6512SOL     OW20434   3.481   1.001   1.232
 6512SOL    HW120435   3.492   0.990   1.331
 6512SOL    HW220436   3.445   1.093   1.214
 6513SOL     OW20437   2.970   5.390   4.579
 6513SOL    HW120438   3.048   5.439   4.616
 6513SOL    HW220439   2.932   5.329   4.649
 6514SOL     OW20440   5.933   0.663   5.529
 6514SOL    HW120441   5.967   0.572   5.506
 6514SOL    HW220442   5.869   0.693   5.458
 6515SOL     OW20443   2.002   5.045   2.048
 6515SOL    HW120444   1.906   5.068   2.036
 6515SOL    HW220445   2.016   4.949   2.026
 6516SOL     OW20446   0.228   2.897   1.275
 6516SOL    HW120447   0.202   2.809   1.314
 6516SOL    HW220448   0.321   2.921   1.305
 6517SOL     OW20449   0.068   2.831   6.949
 6517SOL    HW120450   7.022   2.802   6.882
 6517SOL    HW220451   0.082   2.930   6.942
 6518SOL     OW20452   1.053   1.300   2.971
 6518SOL    HW120453   1.077   1.207   2.942
 6518SOL    HW220454   1.064   1.308   3.070
 6519SOL     OW20455   0.774   1.646   3.127
 6519SOL    HW120456   0.688   1.665   3.174
 6519SOL    HW220457   0.757   1.638   3.029
 6520SOL     OW20458   6.977   5.469   6.763
 6520SOL    HW120459   7.005   5.444   6.855
 6520SOL    HW220460   6.950   5.565   6.760
 6521SOL     OW20461   1.462   2.911   4.460
 6521SOL    HW120462   1.560   2.899   4.444
 6521SOL    HW220463   1.448   2.963   4.545
 6522SOL     OW20464   2.530   4.006   5.387
 6522SOL    HW120465   2.472   4.004   5.306
 6522SOL    HW220466   2.585   3.923   5.391
 6523SOL     OW20467   5.841   0.319   0.220
 6523SOL    HW120468   5.876   0.226   0.228
 6523SOL    HW220469   5.769   0.334   0.288
 6524SOL     OW20470   2.179   2.228   1.124
 6524SOL    HW120471   2.249   2.229   1.053
 6524SOL    HW220472   2.169   2.319   1.164
 6525SOL     OW20473   1.377   5.054   3.669
 6525SOL    HW120474   1.308   5.127   3.676
 6525SOL    HW220475   1.331   4.966   3.664
 6526SOL     OW20476   0.223   0.231   0.631
 6526SOL    HW120477   0.249   0.188   0.544
 6526SOL    HW220478   0.176   0.164   0.688
 6527SOL     OW20479   0.642   2.576   0.433
 6527SOL    HW120480   0.576   2.638   0.477
 6527SOL    HW220481   0.689   2.522   0.503
 6528SOL     OW20482   5.983   1.181   5.587
 6528SOL    HW120483   5.988   1.182   5.487
 6528SOL    HW220484   6.055   1.122   5.624
 6529SOL     OW20485   6.371   1.221   1.956
 6529SOL    HW120486   6.395   1.202   2.051
 6529SOL    HW220487   6.363   1.135   1.906
 6530SOL     OW20488   0.806   2.369   2.316
 6530SOL    HW120489   0.728   2.423   2.349
 6530SOL    HW220490   0.865   2.426   2.259
 6531SOL     OW20491   4.137   3.291   5.890
 6531SOL    HW120492   4.205   3.346   5.939
 6531SOL    HW220493   4.111   3.212   5.947
 6532SOL     OW20494   1.068   0.884   0.850
 6532SOL    HW120495   1.025   0.943   0.919
 6532SOL    HW220496   1.005   0.871   0.774
 6533SOL     OW20497   4.498   3.896   6.663
 6533SOL    HW120498   4.561   3.840   6.717
 6533SOL    HW220499   4.541   3.983   6.640
 6534SOL     OW20500   5.714   4.561   2.109
 6534SOL    HW120501   5.646   4.512   2.165
 6534SOL    HW220502   5.805   4.547   2.149
 6535SOL     OW20503   6.141   3.198   4.696
 6535SOL    HW120504   6.057   3.145   4.702
 6535SOL    HW220505   6.200   3.176   4.775
 6536SOL     OW20506   0.563   2.958   5.519
 6536SOL    HW120507   0.526   2.954   5.612
 6536SOL    HW220508   0.581   2.865   5.487
 6537SOL     OW20509   6.110   4.764   4.776
 6537SOL    HW120510   6.087   4.837   4.711
 6537SOL    HW220511   6.207   4.770   4.799
 6538SOL     OW20512   1.931   3.901   5.197
 6538SOL    HW120513   1.904   3.866   5.287
 6538SOL    HW220514   2.031   3.902   5.191
 6539SOL     OW20515   6.554   0.670   6.692
 6539SOL    HW120516   6.589   0.761   6.671
 6539SOL    HW220517   6.519   0.627   6.609
 6540SOL     OW20518   4.147   2.584   5.999
 6540SOL    HW120519   4.145   2.663   6.060
 6540SOL    HW220520   4.116   2.612   5.908
 6541SOL     OW20521   6.520   1.485   4.927
 6541SOL    HW120522   6.579   1.534   4.991
 6541SOL    HW220523   6.439   1.453   4.974
 6542SOL     OW20524   1.676   2.948   4.859
 6542SOL    HW120525   1.753   3.001   4.896
 6542SOL    HW220526   1.649   2.877   4.924
 6543SOL     OW20527   3.736   2.088   4.755
 6543SOL    HW120528   3.742   2.091   4.855
 6543SOL    HW220529   3.819   2.129   4.716
 6544SOL     OW20530   0.930   0.342   1.272
 6544SOL    HW120531   0.835   0.371   1.273
 6544SOL    HW220532   0.942   0.271   1.202
 6545SOL     OW20533   4.212   6.991   1.574
 6545SOL    HW120534   4.177   0.027   1.647
 6545SOL    HW220535   4.257   0.027   1.505
 6546SOL     OW20536   5.555   4.299   6.393
 6546SOL    HW120537   5.651   4.304   6.366
 6546SOL    HW220538   5.530   4.383   6.441
 6547SOL     OW20539   5.524   6.051   0.134
 6547SOL    HW120540   5.430   6.067   0.164
 6547SOL    HW220541   5.566   5.981   0.193
 6548SOL     OW20542   0.732   2.611   6.186
 6548SOL    HW120543   0.820   2.621   6.232
 6548SOL    HW220544   0.747   2.586   6.090
 6549SOL     OW20545   4.909   0.058   1.771
 6549SOL    HW120546   4.982   0.123   1.792
 6549SOL    HW220547   4.898   7.016   1.848
 6550SOL     OW20548   6.490   6.952   3.149
 6550SOL    HW120549   6.397   6.962   3.184
 6550SOL    HW220550   6.529   0.020   3.132
 6551SOL     OW20551   3.112   3.329   1.276
 6551SOL    HW120552   3.034   3.307   1.336
 6551SOL    HW220553   3.079   3.356   1.186
 6552SOL     OW20554   2.390   6.908   0.751
 6552SOL    HW120555   2.341   6.927   0.836
 6552SOL    HW220556   2.480   6.952   0.753
 6553SOL     OW20557   6.956   1.135   2.734
 6553SOL    HW120558   6.965   1.054   2.675
 6553SOL    HW220559   6.902   1.112   2.815
 6554SOL     OW20560   3.154   1.049   4.342
 6554SOL    HW120561   3.214   0.997   4.281
 6554SOL    HW220562   3.110   0.987   4.407
 6555SOL     OW20563   6.326   1.973   4.600
 6555SOL    HW120564   6.294   2.056   4.556
 6555SOL    HW220565   6.425   1.977   4.612
 6556SOL     OW20566   5.968   3.192   3.290
 6556SOL    HW120567   5.964   3.286   3.254
 6556SOL    HW220568   5.875   3.157   3.303
 6557SOL     OW20569   1.379   6.913   2.451
 6557SOL    HW120570   1.298   6.863   2.422
 6557SOL    HW220571   1.364   6.952   2.542
 6558SOL     OW20572   5.767   5.299   0.288
 6558SOL    HW120573   5.740   5.330   0.379
 6558SOL    HW220574   5.746   5.202   0.277
 6559SOL     OW20575   6.679   3.194   6.504
 6559SOL    HW120576   6.662   3.182   6.407
 6559SOL    HW220577   6.598   3.168   6.556
 6560SOL     OW20578   4.837   4.788   0.483
 6560SOL    HW120579   4.745   4.822   0.462
 6560SOL    HW220580   4.879   4.847   0.552
 6561SOL     OW20581   3.706   4.931   0.274
 6561SOL    HW120582   3.764   4.865   0.322
 6561SOL    HW220583   3.736   5.024   0.296
 6562SOL     OW20584   5.746   2.584   0.856
 6562SOL    HW120585   5.798   2.611   0.775
 6562SOL    HW220586   5.782   2.633   0.936
 6563SOL     OW20587   5.155   6.687   5.131
 6563SOL    HW120588   5.253   6.673   5.114
 6563SOL    HW220589   5.130   6.643   5.217
 6564SOL     OW20590   6.868   3.936   2.674
 6564SOL    HW120591   6.803   3.965   2.745
 6564SOL    HW220592   6.939   3.880   2.715
 6565SOL     OW20593   6.309   6.744   2.143
 6565SOL    HW120594   6.248   6.807   2.191
 6565SOL    HW220595   6.262   6.657   2.128
 6566SOL     OW20596   3.754   5.868   2.350
 6566SOL    HW120597   3.682   5.932   2.377
 6566SOL    HW220598   3.841   5.917   2.343
 6567SOL     OW20599   4.359   0.879   1.649
 6567SOL    HW120600   4.392   0.909   1.559
 6567SOL    HW220601   4.298   0.948   1.687
 6568SOL     OW20602   3.586   1.191   1.842
 6568SOL    HW120603   3.540   1.240   1.916
 6568SOL    HW220604   3.569   1.237   1.755
 6569SOL     OW20605   1.043   3.442   5.559
 6569SOL    HW120606   0.959   3.493   5.544
 6569SOL    HW220607   1.071   3.450   5.654
 6570SOL     OW20608   3.953   7.013   1.828
 6570SOL    HW120609   3.879   0.049   1.862
 6570SOL    HW220610   4.035   0.045   1.815
 6571SOL     OW20611   2.926   4.814   3.388
 6571SOL    HW120612   2.906   4.827   3.485
 6571SOL    HW220613   2.857   4.754   3.348
 6572SOL     OW20614   0.568   5.253   3.849
 6572SOL    HW120615   0.572   5.153   3.845
 6572SOL    HW220616   0.473   5.282   3.864
 6573SOL     OW20617   1.948   1.035   2.906
 6573SOL    HW120618   2.023   0.973   2.930
 6573SOL    HW220619   1.862   0.985   2.906
 6574SOL     OW20620   2.213   5.888   2.345
 6574SOL    HW120621   2.203   5.964   2.408
 6574SOL    HW220622   2.308   5.882   2.314
 6575SOL     OW20623   0.136   0.087   2.820
 6575SOL    HW120624   0.128   0.132   2.732
 6575SOL    HW220625   0.159   0.153   2.891
 6576SOL     OW20626   3.557   5.274   0.264
 6576SOL    HW120627   3.499   5.212   0.316
 6576SOL    HW220628   3.573   5.358   0.317
 6577SOL     OW20629   2.290   2.117   4.222
 6577SOL    HW120630   2.352   2.160   4.157
 6577SOL    HW220631   2.343   2.063   4.288
 6578SOL     OW20632   1.639   5.355   1.002
 6578SOL    HW120633   1.664   5.292   0.928
 6578SOL    HW220634   1.659   5.448   0.974
 6579SOL     OW20635   0.009   1.100   3.551
 6579SOL    HW120636   6.973   1.167   3.504
 6579SOL    HW220637   0.094   1.089   3.499
 6580SOL     OW20638   1.068   0.103   6.956
 6580SOL    HW120639   1.166   0.093   6.970
 6580SOL    HW220640   1.029   0.160   0.006
 6581SOL     OW20641   1.435   1.761   6.943
 6581SOL    HW120642   1.466   1.718   6.858
 6581SOL    HW220643   1.347   1.805   6.927
 6582SOL     OW20644   6.621   0.440   2.869
 6582SOL    HW120645   6.620   0.347   2.905
 6582SOL    HW220646   6.670   0.499   2.932
 6583SOL     OW20647   4.447   6.807   6.405
 6583SOL    HW120648   4.452   6.725   6.461
 6583SOL    HW220649   4.477   6.886   6.458
 6584SOL     OW20650   3.617   2.581   1.080
 6584SOL    HW120651   3.572   2.492   1.091
 6584SOL    HW220652   3.606   2.613   0.986
 6585SOL     OW20653   6.062   6.886   0.964
 6585SOL    HW120654   6.035   6.976   1.000
 6585SOL    HW220655   6.068   6.890   0.865
 6586SOL     OW20656   6.068   2.332   6.066
 6586SOL    HW120657   6.128   2.407   6.094
 6586SOL    HW220658   6.050   2.273   6.145
 6587SOL     OW20659   1.332   4.224   5.365
 6587SOL    HW120660   1.342   4.285   5.287
 6587SOL    HW220661   1.340   4.276   5.450
 6588SOL     OW20662   0.453   3.180   0.448
 6588SOL    HW120663   0.413   3.237   0.376
 6588SOL    HW220664   0.552   3.191   0.448
 6589SOL     OW20665   6.467   0.914   1.505
 6589SOL    HW120666   6.434   0.835   1.557
 6589SOL    HW220667   6.533   0.965   1.560
 6590SOL     OW20668   1.009   0.843   5.541
 6590SOL    HW120669   1.099   0.813   5.509
 6590SOL    HW220670   0.940   0.814   5.475
 6591SOL     OW20671   4.891   5.396   4.651
 6591SOL    HW120672   4.936   5.343   4.579
 6591SOL    HW220673   4.915   5.493   4.640
 6592SOL     OW20674   5.275   0.303   3.103
 6592SOL    HW120675   5.258   0.341   3.194
 6592SOL    HW220676   5.200   0.242   3.078
 6593SOL     OW20677   2.907   2.292   2.528
 6593SOL    HW120678   2.978   2.258   2.467
 6593SOL    HW220679   2.906   2.392   2.525
 6594SOL     OW20680   3.896   1.415   5.937
 6594SOL    HW120681   3.975   1.388   5.992
 6594SOL    HW220682   3.827   1.456   5.997
 6595SOL     OW20683   2.383   2.182   4.669
 6595SOL    HW120684   2.288   2.151   4.662
 6595SOL    HW220685   2.420   2.153   4.757
 6596SOL     OW20686   5.443   5.690   2.825
 6596SOL    HW120687   5.418   5.746   2.904
 6596SOL    HW220688   5.367   5.686   2.761
 6597SOL     OW20689   0.978   5.537   2.191
 6597SOL    HW120690   1.029   5.461   2.151
 6597SOL    HW220691   0.904   5.501   2.248
 6598SOL     OW20692   1.970   4.188   3.907
 6598SOL    HW120693   1.933   4.278   3.885
 6598SOL    HW220694   1.907   4.141   3.970
 6599SOL     OW20695   5.638   5.750   6.802
 6599SOL    HW120696   5.643   5.757   6.901
 6599SOL    HW220697   5.728   5.771   6.762
 6600SOL     OW20698   4.872   0.480   5.653
 6600SOL    HW120699   4.854   0.509   5.747
 6600SOL    HW220700   4.870   0.380   5.647
 6601SOL     OW20701   0.838   3.108   2.588
 6601SOL    HW120702   0.890   3.156   2.658
 6601SOL    HW220703   0.772   3.170   2.546
 6602SOL     OW20704   1.976   0.412   1.286
 6602SOL    HW120705   2.008   0.436   1.194
 6602SOL    HW220706   2.042   0.351   1.329
 6603SOL     OW20707   0.888   3.136   3.773
 6603SOL    HW120708   0.852   3.162   3.683
 6603SOL    HW220709   0.909   3.218   3.826
 6604SOL     OW20710   2.328   7.004   1.855
 6604SOL    HW120711   2.427   7.004   1.841
 6604SOL    HW220712   2.308   6.980   1.950
 6605SOL     OW20713   5.994   5.401   1.589
 6605SOL    HW120714   5.952   5.311   1.575
 6605SOL    HW220715   5.992   5.424   1.686
 6606SOL     OW20716   1.367   3.573   3.613
 6606SOL    HW120717   1.306   3.503   3.650
 6606SOL    HW220718   1.386   3.553   3.517
 6607SOL     OW20719   5.929   4.512   3.846
 6607SOL    HW120720   6.023   4.526   3.878
 6607SOL    HW220721   5.906   4.415   3.852
 6608SOL     OW20722   7.022   6.942   6.845
 6608SOL    HW120723   6.974   0.008   6.850
 6608SOL    HW220724   0.074   6.949   6.778
 6609SOL     OW20725   4.982   1.853   6.197
 6609SOL    HW120726   5.040   1.890   6.270
 6609SOL    HW220727   4.910   1.798   6.238
 6610SOL     OW20728   2.567   5.544   0.649
 6610SOL    HW120729   2.512   5.465   0.624
 6610SOL    HW220730   2.610   5.529   0.738
 6611SOL     OW20731   5.112   2.032   3.824
 6611SOL    HW120732   5.130   1.933   3.822
 6611SOL    HW220733   5.116   2.069   3.731
 6612SOL     OW20734   5.719   2.387   6.347
 6612SOL    HW120735   5.705   2.478   6.384
 6612SOL    HW220736   5.726   2.321   6.422
 6613SOL     OW20737   5.119   0.649   6.364
 6613SOL    HW120738   5.103   0.719   6.433
 6613SOL    HW220739   5.179   0.578   6.401
 6614SOL     OW20740   4.814   5.700   1.939
 6614SOL    HW120741   4.812   5.634   2.014
 6614SOL    HW220742   4.780   5.655   1.855
 6615SOL     OW20743   2.985   5.586   0.416
 6615SOL    HW120744   2.978   5.593   0.317
 6615SOL    HW220745   2.925   5.513   0.448
 6616SOL     OW20746   4.401   0.637   6.429
 6616SOL    HW120747   4.494   0.624   6.464
 6616SOL    HW220748   4.368   0.552   6.388
 6617SOL     OW20749   4.069   0.530   3.427
 6617SOL    HW120750   4.034   0.453   3.480
 6617SOL    HW220751   4.006   0.551   3.353
 6618SOL     OW20752   0.539   1.687   3.275
 6618SOL    HW120753   0.563   1.772   3.321
 6618SOL    HW220754   0.556   1.609   3.336
 6619SOL     OW20755   4.752   6.723   4.263
 6619SOL    HW120756   4.773   6.697   4.357
 6619SOL    HW220757   4.655   6.748   4.257
 6620SOL     OW20758   0.841   3.861   3.662
 6620SOL    HW120759   0.778   3.848   3.739
 6620SOL    HW220760   0.847   3.777   3.609
 6621SOL     OW20761   3.983   3.193   4.882
 6621SOL    HW120762   3.912   3.127   4.906
 6621SOL    HW220763   4.061   3.145   4.842
 6622SOL     OW20764   6.315   5.807   0.929
 6622SOL    HW120765   6.322   5.790   1.028
 6622SOL    HW220766   6.354   5.896   0.908
 6623SOL     OW20767   3.401   4.398   5.662
 6623SOL    HW120768   3.444   4.309   5.647
 6623SOL    HW220769   3.468   4.461   5.703
 6624SOL     OW20770   0.744   2.517   4.891
 6624SOL    HW120771   0.825   2.497   4.836
 6624SOL    HW220772   0.693   2.433   4.907
 6625SOL     OW20773   6.051   2.984   5.386
 6625SOL    HW120774   5.984   3.039   5.336
 6625SOL    HW220775   6.083   3.034   5.466
 6626SOL     OW20776   2.914   6.857   4.575
 6626SOL    HW120777   2.985   6.795   4.543
 6626SOL    HW220778   2.859   6.888   4.497
 6627SOL     OW20779   1.626   5.950   4.648
 6627SOL    HW120780   1.629   5.967   4.549
 6627SOL    HW220781   1.715   5.916   4.679
 6628SOL     OW20782   4.968   5.594   3.945
 6628SOL    HW120783   5.014   5.516   3.988
 6628SOL    HW220784   4.954   5.574   3.848
 6629SOL     OW20785   5.079   6.392   6.898
 6629SOL    HW120786   5.123   6.455   6.962
 6629SOL    HW220787   5.148   6.352   6.838
 6630SOL     OW20788   2.501   1.440   1.853
 6630SOL    HW120789   2.505   1.540   1.858
 6630SOL    HW220790   2.488   1.403   1.945
 6631SOL     OW20791   1.613   4.959   5.903
 6631SOL    HW120792   1.649   4.943   5.995
 6631SOL    HW220793   1.547   5.034   5.905
 6632SOL     OW20794   1.171   0.371   0.836
 6632SOL    HW120795   1.224   0.327   0.909
 6632SOL    HW220796   1.090   0.414   0.874
 6633SOL     OW20797   3.101   5.561   5.977
 6633SOL    HW120798   3.072   5.576   6.071
 6633SOL    HW220799   3.151   5.475   5.970
 6634SOL     OW20800   5.144   1.986   5.991
 6634SOL    HW120801   5.073   1.939   6.045
 6634SOL    HW220802   5.217   2.017   6.052
 6635SOL     OW20803   4.829   4.701   2.454
 6635SOL    HW120804   4.822   4.611   2.498
 6635SOL    HW220805   4.795   4.771   2.516
 6636SOL     OW20806   2.904   6.971   2.349
 6636SOL    HW120807   2.929   0.045   2.345
 6636SOL    HW220808   2.873   6.941   2.258
 6637SOL     OW20809   1.769   0.668   0.964
 6637SOL    HW120810   1.789   0.765   0.953
 6637SOL    HW220811   1.670   0.655   0.970
 6638SOL     OW20812   3.150   3.622   3.571
 6638SOL    HW120813   3.235   3.594   3.615
 6638SOL    HW220814   3.172   3.676   3.489
 6639SOL     OW20815   4.346   2.806   0.805
 6639SOL    HW120816   4.372   2.771   0.895
 6639SOL    HW220817   4.381   2.744   0.734
 6640SOL     OW20818   0.736   2.961   5.263
 6640SOL    HW120819   0.647   2.932   5.228
 6640SOL    HW220820   0.735   2.958   5.363
 6641SOL     OW20821   3.912   1.655   1.080
 6641SOL    HW120822   3.835   1.697   1.128
 6641SOL    HW220823   3.994   1.660   1.137
 6642SOL     OW20824   1.886   5.485   0.731
 6642SOL    HW120825   1.926   5.557   0.674
 6642SOL    HW220826   1.818   5.525   0.792
 6643SOL     OW20827   5.409   6.171   0.711
 6643SOL    HW120828   5.355   6.099   0.669
 6643SOL    HW220829   5.490   6.189   0.655
 6644SOL     OW20830   1.934   6.353   2.269
 6644SOL    HW120831   1.880   6.414   2.327
 6644SOL    HW220832   1.874   6.286   2.225
 6645SOL     OW20833   6.157   3.035   0.534
 6645SOL    HW120834   6.082   3.078   0.484
 6645SOL    HW220835   6.201   3.104   0.593
 6646SOL     OW20836   4.092   0.751   0.202
 6646SOL    HW120837   3.992   0.754   0.201
 6646SOL    HW220838   4.128   0.795   0.120
 6647SOL     OW20839   4.654   4.917   1.001
 6647SOL    HW120840   4.705   4.888   1.082
 6647SOL    HW220841   4.686   4.865   0.922
 6648SOL     OW20842   2.988   6.435   4.512
 6648SOL    HW120843   2.979   6.462   4.608
 6648SOL    HW220844   2.913   6.374   4.487
 6649SOL     OW20845   5.808   2.836   6.692
 6649SOL    HW120846   5.851   2.762   6.639
 6649SOL    HW220847   5.815   2.921   6.640
 6650SOL     OW20848   3.738   0.745   4.893
 6650SOL    HW120849   3.700   0.653   4.903
 6650SOL    HW220850   3.821   0.753   4.948
 6651SOL     OW20851   0.902   1.382   0.053
 6651SOL    HW120852   0.919   1.309   7.010
 6651SOL    HW220853   0.903   1.345   0.146
 6652SOL     OW20854   0.736   4.510   0.042
 6652SOL    HW120855   0.700   4.417   0.034
 6652SOL    HW220856   0.829   4.507   0.079
 6653SOL     OW20857   5.079   3.008   0.494
 6653SOL    HW120858   5.160   3.028   0.549
 6653SOL    HW220859   5.082   2.913   0.464
 6654SOL     OW20860   0.315   4.743   2.887
 6654SOL    HW120861   0.284   4.773   2.796
 6654SOL    HW220862   0.315   4.643   2.890
 6655SOL     OW20863   6.452   5.400   1.509
 6655SOL    HW120864   6.435   5.330   1.578
 6655SOL    HW220865   6.370   5.455   1.496
 6656SOL     OW20866   4.254   1.623   2.700
 6656SOL    HW120867   4.280   1.622   2.604
 6656SOL    HW220868   4.311   1.559   2.752
 6657SOL     OW20869   5.157   2.303   4.593
 6657SOL    HW120870   5.219   2.312   4.516
 6657SOL    HW220871   5.205   2.262   4.670
 6658SOL     OW20872   6.335   0.252   5.101
 6658SOL    HW120873   6.315   0.201   5.017
 6658SOL    HW220874   6.428   0.289   5.097
 6659SOL     OW20875   0.824   4.882   2.099
 6659SOL    HW120876   0.910   4.931   2.084
 6659SOL    HW220877   0.841   4.784   2.094
 6660SOL     OW20878   0.821   5.801   2.733
 6660SOL    HW120879   0.735   5.792   2.683
 6660SOL    HW220880   0.878   5.870   2.689
 6661SOL     OW20881   2.841   6.526   4.240
 6661SOL    HW120882   2.928   6.574   4.252
 6661SOL    HW220883   2.846   6.467   4.159
 6662SOL     OW20884   2.551   0.319   1.972
 6662SOL    HW120885   2.577   0.411   1.941
 6662SOL    HW220886   2.452   0.308   1.962
 6663SOL     OW20887   1.652   5.491   6.125
 6663SOL    HW120888   1.738   5.460   6.164
 6663SOL    HW220889   1.660   5.497   6.026
 6664SOL     OW20890   1.964   1.061   1.701
 6664SOL    HW120891   2.018   1.106   1.630
 6664SOL    HW220892   2.022   1.040   1.779
 6665SOL     OW20893   2.983   6.923   6.320
 6665SOL    HW120894   2.933   6.842   6.350
 6665SOL    HW220895   2.943   7.004   6.362
 6666SOL     OW20896   6.364   5.756   4.874
 6666SOL    HW120897   6.418   5.731   4.955
 6666SOL    HW220898   6.315   5.676   4.841
 6667SOL     OW20899   6.826   6.441   5.476
 6667SOL    HW120900   6.844   6.361   5.534
 6667SOL    HW220901   6.826   6.413   5.380
 6668SOL     OW20902   6.555   6.273   1.740
 6668SOL    HW120903   6.578   6.244   1.647
 6668SOL    HW220904   6.625   6.241   1.804
 6669SOL     OW20905   2.534   1.710   1.878
 6669SOL    HW120906   2.473   1.764   1.820
 6669SOL    HW220907   2.514   1.729   1.974
 6670SOL     OW20908   2.854   1.945   6.870
 6670SOL    HW120909   2.910   1.862   6.865
 6670SOL    HW220910   2.904   2.015   6.922
 6671SOL     OW20911   5.121   6.441   0.842
 6671SOL    HW120912   5.073   6.411   0.759
 6671SOL    HW220913   5.137   6.362   0.902
 6672SOL     OW20914   1.429   2.330   0.380
 6672SOL    HW120915   1.405   2.271   0.302
 6672SOL    HW220916   1.357   2.398   0.393
 6673SOL     OW20917   5.397   3.407   4.089
 6673SOL    HW120918   5.479   3.354   4.066
 6673SOL    HW220919   5.368   3.459   4.009
 6674SOL     OW20920   0.534   3.309   6.465
 6674SOL    HW120921   0.581   3.275   6.547
 6674SOL    HW220922   0.584   3.386   6.426
 6675SOL     OW20923   4.541   2.442   6.966
 6675SOL    HW120924   4.520   2.364   0.002
 6675SOL    HW220925   4.470   2.512   6.977
 6676SOL     OW20926   1.126   3.705   3.359
 6676SOL    HW120927   1.178   3.631   3.316
 6676SOL    HW220928   1.185   3.752   3.425
 6677SOL     OW20929   0.604   0.877   0.264
 6677SOL    HW120930   0.510   0.844   0.248
 6677SOL    HW220931   0.659   0.860   0.183
 6678SOL     OW20932   1.852   3.998   0.292
 6678SOL    HW120933   1.766   3.947   0.288
 6678SOL    HW220934   1.914   3.964   0.222
 6679SOL     OW20935   2.379   0.778   3.718
 6679SOL    HW120936   2.334   0.807   3.634
 6679SOL    HW220937   2.309   0.751   3.785
 6680SOL     OW20938   5.157   6.725   0.785
 6680SOL    HW120939   5.249   6.763   0.776
 6680SOL    HW220940   5.163   6.629   0.812
 6681SOL     OW20941   4.392   5.111   1.328
 6681SOL    HW120942   4.403   5.174   1.405
 6681SOL    HW220943   4.377   5.018   1.363
 6682SOL     OW20944   2.757   5.486   0.147
 6682SOL    HW120945   2.843   5.535   0.134
 6682SOL    HW220946   2.682   5.551   0.157
 6683SOL     OW20947   6.290   3.708   6.677
 6683SOL    HW120948   6.363   3.754   6.625
 6683SOL    HW220949   6.216   3.684   6.615
 6684SOL     OW20950   3.264   0.252   1.819
 6684SOL    HW120951   3.208   0.170   1.814
 6684SOL    HW220952   3.265   0.298   1.731
 6685SOL     OW20953   3.914   3.402   6.509
 6685SOL    HW120954   4.010   3.404   6.537
 6685SOL    HW220955   3.871   3.318   6.543
 6686SOL     OW20956   6.166   5.638   3.630
 6686SOL    HW120957   6.241   5.696   3.597
 6686SOL    HW220958   6.093   5.636   3.562
 6687SOL     OW20959   6.640   2.269   1.606
 6687SOL    HW120960   6.728   2.224   1.598
 6687SOL    HW220961   6.583   2.220   1.673
 6688SOL     OW20962   4.111   4.533   0.982
 6688SOL    HW120963   4.091   4.629   1.002
 6688SOL    HW220964   4.049   4.474   1.032
 6689SOL     OW20965   3.485   4.576   6.042
 6689SOL    HW120966   3.398   4.610   6.006
 6689SOL    HW220967   3.541   4.542   5.966
 6690SOL     OW20968   0.835   0.492   6.195
 6690SOL    HW120969   0.872   0.437   6.120
 6690SOL    HW220970   0.869   0.586   6.187
 6691SOL     OW20971   1.820   1.034   2.493
 6691SOL    HW120972   1.892   1.034   2.424
 6691SOL    HW220973   1.841   1.102   2.563
 6692SOL     OW20974   4.163   4.669   1.917
 6692SOL    HW120975   4.075   4.664   1.869
 6692SOL    HW220976   4.233   4.624   1.863
 6693SOL     OW20977   4.669   1.344   4.995
 6693SOL    HW120978   4.730   1.387   5.061
 6693SOL    HW220979   4.644   1.410   4.924
 6694SOL     OW20980   3.699   5.553   1.544
 6694SOL    HW120981   3.627   5.616   1.514
 6694SOL    HW220982   3.686   5.465   1.499
 6695SOL     OW20983   3.024   2.051   0.647
 6695SOL    HW120984   2.980   2.092   0.567
 6695SOL    HW220985   3.116   2.021   0.623
 6696SOL     OW20986   3.741   3.751   3.855
 6696SOL    HW120987   3.832   3.792   3.851
 6696SOL    HW220988   3.675   3.811   3.810
 6697SOL     OW20989   5.215   2.223   2.314
 6697SOL    HW120990   5.218   2.134   2.267
 6697SOL    HW220991   5.285   2.283   2.275
 6698SOL     OW20992   3.426   3.762   1.642
 6698SOL    HW120993   3.424   3.793   1.547
 6698SOL    HW220994   3.483   3.680   1.650
 6699SOL     OW20995   1.869   5.725   5.990
 6699SOL    HW120996   1.783   5.757   6.028
 6699SOL    HW220997   1.859   5.630   5.960
 6700SOL     OW20998   5.616   0.575   0.857
 6700SOL    HW120999   5.661   0.640   0.917
 6700SOL    HW221000   5.666   0.488   0.859
 6701SOL     OW21001   6.218   0.018   1.499
 6701SOL    HW121002   6.143   7.009   1.558
 6701SOL    HW221003   6.203   7.006   1.406
 6702SOL     OW21004   2.140   2.101   0.768
 6702SOL    HW121005   2.227   2.079   0.813
 6702SOL    HW221006   2.071   2.120   0.837
 6703SOL     OW21007   1.797   1.630   6.227
 6703SOL    HW121008   1.743   1.709   6.202
 6703SOL    HW221009   1.876   1.623   6.166
 6704SOL     OW21010   3.717   1.661   4.522
 6704SOL    HW121011   3.678   1.753   4.518
 6704SOL    HW221012   3.780   1.648   4.445
 6705SOL     OW21013   6.247   3.435   1.562
 6705SOL    HW121014   6.249   3.379   1.645
 6705SOL    HW221015   6.254   3.532   1.586
 6706SOL     OW21016   1.152   6.274   0.902
 6706SOL    HW121017   1.224   6.296   0.968
 6706SOL    HW221018   1.145   6.175   0.892
 6707SOL     OW21019   6.002   0.263   2.568
 6707SOL    HW121020   5.977   0.349   2.612
 6707SOL    HW221021   5.919   0.215   2.540
 6708SOL     OW21022   6.444   4.253   1.679
 6708SOL    HW121023   6.489   4.295   1.600
 6708SOL    HW221024   6.367   4.198   1.649
 6709SOL     OW21025   1.457   4.715   1.861
 6709SOL    HW121026   1.386   4.780   1.889
 6709SOL    HW221027   1.520   4.759   1.797
 6710SOL     OW21028   4.234   1.301   1.611
 6710SOL    HW121029   4.173   1.302   1.531
 6710SOL    HW221030   4.245   1.394   1.646
 6711SOL     OW21031   4.533   5.990   6.646
 6711SOL    HW121032   4.579   5.989   6.557
 6711SOL    HW221033   4.435   6.010   6.633
 6712SOL     OW21034   6.435   3.665   0.527
 6712SOL    HW121035   6.343   3.674   0.489
 6712SOL    HW221036   6.456   3.569   0.541
 6713SOL     OW21037   1.122   0.677   4.186
 6713SOL    HW121038   1.066   0.748   4.229
 6713SOL    HW221039   1.219   0.700   4.196
 6714SOL     OW21040   5.659   1.372   0.968
 6714SOL    HW121041   5.699   1.431   1.038
 6714SOL    HW221042   5.608   1.429   0.903
 6715SOL     OW21043   1.328   1.217   1.075
 6715SOL    HW121044   1.273   1.135   1.090
 6715SOL    HW221045   1.305   1.256   0.986
 6716SOL     OW21046   6.577   5.627   2.390
 6716SOL    HW121047   6.545   5.709   2.342
 6716SOL    HW221048   6.631   5.654   2.470
 6717SOL     OW21049   3.330   2.542   0.137
 6717SOL    HW121050   3.389   2.483   0.192
 6717SOL    HW221051   3.320   2.631   0.182
 6718SOL     OW21052   3.914   1.553   1.458
 6718SOL    HW121053   3.932   1.629   1.520
 6718SOL    HW221054   3.824   1.564   1.416
 6719SOL     OW21055   1.880   0.382   6.877
 6719SOL    HW121056   1.934   0.421   6.951
 6719SOL    HW221057   1.807   0.325   6.916
 6720SOL     OW21058   2.708   0.830   5.584
 6720SOL    HW121059   2.695   0.864   5.491
 6720SOL    HW221060   2.633   0.861   5.642
 6721SOL     OW21061   0.172   0.703   0.602
 6721SOL    HW121062   0.160   0.609   0.570
 6721SOL    HW221063   0.170   0.704   0.702
 6722SOL     OW21064   0.037   3.215   0.217
 6722SOL    HW121065   0.122   3.207   0.166
 6722SOL    HW221066   0.048   3.174   0.307
 6723SOL     OW21067   1.776   1.703   6.499
 6723SOL    HW121068   1.759   1.692   6.401
 6723SOL    HW221069   1.875   1.699   6.516
 6724SOL     OW21070   2.219   3.129   6.282
 6724SOL    HW121071   2.211   3.050   6.222
 6724SOL    HW221072   2.273   3.200   6.237
 6725SOL     OW21073   5.816   2.971   3.078
 6725SOL    HW121074   5.792   2.890   3.025
 6725SOL    HW221075   5.915   2.977   3.088
 6726SOL     OW21076   0.405   1.587   5.212
 6726SOL    HW121077   0.403   1.488   5.222
 6726SOL    HW221078   0.399   1.630   5.302
 6727SOL     OW21079   1.160   5.127   5.423
 6727SOL    HW121080   1.136   5.093   5.332
 6727SOL    HW221081   1.242   5.185   5.416
 6728SOL     OW21082   4.127   2.048   3.403
 6728SOL    HW121083   4.064   2.071   3.476
 6728SOL    HW221084   4.078   2.045   3.316
 6729SOL     OW21085   5.918   2.326   0.889
 6729SOL    HW121086   5.847   2.283   0.946
 6729SOL    HW221087   5.875   2.387   0.823
 6730SOL     OW21088   1.363   1.315   1.344
 6730SOL    HW121089   1.370   1.288   1.248
 6730SOL    HW221090   1.348   1.233   1.400
 6731SOL     OW21091   1.968   6.693   1.472
 6731SOL    HW121092   1.990   6.640   1.553
 6731SOL    HW221093   2.047   6.747   1.444
 6732SOL     OW21094   5.512   4.189   4.450
 6732SOL    HW121095   5.467   4.234   4.527
 6732SOL    HW221096   5.453   4.117   4.413
 6733SOL     OW21097   3.580   5.447   6.901
 6733SOL    HW121098   3.617   5.534   6.868
 6733SOL    HW221099   3.553   5.456   6.997
 6734SOL     OW21100   5.095   2.048   5.318
 6734SOL    HW121101   5.136   2.139   5.312
 6734SOL    HW221102   5.149   1.983   5.264
 6735SOL     OW21103   5.721   3.549   4.429
 6735SOL    HW121104   5.778   3.551   4.511
 6735SOL    HW221105   5.749   3.472   4.371
 6736SOL     OW21106   2.825   4.756   0.795
 6736SOL    HW121107   2.799   4.666   0.829
 6736SOL    HW221108   2.756   4.787   0.729
 6737SOL     OW21109   0.544   2.575   1.149
 6737SOL    HW121110   0.635   2.610   1.171
 6737SOL    HW221111   0.477   2.648   1.156
 6738SOL     OW21112   1.413   5.893   3.378
 6738SOL    HW121113   1.413   5.952   3.297
 6738SOL    HW221114   1.408   5.798   3.349
 6739SOL     OW21115   0.004   6.803   3.291
 6739SOL    HW121116   0.000   6.807   3.191
 6739SOL    HW221117   0.099   6.809   3.321
 6740SOL     OW21118   6.453   0.125   4.149
 6740SOL    HW121119   6.486   0.070   4.072
 6740SOL    HW221120   6.524   0.189   4.178
 6741SOL     OW21121   4.782   2.092   6.249
 6741SOL    HW121122   4.706   2.028   6.257
 6741SOL    HW221123   4.824   2.083   6.159
 6742SOL     OW21124   5.795   5.393   3.703
 6742SOL    HW121125   5.732   5.407   3.626
 6742SOL    HW221126   5.850   5.475   3.716
 6743SOL     OW21127   3.740   4.154   6.165
 6743SOL    HW121128   3.648   4.174   6.132
 6743SOL    HW221129   3.775   4.234   6.215
 6744SOL     OW21130   6.695   5.703   6.120
 6744SOL    HW121131   6.676   5.782   6.178
 6744SOL    HW221132   6.612   5.648   6.109
 6745SOL     OW21133   0.093   6.109   3.869
 6745SOL    HW121134   0.173   6.169   3.861
 6745SOL    HW221135   0.123   6.017   3.896
 6746SOL     OW21136   1.596   1.770   2.184
 6746SOL    HW121137   1.563   1.742   2.094
 6746SOL    HW221138   1.521   1.765   2.250
 6747SOL     OW21139   6.750   6.800   6.427
 6747SOL    HW121140   6.774   6.884   6.475
 6747SOL    HW221141   6.817   6.784   6.354
 6748SOL     OW21142   3.026   1.815   4.001
 6748SOL    HW121143   2.945   1.851   4.047
 6748SOL    HW221144   3.034   1.717   4.019
 6749SOL     OW21145   3.455   3.781   1.084
 6749SOL    HW121146   3.451   3.729   0.999
 6749SOL    HW221147   3.531   3.846   1.080
 6750SOL     OW21148   2.787   1.527   4.224
 6750SOL    HW121149   2.879   1.491   4.238
 6750SOL    HW221150   2.744   1.544   4.313
 6751SOL     OW21151   4.683   0.498   3.653
 6751SOL    HW121152   4.719   0.576   3.602
 6751SOL    HW221153   4.694   0.415   3.599
 6752SOL     OW21154   1.617   6.749   3.119
 6752SOL    HW121155   1.614   6.652   3.142
 6752SOL    HW221156   1.556   6.800   3.181
 6753SOL     OW21157   3.747   2.142   5.654
 6753SOL    HW121158   3.660   2.185   5.679
 6753SOL    HW221159   3.820   2.177   5.713
 6754SOL     OW21160   6.148   0.761   1.008
 6754SOL    HW121161   6.077   0.804   0.952
 6754SOL    HW221162   6.222   0.827   1.023
 6755SOL     OW21163   3.149   5.000   1.202
 6755SOL    HW121164   3.154   5.061   1.281
 6755SOL    HW221165   3.123   5.053   1.121
 6756SOL     OW21166   3.028   0.874   5.856
 6756SOL    HW121167   3.086   0.795   5.832
 6756SOL    HW221168   3.019   0.879   5.956
 6757SOL     OW21169   3.564   1.727   1.624
 6757SOL    HW121170   3.623   1.744   1.703
 6757SOL    HW221171   3.575   1.802   1.558
 6758SOL     OW21172   5.417   3.204   1.421
 6758SOL    HW121173   5.388   3.197   1.326
 6758SOL    HW221174   5.346   3.248   1.475
 6759SOL     OW21175   6.892   2.990   3.097
 6759SOL    HW121176   6.792   2.991   3.101
 6759SOL    HW221177   6.925   3.077   3.061
 6760SOL     OW21178   6.044   3.557   2.644
 6760SOL    HW121179   6.042   3.479   2.707
 6760SOL    HW221180   6.136   3.597   2.644
 6761SOL     OW21181   4.934   2.685   4.661
 6761SOL    HW121182   4.872   2.715   4.733
 6761SOL    HW221183   4.950   2.760   4.597
 6762SOL     OW21184   0.493   4.325   4.366
 6762SOL    HW121185   0.486   4.373   4.453
 6762SOL    HW221186   0.533   4.235   4.380
 6763SOL     OW21187   5.261   5.410   5.237
 6763SOL    HW121188   5.194   5.337   5.246
 6763SOL    HW221189   5.302   5.407   5.145
 6764SOL     OW21190   1.639   5.916   2.304
 6764SOL    HW121191   1.555   5.953   2.344
 6764SOL    HW221192   1.643   5.939   2.207
 6765SOL     OW21193   6.520   4.429   3.780
 6765SOL    HW121194   6.550   4.523   3.765
 6765SOL    HW221195   6.527   4.407   3.877
 6766SOL     OW21196   4.597   6.035   6.922
 6766SOL    HW121197   4.551   6.119   6.948
 6766SOL    HW221198   4.600   6.027   6.823
 6767SOL     OW21199   3.160   0.585   0.807
 6767SOL    HW121200   3.234   0.556   0.748
 6767SOL    HW221201   3.108   0.506   0.838
 6768SOL     OW21202   2.174   0.764   5.502
 6768SOL    HW121203   2.238   0.698   5.461
 6768SOL    HW221204   2.196   0.856   5.468
 6769SOL     OW21205   3.432   2.175   0.572
 6769SOL    HW121206   3.496   2.143   0.502
 6769SOL    HW221207   3.370   2.101   0.597
 6770SOL     OW21208   6.912   0.661   1.910
 6770SOL    HW121209   6.959   0.601   1.845
 6770SOL    HW221210   6.973   0.678   1.988
 6771SOL     OW21211   4.525   2.496   3.369
 6771SOL    HW121212   4.505   2.399   3.387
 6771SOL    HW221213   4.440   2.544   3.347
 6772SOL     OW21214   2.925   1.137   2.955
 6772SOL    HW121215   2.916   1.231   2.923
 6772SOL    HW221216   3.021   1.116   2.971
 6773SOL     OW21217   6.683   4.998   1.573
 6773SOL    HW121218   6.606   4.991   1.510
 6773SOL    HW221219   6.733   4.911   1.575
 6774SOL     OW21220   0.511   3.010   6.185
 6774SOL    HW121221   0.509   3.056   6.274
 6774SOL    HW221222   0.521   3.078   6.112
 6775SOL     OW21223   2.511   3.275   1.708
 6775SOL    HW121224   2.583   3.235   1.764
 6775SOL    HW221225   2.449   3.328   1.766
 6776SOL     OW21226   4.583   4.619   6.851
 6776SOL    HW121227   4.564   4.610   6.948
 6776SOL    HW221228   4.619   4.533   6.815
 6777SOL     OW21229   3.980   3.864   6.775
 6777SOL    HW121230   3.941   3.814   6.697
 6777SOL    HW221231   4.037   3.939   6.741
 6778SOL     OW21232   0.016   4.238   2.057
 6778SOL    HW121233   0.028   4.252   2.156
 6778SOL    HW221234   0.106   4.231   2.014
 6779SOL     OW21235   6.374   4.113   6.150
 6779SOL    HW121236   6.415   4.100   6.060
 6779SOL    HW221237   6.426   4.061   6.218
 6780SOL     OW21238   0.730   1.706   2.868
 6780SOL    HW121239   0.656   1.669   2.811
 6780SOL    HW221240   0.736   1.805   2.853
 6781SOL     OW21241   5.793   0.022   4.675
 6781SOL    HW121242   5.812   0.049   4.769
 6781SOL    HW221243   5.745   0.096   4.627
 6782SOL     OW21244   0.216   0.211   3.070
 6782SOL    HW121245   0.312   0.186   3.083
 6782SOL    HW221246   0.195   0.292   3.124
 6783SOL     OW21247   6.871   0.269   6.584
 6783SOL    HW121248   6.776   0.301   6.574
 6783SOL    HW221249   6.895   0.267   6.680
 6784SOL     OW21250   3.451   3.841   0.575
 6784SOL    HW121251   3.376   3.889   0.530
 6784SOL    HW221252   3.525   3.825   0.509
 6785SOL     OW21253   5.160   4.388   3.199
 6785SOL    HW121254   5.253   4.399   3.164
 6785SOL    HW221255   5.127   4.296   3.177
 6786SOL     OW21256   0.902   1.686   6.611
 6786SOL    HW121257   0.847   1.702   6.692
 6786SOL    HW221258   0.874   1.750   6.539
 6787SOL     OW21259   1.476   2.862   0.526
 6787SOL    HW121260   1.381   2.846   0.551
 6787SOL    HW221261   1.484   2.868   0.426
 6788SOL     OW21262   2.440   3.621   1.658
 6788SOL    HW121263   2.538   3.639   1.664
 6788SOL    HW221264   2.412   3.563   1.734
 6789SOL     OW21265   0.413   6.766   2.690
 6789SOL    HW121266   0.376   6.674   2.677
 6789SOL    HW221267   0.366   6.810   2.767
 6790SOL     OW21268   1.060   4.240   0.951
 6790SOL    HW121269   1.111   4.159   0.919
 6790SOL    HW221270   0.983   4.257   0.890
 6791SOL     OW21271   3.873   2.565   1.119
 6791SOL    HW121272   3.778   2.585   1.095
 6791SOL    HW221273   3.876   2.499   1.194
 6792SOL     OW21274   6.845   6.037   6.046
 6792SOL    HW121275   6.945   6.032   6.045
 6792SOL    HW221276   6.807   5.977   5.976
 6793SOL     OW21277   0.918   2.177   0.431
 6793SOL    HW121278   0.829   2.193   0.389
 6793SOL    HW221279   0.990   2.212   0.371
 6794SOL     OW21280   5.349   1.520   5.185
 6794SOL    HW121281   5.395   1.588   5.129
 6794SOL    HW221282   5.406   1.438   5.193
 6795SOL     OW21283   2.237   5.863   0.752
 6795SOL    HW121284   2.191   5.923   0.817
 6795SOL    HW221285   2.331   5.895   0.739
 6796SOL     OW21286   6.073   0.690   2.829
 6796SOL    HW121287   6.088   0.664   2.924
 6796SOL    HW221288   6.021   0.776   2.826
 6797SOL     OW21289   4.983   3.407   1.479
 6797SOL    HW121290   5.083   3.417   1.479
 6797SOL    HW221291   4.948   3.431   1.569
 6798SOL     OW21292   5.595   6.054   2.965
 6798SOL    HW121293   5.635   6.003   2.889
 6798SOL    HW221294   5.667   6.079   3.030
 6799SOL     OW21295   6.517   5.772   0.042
 6799SOL    HW121296   6.517   5.719   6.979
 6799SOL    HW221297   6.578   5.850   0.032
 6800SOL     OW21298   2.305   4.386   1.112
 6800SOL    HW121299   2.332   4.312   1.051
 6800SOL    HW221300   2.279   4.349   1.201
 6801SOL     OW21301   1.526   1.305   2.275
 6801SOL    HW121302   1.565   1.360   2.202
 6801SOL    HW221303   1.429   1.290   2.257
 6802SOL     OW21304   2.975   5.837   0.525
 6802SOL    HW121305   3.037   5.845   0.604
 6802SOL    HW221306   2.983   5.746   0.486
 6803SOL     OW21307   4.560   2.416   6.689
 6803SOL    HW121308   4.485   2.350   6.689
 6803SOL    HW221309   4.590   2.431   6.783
 6804SOL     OW21310   2.529   5.337   3.591
 6804SOL    HW121311   2.612   5.354   3.538
 6804SOL    HW221312   2.471   5.418   3.588
 6805SOL     OW21313   5.641   5.485   4.787
 6805SOL    HW121314   5.557   5.440   4.817
 6805SOL    HW221315   5.628   5.584   4.789
 6806SOL     OW21316   5.391   1.141   3.812
 6806SOL    HW121317   5.482   1.121   3.850
 6806SOL    HW221318   5.321   1.101   3.870
 6807SOL     OW21319   2.804   2.980   1.196
 6807SOL    HW121320   2.864   2.980   1.277
 6807SOL    HW221321   2.788   3.074   1.167
 6808SOL     OW21322   0.336   2.433   5.390
 6808SOL    HW121323   0.414   2.420   5.329
 6808SOL    HW221324   0.355   2.507   5.454
 6809SOL     OW21325   1.948   3.569   1.162
 6809SOL    HW121326   2.040   3.598   1.188
 6809SOL    HW221327   1.952   3.480   1.117
 6810SOL     OW21328   1.489   0.019   1.881
 6810SOL    HW121329   1.548   7.019   1.803
 6810SOL    HW221330   1.407   0.065   1.848
 6811SOL     OW21331   4.893   3.773   7.005
 6811SOL    HW121332   4.847   3.852   0.026
 6811SOL    HW221333   4.832   3.694   7.008
 6812SOL     OW21334   3.609   3.538   3.250
 6812SOL    HW121335   3.543   3.487   3.195
 6812SOL    HW221336   3.598   3.515   3.346
 6813SOL     OW21337   4.838   1.866   2.162
 6813SOL    HW121338   4.779   1.897   2.237
 6813SOL    HW221339   4.851   1.767   2.168
 6814SOL     OW21340   3.087   3.184   0.759
 6814SOL    HW121341   2.987   3.172   0.761
 6814SOL    HW221342   3.131   3.098   0.783
 6815SOL     OW21343   3.075   0.516   1.197
 6815SOL    HW121344   3.126   0.584   1.143
 6815SOL    HW221345   2.984   0.552   1.219
 6816SOL     OW21346   6.977   5.996   6.624
 6816SOL    HW121347   0.049   6.013   6.656
 6816SOL    HW221348   6.963   6.044   6.537
 6817SOL     OW21349   0.046   2.024   5.266
 6817SOL    HW121350   0.015   2.118   5.278
 6817SOL    HW221351   0.084   2.013   5.174
 6818SOL     OW21352   2.460   5.699   1.406
 6818SOL    HW121353   2.408   5.615   1.415
 6818SOL    HW221354   2.444   5.757   1.486
 6819SOL     OW21355   4.311   1.486   4.345
 6819SOL    HW121356   4.370   1.430   4.287
 6819SOL    HW221357   4.278   1.565   4.293
 6820SOL     OW21358   1.131   5.298   2.965
 6820SOL    HW121359   1.101   5.382   2.921
 6820SOL    HW221360   1.105   5.219   2.909
 6821SOL     OW21361   2.984   1.572   5.569
 6821SOL    HW121362   3.066   1.522   5.542
 6821SOL    HW221363   2.984   1.585   5.668
 6822SOL     OW21364   5.789   1.945   6.016
 6822SOL    HW121365   5.833   1.872   5.963
 6822SOL    HW221366   5.733   2.001   5.955
 6823SOL     OW21367   3.830   3.359   3.934
 6823SOL    HW121368   3.899   3.432   3.937
 6823SOL    HW221369   3.762   3.374   4.005
 6824SOL     OW21370   0.794   3.252   6.119
 6824SOL    HW121371   0.822   3.340   6.158
 6824SOL    HW221372   0.796   3.182   6.190
 6825SOL     OW21373   5.436   6.569   2.349
 6825SOL    HW121374   5.398   6.645   2.296
 6825SOL    HW221375   5.394   6.484   2.320
 6826SOL     OW21376   2.190   4.122   2.837
 6826SOL    HW121377   2.165   4.054   2.768
 6826SOL    HW221378   2.175   4.214   2.802
 6827SOL     OW21379   5.083   6.170   0.404
 6827SOL    HW121380   5.007   6.109   0.383
 6827SOL    HW221381   5.160   6.149   0.345
 6828SOL     OW21382   2.487   1.755   1.291
 6828SOL    HW121383   2.452   1.741   1.384
 6828SOL    HW221384   2.486   1.853   1.270
 6829SOL     OW21385   4.604   6.954   4.515
 6829SOL    HW121386   4.571   6.871   4.561
 6829SOL    HW221387   4.662   7.005   4.578
 6830SOL     OW21388   5.788   1.429   3.604
 6830SOL    HW121389   5.815   1.335   3.584
 6830SOL    HW221390   5.836   1.460   3.687
 6831SOL     OW21391   1.009   0.133   5.713
 6831SOL    HW121392   0.921   0.175   5.693
 6831SOL    HW221393   1.053   0.103   5.629
 6832SOL     OW21394   2.943   4.340   1.432
 6832SOL    HW121395   2.890   4.374   1.510
 6832SOL    HW221396   2.941   4.240   1.431
 6833SOL     OW21397   4.444   4.846   6.894
 6833SOL    HW121398   4.506   4.771   6.870
 6833SOL    HW221399   4.381   4.815   6.965
 6834SOL     OW21400   5.082   6.689   1.316
 6834SOL    HW121401   5.047   6.743   1.391
 6834SOL    HW221402   5.066   6.592   1.334
 6835SOL     OW21403   4.220   6.840   5.095
 6835SOL    HW121404   4.134   6.890   5.085
 6835SOL    HW221405   4.211   6.775   5.171
 6836SOL     OW21406   3.390   5.609   0.412
 6836SOL    HW121407   3.323   5.536   0.398
 6836SOL    HW221408   3.362   5.667   0.488
 6837SOL     OW21409   1.114   2.461   2.324
 6837SOL    HW121410   1.167   2.402   2.263
 6837SOL    HW221411   1.043   2.508   2.272
 6838SOL     OW21412   2.089   6.453   0.900
 6838SOL    HW121413   2.048   6.447   0.809
 6838SOL    HW221414   2.019   6.474   0.968
 6839SOL     OW21415   4.851   1.096   0.069
 6839SOL    HW121416   4.907   1.014   0.062
 6839SOL    HW221417   4.793   1.105   7.011
 6840SOL     OW21418   2.339   1.787   5.194
 6840SOL    HW121419   2.299   1.834   5.115
 6840SOL    HW221420   2.422   1.835   5.223
 6841SOL     OW21421   5.117   3.703   6.434
 6841SOL    HW121422   5.103   3.639   6.510
 6841SOL    HW221423   5.090   3.660   6.348
 6842SOL     OW21424   2.621   4.786   1.273
 6842SOL    HW121425   2.689   4.713   1.284
 6842SOL    HW221426   2.649   4.846   1.198
 6843SOL     OW21427   5.737   6.670   6.740
 6843SOL    HW121428   5.673   6.706   6.672
 6843SOL    HW221429   5.694   6.675   6.831
 6844SOL     OW21430   5.483   0.948   4.751
 6844SOL    HW121431   5.451   1.038   4.720
 6844SOL    HW221432   5.466   0.880   4.680
 6845SOL     OW21433   6.196   3.359   2.938
 6845SOL    HW121434   6.103   3.368   2.903
 6845SOL    HW221435   6.250   3.305   2.874
 6846SOL     OW21436   2.866   4.666   6.749
 6846SOL    HW121437   2.796   4.736   6.762
 6846SOL    HW221438   2.873   4.643   6.652
 6847SOL     OW21439   0.020   3.735   4.879
 6847SOL    HW121440   6.954   3.766   4.914
 6847SOL    HW221441   0.086   3.810   4.883
 6848SOL     OW21442   5.183   4.178   3.991
 6848SOL    HW121443   5.150   4.094   4.033
 6848SOL    HW221444   5.145   4.257   4.039
 6849SOL     OW21445   3.481   4.220   6.050
 6849SOL    HW121446   3.452   4.316   6.059
 6849SOL    HW221447   3.400   4.162   6.047
 6850SOL     OW21448   4.500   2.290   2.897
 6850SOL    HW121449   4.429   2.313   2.964
 6850SOL    HW221450   4.548   2.207   2.926
 6851SOL     OW21451   1.295   2.718   2.553
 6851SOL    HW121452   1.269   2.751   2.462
 6851SOL    HW221453   1.219   2.668   2.593
 6852SOL     OW21454   2.668   5.554   1.301
 6852SOL    HW121455   2.645   5.481   1.237
 6852SOL    HW221456   2.585   5.599   1.333
 6853SOL     OW21457   5.411   3.719   6.130
 6853SOL    HW121458   5.497   3.681   6.165
 6853SOL    HW221459   5.405   3.816   6.155
 6854SOL     OW21460   5.861   6.928   5.863
 6854SOL    HW121461   5.910   6.850   5.904
 6854SOL    HW221462   5.762   6.912   5.870
 6855SOL     OW21463   4.598   5.722   3.545
 6855SOL    HW121464   4.646   5.810   3.544
 6855SOL    HW221465   4.585   5.689   3.452
 6856SOL     OW21466   0.409   2.286   5.669
 6856SOL    HW121467   0.389   2.266   5.574
 6856SOL    HW221468   0.492   2.342   5.675
 6857SOL     OW21469   0.941   3.265   0.023
 6857SOL    HW121470   1.031   3.284   0.062
 6857SOL    HW221471   0.946   3.267   6.945
 6858SOL     OW21472   3.439   4.533   1.693
 6858SOL    HW121473   3.353   4.572   1.726
 6858SOL    HW221474   3.516   4.584   1.733
 6859SOL     OW21475   0.907   1.021   1.963
 6859SOL    HW121476   0.967   0.997   2.039
 6859SOL    HW221477   0.951   1.091   1.907
 6860SOL     OW21478   6.911   4.664   1.882
 6860SOL    HW121479   6.988   4.603   1.901
 6860SOL    HW221480   6.943   4.741   1.827
 6861SOL     OW21481   4.786   3.437   5.964
 6861SOL    HW121482   4.724   3.366   5.930
 6861SOL    HW221483   4.820   3.491   5.887
 6862SOL     OW21484   0.895   5.193   5.680
 6862SOL    HW121485   0.821   5.184   5.747
 6862SOL    HW221486   0.927   5.102   5.654
 6863SOL     OW21487   6.936   5.940   5.499
 6863SOL    HW121488   6.965   5.930   5.403
 6863SOL    HW221489   6.946   5.852   5.545
 6864SOL     OW21490   1.970   4.521   5.762
 6864SOL    HW121491   2.012   4.532   5.672
 6864SOL    HW221492   1.914   4.602   5.782
 6865SOL     OW21493   1.819   0.391   5.414
 6865SOL    HW121494   1.894   0.350   5.363
 6865SOL    HW221495   1.845   0.398   5.511
 6866SOL     OW21496   6.166   4.726   2.383
 6866SOL    HW121497   6.262   4.715   2.359
 6866SOL    HW221498   6.152   4.698   2.479
 6867SOL     OW21499   1.789   3.962   1.299
 6867SOL    HW121500   1.874   3.951   1.247
 6867SOL    HW221501   1.810   3.984   1.394
 6868SOL     OW21502   2.329   6.240   5.386
 6868SOL    HW121503   2.355   6.318   5.330
 6868SOL    HW221504   2.339   6.156   5.334
 6869SOL     OW21505   4.338   0.399   5.896
 6869SOL    HW121506   4.279   0.321   5.874
 6869SOL    HW221507   4.298   0.450   5.973
 6870SOL     OW21508   0.658   3.646   0.465
 6870SOL    HW121509   0.562   3.671   0.480
 6870SOL    HW221510   0.710   3.663   0.549
 6871SOL     OW21511   0.069   3.785   2.718
 6871SOL    HW121512   0.150   3.743   2.758
 6871SOL    HW221513   0.059   3.756   2.623
 6872SOL     OW21514   0.900   2.572   2.153
 6872SOL    HW121515   0.817   2.591   2.101
 6872SOL    HW221516   0.943   2.659   2.179
 6873SOL     OW21517   1.068   4.006   3.675
 6873SOL    HW121518   0.974   3.974   3.678
 6873SOL    HW221519   1.122   3.948   3.615
 6874SOL     OW21520   6.291   6.051   3.445
 6874SOL    HW121521   6.211   6.071   3.388
 6874SOL    HW221522   6.276   6.089   3.537
 6875SOL     OW21523   1.979   2.104   1.982
 6875SOL    HW121524   1.990   2.092   1.884
 6875SOL    HW221525   2.061   2.145   2.021
 6876SOL     OW21526   3.169   0.225   3.621
 6876SOL    HW121527   3.230   0.269   3.556
 6876SOL    HW221528   3.223   0.170   3.686
 6877SOL     OW21529   2.973   4.095   1.797
 6877SOL    HW121530   2.900   4.161   1.780
 6877SOL    HW221531   3.026   4.083   1.713
 6878SOL     OW21532   2.515   1.649   3.791
 6878SOL    HW121533   2.614   1.641   3.788
 6878SOL    HW221534   2.487   1.684   3.881
 6879SOL     OW21535   2.159   2.409   6.986
 6879SOL    HW121536   2.249   2.424   0.006
 6879SOL    HW221537   2.095   2.478   7.021
 6880SOL     OW21538   1.121   6.201   6.437
 6880SOL    HW121539   1.033   6.217   6.393
 6880SOL    HW221540   1.155   6.110   6.412
 6881SOL     OW21541   1.673   3.621   1.477
 6881SOL    HW121542   1.668   3.605   1.378
 6881SOL    HW221543   1.635   3.542   1.525
 6882SOL     OW21544   2.901   1.251   0.396
 6882SOL    HW121545   2.933   1.264   0.490
 6882SOL    HW221546   2.811   1.293   0.385
 6883SOL     OW21547   5.208   0.816   5.902
 6883SOL    HW121548   5.131   0.809   5.838
 6883SOL    HW221549   5.182   0.874   5.979
 6884SOL     OW21550   1.609   4.127   2.936
 6884SOL    HW121551   1.586   4.220   2.909
 6884SOL    HW221552   1.551   4.062   2.886
 6885SOL     OW21553   4.925   4.981   4.251
 6885SOL    HW121554   4.925   4.896   4.198
 6885SOL    HW221555   4.939   4.961   4.348
 6886SOL     OW21556   6.764   1.292   5.056
 6886SOL    HW121557   6.749   1.387   5.082
 6886SOL    HW221558   6.727   1.275   4.965
 6887SOL     OW21559   4.557   5.737   0.099
 6887SOL    HW121560   4.536   5.831   0.124
 6887SOL    HW221561   4.602   5.735   0.010
 6888SOL     OW21562   5.187   4.542   5.934
 6888SOL    HW121563   5.185   4.446   5.906
 6888SOL    HW221564   5.280   4.577   5.926
 6889SOL     OW21565   1.780   2.647   5.952
 6889SOL    HW121566   1.742   2.588   6.024
 6889SOL    HW221567   1.709   2.709   5.920
 6890SOL     OW21568   3.800   5.858   2.710
 6890SOL    HW121569   3.711   5.869   2.754
 6890SOL    HW221570   3.802   5.769   2.663
 6891SOL     OW21571   2.556   2.840   1.203
 6891SOL    HW121572   2.558   2.820   1.105
 6891SOL    HW221573   2.642   2.882   1.230
 6892SOL     OW21574   3.407   1.192   3.825
 6892SOL    HW121575   3.391   1.271   3.766
 6892SOL    HW221576   3.320   1.148   3.847
 6893SOL     OW21577   5.962   3.385   0.399
 6893SOL    HW121578   6.062   3.392   0.403
 6893SOL    HW221579   5.932   3.304   0.448
 6894SOL     OW21580   5.453   4.182   1.453
 6894SOL    HW121581   5.380   4.141   1.399
 6894SOL    HW221582   5.421   4.267   1.494
 6895SOL     OW21583   1.990   6.108   0.803
 6895SOL    HW121584   2.035   6.153   0.880
 6895SOL    HW221585   1.903   6.153   0.785
 6896SOL     OW21586   3.206   1.262   3.594
 6896SOL    HW121587   3.232   1.275   3.498
 6896SOL    HW221588   3.134   1.327   3.617
 6897SOL     OW21589   4.834   4.008   5.146
 6897SOL    HW121590   4.835   3.966   5.055
 6897SOL    HW221591   4.911   3.973   5.199
 6898SOL     OW21592   3.309   1.103   1.830
 6898SOL    HW121593   3.292   1.065   1.739
 6898SOL    HW221594   3.401   1.079   1.861
 6899SOL     OW21595   4.829   6.401   2.981
 6899SOL    HW121596   4.743   6.408   3.031
 6899SOL    HW221597   4.837   6.478   2.918
 6900SOL     OW21598   6.954   5.024   6.095
 6900SOL    HW121599   6.971   5.105   6.038
 6900SOL    HW221600   6.861   4.991   6.079
 6901SOL     OW21601   4.661   5.502   6.636
 6901SOL    HW121602   4.670   5.588   6.685
 6901SOL    HW221603   4.572   5.461   6.656
 6902SOL     OW21604   6.891   6.204   5.606
 6902SOL    HW121605   6.916   6.118   5.561
 6902SOL    HW221606   6.802   6.194   5.651
 6903SOL     OW21607   3.164   5.138   5.207
 6903SOL    HW121608   3.086   5.162   5.149
 6903SOL    HW221609   3.135   5.141   5.303
 6904SOL     OW21610   6.822   6.342   5.217
 6904SOL    HW121611   6.763   6.377   5.145
 6904SOL    HW221612   6.814   6.243   5.221
 6905SOL     OW21613   5.848   5.329   6.833
 6905SOL    HW121614   5.773   5.294   6.890
 6905SOL    HW221615   5.912   5.379   6.891
 6906SOL     OW21616   3.095   1.709   3.450
 6906SOL    HW121617   3.173   1.649   3.470
 6906SOL    HW221618   3.101   1.739   3.354
 6907SOL     OW21619   6.244   2.227   1.526
 6907SOL    HW121620   6.217   2.130   1.527
 6907SOL    HW221621   6.238   2.262   1.432
 6908SOL     OW21622   2.374   4.814   6.982
 6908SOL    HW121623   2.335   4.821   0.052
 6908SOL    HW221624   2.305   4.778   6.919
 6909SOL     OW21625   4.931   5.189   2.095
 6909SOL    HW121626   4.977   5.169   2.009
 6909SOL    HW221627   4.935   5.109   2.155
 6910SOL     OW21628   1.463   2.727   3.026
 6910SOL    HW121629   1.456   2.650   2.963
 6910SOL    HW221630   1.455   2.813   2.974
 6911SOL     OW21631   3.987   0.001   4.973
 6911SOL    HW121632   3.921   0.074   4.955
 6911SOL    HW221633   4.003   6.972   4.888
 6912SOL     OW21634   2.520   2.945   6.305
 6912SOL    HW121635   2.582   2.870   6.331
 6912SOL    HW221636   2.573   3.018   6.263
 6913SOL     OW21637   5.225   6.179   4.777
 6913SOL    HW121638   5.233   6.079   4.783
 6913SOL    HW221639   5.193   6.215   4.864
 6914SOL     OW21640   5.927   4.096   2.448
 6914SOL    HW121641   5.871   4.032   2.395
 6914SOL    HW221642   6.023   4.083   2.426
 6915SOL     OW21643   1.117   2.809   1.901
 6915SOL    HW121644   1.071   2.740   1.845
 6915SOL    HW221645   1.050   2.862   1.952
 6916SOL     OW21646   5.456   1.240   5.512
 6916SOL    HW121647   5.365   1.256   5.475
 6916SOL    HW221648   5.449   1.189   5.598
 6917SOL     OW21649   4.566   5.812   1.974
 6917SOL    HW121650   4.656   5.772   1.957
 6917SOL    HW221651   4.532   5.853   1.890
 6918SOL     OW21652   0.405   2.717   2.777
 6918SOL    HW121653   0.309   2.726   2.751
 6918SOL    HW221654   0.458   2.792   2.737
 6919SOL     OW21655   6.396   6.084   2.966
 6919SOL    HW121656   6.414   6.132   3.052
 6919SOL    HW221657   6.301   6.099   2.939
 6920SOL     OW21658   5.296   6.740   5.803
 6920SOL    HW121659   5.380   6.690   5.782
 6920SOL    HW221660   5.305   6.786   5.891
 6921SOL     OW21661   4.079   0.253   4.097
 6921SOL    HW121662   4.163   0.252   4.151
 6921SOL    HW221663   4.010   0.197   4.143
 6922SOL     OW21664   1.865   6.219   4.900
 6922SOL    HW121665   1.787   6.187   4.953
 6922SOL    HW221666   1.941   6.241   4.961
 6923SOL     OW21667   5.872   6.515   2.519
 6923SOL    HW121668   5.968   6.544   2.513
 6923SOL    HW221669   5.825   6.571   2.587
 6924SOL     OW21670   3.008   5.522   0.960
 6924SOL    HW121671   3.015   5.451   1.031
 6924SOL    HW221672   3.051   5.489   0.876
 6925SOL     OW21673   4.609   5.946   5.951
 6925SOL    HW121674   4.544   6.019   5.971
 6925SOL    HW221675   4.685   5.984   5.897
 6926SOL     OW21676   2.220   2.259   0.345
 6926SOL    HW121677   2.230   2.169   0.302
 6926SOL    HW221678   2.126   2.271   0.377
 6927SOL     OW21679   3.806   1.094   0.255
 6927SOL    HW121680   3.837   1.049   0.339
 6927SOL    HW221681   3.836   1.189   0.255
 6928SOL     OW21682   4.959   5.655   1.366
 6928SOL    HW121683   4.887   5.643   1.298
 6928SOL    HW221684   5.000   5.745   1.354
 6929SOL     OW21685   5.509   5.823   1.575
 6929SOL    HW121686   5.459   5.801   1.659
 6929SOL    HW221687   5.455   5.886   1.520
 6930SOL     OW21688   0.639   1.043   0.477
 6930SOL    HW121689   0.680   0.984   0.546
 6930SOL    HW221690   0.599   0.987   0.405
 6931SOL     OW21691   1.908   2.113   0.934
 6931SOL    HW121692   1.918   2.038   1.000
 6931SOL    HW221693   1.867   2.079   0.850
 6932SOL     OW21694   4.728   5.233   1.162
 6932SOL    HW121695   4.793   5.308   1.151
 6932SOL    HW221696   4.635   5.269   1.153
 6933SOL     OW21697   3.605   6.688   6.507
 6933SOL    HW121698   3.615   6.786   6.488
 6933SOL    HW221699   3.508   6.663   6.502
 6934SOL     OW21700   5.091   3.473   6.205
 6934SOL    HW121701   5.000   3.449   6.239
 6934SOL    HW221702   5.082   3.543   6.134
 6935SOL     OW21703   4.416   5.614   2.853
 6935SOL    HW121704   4.505   5.596   2.895
 6935SOL    HW221705   4.430   5.663   2.766
 6936SOL     OW21706   0.184   2.285   4.064
 6936SOL    HW121707   0.175   2.186   4.056
 6936SOL    HW221708   0.278   2.312   4.043
 6937SOL     OW21709   5.786   6.092   0.913
 6937SOL    HW121710   5.787   6.009   0.971
 6937SOL    HW221711   5.698   6.137   0.922
 6938SOL     OW21712   0.753   1.722   4.587
 6938SOL    HW121713   0.795   1.701   4.498
 6938SOL    HW221714   0.702   1.807   4.580
 6939SOL     OW21715   6.380   5.400   3.302
 6939SOL    HW121716   6.445   5.324   3.311
 6939SOL    HW221717   6.297   5.367   3.257
 6940SOL     OW21718   4.617   6.676   0.657
 6940SOL    HW121719   4.559   6.754   0.680
 6940SOL    HW221720   4.711   6.696   0.684
 6941SOL     OW21721   3.025   3.567   2.465
 6941SOL    HW121722   2.963   3.613   2.529
 6941SOL    HW221723   3.116   3.607   2.473
 6942SOL     OW21724   6.066   6.734   1.757
 6942SOL    HW121725   6.146   6.692   1.714
 6942SOL    HW221726   6.033   6.809   1.699
 6943SOL     OW21727   4.511   4.733   0.555
 6943SOL    HW121728   4.532   4.826   0.525
 6943SOL    HW221729   4.426   4.733   0.607
 6944SOL     OW21730   1.004   4.883   6.127
 6944SOL    HW121731   0.988   4.952   6.198
 6944SOL    HW221732   1.091   4.902   6.081
 6945SOL     OW21733   6.601   2.441   0.563
 6945SOL    HW121734   6.602   2.343   0.583
 6945SOL    HW221735   6.688   2.468   0.524
 6946SOL     OW21736   3.727   6.155   1.816
 6946SOL    HW121737   3.753   6.059   1.823
 6946SOL    HW221738   3.681   6.184   1.900
 6947SOL     OW21739   3.958   5.498   6.023
 6947SOL    HW121740   4.009   5.577   5.988
 6947SOL    HW221741   3.860   5.519   6.025
 6948SOL     OW21742   0.268   6.135   1.414
 6948SOL    HW121743   0.311   6.048   1.436
 6948SOL    HW221744   0.316   6.210   1.459
 6949SOL     OW21745   2.691   2.375   3.175
 6949SOL    HW121746   2.649   2.357   3.086
 6949SOL    HW221747   2.626   2.425   3.233
 6950SOL     OW21748   1.926   0.262   4.330
 6950SOL    HW121749   1.884   0.171   4.323
 6950SOL    HW221750   2.009   0.256   4.386
 6951SOL     OW21751   6.363   5.512   6.591
 6951SOL    HW121752   6.412   5.431   6.559
 6951SOL    HW221753   6.352   5.577   6.516
 6952SOL     OW21754   2.371   4.445   3.045
 6952SOL    HW121755   2.428   4.527   3.048
 6952SOL    HW221756   2.326   4.440   2.956
 6953SOL     OW21757   5.315   6.621   0.468
 6953SOL    HW121758   5.264   6.573   0.539
 6953SOL    HW221759   5.394   6.666   0.508
 6954SOL     OW21760   6.983   3.365   1.372
 6954SOL    HW121761   7.017   3.459   1.370
 6954SOL    HW221762   6.889   3.364   1.407
 6955SOL     OW21763   5.275   0.390   2.244
 6955SOL    HW121764   5.234   0.478   2.269
 6955SOL    HW221765   5.370   0.404   2.217
 6956SOL     OW21766   5.714   5.715   2.866
 6956SOL    HW121767   5.740   5.770   2.786
 6956SOL    HW221768   5.623   5.676   2.851
 6957SOL     OW21769   5.597   6.003   6.650
 6957SOL    HW121770   5.603   5.935   6.722
 6957SOL    HW221771   5.523   5.978   6.587
 6958SOL     OW21772   3.592   3.389   4.082
 6958SOL    HW121773   3.555   3.383   3.989
 6958SOL    HW221774   3.541   3.459   4.133
 6959SOL     OW21775   1.636   3.981   2.596
 6959SOL    HW121776   1.723   3.974   2.646
 6959SOL    HW221777   1.641   3.928   2.512
 6960SOL     OW21778   1.940   4.185   0.962
 6960SOL    HW121779   1.906   4.213   1.052
 6960SOL    HW221780   2.034   4.219   0.950
 6961SOL     OW21781   5.123   1.091   4.783
 6961SOL    HW121782   5.114   0.994   4.809
 6961SOL    HW221783   5.217   1.108   4.754
 6962SOL     OW21784   3.938   6.014   0.913
 6962SOL    HW121785   3.859   6.023   0.973
 6962SOL    HW221786   4.011   6.074   0.946
 6963SOL     OW21787   5.461   5.513   6.939
 6963SOL    HW121788   5.528   5.482   7.006
 6963SOL    HW221789   5.493   5.489   6.847
 6964SOL     OW21790   3.220   6.937   5.482
 6964SOL    HW121791   3.310   6.960   5.445
 6964SOL    HW221792   3.189   7.009   5.543
 6965SOL     OW21793   1.298   1.813   6.509
 6965SOL    HW121794   1.356   1.816   6.428
 6965SOL    HW221795   1.351   1.782   6.587
 6966SOL     OW21796   1.165   0.822   2.365
 6966SOL    HW121797   1.180   0.850   2.271
 6966SOL    HW221798   1.092   0.878   2.406
 6967SOL     OW21799   3.741   1.435   5.494
 6967SOL    HW121800   3.645   1.462   5.503
 6967SOL    HW221801   3.748   1.336   5.490
 6968SOL     OW21802   2.910   0.477   2.867
 6968SOL    HW121803   2.833   0.473   2.804
 6968SOL    HW221804   2.995   0.459   2.817
 6969SOL     OW21805   3.339   1.970   0.956
 6969SOL    HW121806   3.409   1.899   0.950
 6969SOL    HW221807   3.249   1.929   0.945
 6970SOL     OW21808   3.234   4.567   5.860
 6970SOL    HW121809   3.194   4.486   5.815
 6970SOL    HW221810   3.287   4.619   5.793
 6971SOL     OW21811   4.938   4.985   1.288
 6971SOL    HW121812   5.024   4.934   1.286
 6971SOL    HW221813   4.880   4.958   1.211
 6972SOL     OW21814   5.163   3.681   2.650
 6972SOL    HW121815   5.129   3.768   2.687
 6972SOL    HW221816   5.251   3.696   2.605
 6973SOL     OW21817   0.896   2.156   3.327
 6973SOL    HW121818   0.875   2.097   3.249
 6973SOL    HW221819   0.927   2.245   3.294
 6974SOL     OW21820   2.921   3.519   2.787
 6974SOL    HW121821   2.911   3.448   2.717
 6974SOL    HW221822   2.914   3.609   2.745
 6975SOL     OW21823   2.606   6.371   4.791
 6975SOL    HW121824   2.689   6.329   4.756
 6975SOL    HW221825   2.628   6.434   4.865
 6976SOL     OW21826   5.584   3.823   5.702
 6976SOL    HW121827   5.521   3.768   5.758
 6976SOL    HW221828   5.549   3.916   5.693
 6977SOL     OW21829   3.995   4.307   1.658
 6977SOL    HW121830   3.977   4.210   1.677
 6977SOL    HW221831   3.911   4.360   1.670
 6978SOL     OW21832   4.893   3.299   1.223
 6978SOL    HW121833   4.940   3.306   1.136
 6978SOL    HW221834   4.951   3.334   1.296
 6979SOL     OW21835   1.364   2.868   1.073
 6979SOL    HW121836   1.299   2.869   1.150
 6979SOL    HW221837   1.349   2.785   1.019
 6980SOL     OW21838   1.790   1.104   3.336
 6980SOL    HW121839   1.804   1.146   3.246
 6980SOL    HW221840   1.701   1.132   3.371
 6981SOL     OW21841   3.227   3.688   6.351
 6981SOL    HW121842   3.202   3.591   6.342
 6981SOL    HW221843   3.316   3.703   6.308
 6982SOL     OW21844   1.134   0.973   3.300
 6982SOL    HW121845   1.081   0.963   3.216
 6982SOL    HW221846   1.087   1.035   3.362
 6983SOL     OW21847   4.634   1.619   5.420
 6983SOL    HW121848   4.604   1.524   5.408
 6983SOL    HW221849   4.702   1.625   5.492
 6984SOL     OW21850   1.600   1.991   2.594
 6984SOL    HW121851   1.530   2.014   2.528
 6984SOL    HW221852   1.586   1.897   2.626
 6985SOL     OW21853   6.410   4.852   0.118
 6985SOL    HW121854   6.386   4.854   0.215
 6985SOL    HW221855   6.335   4.889   0.064
 6986SOL     OW21856   3.589   6.464   6.793
 6986SOL    HW121857   3.595   6.480   6.891
 6986SOL    HW221858   3.537   6.380   6.775
 6987SOL     OW21859   0.149   1.897   5.492
 6987SOL    HW121860   0.092   1.918   5.572
 6987SOL    HW221861   0.092   1.901   5.409
 6988SOL     OW21862   2.040   0.061   5.830
 6988SOL    HW121863   1.959   0.103   5.790
 6988SOL    HW221864   2.095   0.132   5.875
 6989SOL     OW21865   6.444   4.708   2.328
 6989SOL    HW121866   6.485   4.728   2.238
 6989SOL    HW221867   6.457   4.611   2.349
 6990SOL     OW21868   3.769   2.721   1.723
 6990SOL    HW121869   3.700   2.649   1.732
 6990SOL    HW221870   3.857   2.680   1.698
 6991SOL     OW21871   5.127   4.627   3.486
 6991SOL    HW121872   5.192   4.608   3.559
 6991SOL    HW221873   5.093   4.540   3.449
 6992SOL     OW21874   7.014   6.309   0.402
 6992SOL    HW121875   7.001   6.358   0.316
 6992SOL    HW221876   6.937   6.246   0.417
 6993SOL     OW21877   6.162   0.496   1.346
 6993SOL    HW121878   6.152   0.519   1.443
 6993SOL    HW221879   6.140   0.400   1.332
 6994SOL     OW21880   1.421   0.157   4.017
 6994SOL    HW121881   1.407   0.206   4.102
 6994SOL    HW221882   1.416   0.221   3.940
 6995SOL     OW21883   0.408   3.769   0.502
 6995SOL    HW121884   0.468   3.848   0.498
 6995SOL    HW221885   0.314   3.798   0.484
 6996SOL     OW21886   0.974   0.814   0.371
 6996SOL    HW121887   0.935   0.729   0.335
 6996SOL    HW221888   0.944   0.891   0.315
 6997SOL     OW21889   6.926   4.846   5.547
 6997SOL    HW121890   6.978   4.766   5.517
 6997SOL    HW221891   6.888   4.892   5.466
 6998SOL     OW21892   0.386   1.824   1.269
 6998SOL    HW121893   0.368   1.733   1.232
 6998SOL    HW221894   0.484   1.841   1.270
 6999SOL     OW21895   0.760   2.562   6.615
 6999SOL    HW121896   0.665   2.536   6.596
 6999SOL    HW221897   0.817   2.480   6.619
 7000SOL     OW21898   6.407   0.073   2.047
 7000SOL    HW121899   6.434   7.005   2.012
 7000SOL    HW221900   6.435   0.144   1.982
 7001SOL     OW21901   1.115   1.546   5.054
 7001SOL    HW121902   1.097   1.640   5.081
 7001SOL    HW221903   1.213   1.527   5.058
 7002SOL     OW21904   1.466   5.374   3.870
 7002SOL    HW121905   1.454   5.427   3.786
 7002SOL    HW221906   1.531   5.300   3.853
 7003SOL     OW21907   5.153   4.925   1.536
 7003SOL    HW121908   5.153   4.837   1.583
 7003SOL    HW221909   5.133   4.912   1.439
 7004SOL     OW21910   0.974   5.269   0.409
 7004SOL    HW121911   0.924   5.201   0.461
 7004SOL    HW221912   1.069   5.240   0.399
 7005SOL     OW21913   1.078   0.171   6.691
 7005SOL    HW121914   1.052   0.140   6.782
 7005SOL    HW221915   1.051   0.267   6.679
 7006SOL     OW21916   6.498   6.687   3.328
 7006SOL    HW121917   6.598   6.686   3.326
 7006SOL    HW221918   6.464   6.735   3.247
 7007SOL     OW21919   4.429   0.928   5.447
 7007SOL    HW121920   4.377   0.889   5.371
 7007SOL    HW221921   4.379   0.915   5.532
 7008SOL     OW21922   6.679   4.422   4.258
 7008SOL    HW121923   6.779   4.428   4.249
 7008SOL    HW221924   6.656   4.390   4.350
 7009SOL     OW21925   4.020   6.779   1.914
 7009SOL    HW121926   4.042   6.709   1.846
 7009SOL    HW221927   3.980   6.859   1.868
 7010SOL     OW21928   5.772   4.018   3.086
 7010SOL    HW121929   5.702   4.061   3.143
 7010SOL    HW221930   5.757   4.044   2.991
 7011SOL     OW21931   3.981   6.742   0.834
 7011SOL    HW121932   3.919   6.726   0.757
 7011SOL    HW221933   3.951   6.824   0.884
 7012SOL     OW21934   1.269   2.660   0.923
 7012SOL    HW121935   1.204   2.609   0.867
 7012SOL    HW221936   1.337   2.597   0.961
 7013SOL     OW21937   2.388   0.720   6.703
 7013SOL    HW121938   2.397   0.794   6.636
 7013SOL    HW221939   2.407   0.632   6.659
 7014SOL     OW21940   6.124   3.353   1.351
 7014SOL    HW121941   6.156   3.259   1.362
 7014SOL    HW221942   6.160   3.410   1.426
 7015SOL     OW21943   5.856   4.657   2.693
 7015SOL    HW121944   5.846   4.756   2.704
 7015SOL    HW221945   5.807   4.629   2.610
 7016SOL     OW21946   3.092   5.473   1.393
 7016SOL    HW121947   3.157   5.505   1.323
 7016SOL    HW221948   3.078   5.375   1.383
 7017SOL     OW21949   3.327   4.938   2.847
 7017SOL    HW121950   3.413   4.963   2.804
 7017SOL    HW221951   3.341   4.931   2.946
 7018SOL     OW21952   5.672   3.412   3.975
 7018SOL    HW121953   5.687   3.372   3.885
 7018SOL    HW221954   5.737   3.487   3.990
 7019SOL     OW21955   4.751   5.365   2.562
 7019SOL    HW121956   4.826   5.430   2.556
 7019SOL    HW221957   4.737   5.338   2.657
 7020SOL     OW21958   0.452   3.736   6.895
 7020SOL    HW121959   0.499   3.649   6.913
 7020SOL    HW221960   0.437   3.745   6.797
 7021SOL     OW21961   1.445   3.055   4.685
 7021SOL    HW121962   1.439   3.153   4.707
 7021SOL    HW221963   1.515   3.013   4.743
 7022SOL     OW21964   4.231   0.877   0.397
 7022SOL    HW121965   4.320   0.879   0.351
 7022SOL    HW221966   4.170   0.815   0.348
 7023SOL     OW21967   0.417   2.221   1.747
 7023SOL    HW121968   0.375   2.308   1.719
 7023SOL    HW221969   0.422   2.159   1.669
 7024SOL     OW21970   3.714   3.072   3.499
 7024SOL    HW121971   3.798   3.051   3.549
 7024SOL    HW221972   3.643   3.102   3.563
 7025SOL     OW21973   3.248   0.729   0.503
 7025SOL    HW121974   3.181   0.803   0.496
 7025SOL    HW221975   3.223   0.668   0.578
 7026SOL     OW21976   3.878   2.063   2.148
 7026SOL    HW121977   3.863   1.967   2.125
 7026SOL    HW221978   3.793   2.114   2.133
 7027SOL     OW21979   2.680   6.109   3.508
 7027SOL    HW121980   2.594   6.069   3.476
 7027SOL    HW221981   2.745   6.036   3.526
 7028SOL     OW21982   2.224   0.119   3.568
 7028SOL    HW121983   2.309   0.066   3.577
 7028SOL    HW221984   2.183   0.131   3.659
 7029SOL     OW21985   2.919   3.616   5.645
 7029SOL    HW121986   2.976   3.629   5.564
 7029SOL    HW221987   2.915   3.701   5.697
 7030SOL     OW21988   0.842   2.030   4.829
 7030SOL    HW121989   0.781   2.025   4.749
 7030SOL    HW221990   0.921   2.087   4.808
 7031SOL     OW21991   4.325   6.344   0.766
 7031SOL    HW121992   4.356   6.402   0.691
 7031SOL    HW221993   4.241   6.383   0.804
 7032SOL     OW21994   4.382   0.555   4.241
 7032SOL    HW121995   4.339   0.611   4.311
 7032SOL    HW221996   4.344   0.462   4.243
 7033SOL     OW21997   1.644   2.639   4.242
 7033SOL    HW121998   1.671   2.735   4.245
 7033SOL    HW221999   1.674   2.593   4.325
 7034SOL     OW22000   6.319   2.924   3.423
 7034SOL    HW122001   6.407   2.955   3.389
 7034SOL    HW222002   6.279   2.857   3.361
 7035SOL     OW22003   2.030   0.239   1.836
 7035SOL    HW122004   1.975   0.168   1.879
 7035SOL    HW222005   2.023   0.231   1.736
 7036SOL     OW22006   0.221   2.091   2.553
 7036SOL    HW122007   0.193   2.112   2.646
 7036SOL    HW222008   0.266   2.171   2.513
 7037SOL     OW22009   0.481   1.078   5.772
 7037SOL    HW122010   0.562   1.106   5.825
 7037SOL    HW222011   0.399   1.092   5.828
 7038SOL     OW22012   2.659   4.413   5.503
 7038SOL    HW122013   2.681   4.478   5.430
 7038SOL    HW222014   2.742   4.365   5.532
 7039SOL     OW22015   1.026   5.272   3.838
 7039SOL    HW122016   1.082   5.232   3.910
 7039SOL    HW222017   1.024   5.371   3.847
 7040SOL     OW22018   4.568   2.243   5.249
 7040SOL    HW122019   4.608   2.220   5.161
 7040SOL    HW222020   4.637   2.234   5.321
 7041SOL     OW22021   1.078   1.310   3.400
 7041SOL    HW122022   1.049   1.361   3.319
 7041SOL    HW222023   1.176   1.324   3.416
 7042SOL     OW22024   4.621   6.045   4.843
 7042SOL    HW122025   4.625   5.977   4.916
 7042SOL    HW222026   4.698   6.109   4.852
 7043SOL     OW22027   2.360   4.366   4.005
 7043SOL    HW122028   2.413   4.337   3.926
 7043SOL    HW222029   2.277   4.413   3.975
 7044SOL     OW22030   4.960   0.221   4.868
 7044SOL    HW122031   4.917   0.210   4.957
 7044SOL    HW222032   4.894   0.260   4.804
 7045SOL     OW22033   6.107   5.330   2.835
 7045SOL    HW122034   6.162   5.408   2.804
 7045SOL    HW222035   6.015   5.363   2.860
 7046SOL     OW22036   3.164   2.036   4.203
 7046SOL    HW122037   3.101   2.107   4.233
 7046SOL    HW222038   3.129   1.946   4.230
 7047SOL     OW22039   0.374   0.995   1.346
 7047SOL    HW122040   0.383   1.030   1.252
 7047SOL    HW222041   0.409   1.063   1.410
 7048SOL     OW22042   6.153   6.382   5.118
 7048SOL    HW122043   6.082   6.447   5.144
 7048SOL    HW222044   6.241   6.409   5.158
 7049SOL     OW22045   3.965   1.157   2.187
 7049SOL    HW122046   3.928   1.083   2.130
 7049SOL    HW222047   3.920   1.243   2.164
 7050SOL     OW22048   3.514   4.924   0.652
 7050SOL    HW122049   3.575   4.852   0.620
 7050SOL    HW222050   3.525   4.935   0.751
 7051SOL     OW22051   0.071   6.725   1.360
 7051SOL    HW122052   0.040   6.772   1.277
 7051SOL    HW222053   0.033   6.633   1.363
 7052SOL     OW22054   5.538   6.778   3.174
 7052SOL    HW122055   5.502   6.782   3.080
 7052SOL    HW222056   5.532   6.869   3.216
 7053SOL     OW22057   1.545   3.466   4.165
 7053SOL    HW122058   1.634   3.470   4.119
 7053SOL    HW222059   1.555   3.496   4.260
 7054SOL     OW22060   0.277   0.166   1.245
 7054SOL    HW122061   0.266   0.067   1.233
 7054SOL    HW222062   0.194   0.204   1.286
 7055SOL     OW22063   2.322   0.029   0.052
 7055SOL    HW122064   2.260   7.000   0.111
 7055SOL    HW222065   2.293   0.020   6.979
 7056SOL     OW22066   6.905   5.829   1.180
 7056SOL    HW122067   6.835   5.783   1.125
 7056SOL    HW222068   6.913   5.783   1.268
 7057SOL     OW22069   3.081   5.327   3.971
 7057SOL    HW122070   3.073   5.233   3.937
 7057SOL    HW222071   3.034   5.334   4.059
 7058SOL     OW22072   5.388   2.216   6.623
 7058SOL    HW122073   5.351   2.295   6.574
 7058SOL    HW222074   5.487   2.229   6.635
 7059SOL     OW22075   1.999   1.448   4.866
 7059SOL    HW122076   1.957   1.424   4.953
 7059SOL    HW222077   2.012   1.365   4.811
 7060SOL     OW22078   3.524   6.702   1.948
 7060SOL    HW122079   3.478   6.616   1.928
 7060SOL    HW222080   3.463   6.778   1.925
 7061SOL     OW22081   0.953   2.146   2.486
 7061SOL    HW122082   0.973   2.158   2.583
 7061SOL    HW222083   0.945   2.236   2.442
 7062SOL     OW22084   4.295   1.837   4.336
 7062SOL    HW122085   4.258   1.800   4.251
 7062SOL    HW222086   4.264   1.781   4.413
 7063SOL     OW22087   0.358   6.455   2.402
 7063SOL    HW122088   0.259   6.461   2.415
 7063SOL    HW222089   0.385   6.358   2.400
 7064SOL     OW22090   5.139   1.582   5.867
 7064SOL    HW122091   5.123   1.573   5.965
 7064SOL    HW222092   5.116   1.496   5.822
 7065SOL     OW22093   3.330   4.599   5.399
 7065SOL    HW122094   3.275   4.631   5.476
 7065SOL    HW222095   3.411   4.552   5.433
 7066SOL     OW22096   4.617   0.947   6.775
 7066SOL    HW122097   4.543   1.015   6.776
 7066SOL    HW222098   4.684   0.972   6.705
 7067SOL     OW22099   1.383   3.608   0.001
 7067SOL    HW122100   1.351   3.701   7.006
 7067SOL    HW222101   1.477   3.599   6.990
 7068SOL     OW22102   5.768   4.499   4.221
 7068SOL    HW122103   5.670   4.518   4.228
 7068SOL    HW222104   5.784   4.437   4.144
 7069SOL     OW22105   5.885   1.382   5.970
 7069SOL    HW122106   5.952   1.327   6.018
 7069SOL    HW222107   5.878   1.351   5.875
 7070SOL     OW22108   0.346   6.372   4.883
 7070SOL    HW122109   0.355   6.284   4.929
 7070SOL    HW222110   0.359   6.360   4.785
 7071SOL     OW22111   5.023   6.519   6.628
 7071SOL    HW122112   4.989   6.583   6.697
 7071SOL    HW222113   5.093   6.461   6.668
 7072SOL     OW22114   1.298   4.465   6.678
 7072SOL    HW122115   1.355   4.393   6.640
 7072SOL    HW222116   1.266   4.438   6.769
 7073SOL     OW22117   4.096   0.447   3.034
 7073SOL    HW122118   4.108   0.468   3.131
 7073SOL    HW222119   4.040   0.517   2.991
 7074SOL     OW22120   6.372   3.733   3.665
 7074SOL    HW122121   6.371   3.793   3.745
 7074SOL    HW222122   6.320   3.775   3.591
 7075SOL     OW22123   3.356   5.011   5.016
 7075SOL    HW122124   3.331   4.947   5.088
 7075SOL    HW222125   3.349   5.105   5.050
 7076SOL     OW22126   6.141   2.807   1.795
 7076SOL    HW122127   6.111   2.898   1.767
 7076SOL    HW222128   6.147   2.747   1.715
 7077SOL     OW22129   2.576   4.801   2.815
 7077SOL    HW122130   2.646   4.752   2.764
 7077SOL    HW222131   2.486   4.765   2.790
 7078SOL     OW22132   5.410   6.789   0.885
 7078SOL    HW122133   5.487   6.802   0.947
 7078SOL    HW222134   5.431   6.828   0.796
 7079SOL     OW22135   1.435   6.592   4.089
 7079SOL    HW122136   1.502   6.595   4.163
 7079SOL    HW222137   1.482   6.578   4.002
 7080SOL     OW22138   4.097   1.725   4.501
 7080SOL    HW122139   4.020   1.701   4.442
 7080SOL    HW222140   4.063   1.767   4.585
 7081SOL     OW22141   1.719   0.194   7.012
 7081SOL    HW122142   1.636   0.144   0.010
 7081SOL    HW222143   1.788   0.176   0.061
 7082SOL     OW22144   0.032   3.902   1.587
 7082SOL    HW122145   6.971   3.927   1.536
 7082SOL    HW222146   0.020   3.928   1.683
 7083SOL     OW22147   6.899   2.188   2.462
 7083SOL    HW122148   6.907   2.089   2.473
 7083SOL    HW222149   6.965   2.220   2.394
 7084SOL     OW22150   0.629   5.566   5.841
 7084SOL    HW122151   0.549   5.625   5.851
 7084SOL    HW222152   0.635   5.532   5.747
 7085SOL     OW22153   0.039   2.384   2.633
 7085SOL    HW122154   7.018   2.305   2.588
 7085SOL    HW222155   0.105   2.426   2.571
 7086SOL     OW22156   5.743   0.355   6.981
 7086SOL    HW122157   5.816   0.332   6.916
 7086SOL    HW222158   5.783   0.365   0.050
 7087SOL     OW22159   4.946   3.290   2.820
 7087SOL    HW122160   4.923   3.370   2.765
 7087SOL    HW222161   4.944   3.208   2.761
 7088SOL     OW22162   5.752   1.517   4.934
 7088SOL    HW122163   5.763   1.498   4.836
 7088SOL    HW222164   5.689   1.593   4.946
 7089SOL     OW22165   3.343   5.232   2.426
 7089SOL    HW122166   3.262   5.178   2.449
 7089SOL    HW222167   3.420   5.201   2.481
 7090SOL     OW22168   2.955   1.269   0.651
 7090SOL    HW122169   2.960   1.324   0.734
 7090SOL    HW222170   3.012   1.187   0.661
 7091SOL     OW22171   1.002   0.252   0.648
 7091SOL    HW122172   1.050   0.288   0.728
 7091SOL    HW222173   1.005   0.152   0.650
 7092SOL     OW22174   4.107   2.467   6.817
 7092SOL    HW122175   4.008   2.468   6.805
 7092SOL    HW222176   4.143   2.379   6.784
 7093SOL     OW22177   3.394   3.872   1.385
 7093SOL    HW122178   3.325   3.821   1.333
 7093SOL    HW222179   3.362   3.967   1.396
 7094SOL     OW22180   1.733   6.585   5.591
 7094SOL    HW122181   1.648   6.605   5.641
 7094SOL    HW222182   1.739   6.486   5.576
 7095SOL     OW22183   3.297   4.820   5.223
 7095SOL    HW122184   3.207   4.842   5.186
 7095SOL    HW222185   3.295   4.730   5.266
 7096SOL     OW22186   6.894   0.801   1.189
 7096SOL    HW122187   6.903   0.702   1.181
 7096SOL    HW222188   6.850   0.838   1.107
 7097SOL     OW22189   5.481   0.264   2.053
 7097SOL    HW122190   5.456   0.313   1.970
 7097SOL    HW222191   5.429   0.179   2.059
 7098SOL     OW22192   2.098   6.939   4.682
 7098SOL    HW122193   2.001   6.944   4.706
 7098SOL    HW222194   2.138   6.858   4.724
 7099SOL     OW22195   3.245   2.138   3.979
 7099SOL    HW122196   3.221   2.103   4.070
 7099SOL    HW222197   3.270   2.234   3.985
 7100SOL     OW22198   0.767   3.663   0.714
 7100SOL    HW122199   0.715   3.695   0.793
 7100SOL    HW222200   0.758   3.564   0.707
 7101SOL     OW22201   2.657   6.177   5.131
 7101SOL    HW122202   2.663   6.263   5.180
 7101SOL    HW222203   2.601   6.112   5.183
 7102SOL     OW22204   5.144   0.995   0.949
 7102SOL    HW122205   5.166   0.951   0.862
 7102SOL    HW222206   5.197   0.951   1.022
 7103SOL     OW22207   4.982   5.109   2.466
 7103SOL    HW122208   4.998   5.079   2.560
 7103SOL    HW222209   4.914   5.183   2.465
 7104SOL     OW22210   5.349   2.934   3.246
 7104SOL    HW122211   5.355   2.976   3.336
 7104SOL    HW222212   5.400   2.848   3.246
 7105SOL     OW22213   3.174   3.913   4.092
 7105SOL    HW122214   3.144   3.936   3.999
 7105SOL    HW222215   3.255   3.966   4.115
 7106SOL     OW22216   3.325   2.783   1.021
 7106SOL    HW122217   3.408   2.817   1.065
 7106SOL    HW222218   3.277   2.720   1.082
 7107SOL     OW22219   4.161   0.498   0.219
 7107SOL    HW122220   4.134   0.590   0.194
 7107SOL    HW222221   4.180   0.444   0.137
 7108SOL     OW22222   2.650   6.646   2.913
 7108SOL    HW122223   2.590   6.695   2.976
 7108SOL    HW222224   2.745   6.663   2.937
 7109SOL     OW22225   1.417   0.652   6.620
 7109SOL    HW122226   1.364   0.623   6.540
 7109SOL    HW222227   1.515   0.640   6.602
 7110SOL     OW22228   3.283   6.603   4.223
 7110SOL    HW122229   3.233   6.517   4.214
 7110SOL    HW222230   3.362   6.603   4.162
 7111SOL     OW22231   1.007   0.832   4.393
 7111SOL    HW122232   1.086   0.887   4.422
 7111SOL    HW222233   1.004   0.747   4.446
 7112SOL     OW22234   2.502   4.472   4.484
 7112SOL    HW122235   2.507   4.457   4.385
 7112SOL    HW222236   2.454   4.395   4.527
 7113SOL     OW22237   2.783   4.869   5.120
 7113SOL    HW122238   2.807   4.786   5.072
 7113SOL    HW222239   2.684   4.873   5.133
 7114SOL     OW22240   4.509   5.331   1.540
 7114SOL    HW122241   4.582   5.362   1.478
 7114SOL    HW222242   4.476   5.409   1.593
 7115SOL     OW22243   5.873   4.388   6.926
 7115SOL    HW122244   5.799   4.456   6.925
 7115SOL    HW222245   5.954   4.427   6.970
 7116SOL     OW22246   6.074   4.264   3.983
 7116SOL    HW122247   5.992   4.252   3.928
 7116SOL    HW222248   6.054   4.242   4.079
 7117SOL     OW22249   6.178   6.811   4.218
 7117SOL    HW122250   6.193   6.896   4.269
 7117SOL    HW222251   6.102   6.760   4.260
 7118SOL     OW22252   3.927   4.316   5.263
 7118SOL    HW122253   4.012   4.342   5.218
 7118SOL    HW222254   3.901   4.224   5.234
 7119SOL     OW22255   5.367   0.956   5.335
 7119SOL    HW122256   5.331   0.872   5.295
 7119SOL    HW222257   5.381   0.944   5.434
 7120SOL     OW22258   5.135   1.243   1.295
 7120SOL    HW122259   5.135   1.284   1.205
 7120SOL    HW222260   5.230   1.233   1.328
 7121SOL     OW22261   0.989   6.632   3.560
 7121SOL    HW122262   1.009   6.534   3.562
 7121SOL    HW222263   0.988   6.667   3.653
 7122SOL     OW22264   2.431   6.639   5.584
 7122SOL    HW122265   2.464   6.547   5.564
 7122SOL    HW222266   2.478   6.705   5.524
 7123SOL     OW22267   5.916   4.945   5.003
 7123SOL    HW122268   5.891   4.848   5.013
 7123SOL    HW222269   5.836   4.997   4.973
 7124SOL     OW22270   1.594   2.677   1.670
 7124SOL    HW122271   1.570   2.772   1.650
 7124SOL    HW222272   1.669   2.675   1.736
 7125SOL     OW22273   0.497   0.330   2.100
 7125SOL    HW122274   0.500   0.366   2.007
 7125SOL    HW222275   0.402   0.334   2.133
 7126SOL     OW22276   4.118   6.152   1.586
 7126SOL    HW122277   4.148   6.097   1.508
 7126SOL    HW222278   4.019   6.143   1.596
 7127SOL     OW22279   3.358   6.247   5.210
 7127SOL    HW122280   3.390   6.153   5.223
 7127SOL    HW222281   3.288   6.249   5.138
 7128SOL     OW22282   3.403   4.526   6.695
 7128SOL    HW122283   3.456   4.575   6.625
 7128SOL    HW222284   3.441   4.546   6.785
 7129SOL     OW22285   0.002   2.058   0.541
 7129SOL    HW122286   6.975   2.047   0.627
 7129SOL    HW222287   0.096   2.086   0.560
 7130SOL     OW22288   2.925   0.110   4.228
 7130SOL    HW122289   2.970   0.030   4.189
 7130SOL    HW222290   2.992   0.184   4.237
 7131SOL     OW22291   3.628   0.711   2.578
 7131SOL    HW122292   3.606   0.765   2.497
 7131SOL    HW222293   3.619   0.613   2.557
 7132SOL     OW22294   5.182   4.324   6.826
 7132SOL    HW122295   5.236   4.381   6.764
 7132SOL    HW222296   5.163   4.236   6.782
 7133SOL     OW22297   3.770   5.798   3.240
 7133SOL    HW122298   3.743   5.799   3.337
 7133SOL    HW222299   3.801   5.707   3.215
 7134SOL     OW22300   5.874   5.917   1.616
 7134SOL    HW122301   5.878   5.832   1.564
 7134SOL    HW222302   5.923   5.905   1.703
 7135SOL     OW22303   2.030   3.314   2.061
 7135SOL    HW122304   1.954   3.293   2.000
 7135SOL    HW222305   2.089   3.383   2.019
 7136SOL     OW22306   2.912   1.693   1.546
 7136SOL    HW122307   2.964   1.615   1.579
 7136SOL    HW222308   2.859   1.732   1.621
 7137SOL     OW22309   2.605   2.052   1.599
 7137SOL    HW122310   2.609   1.959   1.562
 7137SOL    HW222311   2.515   2.067   1.640
 7138SOL     OW22312   1.635   1.380   1.224
 7138SOL    HW122313   1.675   1.330   1.301
 7138SOL    HW222314   1.536   1.376   1.229
 7139SOL     OW22315   5.197   5.738   2.358
 7139SOL    HW122316   5.191   5.836   2.376
 7139SOL    HW222317   5.284   5.718   2.312
 7140SOL     OW22318   5.861   3.810   0.841
 7140SOL    HW122319   5.900   3.900   0.859
 7140SOL    HW222320   5.800   3.815   0.762
 7141SOL     OW22321   3.876   6.382   1.317
 7141SOL    HW122322   3.890   6.341   1.228
 7141SOL    HW222323   3.805   6.332   1.367
 7142SOL     OW22324   3.314   0.876   4.073
 7142SOL    HW122325   3.401   0.921   4.051
 7142SOL    HW222326   3.239   0.923   4.027
 7143SOL     OW22327   2.260   4.740   6.591
 7143SOL    HW122328   2.358   4.740   6.572
 7143SOL    HW222329   2.214   4.675   6.531
 7144SOL     OW22330   0.000   1.450   4.352
 7144SOL    HW122331   7.015   1.545   4.382
 7144SOL    HW222332   6.975   1.439   4.264
 7145SOL     OW22333   4.795   1.678   0.304
 7145SOL    HW122334   4.848   1.677   0.390
 7145SOL    HW222335   4.826   1.603   0.245
 7146SOL     OW22336   2.176   1.161   4.955
 7146SOL    HW122337   2.145   1.183   4.862
 7146SOL    HW222338   2.182   1.245   5.009
 7147SOL     OW22339   5.604   4.807   3.023
 7147SOL    HW122340   5.630   4.903   3.011
 7147SOL    HW222341   5.522   4.801   3.080
 7148SOL     OW22342   6.339   6.284   1.573
 7148SOL    HW122343   6.386   6.352   1.517
 7148SOL    HW222344   6.398   6.258   1.650
 7149SOL     OW22345   6.689   4.696   3.643
 7149SOL    HW122346   6.758   4.626   3.664
 7149SOL    HW222347   6.735   4.780   3.615
 7150SOL     OW22348   4.235   3.617   0.009
 7150SOL    HW122349   4.152   3.582   6.989
 7150SOL    HW222350   4.229   3.717   0.017
 7151SOL     OW22351   3.521   0.396   1.078
 7151SOL    HW122352   3.567   0.471   1.031
 7151SOL    HW222353   3.560   0.384   1.169
 7152SOL     OW22354   6.879   0.932   6.439
 7152SOL    HW122355   6.811   0.887   6.496
 7152SOL    HW222356   6.938   0.864   6.396
 7153SOL     OW22357   4.352   6.172   1.744
 7153SOL    HW122358   4.409   6.251   1.721
 7153SOL    HW222359   4.277   6.166   1.679
 7154SOL     OW22360   4.324   1.570   2.426
 7154SOL    HW122361   4.263   1.552   2.349
 7154SOL    HW222362   4.418   1.575   2.394
 7155SOL     OW22363   3.034   1.903   2.400
 7155SOL    HW122364   2.996   1.816   2.370
 7155SOL    HW222365   3.127   1.890   2.433
 7156SOL     OW22366   5.739   3.515   1.388
 7156SOL    HW122367   5.654   3.528   1.438
 7156SOL    HW222368   5.807   3.582   1.419
 7157SOL     OW22369   6.074   4.310   6.656
 7157SOL    HW122370   6.001   4.287   6.720
 7157SOL    HW222371   6.101   4.405   6.670
 7158SOL     OW22372   5.577   6.958   3.995
 7158SOL    HW122373   5.536   6.891   3.933
 7158SOL    HW222374   5.608   0.015   3.944
 7159SOL     OW22375   6.835   5.051   4.202
 7159SOL    HW122376   6.800   5.009   4.118
 7159SOL    HW222377   6.834   5.150   4.192
 7160SOL     OW22378   5.473   6.772   2.665
 7160SOL    HW122379   5.510   6.830   2.592
 7160SOL    HW222380   5.515   6.682   2.661
 7161SOL     OW22381   4.102   3.560   3.298
 7161SOL    HW122382   4.013   3.604   3.312
 7161SOL    HW222383   4.120   3.496   3.373
 7162SOL     OW22384   0.007   5.198   2.121
 7162SOL    HW122385   7.013   5.154   2.033
 7162SOL    HW222386   7.018   5.297   2.112
 7163SOL     OW22387   1.046   1.946   2.691
 7163SOL    HW122388   1.063   1.876   2.761
 7163SOL    HW222389   1.119   2.014   2.694
 7164SOL     OW22390   1.555   0.960   6.037
 7164SOL    HW122391   1.576   0.865   6.062
 7164SOL    HW222392   1.616   1.022   6.088
 7165SOL     OW22393   5.670   6.849   0.379
 7165SOL    HW122394   5.616   6.872   0.298
 7165SOL    HW222395   5.729   6.927   0.402
 7166SOL     OW22396   5.186   0.145   5.840
 7166SOL    HW122397   5.129   0.225   5.857
 7166SOL    HW222398   5.153   0.096   5.759
 7167SOL     OW22399   6.060   1.855   4.923
 7167SOL    HW122400   6.153   1.885   4.946
 7167SOL    HW222401   6.031   1.784   4.986
 7168SOL     OW22402   2.345   0.818   2.442
 7168SOL    HW122403   2.319   0.840   2.348
 7168SOL    HW222404   2.272   0.846   2.504
 7169SOL     OW22405   1.858   4.334   5.091
 7169SOL    HW122406   1.832   4.237   5.097
 7169SOL    HW222407   1.907   4.350   5.005
 7170SOL     OW22408   4.308   0.404   1.761
 7170SOL    HW122409   4.339   0.470   1.692
 7170SOL    HW222410   4.247   0.450   1.826
 7171SOL     OW22411   5.504   5.173   0.759
 7171SOL    HW122412   5.564   5.133   0.690
 7171SOL    HW222413   5.544   5.159   0.850
 7172SOL     OW22414   1.966   1.218   4.701
 7172SOL    HW122415   2.001   1.126   4.684
 7172SOL    HW222416   1.906   1.246   4.626
 7173SOL     OW22417   5.806   5.792   0.007
 7173SOL    HW122418   5.821   5.888   0.029
 7173SOL    HW222419   5.892   5.751   6.996
 7174SOL     OW22420   5.558   4.511   1.475
 7174SOL    HW122421   5.465   4.521   1.439
 7174SOL    HW222422   5.618   4.477   1.403
 7175SOL     OW22423   5.948   3.750   4.971
 7175SOL    HW122424   5.896   3.698   5.038
 7175SOL    HW222425   5.980   3.835   5.011
 7176SOL     OW22426   0.667   1.470   4.298
 7176SOL    HW122427   0.751   1.517   4.326
 7176SOL    HW222428   0.599   1.538   4.271
 7177SOL     OW22429   2.115   5.328   5.367
 7177SOL    HW122430   2.194   5.284   5.324
 7177SOL    HW222431   2.077   5.397   5.305
 7178SOL     OW22432   0.598   0.901   5.579
 7178SOL    HW122433   0.577   0.982   5.634
 7178SOL    HW222434   0.591   0.819   5.636
 7179SOL     OW22435   2.979   5.325   6.240
 7179SOL    HW122436   3.075   5.303   6.260
 7179SOL    HW222437   2.935   5.245   6.198
 7180SOL     OW22438   1.694   4.970   1.227
 7180SOL    HW122439   1.736   5.037   1.165
 7180SOL    HW222440   1.760   4.942   1.296
 7181SOL     OW22441   2.409   1.570   5.600
 7181SOL    HW122442   2.445   1.622   5.677
 7181SOL    HW222443   2.483   1.518   5.557
 7182SOL     OW22444   0.474   3.038   3.927
 7182SOL    HW122445   0.455   3.082   3.839
 7182SOL    HW222446   0.426   3.087   4.000
 7183SOL     OW22447   1.575   6.283   1.661
 7183SOL    HW122448   1.561   6.323   1.752
 7183SOL    HW222449   1.574   6.356   1.592
 7184SOL     OW22450   6.017   0.950   3.411
 7184SOL    HW122451   6.059   0.974   3.499
 7184SOL    HW222452   5.955   0.873   3.425
 7185SOL     OW22453   5.149   1.035   5.183
 7185SOL    HW122454   5.217   1.024   5.255
 7185SOL    HW222455   5.063   1.066   5.223
 7186SOL     OW22456   0.207   0.192   0.113
 7186SOL    HW122457   0.224   0.151   0.203
 7186SOL    HW222458   0.115   0.166   0.082
 7187SOL     OW22459   2.952   3.271   5.012
 7187SOL    HW122460   3.033   3.327   4.996
 7187SOL    HW222461   2.883   3.293   4.943
 7188SOL     OW22462   4.191   4.853   0.074
 7188SOL    HW122463   4.188   4.953   0.082
 7188SOL    HW222464   4.184   4.812   0.165
 7189SOL     OW22465   6.097   2.765   5.587
 7189SOL    HW122466   6.100   2.817   5.502
 7189SOL    HW222467   6.149   2.814   5.658
 7190SOL     OW22468   5.981   5.538   1.090
 7190SOL    HW122469   6.027   5.567   1.006
 7190SOL    HW222470   5.933   5.617   1.130
 7191SOL     OW22471   0.839   4.091   3.041
 7191SOL    HW122472   0.904   4.038   3.095
 7191SOL    HW222473   0.887   4.165   2.994
 7192SOL     OW22474   1.704   4.739   6.463
 7192SOL    HW122475   1.664   4.724   6.372
 7192SOL    HW222476   1.645   4.699   6.532
 7193SOL     OW22477   2.870   1.937   2.627
 7193SOL    HW122478   2.845   1.845   2.597
 7193SOL    HW222479   2.943   1.973   2.568
 7194SOL     OW22480   2.796   2.501   0.154
 7194SOL    HW122481   2.736   2.490   0.233
 7194SOL    HW222482   2.889   2.472   0.179
 7195SOL     OW22483   0.177   3.763   7.012
 7195SOL    HW122484   0.274   3.738   7.021
 7195SOL    HW222485   0.133   3.702   6.947
 7196SOL     OW22486   2.989   3.941   2.350
 7196SOL    HW122487   2.976   3.875   2.276
 7196SOL    HW222488   2.996   4.033   2.312
 7197SOL     OW22489   1.621   3.666   5.239
 7197SOL    HW122490   1.659   3.611   5.164
 7197SOL    HW222491   1.655   3.631   5.326
 7198SOL     OW22492   7.009   0.841   0.474
 7198SOL    HW122493   0.064   0.793   0.516
 7198SOL    HW222494   7.009   0.936   0.504
 7199SOL     OW22495   0.900   0.818   2.513
 7199SOL    HW122496   0.813   0.834   2.560
 7199SOL    HW222497   0.887   0.826   2.415
 7200SOL     OW22498   2.061   2.332   0.604
 7200SOL    HW122499   2.051   2.253   0.665
 7200SOL    HW222500   2.102   2.408   0.655
 7201SOL     OW22501   6.164   5.476   3.869
 7201SOL    HW122502   6.166   5.520   3.779
 7201SOL    HW222503   6.088   5.512   3.922
 7202SOL     OW22504   5.133   6.552   6.167
 7202SOL    HW122505   5.076   6.512   6.239
 7202SOL    HW222506   5.088   6.632   6.128
 7203SOL     OW22507   0.617   1.020   2.137
 7203SOL    HW122508   0.699   1.077   2.142
 7203SOL    HW222509   0.540   1.068   2.179
 7204SOL     OW22510   6.795   1.376   0.735
 7204SOL    HW122511   6.824   1.341   0.824
 7204SOL    HW222512   6.706   1.337   0.711
 7205SOL     OW22513   1.914   2.476   5.013
 7205SOL    HW122514   1.973   2.534   4.958
 7205SOL    HW222515   1.901   2.517   5.103
 7206SOL     OW22516   1.712   1.882   1.135
 7206SOL    HW122517   1.666   1.925   1.057
 7206SOL    HW222518   1.785   1.822   1.101
 7207SOL     OW22519   1.795   2.206   4.038
 7207SOL    HW122520   1.796   2.301   4.006
 7207SOL    HW222521   1.880   2.187   4.087
 7208SOL     OW22522   3.764   0.387   4.392
 7208SOL    HW122523   3.776   0.404   4.294
 7208SOL    HW222524   3.690   0.444   4.427
 7209SOL     OW22525   2.239   2.276   2.487
 7209SOL    HW122526   2.194   2.365   2.485
 7209SOL    HW222527   2.337   2.287   2.499
 7210SOL     OW22528   2.791   1.679   3.110
 7210SOL    HW122529   2.868   1.621   3.086
 7210SOL    HW222530   2.737   1.634   3.182
 7211SOL     OW22531   3.172   6.294   5.026
 7211SOL    HW122532   3.187   6.391   5.045
 7211SOL    HW222533   3.172   6.279   4.928
 7212SOL     OW22534   5.890   5.229   5.736
 7212SOL    HW122535   5.927   5.188   5.818
 7212SOL    HW222536   5.961   5.280   5.688
 7213SOL     OW22537   3.387   0.400   0.420
 7213SOL    HW122538   3.347   0.308   0.413
 7213SOL    HW222539   3.458   0.410   0.351
 7214SOL     OW22540   0.458   1.007   6.452
 7214SOL    HW122541   0.362   1.002   6.480
 7214SOL    HW222542   0.472   0.950   6.370
 7215SOL     OW22543   0.350   2.501   3.242
 7215SOL    HW122544   0.348   2.526   3.339
 7215SOL    HW222545   0.290   2.422   3.228
 7216SOL     OW22546   3.214   6.661   2.470
 7216SOL    HW122547   3.157   6.642   2.549
 7216SOL    HW222548   3.212   6.759   2.449
 7217SOL     OW22549   1.174   4.244   3.636
 7217SOL    HW122550   1.229   4.266   3.717
 7217SOL    HW222551   1.130   4.155   3.648
 7218SOL     OW22552   6.673   2.951   4.259
 7218SOL    HW122553   6.723   3.037   4.271
 7218SOL    HW222554   6.605   2.941   4.332
 7219SOL     OW22555   2.949   6.552   1.521
 7219SOL    HW122556   2.962   6.462   1.480
 7219SOL    HW222557   3.036   6.584   1.560
 7220SOL     OW22558   6.894   3.958   5.000
 7220SOL    HW122559   6.804   4.001   5.003
 7220SOL    HW222560   6.926   3.941   5.094
 7221SOL     OW22561   3.140   6.248   4.753
 7221SOL    HW122562   3.113   6.151   4.755
 7221SOL    HW222563   3.097   6.292   4.674
 7222SOL     OW22564   6.103   6.690   3.442
 7222SOL    HW122565   6.120   6.691   3.344
 7222SOL    HW222566   6.012   6.725   3.461
 7223SOL     OW22567   2.417   2.023   0.615
 7223SOL    HW122568   2.514   2.003   0.629
 7223SOL    HW222569   2.404   2.122   0.610
 7224SOL     OW22570   4.288   2.289   4.006
 7224SOL    HW122571   4.323   2.376   3.971
 7224SOL    HW222572   4.356   2.249   4.068
 7225SOL     OW22573   1.991   6.563   0.649
 7225SOL    HW122574   2.079   6.601   0.624
 7225SOL    HW222575   1.925   6.637   0.665
 7226SOL     OW22576   5.963   0.607   0.715
 7226SOL    HW122577   5.937   0.628   0.620
 7226SOL    HW222578   5.920   0.522   0.744
 7227SOL     OW22579   2.901   0.972   2.396
 7227SOL    HW122580   2.814   0.977   2.445
 7227SOL    HW222581   2.931   0.877   2.391
 7228SOL     OW22582   0.469   1.847   2.894
 7228SOL    HW122583   0.448   1.880   2.802
 7228SOL    HW222584   0.510   1.921   2.948
 7229SOL     OW22585   0.146   6.674   4.540
 7229SOL    HW122586   0.221   6.610   4.524
 7229SOL    HW222587   0.060   6.634   4.507
 7230SOL     OW22588   2.767   5.097   3.932
 7230SOL    HW122589   2.798   5.114   4.026
 7230SOL    HW222590   2.759   4.999   3.917
 7231SOL     OW22591   3.661   0.603   0.713
 7231SOL    HW122592   3.721   0.674   0.678
 7231SOL    HW222593   3.715   0.524   0.741
 7232SOL     OW22594   5.064   6.588   2.476
 7232SOL    HW122595   4.990   6.650   2.450
 7232SOL    HW222596   5.152   6.634   2.465
 7233SOL     OW22597   6.028   1.799   5.738
 7233SOL    HW122598   5.945   1.830   5.692
 7233SOL    HW222599   6.102   1.864   5.721
 7234SOL     OW22600   5.005   3.896   3.385
 7234SOL    HW122601   4.969   3.830   3.318
 7234SOL    HW222602   5.068   3.849   3.447
 7235SOL     OW22603   6.080   5.843   1.771
 7235SOL    HW122604   6.134   5.807   1.695
 7235SOL    HW222605   6.098   5.788   1.853
 7236SOL     OW22606   1.573   2.563   2.813
 7236SOL    HW122607   1.498   2.499   2.801
 7236SOL    HW222608   1.658   2.513   2.828
 7237SOL     OW22609   4.992   6.759   0.073
 7237SOL    HW122610   4.948   6.760   0.164
 7237SOL    HW222611   4.963   6.840   0.022
 7238SOL     OW22612   4.812   2.529   0.007
 7238SOL    HW122613   4.728   2.475   0.014
 7238SOL    HW222614   4.832   2.572   0.095
 7239SOL     OW22615   0.459   3.619   2.256
 7239SOL    HW122616   0.430   3.552   2.188
 7239SOL    HW222617   0.546   3.590   2.296
 7240SOL     OW22618   6.784   1.673   6.198
 7240SOL    HW122619   6.691   1.708   6.205
 7240SOL    HW222620   6.828   1.676   6.288
 7241SOL     OW22621   1.921   0.422   0.404
 7241SOL    HW122622   1.861   0.348   0.435
 7241SOL    HW222623   1.992   0.385   0.345
 7242SOL     OW22624   0.088   5.964   5.254
 7242SOL    HW122625   0.078   6.060   5.226
 7242SOL    HW222626   0.096   5.906   5.173
 7243SOL     OW22627   6.958   3.509   6.530
 7243SOL    HW122628   7.000   3.498   6.620
 7243SOL    HW222629   6.978   3.601   6.495
 7244SOL     OW22630   0.501   6.807   0.457
 7244SOL    HW122631   0.527   6.878   0.522
 7244SOL    HW222632   0.404   6.813   0.436
 7245SOL     OW22633   1.256   2.570   6.164
 7245SOL    HW122634   1.184   2.599   6.101
 7245SOL    HW222635   1.336   2.539   6.113
 7246SOL     OW22636   2.690   0.464   4.259
 7246SOL    HW122637   2.711   0.366   4.264
 7246SOL    HW222638   2.672   0.489   4.164
 7247SOL     OW22639   3.217   2.440   5.619
 7247SOL    HW122640   3.283   2.370   5.593
 7247SOL    HW222641   3.184   2.488   5.538
 7248SOL     OW22642   2.842   0.399   3.952
 7248SOL    HW122643   2.778   0.474   3.969
 7248SOL    HW222644   2.848   0.382   3.853
 7249SOL     OW22645   4.284   4.684   2.160
 7249SOL    HW122646   4.257   4.626   2.236
 7249SOL    HW222647   4.219   4.674   2.085
 7250SOL     OW22648   5.411   4.675   5.817
 7250SOL    HW122649   5.316   4.686   5.788
 7250SOL    HW222650   5.446   4.763   5.849
 7251SOL     OW22651   0.776   0.065   6.015
 7251SOL    HW122652   0.759   0.049   6.112
 7251SOL    HW222653   0.827   7.010   5.976
 7252SOL     OW22654   2.929   3.713   2.171
 7252SOL    HW122655   2.947   3.666   2.257
 7252SOL    HW222656   2.989   3.676   2.100
 7253SOL     OW22657   1.830   6.838   5.869
 7253SOL    HW122658   1.808   6.856   5.773
 7253SOL    HW222659   1.878   6.750   5.876
 7254SOL     OW22660   5.572   5.335   3.868
 7254SOL    HW122661   5.665   5.326   3.834
 7254SOL    HW222662   5.559   5.275   3.947
 7255SOL     OW22663   4.814   3.304   6.984
 7255SOL    HW122664   4.758   3.387   6.977
 7255SOL    HW222665   4.780   3.248   0.038
 7256SOL     OW22666   4.238   6.624   5.704
 7256SOL    HW122667   4.281   6.544   5.662
 7256SOL    HW222668   4.220   6.693   5.634
 7257SOL     OW22669   0.262   1.732   5.008
 7257SOL    HW122670   0.303   1.687   5.087
 7257SOL    HW222671   0.271   1.672   4.928
 7258SOL     OW22672   5.692   2.136   1.909
 7258SOL    HW122673   5.726   2.230   1.909
 7258SOL    HW222674   5.746   2.080   1.973
 7259SOL     OW22675   1.175   3.458   2.453
 7259SOL    HW122676   1.200   3.528   2.520
 7259SOL    HW222677   1.225   3.374   2.472
 7260SOL     OW22678   4.844   2.468   1.019
 7260SOL    HW122679   4.932   2.504   1.050
 7260SOL    HW222680   4.795   2.427   1.096
 7261SOL     OW22681   0.370   3.946   1.131
 7261SOL    HW122682   0.416   4.031   1.108
 7261SOL    HW222683   0.314   3.959   1.213
 7262SOL     OW22684   5.512   0.800   6.427
 7262SOL    HW122685   5.438   0.823   6.491
 7262SOL    HW222686   5.506   0.859   6.347
 7263SOL     OW22687   0.233   6.562   0.217
 7263SOL    HW122688   0.311   6.625   0.214
 7263SOL    HW222689   0.251   6.490   0.284
 7264SOL     OW22690   5.402   1.274   1.018
 7264SOL    HW122691   5.386   1.234   1.108
 7264SOL    HW222692   5.497   1.305   1.012
 7265SOL     OW22693   6.016   5.452   4.773
 7265SOL    HW122694   5.927   5.499   4.776
 7265SOL    HW222695   6.006   5.358   4.806
 7266SOL     OW22696   6.389   0.979   3.894
 7266SOL    HW122697   6.320   1.014   3.958
 7266SOL    HW222698   6.424   0.892   3.927
 7267SOL     OW22699   6.660   6.587   4.771
 7267SOL    HW122700   6.751   6.629   4.770
 7267SOL    HW222701   6.641   6.544   4.683
 7268SOL     OW22702   0.026   5.341   4.565
 7268SOL    HW122703   6.980   5.378   4.502
 7268SOL    HW222704   0.100   5.408   4.576
 7269SOL     OW22705   1.930   6.101   5.918
 7269SOL    HW122706   1.854   6.166   5.911
 7269SOL    HW222707   1.974   6.110   6.008
 7270SOL     OW22708   0.088   1.987   3.988
 7270SOL    HW122709   0.035   2.029   3.914
 7270SOL    HW222710   0.167   1.939   3.949
 7271SOL     OW22711   1.664   5.140   4.080
 7271SOL    HW122712   1.737   5.208   4.082
 7271SOL    HW222713   1.637   5.124   3.985
 7272SOL     OW22714   6.353   5.908   1.945
 7272SOL    HW122715   6.357   5.811   1.922
 7272SOL    HW222716   6.445   5.942   1.967
 7273SOL     OW22717   5.150   3.633   6.824
 7273SOL    HW122718   5.068   3.584   6.795
 7273SOL    HW222719   5.205   3.655   6.744
 7274SOL     OW22720   0.319   4.254   6.911
 7274SOL    HW122721   0.342   4.162   6.943
 7274SOL    HW222722   0.229   4.251   6.866
 7275SOL     OW22723   0.060   5.624   2.841
 7275SOL    HW122724   0.150   5.582   2.855
 7275SOL    HW222725   0.040   5.687   2.916
 7276SOL     OW22726   5.480   0.375   3.733
 7276SOL    HW122727   5.534   0.317   3.794
 7276SOL    HW222728   5.535   0.399   3.653
 7277SOL     OW22729   4.773   0.686   5.504
 7277SOL    HW122730   4.692   0.702   5.560
 7277SOL    HW222731   4.830   0.616   5.546
 7278SOL     OW22732   3.153   3.647   1.394
 7278SOL    HW122733   3.160   3.683   1.487
 7278SOL    HW222734   3.082   3.577   1.390
 7279SOL     OW22735   4.430   5.999   0.138
 7279SOL    HW122736   4.443   6.064   0.063
 7279SOL    HW222737   4.491   6.022   0.214
 7280SOL     OW22738   6.900   0.443   4.443
 7280SOL    HW122739   6.917   0.523   4.385
 7280SOL    HW222740   6.802   0.436   4.460
 7281SOL     OW22741   3.064   2.117   0.030
 7281SOL    HW122742   3.093   2.210   0.051
 7281SOL    HW222743   3.023   2.076   0.112
 7282SOL     OW22744   6.073   5.091   2.680
 7282SOL    HW122745   6.095   5.174   2.731
 7282SOL    HW222746   6.097   5.104   2.584
 7283SOL     OW22747   2.938   1.472   3.384
 7283SOL    HW122748   2.874   1.444   3.312
 7283SOL    HW222749   3.031   1.443   3.359
 7284SOL     OW22750   0.781   3.476   5.485
 7284SOL    HW122751   0.764   3.387   5.527
 7284SOL    HW222752   0.838   3.464   5.403
 7285SOL     OW22753   5.389   3.592   2.540
 7285SOL    HW122754   5.455   3.581   2.614
 7285SOL    HW222755   5.437   3.622   2.457
 7286SOL     OW22756   3.080   1.885   0.896
 7286SOL    HW122757   3.038   1.816   0.837
 7286SOL    HW222758   3.057   1.977   0.862
 7287SOL     OW22759   0.096   2.084   6.424
 7287SOL    HW122760   0.163   2.039   6.484
 7287SOL    HW222761   0.133   2.170   6.391
 7288SOL     OW22762   3.567   0.856   6.949
 7288SOL    HW122763   3.600   0.928   7.010
 7288SOL    HW222764   3.582   0.882   6.854
 7289SOL     OW22765   6.414   1.610   3.561
 7289SOL    HW122766   6.328   1.600   3.510
 7289SOL    HW222767   6.397   1.662   3.644
 7290SOL     OW22768   3.431   7.007   5.333
 7290SOL    HW122769   3.481   0.070   5.318
 7290SOL    HW222770   3.490   6.929   5.313
 7291SOL     OW22771   1.594   6.885   1.301
 7291SOL    HW122772   1.550   6.840   1.224
 7291SOL    HW222773   1.611   6.981   1.279
 7292SOL     OW22774   2.671   0.889   4.106
 7292SOL    HW122775   2.771   0.897   4.113
 7292SOL    HW222776   2.629   0.920   4.191
 7293SOL     OW22777   1.746   1.762   5.388
 7293SOL    HW122778   1.691   1.845   5.376
 7293SOL    HW222779   1.752   1.741   5.485
 7294SOL     OW22780   2.298   5.158   0.423
 7294SOL    HW122781   2.232   5.087   0.448
 7294SOL    HW222782   2.256   5.221   0.358
 7295SOL     OW22783   0.950   2.596   0.983
 7295SOL    HW122784   0.949   2.690   1.015
 7295SOL    HW222785   0.963   2.594   0.884
 7296SOL     OW22786   2.673   5.207   1.130
 7296SOL    HW122787   2.771   5.217   1.151
 7296SOL    HW222788   2.654   5.112   1.108
 7297SOL     OW22789   4.043   5.561   0.883
 7297SOL    HW122790   3.968   5.605   0.833
 7297SOL    HW222791   4.077   5.623   0.954
 7298SOL     OW22792   4.805   4.279   5.589
 7298SOL    HW122793   4.862   4.222   5.648
 7298SOL    HW222794   4.864   4.337   5.533
 7299SOL     OW22795   6.957   1.701   0.220
 7299SOL    HW122796   6.945   1.655   0.308
 7299SOL    HW222797   6.974   1.634   0.149
 7300SOL     OW22798   6.220   5.787   2.463
 7300SOL    HW122799   6.205   5.756   2.369
 7300SOL    HW222800   6.268   5.874   2.461
 7301SOL     OW22801   6.771   0.972   4.814
 7301SOL    HW122802   6.847   1.037   4.820
 7301SOL    HW222803   6.684   1.020   4.826
 7302SOL     OW22804   0.631   1.427   6.075
 7302SOL    HW122805   0.726   1.441   6.045
 7302SOL    HW222806   0.609   1.494   6.145
 7303SOL     OW22807   4.598   0.524   6.599
 7303SOL    HW122808   4.692   0.523   6.564
 7303SOL    HW222809   4.588   0.452   6.668
 7304SOL     OW22810   3.794   4.428   0.486
 7304SOL    HW122811   3.873   4.441   0.426
 7304SOL    HW222812   3.825   4.409   0.579
 7305SOL     OW22813   4.612   1.680   0.739
 7305SOL    HW122814   4.513   1.690   0.727
 7305SOL    HW222815   4.657   1.677   0.650
 7306SOL     OW22816   5.312   2.742   1.325
 7306SOL    HW122817   5.315   2.716   1.228
 7306SOL    HW222818   5.398   2.787   1.349
 7307SOL     OW22819   2.765   0.261   1.832
 7307SOL    HW122820   2.680   0.275   1.883
 7307SOL    HW222821   2.749   0.275   1.735
 7308SOL     OW22822   0.143   3.977   5.494
 7308SOL    HW122823   0.199   3.894   5.501
 7308SOL    HW222824   0.172   4.043   5.564
 7309SOL     OW22825   5.350   5.810   0.213
 7309SOL    HW122826   5.311   5.756   0.287
 7309SOL    HW222827   5.443   5.837   0.237
 7310SOL     OW22828   2.123   4.062   1.784
 7310SOL    HW122829   2.181   4.050   1.703
 7310SOL    HW222830   2.166   4.018   1.863
 7311SOL     OW22831   3.518   2.020   2.212
 7311SOL    HW122832   3.558   2.085   2.147
 7311SOL    HW222833   3.591   1.977   2.265
 7312SOL     OW22834   0.282   3.362   6.048
 7312SOL    HW122835   0.370   3.370   6.095
 7312SOL    HW222836   0.297   3.350   5.950
 7313SOL     OW22837   4.031   1.919   6.312
 7313SOL    HW122838   4.107   1.869   6.352
 7313SOL    HW222839   4.066   1.992   6.254
 7314SOL     OW22840   6.656   3.409   5.204
 7314SOL    HW122841   6.738   3.377   5.252
 7314SOL    HW222842   6.591   3.334   5.196
 7315SOL     OW22843   6.919   0.441   2.858
 7315SOL    HW122844   6.863   0.507   2.909
 7315SOL    HW222845   6.927   0.470   2.763
 7316SOL     OW22846   2.952   3.665   6.191
 7316SOL    HW122847   2.980   3.606   6.266
 7316SOL    HW222848   2.982   3.759   6.209
 7317SOL     OW22849   4.711   0.873   2.577
 7317SOL    HW122850   4.639   0.818   2.535
 7317SOL    HW222851   4.728   0.955   2.523
 7318SOL     OW22852   1.151   1.615   0.677
 7318SOL    HW122853   1.243   1.650   0.693
 7318SOL    HW222854   1.099   1.617   0.762
 7319SOL     OW22855   6.151   3.596   6.163
 7319SOL    HW122856   6.051   3.597   6.174
 7319SOL    HW222857   6.177   3.513   6.114
 7320SOL     OW22858   6.320   3.599   1.929
 7320SOL    HW122859   6.248   3.641   1.873
 7320SOL    HW222860   6.401   3.584   1.873
 7321SOL     OW22861   3.388   6.493   5.258
 7321SOL    HW122862   3.361   6.545   5.177
 7321SOL    HW222863   3.393   6.396   5.235
 7322SOL     OW22864   0.113   2.602   2.793
 7322SOL    HW122865   0.080   2.514   2.760
 7322SOL    HW222866   0.145   2.593   2.887
 7323SOL     OW22867   2.076   2.111   1.515
 7323SOL    HW122868   2.044   2.205   1.499
 7323SOL    HW222869   2.135   2.083   1.440
 7324SOL     OW22870   5.094   6.334   2.488
 7324SOL    HW122871   5.017   6.278   2.516
 7324SOL    HW222872   5.068   6.431   2.487
 7325SOL     OW22873   3.741   6.639   0.366
 7325SOL    HW122874   3.733   6.590   0.279
 7325SOL    HW222875   3.797   6.720   0.352
 7326SOL     OW22876   2.789   6.741   5.486
 7326SOL    HW122877   2.813   6.723   5.582
 7326SOL    HW222878   2.873   6.750   5.432
 7327SOL     OW22879   6.670   2.709   5.243
 7327SOL    HW122880   6.684   2.624   5.193
 7327SOL    HW222881   6.638   2.781   5.181
 7328SOL     OW22882   3.680   1.059   5.953
 7328SOL    HW122883   3.746   1.092   5.885
 7328SOL    HW222884   3.602   1.121   5.957
 7329SOL     OW22885   4.446   3.804   1.598
 7329SOL    HW122886   4.496   3.757   1.670
 7329SOL    HW222887   4.387   3.874   1.639
 7330SOL     OW22888   2.961   2.021   0.264
 7330SOL    HW122889   2.871   1.986   0.240
 7330SOL    HW222890   2.953   2.084   0.342
 7331SOL     OW22891   5.740   0.202   1.962
 7331SOL    HW122892   5.732   0.126   1.898
 7331SOL    HW222893   5.651   0.221   2.003
 7332SOL     OW22894   2.004   6.139   0.246
 7332SOL    HW122895   1.977   6.055   0.293
 7332SOL    HW222896   2.099   6.161   0.270
 7333SOL     OW22897   7.022   3.404   3.907
 7333SOL    HW122898   0.070   3.472   3.887
 7333SOL    HW222899   0.037   3.333   3.967
 7334SOL     OW22900   3.602   6.277   7.009
 7334SOL    HW122901   3.648   6.215   0.051
 7334SOL    HW222902   3.526   6.229   6.965
 7335SOL     OW22903   2.005   3.032   2.772
 7335SOL    HW122904   2.071   2.960   2.795
 7335SOL    HW222905   2.037   3.081   2.691
 7336SOL     OW22906   1.632   6.309   2.954
 7336SOL    HW122907   1.618   6.366   3.035
 7336SOL    HW222908   1.716   6.256   2.965
 7337SOL     OW22909   0.577   2.994   2.135
 7337SOL    HW122910   0.630   3.068   2.094
 7337SOL    HW222911   0.506   2.965   2.072
 7338SOL     OW22912   6.253   3.241   1.086
 7338SOL    HW122913   6.226   3.148   1.060
 7338SOL    HW222914   6.202   3.269   1.167
 7339SOL     OW22915   4.959   6.558   3.671
 7339SOL    HW122916   4.942   6.487   3.602
 7339SOL    HW222917   4.953   6.518   3.762
 7340SOL     OW22918   1.310   0.778   0.765
 7340SOL    HW122919   1.219   0.806   0.795
 7340SOL    HW222920   1.337   0.832   0.685
 7341SOL     OW22921   6.651   2.863   6.756
 7341SOL    HW122922   6.695   2.778   6.729
 7341SOL    HW222923   6.575   2.843   6.818
 7342SOL     OW22924   6.400   1.598   1.620
 7342SOL    HW122925   6.457   1.531   1.666
 7342SOL    HW222926   6.306   1.564   1.613
 7343SOL     OW22927   4.518   2.883   0.114
 7343SOL    HW122928   4.596   2.935   0.079
 7343SOL    HW222929   4.434   2.919   0.075
 7344SOL     OW22930   1.079   6.678   6.416
 7344SOL    HW122931   1.124   6.603   6.368
 7344SOL    HW222932   0.989   6.649   6.447
 7345SOL     OW22933   3.763   3.457   5.562
 7345SOL    HW122934   3.663   3.460   5.555
 7345SOL    HW222935   3.800   3.550   5.564
 7346SOL     OW22936   3.849   5.605   2.639
 7346SOL    HW122937   3.849   5.618   2.539
 7346SOL    HW222938   3.925   5.544   2.664
 7347SOL     OW22939   0.732   1.886   0.644
 7347SOL    HW122940   0.639   1.923   0.641
 7347SOL    HW222941   0.765   1.887   0.738
 7348SOL     OW22942   1.482   3.512   3.869
 7348SOL    HW122943   1.451   3.526   3.775
 7348SOL    HW222944   1.409   3.535   3.933
 7349SOL     OW22945   4.390   0.152   2.242
 7349SOL    HW122946   4.304   0.118   2.204
 7349SOL    HW222947   4.449   0.075   2.266
 7350SOL     OW22948   2.715   2.000   5.746
 7350SOL    HW122949   2.789   2.000   5.678
 7350SOL    HW222950   2.645   2.066   5.718
 7351SOL     OW22951   5.711   6.051   3.439
 7351SOL    HW122952   5.757   5.968   3.470
 7351SOL    HW222953   5.612   6.042   3.451
 7352SOL     OW22954   0.429   1.412   2.742
 7352SOL    HW122955   0.507   1.459   2.699
 7352SOL    HW222956   0.345   1.459   2.718
 7353SOL     OW22957   0.281   0.061   6.765
 7353SOL    HW122958   0.374   0.036   6.791
 7353SOL    HW222959   0.277   0.160   6.746
 7354SOL     OW22960   1.898   0.964   4.936
 7354SOL    HW122961   1.961   0.984   4.860
 7354SOL    HW222962   1.932   1.008   5.019
 7355SOL     OW22963   0.579   1.696   0.001
 7355SOL    HW122964   0.502   1.720   6.965
 7355SOL    HW222965   0.546   1.645   0.081
 7356SOL     OW22966   3.834   3.351   6.224
 7356SOL    HW122967   3.895   3.369   6.301
 7356SOL    HW222968   3.860   3.408   6.146
 7357SOL     OW22969   3.093   5.805   2.222
 7357SOL    HW122970   3.136   5.796   2.312
 7357SOL    HW222971   3.003   5.761   2.224
 7358SOL     OW22972   6.593   3.743   2.743
 7358SOL    HW122973   6.616   3.839   2.724
 7358SOL    HW222974   6.545   3.738   2.831
 7359SOL     OW22975   4.187   2.144   5.792
 7359SOL    HW122976   4.217   2.190   5.875
 7359SOL    HW222977   4.230   2.054   5.787
 7360SOL     OW22978   2.534   3.272   5.571
 7360SOL    HW122979   2.594   3.306   5.644
 7360SOL    HW222980   2.589   3.248   5.491
 7361SOL     OW22981   5.574   1.088   2.762
 7361SOL    HW122982   5.476   1.087   2.743
 7361SOL    HW222983   5.601   1.002   2.805
 7362SOL     OW22984   2.698   5.704   6.069
 7362SOL    HW122985   2.768   5.633   6.066
 7362SOL    HW222986   2.737   5.790   6.038
 7363SOL     OW22987   4.408   0.961   1.401
 7363SOL    HW122988   4.496   0.983   1.359
 7363SOL    HW222989   4.341   1.031   1.378
 7364SOL     OW22990   4.525   0.246   1.861
 7364SOL    HW122991   4.540   0.261   1.959
 7364SOL    HW222992   4.453   0.308   1.829
 7365SOL     OW22993   0.433   6.187   2.363
 7365SOL    HW122994   0.444   6.138   2.449
 7365SOL    HW222995   0.364   6.141   2.306
 7366SOL     OW22996   2.686   6.397   5.313
 7366SOL    HW122997   2.643   6.487   5.326
 7366SOL    HW222998   2.730   6.368   5.397
 7367SOL     OW22999   3.649   2.615   0.461
 7367SOL    HW123000   3.619   2.692   0.405
 7367SOL    HW223001   3.697   2.549   0.404
 7368SOL     OW23002   3.503   2.865   2.972
 7368SOL    HW123003   3.543   2.910   3.051
 7368SOL    HW223004   3.413   2.827   2.997
 7369SOL     OW23005   3.916   2.809   1.245
 7369SOL    HW123006   3.910   2.715   1.213
 7369SOL    HW223007   3.885   2.871   1.174
 7370SOL     OW23008   2.940   2.291   5.701
 7370SOL    HW123009   3.026   2.290   5.753
 7370SOL    HW223010   2.936   2.210   5.642
 7371SOL     OW23011   3.155   6.542   3.789
 7371SOL    HW123012   3.078   6.544   3.725
 7371SOL    HW223013   3.161   6.451   3.830
 7372SOL     OW23014   4.196   6.648   4.909
 7372SOL    HW123015   4.250   6.581   4.959
 7372SOL    HW223016   4.183   6.730   4.965
 7373SOL     OW23017   5.775   1.895   4.929
 7373SOL    HW123018   5.871   1.911   4.908
 7373SOL    HW223019   5.765   1.872   5.026
 7374SOL     OW23020   1.693   2.088   4.922
 7374SOL    HW123021   1.662   2.183   4.916
 7374SOL    HW223022   1.773   2.083   4.982
 7375SOL     OW23023   2.187   2.621   2.039
 7375SOL    HW123024   2.132   2.538   2.043
 7375SOL    HW223025   2.253   2.621   2.114
 7376SOL     OW23026   0.972   3.038   1.417
 7376SOL    HW123027   0.890   3.094   1.433
 7376SOL    HW223028   1.054   3.094   1.431
 7377SOL     OW23029   3.988   4.795   0.944
 7377SOL    HW123030   3.913   4.851   0.979
 7377SOL    HW223031   3.988   4.799   0.844
 7378SOL     OW23032   1.423   6.861   4.810
 7378SOL    HW123033   1.408   6.947   4.858
 7378SOL    HW223034   1.495   6.808   4.855
 7379SOL     OW23035   2.800   0.882   1.979
 7379SOL    HW123036   2.887   0.931   1.983
 7379SOL    HW223037   2.732   0.939   1.932
 7380SOL     OW23038   6.597   4.207   3.612
 7380SOL    HW123039   6.661   4.138   3.647
 7380SOL    HW223040   6.585   4.279   3.680
 7381SOL     OW23041   4.090   2.779   0.582
 7381SOL    HW123042   4.088   2.861   0.639
 7381SOL    HW223043   4.117   2.803   0.489
 7382SOL     OW23044   6.878   2.200   5.991
 7382SOL    HW123045   6.791   2.209   5.942
 7382SOL    HW223046   6.938   2.136   5.942
 7383SOL     OW23047   2.104   5.672   1.720
 7383SOL    HW123048   2.134   5.614   1.795
 7383SOL    HW223049   2.010   5.701   1.737
 7384SOL     OW23050   6.799   0.160   1.613
 7384SOL    HW123051   6.723   0.111   1.655
 7384SOL    HW223052   6.827   0.113   1.530
 7385SOL     OW23053   2.931   4.996   2.512
 7385SOL    HW123054   2.855   5.001   2.577
 7385SOL    HW223055   2.947   5.086   2.472
 7386SOL     OW23056   6.432   2.806   6.925
 7386SOL    HW123057   6.359   2.870   6.901
 7386SOL    HW223058   6.419   2.773   7.018
 7387SOL     OW23059   6.714   5.355   5.773
 7387SOL    HW123060   6.733   5.424   5.844
 7387SOL    HW223061   6.722   5.397   5.683
 7388SOL     OW23062   1.484   5.221   2.046
 7388SOL    HW123063   1.452   5.127   2.055
 7388SOL    HW223064   1.450   5.259   1.960
 7389SOL     OW23065   0.038   3.671   0.711
 7389SOL    HW123066   0.031   3.576   0.679
 7389SOL    HW223067   0.098   3.675   0.791
 7390SOL     OW23068   2.722   1.738   2.176
 7390SOL    HW123069   2.791   1.697   2.235
 7390SOL    HW223070   2.763   1.763   2.088
 7391SOL     OW23071   4.071   3.627   2.772
 7391SOL    HW123072   4.022   3.547   2.806
 7391SOL    HW223073   4.161   3.632   2.816
 7392SOL     OW23074   3.368   6.172   6.921
 7392SOL    HW123075   3.307   6.202   6.994
 7392SOL    HW223076   3.313   6.143   6.843
 7393SOL     OW23077   6.186   4.463   3.530
 7393SOL    HW123078   6.220   4.557   3.537
 7393SOL    HW223079   6.137   4.440   3.614
 7394SOL     OW23080   1.823   3.199   6.482
 7394SOL    HW123081   1.801   3.155   6.395
 7394SOL    HW223082   1.832   3.298   6.468
 7395SOL     OW23083   2.278   2.899   1.618
 7395SOL    HW123084   2.268   2.931   1.712
 7395SOL    HW223085   2.350   2.951   1.572
 7396SOL     OW23086   2.277   6.526   1.736
 7396SOL    HW123087   2.301   6.445   1.790
 7396SOL    HW223088   2.360   6.569   1.701
 7397SOL     OW23089   4.914   3.454   4.438
 7397SOL    HW123090   4.864   3.367   4.438
 7397SOL    HW223091   4.949   3.471   4.530
 7398SOL     OW23092   1.024   4.954   2.980
 7398SOL    HW123093   1.018   4.941   3.079
 7398SOL    HW223094   1.093   4.892   2.942
 7399SOL     OW23095   6.592   2.918   5.050
 7399SOL    HW123096   6.647   2.870   4.982
 7399SOL    HW223097   6.652   2.971   5.110
 7400SOL     OW23098   5.219   2.018   5.729
 7400SOL    HW123099   5.286   1.946   5.743
 7400SOL    HW223100   5.171   2.036   5.815
 7401SOL     OW23101   2.020   2.596   3.332
 7401SOL    HW123102   1.962   2.531   3.283
 7401SOL    HW223103   2.000   2.689   3.300
 7402SOL     OW23104   2.882   4.643   5.851
 7402SOL    HW123105   2.912   4.606   5.763
 7402SOL    HW223106   2.921   4.588   5.925
 7403SOL     OW23107   1.768   3.002   2.944
 7403SOL    HW123108   1.782   3.079   3.007
 7403SOL    HW223109   1.836   3.007   2.871
 7404SOL     OW23110   2.931   3.786   1.725
 7404SOL    HW123111   2.970   3.871   1.759
 7404SOL    HW223112   2.997   3.712   1.737
 7405SOL     OW23113   3.091   5.296   4.949
 7405SOL    HW123114   3.105   5.199   4.928
 7405SOL    HW223115   3.171   5.332   4.998
 7406SOL     OW23116   0.944   1.477   5.356
 7406SOL    HW123117   0.874   1.433   5.412
 7406SOL    HW223118   0.911   1.484   5.262
 7407SOL     OW23119   1.300   6.216   6.642
 7407SOL    HW123120   1.216   6.202   6.590
 7407SOL    HW223121   1.379   6.191   6.586
 7408SOL     OW23122   3.554   4.154   5.665
 7408SOL    HW123123   3.539   4.115   5.574
 7408SOL    HW223124   3.650   4.141   5.691
 7409SOL     OW23125   5.230   4.465   0.061
 7409SOL    HW123126   5.177   4.432   0.139
 7409SOL    HW223127   5.255   4.388   0.002
 7410SOL     OW23128   0.564   0.301   0.467
 7410SOL    HW123129   0.636   0.358   0.428
 7410SOL    HW223130   0.596   0.261   0.553
 7411SOL     OW23131   1.908   1.134   6.396
 7411SOL    HW123132   1.988   1.086   6.430
 7411SOL    HW223133   1.864   1.183   6.472
 7412SOL     OW23134   3.852   6.424   0.750
 7412SOL    HW123135   3.828   6.518   0.725
 7412SOL    HW223136   3.874   6.372   0.668
 7413SOL     OW23137   4.595   4.312   3.266
 7413SOL    HW123138   4.545   4.385   3.220
 7413SOL    HW223139   4.596   4.330   3.365
 7414SOL     OW23140   2.032   1.933   4.406
 7414SOL    HW123141   2.083   1.993   4.468
 7414SOL    HW223142   1.979   1.868   4.460
 7415SOL     OW23143   3.438   6.090   6.006
 7415SOL    HW123144   3.404   6.094   5.912
 7415SOL    HW223145   3.536   6.069   6.004
 7416SOL     OW23146   1.895   1.553   2.471
 7416SOL    HW123147   1.840   1.537   2.553
 7416SOL    HW223148   1.955   1.632   2.485
 7417SOL     OW23149   1.945   2.049   2.263
 7417SOL    HW123150   1.861   2.095   2.294
 7417SOL    HW223151   1.954   2.060   2.165
 7418SOL     OW23152   1.758   4.807   0.178
 7418SOL    HW123153   1.753   4.831   0.080
 7418SOL    HW223154   1.668   4.779   0.210
 7419SOL     OW23155   6.134   3.753   3.913
 7419SOL    HW123156   6.050   3.720   3.956
 7419SOL    HW223157   6.189   3.674   3.885
 7420SOL     OW23158   6.651   5.847   1.500
 7420SOL    HW123159   6.655   5.783   1.423
 7420SOL    HW223160   6.568   5.830   1.554
 7421SOL     OW23161   4.022   3.803   1.486
 7421SOL    HW123162   3.987   3.787   1.393
 7421SOL    HW223163   4.120   3.821   1.481
 7422SOL     OW23164   6.225   3.821   2.179
 7422SOL    HW123165   6.156   3.789   2.244
 7422SOL    HW223166   6.292   3.748   2.163
 7423SOL     OW23167   5.613   2.417   5.177
 7423SOL    HW123168   5.709   2.419   5.151
 7423SOL    HW223169   5.589   2.325   5.210
 7424SOL     OW23170   6.571   1.709   5.266
 7424SOL    HW123171   6.648   1.660   5.306
 7424SOL    HW223172   6.589   1.808   5.270
 7425SOL     OW23173   5.325   0.110   0.361
 7425SOL    HW123174   5.301   0.016   0.336
 7425SOL    HW223175   5.322   0.119   0.460
 7426SOL     OW23176   3.453   2.264   5.562
 7426SOL    HW123177   3.390   2.191   5.588
 7426SOL    HW223178   3.454   2.274   5.463
 7427SOL     OW23179   3.784   1.015   3.874
 7427SOL    HW123180   3.823   1.108   3.877
 7427SOL    HW223181   3.852   0.952   3.835
 7428SOL     OW23182   4.554   0.277   5.457
 7428SOL    HW123183   4.520   0.318   5.541
 7428SOL    HW223184   4.510   0.320   5.378
 7429SOL     OW23185   1.041   6.519   3.215
 7429SOL    HW123186   0.988   6.541   3.297
 7429SOL    HW223187   1.007   6.434   3.175
 7430SOL     OW23188   7.013   4.090   1.814
 7430SOL    HW123189   7.012   4.094   1.914
 7430SOL    HW223190   0.017   4.179   1.777
 7431SOL     OW23191   2.014   2.163   3.665
 7431SOL    HW123192   1.968   2.077   3.645
 7431SOL    HW223193   2.051   2.202   3.581
 7432SOL     OW23194   1.732   0.167   3.343
 7432SOL    HW123195   1.699   0.258   3.369
 7432SOL    HW223196   1.811   0.143   3.399
 7433SOL     OW23197   3.370   6.619   6.658
 7433SOL    HW123198   3.418   6.648   6.741
 7433SOL    HW223199   3.316   6.695   6.622
 7434SOL     OW23200   4.843   6.048   5.755
 7434SOL    HW123201   4.931   6.084   5.785
 7434SOL    HW223202   4.784   6.123   5.727
 7435SOL     OW23203   4.450   5.907   1.760
 7435SOL    HW123204   4.392   5.848   1.704
 7435SOL    HW223205   4.415   6.000   1.759
 7436SOL     OW23206   4.786   4.420   6.205
 7436SOL    HW123207   4.792   4.382   6.112
 7436SOL    HW223208   4.742   4.509   6.202
 7437SOL     OW23209   3.017   6.246   1.498
 7437SOL    HW123210   2.994   6.150   1.510
 7437SOL    HW223211   3.056   6.283   1.582
 7438SOL     OW23212   1.581   0.464   0.236
 7438SOL    HW123213   1.602   0.513   0.152
 7438SOL    HW223214   1.515   0.517   0.290
 7439SOL     OW23215   1.793   5.489   5.411
 7439SOL    HW123216   1.837   5.545   5.341
 7439SOL    HW223217   1.736   5.420   5.369
 7440SOL     OW23218   6.027   2.933   3.328
 7440SOL    HW123219   6.005   3.026   3.300
 7440SOL    HW223220   6.085   2.890   3.259
 7441SOL     OW23221   5.839   6.599   3.832
 7441SOL    HW123222   5.814   6.595   3.929
 7441SOL    HW223223   5.759   6.626   3.778
 7442SOL     OW23224   5.864   0.877   6.185
 7442SOL    HW123225   5.909   0.807   6.129
 7442SOL    HW223226   5.868   0.850   6.282
 7443SOL     OW23227   6.884   5.539   1.578
 7443SOL    HW123228   6.804   5.485   1.605
 7443SOL    HW223229   6.854   5.622   1.531
 7444SOL     OW23230   6.544   1.453   6.223
 7444SOL    HW123231   6.464   1.514   6.220
 7444SOL    HW223232   6.568   1.424   6.131
 7445SOL     OW23233   3.551   6.952   1.358
 7445SOL    HW123234   3.492   0.011   1.369
 7445SOL    HW223235   3.642   6.972   1.393
 7446SOL     OW23236   5.050   2.730   0.417
 7446SOL    HW123237   5.091   2.746   0.328
 7446SOL    HW223238   5.106   2.665   0.469
 7447SOL     OW23239   6.784   4.377   6.390
 7447SOL    HW123240   6.697   4.357   6.435
 7447SOL    HW223241   6.842   4.296   6.391
 7448SOL     OW23242   5.382   6.376   5.751
 7448SOL    HW123243   5.444   6.420   5.685
 7448SOL    HW223244   5.289   6.377   5.714
 7449SOL     OW23245   0.286   5.299   0.522
 7449SOL    HW123246   0.381   5.297   0.554
 7449SOL    HW223247   0.283   5.273   0.425
 7450SOL     OW23248   5.248   2.245   5.583
 7450SOL    HW123249   5.232   2.331   5.632
 7450SOL    HW223250   5.258   2.170   5.648
 7451SOL     OW23251   5.677   5.465   2.556
 7451SOL    HW123252   5.627   5.434   2.637
 7451SOL    HW223253   5.680   5.565   2.555
 7452SOL     OW23254   6.467   6.170   4.106
 7452SOL    HW123255   6.482   6.240   4.036
 7452SOL    HW223256   6.376   6.182   4.145
 7453SOL     OW23257   4.973   5.663   6.310
 7453SOL    HW123258   4.983   5.631   6.404
 7453SOL    HW223259   4.877   5.682   6.291
 7454SOL     OW23260   3.081   1.575   0.454
 7454SOL    HW123261   3.088   1.673   0.434
 7454SOL    HW223262   2.985   1.548   0.455
 7455SOL     OW23263   6.257   3.104   2.565
 7455SOL    HW123264   6.235   3.124   2.470
 7455SOL    HW223265   6.216   3.017   2.591
 7456SOL     OW23266   2.566   1.924   5.231
 7456SOL    HW123267   2.559   2.000   5.296
 7456SOL    HW223268   2.659   1.920   5.195
 7457SOL     OW23269   2.781   0.095   3.784
 7457SOL    HW123270   2.795   0.103   3.882
 7457SOL    HW223271   2.869   0.090   3.737
 7458SOL     OW23272   1.155   0.321   5.394
 7458SOL    HW123273   1.141   0.358   5.303
 7458SOL    HW223274   1.113   0.382   5.462
 7459SOL     OW23275   6.024   1.364   2.306
 7459SOL    HW123276   6.074   1.362   2.392
 7459SOL    HW223277   6.089   1.365   2.230
 7460SOL     OW23278   1.571   6.594   0.149
 7460SOL    HW123279   1.626   6.526   0.102
 7460SOL    HW223280   1.482   6.555   0.172
 7461SOL     OW23281   6.427   6.418   5.186
 7461SOL    HW123282   6.484   6.480   5.240
 7461SOL    HW223283   6.397   6.341   5.243
 7462SOL     OW23284   1.284   5.542   1.126
 7462SOL    HW123285   1.225   5.622   1.118
 7462SOL    HW223286   1.313   5.532   1.221
 7463SOL     OW23287   3.212   4.514   0.508
 7463SOL    HW123288   3.150   4.574   0.560
 7463SOL    HW223289   3.305   4.550   0.513
 7464SOL     OW23290   0.057   5.847   4.565
 7464SOL    HW123291   0.003   5.902   4.502
 7464SOL    HW223292   0.027   5.864   4.659
 7465SOL     OW23293   2.762   5.407   0.430
 7465SOL    HW123294   2.746   5.469   0.353
 7465SOL    HW223295   2.698   5.429   0.504
 7466SOL     OW23296   0.502   0.967   6.143
 7466SOL    HW123297   0.482   0.889   6.202
 7466SOL    HW223298   0.562   0.937   6.069
 7467SOL     OW23299   0.473   2.649   6.236
 7467SOL    HW123300   0.456   2.725   6.174
 7467SOL    HW223301   0.570   2.623   6.231
 7468SOL     OW23302   5.210   2.825   3.930
 7468SOL    HW123303   5.160   2.774   4.000
 7468SOL    HW223304   5.225   2.767   3.850
 7469SOL     OW23305   6.471   2.156   0.156
 7469SOL    HW123306   6.531   2.211   0.097
 7469SOL    HW223307   6.396   2.212   0.189
 7470SOL     OW23308   5.395   4.261   3.851
 7470SOL    HW123309   5.314   4.240   3.905
 7470SOL    HW223310   5.476   4.225   3.897
 7471SOL     OW23311   5.084   6.049   6.088
 7471SOL    HW123312   5.070   5.972   6.026
 7471SOL    HW223313   5.106   6.015   6.179
 7472SOL     OW23314   6.467   1.106   5.411
 7472SOL    HW123315   6.431   1.197   5.433
 7472SOL    HW223316   6.534   1.078   5.479
 7473SOL     OW23317   4.985   6.886   3.905
 7473SOL    HW123318   4.902   6.883   3.849
 7473SOL    HW223319   4.990   6.974   3.952
 7474SOL     OW23320   6.449   2.521   6.884
 7474SOL    HW123321   6.465   2.475   6.971
 7474SOL    HW223322   6.450   2.620   6.898
 7475SOL     OW23323   4.341   2.372   2.337
 7475SOL    HW123324   4.242   2.375   2.319
 7475SOL    HW223325   4.356   2.357   2.435
 7476SOL     OW23326   2.272   2.195   2.911
 7476SOL    HW123327   2.368   2.220   2.925
 7476SOL    HW223328   2.242   2.136   2.985
 7477SOL     OW23329   0.483   3.200   4.503
 7477SOL    HW123330   0.408   3.147   4.542
 7477SOL    HW223331   0.519   3.263   4.571
 7478SOL     OW23332   5.556   3.140   4.973
 7478SOL    HW123333   5.643   3.175   5.005
 7478SOL    HW223334   5.570   3.083   4.892
 7479SOL     OW23335   5.425   3.133   0.318
 7479SOL    HW123336   5.343   3.190   0.327
 7479SOL    HW223337   5.397   3.039   0.300
 7480SOL     OW23338   2.015   5.140   2.555
 7480SOL    HW123339   2.012   5.127   2.456
 7480SOL    HW223340   2.073   5.219   2.577
 7481SOL     OW23341   6.136   4.569   6.703
 7481SOL    HW123342   6.186   4.594   6.786
 7481SOL    HW223343   6.086   4.649   6.669
 7482SOL     OW23344   4.459   2.260   2.627
 7482SOL    HW123345   4.542   2.306   2.595
 7482SOL    HW223346   4.455   2.262   2.727
 7483SOL     OW23347   4.744   2.406   4.754
 7483SOL    HW123348   4.663   2.414   4.695
 7483SOL    HW223349   4.826   2.401   4.698
 7484SOL     OW23350   1.960   5.521   4.234
 7484SOL    HW123351   2.059   5.507   4.235
 7484SOL    HW223352   1.940   5.617   4.254
 7485SOL     OW23353   2.940   6.855   3.605
 7485SOL    HW123354   2.928   6.920   3.530
 7485SOL    HW223355   2.976   6.903   3.685
 7486SOL     OW23356   0.744   5.997   0.111
 7486SOL    HW123357   0.813   5.984   0.039
 7486SOL    HW223358   0.739   6.094   0.135
 7487SOL     OW23359   4.632   0.799   2.813
 7487SOL    HW123360   4.690   0.846   2.746
 7487SOL    HW223361   4.539   0.833   2.806
 7488SOL     OW23362   1.466   6.136   4.138
 7488SOL    HW123363   1.504   6.177   4.221
 7488SOL    HW223364   1.370   6.163   4.128
 7489SOL     OW23365   6.297   3.661   6.955
 7489SOL    HW123366   6.285   3.634   6.859
 7489SOL    HW223367   6.388   3.634   6.986
 7490SOL     OW23368   1.342   2.111   2.151
 7490SOL    HW123369   1.244   2.092   2.146
 7490SOL    HW223370   1.386   2.081   2.066
 7491SOL     OW23371   4.708   2.566   0.475
 7491SOL    HW123372   4.700   2.655   0.430
 7491SOL    HW223373   4.679   2.494   0.412
 7492SOL     OW23374   1.704   1.171   4.219
 7492SOL    HW123375   1.737   1.224   4.141
 7492SOL    HW223376   1.765   1.093   4.234
 7493SOL     OW23377   6.695   3.570   5.448
 7493SOL    HW123378   6.619   3.507   5.441
 7493SOL    HW223379   6.765   3.546   5.381
 7494SOL     OW23380   5.601   0.972   3.884
 7494SOL    HW123381   5.538   0.906   3.842
 7494SOL    HW223382   5.605   0.957   3.982
 7495SOL     OW23383   2.358   2.776   4.694
 7495SOL    HW123384   2.418   2.729   4.759
 7495SOL    HW223385   2.354   2.873   4.717
 7496SOL     OW23386   5.963   3.267   3.588
 7496SOL    HW123387   6.004   3.228   3.506
 7496SOL    HW223388   6.019   3.343   3.621
 7497SOL     OW23389   1.737   6.174   1.168
 7497SOL    HW123390   1.695   6.093   1.127
 7497SOL    HW223391   1.742   6.247   1.099
 7498SOL     OW23392   2.854   0.824   3.721
 7498SOL    HW123393   2.820   0.731   3.712
 7498SOL    HW223394   2.777   0.888   3.713
 7499SOL     OW23395   4.562   1.798   3.538
 7499SOL    HW123396   4.620   1.864   3.491
 7499SOL    HW223397   4.467   1.829   3.533
 7500SOL     OW23398   3.726   6.221   3.824
 7500SOL    HW123399   3.698   6.173   3.907
 7500SOL    HW223400   3.692   6.315   3.827
 7501SOL     OW23401   5.732   2.996   4.127
 7501SOL    HW123402   5.683   3.005   4.041
 7501SOL    HW223403   5.746   3.086   4.168
 7502SOL     OW23404   3.720   6.995   4.022
 7502SOL    HW123405   3.645   6.969   4.084
 7502SOL    HW223406   3.683   0.025   3.945
 7503SOL     OW23407   1.682   6.169   0.731
 7503SOL    HW123408   1.691   6.127   0.640
 7503SOL    HW223409   1.651   6.264   0.720
 7504SOL     OW23410   0.583   6.349   2.172
 7504SOL    HW123411   0.542   6.437   2.196
 7504SOL    HW223412   0.545   6.278   2.232
 7505SOL     OW23413   0.183   1.499   5.626
 7505SOL    HW123414   0.248   1.425   5.608
 7505SOL    HW223415   0.096   1.461   5.657
 7506SOL     OW23416   3.632   2.088   3.176
 7506SOL    HW123417   3.680   2.065   3.091
 7506SOL    HW223418   3.560   2.154   3.156
 7507SOL     OW23419   6.538   3.322   4.518
 7507SOL    HW123420   6.464   3.348   4.579
 7507SOL    HW223421   6.514   3.348   4.424
 7508SOL     OW23422   1.758   5.940   0.254
 7508SOL    HW123423   1.775   5.842   0.242
 7508SOL    HW223424   1.735   5.980   0.165
 7509SOL     OW23425   5.355   4.067   0.282
 7509SOL    HW123426   5.326   3.974   0.305
 7509SOL    HW223427   5.306   4.099   0.201
 7510SOL     OW23428   4.050   3.507   3.932
 7510SOL    HW123429   4.054   3.605   3.912
 7510SOL    HW223430   4.083   3.491   4.025
 7511SOL     OW23431   2.976   6.142   3.142
 7511SOL    HW123432   3.016   6.228   3.111
 7511SOL    HW223433   2.979   6.075   3.068
 7512SOL     OW23434   2.722   0.835   6.441
 7512SOL    HW123435   2.625   0.854   6.429
 7512SOL    HW223436   2.753   0.771   6.370
 7513SOL     OW23437   1.975   2.177   3.273
 7513SOL    HW123438   2.037   2.163   3.350
 7513SOL    HW223439   2.016   2.142   3.189
 7514SOL     OW23440   1.508   4.641   3.791
 7514SOL    HW123441   1.483   4.701   3.867
 7514SOL    HW223442   1.450   4.660   3.713
 7515SOL     OW23443   6.673   4.301   5.119
 7515SOL    HW123444   6.713   4.269   5.205
 7515SOL    HW223445   6.614   4.379   5.137
 7516SOL     OW23446   1.047   5.459   6.117
 7516SOL    HW123447   1.049   5.390   6.045
 7516SOL    HW223448   1.029   5.549   6.076
 7517SOL     OW23449   1.651   2.537   6.777
 7517SOL    HW123450   1.720   2.466   6.791
 7517SOL    HW223451   1.684   2.602   6.708
 7518SOL     OW23452   4.710   2.667   3.858
 7518SOL    HW123453   4.651   2.632   3.786
 7518SOL    HW223454   4.712   2.766   3.854
 7519SOL     OW23455   5.216   0.197   4.413
 7519SOL    HW123456   5.260   0.110   4.437
 7519SOL    HW223457   5.279   0.273   4.432
 7520SOL     OW23458   1.239   1.614   2.571
 7520SOL    HW123459   1.172   1.667   2.520
 7520SOL    HW223460   1.192   1.557   2.639
 7521SOL     OW23461   4.813   1.950   4.697
 7521SOL    HW123462   4.803   2.031   4.640
 7521SOL    HW223463   4.801   1.868   4.641
 7522SOL     OW23464   0.982   6.900   4.729
 7522SOL    HW123465   1.068   6.940   4.700
 7522SOL    HW223466   0.922   6.887   4.650
 7523SOL     OW23467   4.932   0.752   6.145
 7523SOL    HW123468   4.920   0.849   6.125
 7523SOL    HW223469   5.029   0.734   6.163
 7524SOL     OW23470   0.106   2.724   4.768
 7524SOL    HW123471   0.057   2.794   4.717
 7524SOL    HW223472   0.194   2.706   4.724
 7525SOL     OW23473   4.000   6.530   6.971
 7525SOL    HW123474   4.069   6.486   6.914
 7525SOL    HW223475   3.988   6.625   6.943
 7526SOL     OW23476   2.173   3.011   1.871
 7526SOL    HW123477   2.162   3.104   1.905
 7526SOL    HW223478   2.085   2.974   1.843
 7527SOL     OW23479   3.402   5.741   4.026
 7527SOL    HW123480   3.379   5.655   3.982
 7527SOL    HW223481   3.452   5.800   3.962
 7528SOL     OW23482   5.384   1.804   6.947
 7528SOL    HW123483   5.334   1.728   6.905
 7528SOL    HW223484   5.390   1.880   6.882
 7529SOL     OW23485   5.583   1.731   3.562
 7529SOL    HW123486   5.607   1.646   3.515
 7529SOL    HW223487   5.617   1.809   3.509
 7530SOL     OW23488   6.657   1.530   2.260
 7530SOL    HW123489   6.650   1.598   2.188
 7530SOL    HW223490   6.568   1.517   2.303
 7531SOL     OW23491   4.852   3.081   3.366
 7531SOL    HW123492   4.881   3.166   3.410
 7531SOL    HW223493   4.856   3.093   3.266
 7532SOL     OW23494   4.643   6.038   6.400
 7532SOL    HW123495   4.735   6.017   6.368
 7532SOL    HW223496   4.576   5.993   6.342
 7533SOL     OW23497   4.352   2.794   1.717
 7533SOL    HW123498   4.443   2.826   1.690
 7533SOL    HW223499   4.285   2.865   1.694
 7534SOL     OW23500   5.038   6.726   4.540
 7534SOL    HW123501   5.023   6.688   4.448
 7534SOL    HW223502   5.129   6.702   4.572
 7535SOL     OW23503   1.383   6.612   5.044
 7535SOL    HW123504   1.453   6.651   4.984
 7535SOL    HW223505   1.302   6.671   5.044
 7536SOL     OW23506   5.292   6.011   3.902
 7536SOL    HW123507   5.294   5.947   3.979
 7536SOL    HW223508   5.385   6.041   3.881
 7537SOL     OW23509   1.780   5.459   2.136
 7537SOL    HW123510   1.832   5.429   2.056
 7537SOL    HW223511   1.830   5.436   2.219
 7538SOL     OW23512   1.254   2.883   1.630
 7538SOL    HW123513   1.215   2.888   1.722
 7538SOL    HW223514   1.344   2.926   1.629
 7539SOL     OW23515   1.408   5.035   3.151
 7539SOL    HW123516   1.490   4.986   3.122
 7539SOL    HW223517   1.352   4.974   3.207
 7540SOL     OW23518   5.076   6.015   4.555
 7540SOL    HW123519   5.036   5.947   4.494
 7540SOL    HW223520   5.004   6.078   4.587
 7541SOL     OW23521   0.514   4.098   6.713
 7541SOL    HW123522   0.442   4.167   6.702
 7541SOL    HW223523   0.477   4.017   6.758
 7542SOL     OW23524   6.795   5.693   5.303
 7542SOL    HW123525   6.832   5.701   5.210
 7542SOL    HW223526   6.702   5.730   5.305
 7543SOL     OW23527   2.905   0.574   4.890
 7543SOL    HW123528   2.896   0.658   4.837
 7543SOL    HW223529   2.952   0.505   4.836
 7544SOL     OW23530   0.252   2.479   4.342
 7544SOL    HW123531   0.267   2.381   4.333
 7544SOL    HW223532   0.172   2.495   4.400
 7545SOL     OW23533   0.373   5.964   6.315
 7545SOL    HW123534   0.314   5.933   6.241
 7545SOL    HW223535   0.454   6.009   6.276
 7546SOL     OW23536   4.450   2.358   1.911
 7546SOL    HW123537   4.392   2.428   1.868
 7546SOL    HW223538   4.393   2.282   1.942
 7547SOL     OW23539   4.695   0.658   1.487
 7547SOL    HW123540   4.734   0.567   1.471
 7547SOL    HW223541   4.700   0.711   1.403
 7548SOL     OW23542   4.322   2.061   6.828
 7548SOL    HW123543   4.358   2.002   6.901
 7548SOL    HW223544   4.235   2.101   6.857
 7549SOL     OW23545   3.633   2.434   6.444
 7549SOL    HW123546   3.693   2.355   6.434
 7549SOL    HW223547   3.626   2.482   6.357
 7550SOL     OW23548   1.867   4.394   3.675
 7550SOL    HW123549   1.845   4.427   3.583
 7550SOL    HW223550   1.846   4.297   3.681
 7551SOL     OW23551   4.874   2.967   5.470
 7551SOL    HW123552   4.927   3.031   5.414
 7551SOL    HW223553   4.904   2.873   5.452
 7552SOL     OW23554   1.758   5.747   4.880
 7552SOL    HW123555   1.819   5.788   4.812
 7552SOL    HW223556   1.767   5.796   4.966
 7553SOL     OW23557   6.191   6.049   5.961
 7553SOL    HW123558   6.134   6.130   5.953
 7553SOL    HW223559   6.136   5.972   5.993
 7554SOL     OW23560   5.452   1.100   0.752
 7554SOL    HW123561   5.482   1.145   0.668
 7554SOL    HW223562   5.401   1.166   0.808
 7555SOL     OW23563   3.203   6.326   6.173
 7555SOL    HW123564   3.301   6.321   6.192
 7555SOL    HW223565   3.164   6.405   6.220
 7556SOL     OW23566   0.904   1.476   0.524
 7556SOL    HW123567   0.863   1.414   0.591
 7556SOL    HW223568   0.983   1.521   0.565
 7557SOL     OW23569   4.810   0.354   0.235
 7557SOL    HW123570   4.832   0.404   0.319
 7557SOL    HW223571   4.819   0.256   0.251
 7558SOL     OW23572   1.387   2.629   3.557
 7558SOL    HW123573   1.371   2.643   3.460
 7558SOL    HW223574   1.350   2.540   3.585
 7559SOL     OW23575   3.894   2.245   5.272
 7559SOL    HW123576   3.885   2.153   5.308
 7559SOL    HW223577   3.944   2.302   5.337
 7560SOL     OW23578   6.024   0.088   0.222
 7560SOL    HW123579   6.017   0.040   0.135
 7560SOL    HW223580   6.116   0.075   0.259
 7561SOL     OW23581   5.189   2.996   5.644
 7561SOL    HW123582   5.144   3.080   5.616
 7561SOL    HW223583   5.288   3.010   5.646
 7562SOL     OW23584   1.165   4.833   4.771
 7562SOL    HW123585   1.203   4.745   4.744
 7562SOL    HW223586   1.067   4.834   4.754
 7563SOL     OW23587   2.797   6.440   2.516
 7563SOL    HW123588   2.723   6.458   2.581
 7563SOL    HW223589   2.801   6.342   2.497
 7564SOL     OW23590   4.394   0.607   4.916
 7564SOL    HW123591   4.324   0.664   4.873
 7564SOL    HW223592   4.397   0.628   5.014
 7565SOL     OW23593   5.909   4.176   6.003
 7565SOL    HW123594   5.988   4.191   6.063
 7565SOL    HW223595   5.940   4.147   5.913
 7566SOL     OW23596   5.625   4.910   2.515
 7566SOL    HW123597   5.699   4.869   2.568
 7566SOL    HW223598   5.616   4.863   2.427
 7567SOL     OW23599   1.160   1.686   4.728
 7567SOL    HW123600   1.162   1.682   4.828
 7567SOL    HW223601   1.120   1.602   4.692
 7568SOL     OW23602   5.722   5.636   2.297
 7568SOL    HW123603   5.767   5.553   2.264
 7568SOL    HW223604   5.792   5.703   2.323
 7569SOL     OW23605   3.781   4.699   6.607
 7569SOL    HW123606   3.813   4.791   6.628
 7569SOL    HW223607   3.831   4.633   6.663
 7570SOL     OW23608   0.300   2.565   3.502
 7570SOL    HW123609   0.363   2.542   3.575
 7570SOL    HW223610   0.206   2.544   3.531
 7571SOL     OW23611   5.350   3.205   3.146
 7571SOL    HW123612   5.446   3.191   3.120
 7571SOL    HW223613   5.316   3.124   3.194
 7572SOL     OW23614   4.775   6.817   2.965
 7572SOL    HW123615   4.831   6.884   3.013
 7572SOL    HW223616   4.834   6.755   2.913
 7573SOL     OW23617   5.842   0.572   6.038
 7573SOL    HW123618   5.797   0.641   5.981
 7573SOL    HW223619   5.941   0.575   6.022
 7574SOL     OW23620   5.809   1.551   4.135
 7574SOL    HW123621   5.828   1.645   4.164
 7574SOL    HW223622   5.826   1.489   4.211
 7575SOL     OW23623   6.054   6.437   0.865
 7575SOL    HW123624   6.127   6.381   0.906
 7575SOL    HW223625   6.025   6.506   0.931
 7576SOL     OW23626   4.770   2.629   0.778
 7576SOL    HW123627   4.787   2.554   0.842
 7576SOL    HW223628   4.784   2.596   0.685
 7577SOL     OW23629   0.055   6.513   7.014
 7577SOL    HW123630   0.019   6.424   0.019
 7577SOL    HW223631   0.121   6.545   0.060
 7578SOL     OW23632   0.741   5.404   2.330
 7578SOL    HW123633   0.737   5.370   2.236
 7578SOL    HW223634   0.648   5.416   2.365
 7579SOL     OW23635   6.685   1.723   1.374
 7579SOL    HW123636   6.680   1.785   1.295
 7579SOL    HW223637   6.674   1.775   1.458
 7580SOL     OW23638   1.640   4.601   3.449
 7580SOL    HW123639   1.615   4.666   3.377
 7580SOL    HW223640   1.563   4.590   3.512
 7581SOL     OW23641   0.791   1.162   1.220
 7581SOL    HW123642   0.697   1.195   1.226
 7581SOL    HW223643   0.844   1.223   1.162
 7582SOL     OW23644   4.601   1.482   4.131
 7582SOL    HW123645   4.590   1.402   4.191
 7582SOL    HW223646   4.592   1.565   4.186
 7583SOL     OW23647   5.525   3.590   3.428
 7583SOL    HW123648   5.428   3.574   3.442
 7583SOL    HW223649   5.545   3.588   3.330
 7584SOL     OW23650   0.872   6.711   2.431
 7584SOL    HW123651   0.901   6.630   2.481
 7584SOL    HW223652   0.773   6.720   2.435
 7585SOL     OW23653   1.191   1.903   6.853
 7585SOL    HW123654   1.126   1.919   6.927
 7585SOL    HW223655   1.246   1.985   6.838
 7586SOL     OW23656   1.287   0.474   1.971
 7586SOL    HW123657   1.352   0.528   2.025
 7586SOL    HW223658   1.317   0.472   1.875
 7587SOL     OW23659   3.210   1.098   0.594
 7587SOL    HW123660   3.153   1.024   0.557
 7587SOL    HW223661   3.265   1.138   0.522
 7588SOL     OW23662   1.389   2.661   4.151
 7588SOL    HW123663   1.399   2.718   4.070
 7588SOL    HW223664   1.479   2.647   4.193
 7589SOL     OW23665   0.306   1.424   3.188
 7589SOL    HW123666   0.221   1.400   3.234
 7589SOL    HW223667   0.309   1.523   3.173
 7590SOL     OW23668   6.354   1.797   6.798
 7590SOL    HW123669   6.378   1.829   6.889
 7590SOL    HW223670   6.258   1.772   6.795
 7591SOL     OW23671   4.774   2.761   6.835
 7591SOL    HW123672   4.743   2.747   6.741
 7591SOL    HW223673   4.758   2.678   6.888
 7592SOL     OW23674   6.012   4.538   4.820
 7592SOL    HW123675   6.069   4.485   4.883
 7592SOL    HW223676   6.053   4.628   4.805
 7593SOL     OW23677   6.624   2.432   6.112
 7593SOL    HW123678   6.651   2.336   6.116
 7593SOL    HW223679   6.535   2.440   6.068
 7594SOL     OW23680   0.885   4.681   1.350
 7594SOL    HW123681   0.949   4.757   1.356
 7594SOL    HW223682   0.794   4.716   1.328
 7595SOL     OW23683   6.763   3.135   6.179
 7595SOL    HW123684   6.827   3.104   6.249
 7595SOL    HW223685   6.755   3.066   6.108
 7596SOL     OW23686   3.150   0.495   5.032
 7596SOL    HW123687   3.221   0.459   4.972
 7596SOL    HW223688   3.191   0.559   5.098
 7597SOL     OW23689   2.196   6.072   2.568
 7597SOL    HW123690   2.188   5.994   2.630
 7597SOL    HW223691   2.107   6.116   2.558
 7598SOL     OW23692   5.817   0.334   2.864
 7598SOL    HW123693   5.843   0.238   2.877
 7598SOL    HW223694   5.735   0.339   2.808
 7599SOL     OW23695   4.658   3.492   1.251
 7599SOL    HW123696   4.648   3.421   1.181
 7599SOL    HW223697   4.597   3.473   1.328
 7600SOL     OW23698   1.663   1.121   3.679
 7600SOL    HW123699   1.754   1.155   3.705
 7600SOL    HW223700   1.625   1.179   3.607
 7601SOL     OW23701   3.184   5.285   1.771
 7601SOL    HW123702   3.086   5.302   1.782
 7601SOL    HW223703   3.232   5.308   1.856
 7602SOL     OW23704   0.126   2.539   6.914
 7602SOL    HW123705   0.063   2.606   6.873
 7602SOL    HW223706   0.189   2.586   6.976
 7603SOL     OW23707   2.311   6.763   5.791
 7603SOL    HW123708   2.389   6.792   5.847
 7603SOL    HW223709   2.343   6.726   5.705
 7604SOL     OW23710   1.537   2.118   5.172
 7604SOL    HW123711   1.440   2.130   5.152
 7604SOL    HW223712   1.582   2.071   5.096
 7605SOL     OW23713   1.240   0.357   0.245
 7605SOL    HW123714   1.230   0.287   0.316
 7605SOL    HW223715   1.288   0.436   0.283
 7606SOL     OW23716   5.862   2.139   4.724
 7606SOL    HW123717   5.766   2.159   4.708
 7606SOL    HW223718   5.892   2.064   4.665
 7607SOL     OW23719   3.830   5.739   0.523
 7607SOL    HW123720   3.757   5.803   0.548
 7607SOL    HW223721   3.849   5.678   0.600
 7608SOL     OW23722   5.580   2.838   6.343
 7608SOL    HW123723   5.579   2.937   6.330
 7608SOL    HW223724   5.567   2.793   6.254
 7609SOL     OW23725   0.433   3.365   3.820
 7609SOL    HW123726   0.512   3.423   3.799
 7609SOL    HW223727   0.464   3.271   3.834
 7610SOL     OW23728   3.492   5.315   6.657
 7610SOL    HW123729   3.418   5.374   6.626
 7610SOL    HW223730   3.543   5.360   6.730
 7611SOL     OW23731   4.858   3.804   1.482
 7611SOL    HW123732   4.827   3.760   1.397
 7611SOL    HW223733   4.786   3.798   1.551
 7612SOL     OW23734   3.700   1.918   2.891
 7612SOL    HW123735   3.766   1.991   2.873
 7612SOL    HW223736   3.748   1.831   2.899
 7613SOL     OW23737   1.029   2.350   2.039
 7613SOL    HW123738   0.946   2.405   2.053
 7613SOL    HW223739   1.087   2.395   1.970
 7614SOL     OW23740   5.194   3.537   1.245
 7614SOL    HW123741   5.109   3.588   1.262
 7614SOL    HW223742   5.272   3.598   1.257
 7615SOL     OW23743   5.735   3.628   5.535
 7615SOL    HW123744   5.750   3.549   5.595
 7615SOL    HW223745   5.673   3.692   5.580
 7616SOL     OW23746   5.947   0.041   3.420
 7616SOL    HW123747   6.040   0.054   3.455
 7616SOL    HW223748   5.947   0.052   3.321
 7617SOL     OW23749   5.094   4.821   3.262
 7617SOL    HW123750   5.132   4.909   3.292
 7617SOL    HW223751   5.093   4.757   3.339
 7618SOL     OW23752   1.447   2.675   0.142
 7618SOL    HW123753   1.484   2.619   0.216
 7618SOL    HW223754   1.521   2.700   0.079
 7619SOL     OW23755   0.341   2.560   4.111
 7619SOL    HW123756   0.306   2.524   4.197
 7619SOL    HW223757   0.377   2.485   4.055
 7620SOL     OW23758   3.514   4.299   0.196
 7620SOL    HW123759   3.598   4.267   0.152
 7620SOL    HW223760   3.461   4.353   0.131
 7621SOL     OW23761   0.173   6.229   0.728
 7621SOL    HW123762   0.206   6.323   0.714
 7621SOL    HW223763   0.077   6.231   0.756
 7622SOL     OW23764   4.223   4.420   0.220
 7622SOL    HW123765   4.210   4.341   0.159
 7622SOL    HW223766   4.315   4.416   0.260
 7623SOL     OW23767   4.228   4.583   1.299
 7623SOL    HW123768   4.148   4.578   1.359
 7623SOL    HW223769   4.308   4.548   1.348
 7624SOL     OW23770   0.337   2.673   2.420
 7624SOL    HW123771   0.396   2.616   2.477
 7624SOL    HW223772   0.349   2.769   2.445
 7625SOL     OW23773   5.636   2.127   0.240
 7625SOL    HW123774   5.697   2.193   0.196
 7625SOL    HW223775   5.684   2.040   0.251
 7626SOL     OW23776   6.274   0.756   5.746
 7626SOL    HW123777   6.295   0.726   5.653
 7626SOL    HW223778   6.354   0.801   5.785
 7627SOL     OW23779   3.670   2.074   0.165
 7627SOL    HW123780   3.571   2.091   0.162
 7627SOL    HW223781   3.691   1.987   0.120
 7628SOL     OW23782   3.806   2.947   1.036
 7628SOL    HW123783   3.802   3.047   1.037
 7628SOL    HW223784   3.890   2.918   0.989
 7629SOL     OW23785   6.125   3.419   4.211
 7629SOL    HW123786   6.212   3.375   4.233
 7629SOL    HW223787   6.086   3.377   4.129
 7630SOL     OW23788   1.274   6.803   5.736
 7630SOL    HW123789   1.181   6.784   5.706
 7630SOL    HW223790   1.276   6.814   5.835
 7631SOL     OW23791   2.080   0.076   4.986
 7631SOL    HW123792   2.041   0.041   5.071
 7631SOL    HW223793   2.040   0.027   4.909
 7632SOL     OW23794   4.149   5.264   1.278
 7632SOL    HW123795   4.235   5.313   1.261
 7632SOL    HW223796   4.169   5.170   1.306
 7633SOL     OW23797   6.000   0.136   1.800
 7633SOL    HW123798   6.036   0.055   1.847
 7633SOL    HW223799   5.934   0.182   1.859
 7634SOL     OW23800   1.382   1.964   1.089
 7634SOL    HW123801   1.308   2.013   1.135
 7634SOL    HW223802   1.430   1.907   1.156
 7635SOL     OW23803   2.643   5.121   4.674
 7635SOL    HW123804   2.725   5.103   4.620
 7635SOL    HW223805   2.602   5.034   4.703
 7636SOL     OW23806   0.324   4.547   4.246
 7636SOL    HW123807   0.332   4.464   4.191
 7636SOL    HW223808   0.382   4.619   4.207
 7637SOL     OW23809   0.776   6.252   3.888
 7637SOL    HW123810   0.721   6.177   3.852
 7637SOL    HW223811   0.742   6.339   3.851
 7638SOL     OW23812   0.967   5.503   1.518
 7638SOL    HW123813   0.992   5.428   1.456
 7638SOL    HW223814   0.964   5.589   1.466
 7639SOL     OW23815   0.159   0.861   0.286
 7639SOL    HW123816   0.157   0.827   0.192
 7639SOL    HW223817   0.071   0.843   0.329
 7640SOL     OW23818   3.490   1.632   6.582
 7640SOL    HW123819   3.460   1.538   6.600
 7640SOL    HW223820   3.584   1.643   6.615
 7641SOL     OW23821   6.807   3.856   3.149
 7641SOL    HW123822   6.755   3.788   3.201
 7641SOL    HW223823   6.871   3.810   3.088
 7642SOL     OW23824   5.777   1.260   2.796
 7642SOL    HW123825   5.710   1.187   2.780
 7642SOL    HW223826   5.729   1.342   2.828
 7643SOL     OW23827   5.275   1.860   2.988
 7643SOL    HW123828   5.257   1.878   2.892
 7643SOL    HW223829   5.336   1.781   2.997
 7644SOL     OW23830   4.961   3.176   2.216
 7644SOL    HW123831   4.901   3.167   2.136
 7644SOL    HW223832   5.003   3.088   2.236
 7645SOL     OW23833   3.421   3.752   5.351
 7645SOL    HW123834   3.343   3.752   5.413
 7645SOL    HW223835   3.447   3.657   5.330
 7646SOL     OW23836   0.726   2.697   2.825
 7646SOL    HW123837   0.671   2.676   2.907
 7646SOL    HW223838   0.817   2.726   2.854
 7647SOL     OW23839   0.333   2.838   4.434
 7647SOL    HW123840   0.388   2.897   4.375
 7647SOL    HW223841   0.382   2.753   4.452
 7648SOL     OW23842   2.137   2.033   3.104
 7648SOL    HW123843   2.068   1.963   3.090
 7648SOL    HW223844   2.214   1.994   3.155
 7649SOL     OW23845   0.548   1.230   4.983
 7649SOL    HW123846   0.539   1.321   4.943
 7649SOL    HW223847   0.601   1.172   4.921
 7650SOL     OW23848   4.568   1.210   1.067
 7650SOL    HW123849   4.481   1.221   1.019
 7650SOL    HW223850   4.624   1.292   1.053
 7651SOL     OW23851   2.221   5.289   4.684
 7651SOL    HW123852   2.177   5.200   4.674
 7651SOL    HW223853   2.316   5.283   4.651
 7652SOL     OW23854   5.923   2.427   4.838
 7652SOL    HW123855   5.914   2.363   4.761
 7652SOL    HW223856   5.968   2.511   4.807
 7653SOL     OW23857   0.720   1.367   6.849
 7653SOL    HW123858   0.621   1.374   6.847
 7653SOL    HW223859   0.755   1.400   6.937
 7654SOL     OW23860   5.669   2.690   4.720
 7654SOL    HW123861   5.736   2.672   4.793
 7654SOL    HW223862   5.604   2.615   4.716
 7655SOL     OW23863   3.322   0.343   3.448
 7655SOL    HW123864   3.287   0.433   3.423
 7655SOL    HW223865   3.421   0.339   3.431
 7656SOL     OW23866   6.347   3.338   5.746
 7656SOL    HW123867   6.333   3.372   5.839
 7656SOL    HW223868   6.358   3.239   5.747
 7657SOL     OW23869   1.691   3.791   4.686
 7657SOL    HW123870   1.691   3.887   4.714
 7657SOL    HW223871   1.773   3.772   4.631
 7658SOL     OW23872   2.882   0.743   0.901
 7658SOL    HW123873   2.922   0.657   0.870
 7658SOL    HW223874   2.950   0.795   0.952
 7659SOL     OW23875   4.563   3.985   5.940
 7659SOL    HW123876   4.475   3.987   5.987
 7659SOL    HW223877   4.589   3.890   5.924
 7660SOL     OW23878   6.815   5.942   4.759
 7660SOL    HW123879   6.795   6.016   4.694
 7660SOL    HW223880   6.732   5.919   4.810
 7661SOL     OW23881   4.587   2.270   6.460
 7661SOL    HW123882   4.666   2.214   6.435
 7661SOL    HW223883   4.602   2.311   6.549
 7662SOL     OW23884   0.794   1.956   2.774
 7662SOL    HW123885   0.884   1.962   2.731
 7662SOL    HW223886   0.749   2.045   2.771
 7663SOL     OW23887   5.823   5.748   6.149
 7663SOL    HW123888   5.727   5.775   6.152
 7663SOL    HW223889   5.832   5.653   6.178
 7664SOL     OW23890   4.405   1.134   3.023
 7664SOL    HW123891   4.402   1.035   3.007
 7664SOL    HW223892   4.319   1.175   2.994
 7665SOL     OW23893   5.425   2.276   3.727
 7665SOL    HW123894   5.445   2.327   3.811
 7665SOL    HW223895   5.436   2.178   3.744
 7666SOL     OW23896   6.326   6.306   3.884
 7666SOL    HW123897   6.417   6.321   3.845
 7666SOL    HW223898   6.321   6.349   3.974
 7667SOL     OW23899   4.626   6.777   1.985
 7667SOL    HW123900   4.618   6.694   2.039
 7667SOL    HW223901   4.541   6.794   1.936
 7668SOL     OW23902   2.720   4.939   1.079
 7668SOL    HW123903   2.809   4.952   1.036
 7668SOL    HW223904   2.657   4.899   1.013
 7669SOL     OW23905   3.768   0.120   6.221
 7669SOL    HW123906   3.832   0.103   6.145
 7669SOL    HW223907   3.772   0.217   6.247
 7670SOL     OW23908   0.771   6.569   0.303
 7670SOL    HW123909   0.691   6.618   0.267
 7670SOL    HW223910   0.845   6.574   0.236
 7671SOL     OW23911   5.290   6.926   2.402
 7671SOL    HW123912   5.243   7.005   2.362
 7671SOL    HW223913   5.242   6.897   2.484
 7672SOL     OW23914   6.715   4.544   3.180
 7672SOL    HW123915   6.723   4.456   3.132
 7672SOL    HW223916   6.661   4.532   3.263
 7673SOL     OW23917   1.170   5.586   2.850
 7673SOL    HW123918   1.209   5.549   2.934
 7673SOL    HW223919   1.242   5.630   2.795
 7674SOL     OW23920   3.976   0.891   4.310
 7674SOL    HW123921   4.027   0.903   4.395
 7674SOL    HW223922   3.916   0.812   4.317
 7675SOL     OW23923   3.159   6.677   3.401
 7675SOL    HW123924   3.078   6.637   3.446
 7675SOL    HW223925   3.227   6.606   3.386
 7676SOL     OW23926   3.148   2.780   6.188
 7676SOL    HW123927   3.111   2.710   6.127
 7676SOL    HW223928   3.073   2.836   6.223
 7677SOL     OW23929   6.869   4.860   1.292
 7677SOL    HW123930   6.829   4.834   1.380
 7677SOL    HW223931   6.933   4.789   1.262
 7678SOL     OW23932   1.537   2.066   5.452
 7678SOL    HW123933   1.476   1.998   5.413
 7678SOL    HW223934   1.602   2.097   5.382
 7679SOL     OW23935   2.024   5.117   5.547
 7679SOL    HW123936   2.054   5.167   5.628
 7679SOL    HW223937   2.042   5.173   5.465
 7680SOL     OW23938   1.432   0.089   5.414
 7680SOL    HW123939   1.365   0.049   5.351
 7680SOL    HW223940   1.487   0.157   5.364
 7681SOL     OW23941   2.992   2.118   6.611
 7681SOL    HW123942   2.933   2.179   6.560
 7681SOL    HW223943   2.937   2.045   6.653
 7682SOL     OW23944   3.218   1.836   2.920
 7682SOL    HW123945   3.274   1.919   2.924
 7682SOL    HW223946   3.121   1.862   2.919
 7683SOL     OW23947   0.336   1.211   4.608
 7683SOL    HW123948   0.296   1.247   4.692
 7683SOL    HW223949   0.346   1.284   4.541
 7684SOL     OW23950   4.058   1.960   1.716
 7684SOL    HW123951   4.002   2.009   1.784
 7684SOL    HW223952   4.099   2.027   1.654
 7685SOL     OW23953   4.033   1.559   6.847
 7685SOL    HW123954   3.934   1.554   6.859
 7685SOL    HW223955   4.060   1.654   6.830
 7686SOL     OW23956   4.841   0.316   4.622
 7686SOL    HW123957   4.750   0.316   4.579
 7686SOL    HW223958   4.880   0.408   4.616
 7687SOL     OW23959   5.160   5.561   4.933
 7687SOL    HW123960   5.078   5.505   4.939
 7687SOL    HW223961   5.135   5.655   4.908
 7688SOL     OW23962   0.333   5.384   5.580
 7688SOL    HW123963   0.246   5.335   5.573
 7688SOL    HW223964   0.389   5.365   5.500
 7689SOL     OW23965   4.793   0.595   1.899
 7689SOL    HW123966   4.806   0.664   1.827
 7689SOL    HW223967   4.739   0.634   1.974
 7690SOL     OW23968   5.610   5.067   0.230
 7690SOL    HW123969   5.677   4.995   0.245
 7690SOL    HW223970   5.522   5.027   0.205
 7691SOL     OW23971   4.659   4.753   2.213
 7691SOL    HW123972   4.616   4.677   2.165
 7691SOL    HW223973   4.711   4.718   2.290
 7692SOL     OW23974   1.050   6.072   1.352
 7692SOL    HW123975   0.964   6.107   1.316
 7692SOL    HW223976   1.101   6.027   1.279
 7693SOL     OW23977   3.253   0.661   1.048
 7693SOL    HW123978   3.228   0.640   0.954
 7693SOL    HW223979   3.337   0.715   1.049
 7694SOL     OW23980   5.592   2.388   4.428
 7694SOL    HW123981   5.620   2.335   4.508
 7694SOL    HW223982   5.497   2.368   4.407
 7695SOL     OW23983   6.245   0.111   2.477
 7695SOL    HW123984   6.329   0.151   2.512
 7695SOL    HW223985   6.172   0.180   2.482
 7696SOL     OW23986   0.366   1.998   6.105
 7696SOL    HW123987   0.382   1.989   6.007
 7696SOL    HW223988   0.283   1.949   6.130
 7697SOL     OW23989   3.436   0.285   2.899
 7697SOL    HW123990   3.442   0.185   2.908
 7697SOL    HW223991   3.524   0.320   2.866
 7698SOL     OW23992   6.068   2.828   6.410
 7698SOL    HW123993   6.126   2.891   6.461
 7698SOL    HW223994   6.116   2.795   6.329
 7699SOL     OW23995   2.269   5.219   7.009
 7699SOL    HW123996   2.348   5.159   7.000
 7699SOL    HW223997   2.260   5.274   6.926
 7700SOL     OW23998   4.545   6.288   3.145
 7700SOL    HW123999   4.619   6.227   3.174
 7700SOL    HW224000   4.525   6.354   3.218
 7701SOL     OW24001   0.022   1.698   6.057
 7701SOL    HW124002   6.981   1.623   6.076
 7701SOL    HW224003   0.014   1.767   6.128
 7702SOL     OW24004   4.819   0.184   6.093
 7702SOL    HW124005   4.724   0.213   6.076
 7702SOL    HW224006   4.822   0.085   6.102
 7703SOL     OW24007   6.361   0.532   4.961
 7703SOL    HW124008   6.395   0.479   4.883
 7703SOL    HW224009   6.391   0.489   5.046
 7704SOL     OW24010   6.870   1.432   4.115
 7704SOL    HW124011   6.910   1.518   4.084
 7704SOL    HW224012   6.793   1.407   4.057
 7705SOL     OW24013   2.156   5.047   0.682
 7705SOL    HW124014   2.063   5.080   0.662
 7705SOL    HW224015   2.152   4.950   0.707
 7706SOL     OW24016   3.627   2.983   3.190
 7706SOL    HW124017   3.588   2.953   3.276
 7706SOL    HW224018   3.660   3.077   3.199
 7707SOL     OW24019   7.020   5.420   6.500
 7707SOL    HW124020   6.988   5.499   6.448
 7707SOL    HW224021   0.020   5.447   6.593
 7708SOL     OW24022   1.587   6.858   3.840
 7708SOL    HW124023   1.654   6.816   3.779
 7708SOL    HW224024   1.573   6.954   3.812
 7709SOL     OW24025   6.846   5.115   1.230
 7709SOL    HW124026   6.848   5.016   1.244
 7709SOL    HW224027   6.752   5.148   1.242
 7710SOL     OW24028   1.662   2.803   0.707
 7710SOL    HW124029   1.636   2.868   0.778
 7710SOL    HW224030   1.602   2.814   0.628
 7711SOL     OW24031   6.244   5.498   5.662
 7711SOL    HW124032   6.177   5.557   5.708
 7711SOL    HW224033   6.312   5.555   5.616
 7712SOL     OW24034   6.432   4.408   6.115
 7712SOL    HW124035   6.450   4.313   6.089
 7712SOL    HW224036   6.346   4.414   6.164
 7713SOL     OW24037   1.754   4.225   0.728
 7713SOL    HW124038   1.820   4.223   0.803
 7713SOL    HW224039   1.663   4.244   0.763
 7714SOL     OW24040   0.069   0.095   4.672
 7714SOL    HW124041   0.033   0.095   4.765
 7714SOL    HW224042   0.097   0.187   4.646
 7715SOL     OW24043   2.205   2.910   6.107
 7715SOL    HW124044   2.147   2.846   6.056
 7715SOL    HW224045   2.301   2.887   6.093
 7716SOL     OW24046   0.863   4.922   6.629
 7716SOL    HW124047   0.878   4.946   6.533
 7716SOL    HW224048   0.809   4.838   6.635
 7717SOL     OW24049   1.379   2.155   5.652
 7717SOL    HW124050   1.394   2.111   5.741
 7717SOL    HW224051   1.453   2.129   5.590
 7718SOL     OW24052   0.419   3.285   2.362
 7718SOL    HW124053   0.400   3.324   2.273
 7718SOL    HW224054   0.493   3.218   2.354
 7719SOL     OW24055   1.653   4.194   4.571
 7719SOL    HW124056   1.701   4.202   4.658
 7719SOL    HW224057   1.670   4.104   4.531
 7720SOL     OW24058   5.983   2.166   6.265
 7720SOL    HW124059   5.884   2.180   6.267
 7720SOL    HW224060   6.022   2.189   6.354
 7721SOL     OW24061   1.402   0.663   2.403
 7721SOL    HW124062   1.323   0.723   2.395
 7721SOL    HW224063   1.373   0.573   2.437
 7722SOL     OW24064   2.339   5.061   4.100
 7722SOL    HW124065   2.340   5.076   4.199
 7722SOL    HW224066   2.319   5.148   4.054
 7723SOL     OW24067   5.118   3.040   6.863
 7723SOL    HW124068   5.091   3.099   6.788
 7723SOL    HW224069   5.090   2.946   6.844
 7724SOL     OW24070   3.219   3.934   1.019
 7724SOL    HW124071   3.294   3.885   1.064
 7724SOL    HW224072   3.174   3.874   0.955
 7725SOL     OW24073   5.965   2.499   2.548
 7725SOL    HW124074   5.912   2.580   2.522
 7725SOL    HW224075   5.945   2.476   2.643
 7726SOL     OW24076   1.111   2.886   6.096
 7726SOL    HW124077   1.161   2.914   6.178
 7726SOL    HW224078   1.048   2.959   6.070
 7727SOL     OW24079   5.265   2.218   1.866
 7727SOL    HW124080   5.239   2.292   1.928
 7727SOL    HW224081   5.342   2.168   1.905
 7728SOL     OW24082   2.175   2.679   5.294
 7728SOL    HW124083   2.243   2.692   5.222
 7728SOL    HW224084   2.180   2.755   5.359
 7729SOL     OW24085   6.400   1.696   2.182
 7729SOL    HW124086   6.353   1.676   2.096
 7729SOL    HW224087   6.361   1.641   2.255
 7730SOL     OW24088   5.516   4.679   5.154
 7730SOL    HW124089   5.558   4.660   5.065
 7730SOL    HW224090   5.561   4.758   5.196
 7731SOL     OW24091   5.909   0.243   0.598
 7731SOL    HW124092   5.843   0.303   0.553
 7731SOL    HW224093   5.867   0.202   0.679
 7732SOL     OW24094   4.224   0.306   0.037
 7732SOL    HW124095   4.251   0.304   6.963
 7732SOL    HW224096   4.202   0.213   0.067
 7733SOL     OW24097   6.496   5.774   2.744
 7733SOL    HW124098   6.580   5.733   2.707
 7733SOL    HW224099   6.513   5.804   2.838
 7734SOL     OW24100   2.537   4.607   4.985
 7734SOL    HW124101   2.637   4.610   4.988
 7734SOL    HW224102   2.507   4.574   4.896
 7735SOL     OW24103   6.508   6.417   0.321
 7735SOL    HW124104   6.555   6.439   0.407
 7735SOL    HW224105   6.448   6.338   0.335
 7736SOL     OW24106   2.823   2.707   0.516
 7736SOL    HW124107   2.875   2.623   0.530
 7736SOL    HW224108   2.807   2.752   0.604
 7737SOL     OW24109   3.732   5.262   1.495
 7737SOL    HW124110   3.637   5.236   1.511
 7737SOL    HW224111   3.785   5.247   1.578
 7738SOL     OW24112   2.870   5.931   6.820
 7738SOL    HW124113   2.883   5.939   6.721
 7738SOL    HW224114   2.871   5.835   6.846
 7739SOL     OW24115   1.209   2.480   1.863
 7739SOL    HW124116   1.240   2.539   1.938
 7739SOL    HW224117   1.260   2.502   1.780
 7740SOL     OW24118   2.110   0.802   2.624
 7740SOL    HW124119   2.024   0.753   2.636
 7740SOL    HW224120   2.091   0.898   2.604
 7741SOL     OW24121   1.569   4.871   5.466
 7741SOL    HW124122   1.621   4.843   5.385
 7741SOL    HW224123   1.545   4.790   5.519
 7742SOL     OW24124   4.250   1.335   3.657
 7742SOL    HW124125   4.343   1.313   3.687
 7742SOL    HW224126   4.223   1.424   3.695
 7743SOL     OW24127   5.205   1.088   6.813
 7743SOL    HW124128   5.286   1.077   6.755
 7743SOL    HW224129   5.234   1.102   6.908
 7744SOL     OW24130   0.835   6.005   5.124
 7744SOL    HW124131   0.815   5.912   5.155
 7744SOL    HW224132   0.901   6.002   5.049
 7745SOL     OW24133   2.179   6.471   6.780
 7745SOL    HW124134   2.230   6.406   6.724
 7745SOL    HW224135   2.238   6.505   6.853
 7746SOL     OW24136   1.186   6.439   1.314
 7746SOL    HW124137   1.226   6.398   1.232
 7746SOL    HW224138   1.186   6.539   1.304
 7747SOL     OW24139   6.773   6.072   0.723
 7747SOL    HW124140   6.831   6.139   0.768
 7747SOL    HW224141   6.680   6.108   0.715
 7748SOL     OW24142   3.846   2.970   5.245
 7748SOL    HW124143   3.860   2.880   5.287
 7748SOL    HW224144   3.791   2.960   5.162
 7749SOL     OW24145   3.389   3.975   3.167
 7749SOL    HW124146   3.401   3.901   3.101
 7749SOL    HW224147   3.416   3.943   3.258
 7750SOL     OW24148   5.315   5.350   6.013
 7750SOL    HW124149   5.235   5.399   5.979
 7750SOL    HW224150   5.287   5.273   6.070
 7751SOL     OW24151   0.470   1.461   3.858
 7751SOL    HW124152   0.481   1.381   3.917
 7751SOL    HW224153   0.391   1.448   3.799
 7752SOL     OW24154   5.537   5.150   5.183
 7752SOL    HW124155   5.548   5.233   5.237
 7752SOL    HW224156   5.570   5.072   5.237
 7753SOL     OW24157   2.675   0.382   4.594
 7753SOL    HW124158   2.581   0.398   4.564
 7753SOL    HW224159   2.700   0.286   4.578
 7754SOL     OW24160   5.859   0.793   0.899
 7754SOL    HW124161   5.818   0.867   0.845
 7754SOL    HW224162   5.905   0.728   0.838
 7755SOL     OW24163   0.215   6.861   5.801
 7755SOL    HW124164   0.241   6.790   5.867
 7755SOL    HW224165   0.284   6.934   5.801
 7756SOL     OW24166   2.405   5.679   2.124
 7756SOL    HW124167   2.401   5.776   2.147
 7756SOL    HW224168   2.463   5.631   2.190
 7757SOL     OW24169   4.573   5.998   5.224
 7757SOL    HW124170   4.555   5.971   5.319
 7757SOL    HW224171   4.601   6.094   5.221
 7758SOL     OW24172   2.073   2.713   5.992
 7758SOL    HW124173   1.979   2.747   5.995
 7758SOL    HW224174   2.075   2.618   6.024
 7759SOL     OW24175   2.045   0.704   4.904
 7759SOL    HW124176   1.989   0.625   4.878
 7759SOL    HW224177   1.987   0.785   4.912
 7760SOL     OW24178   6.070   2.832   2.348
 7760SOL    HW124179   5.986   2.849   2.295
 7760SOL    HW224180   6.133   2.778   2.293
 7761SOL     OW24181   2.756   6.721   6.202
 7761SOL    HW124182   2.663   6.686   6.189
 7761SOL    HW224183   2.816   6.682   6.132
 7762SOL     OW24184   3.836   0.861   6.318
 7762SOL    HW124185   3.864   0.862   6.414
 7762SOL    HW224186   3.826   0.955   6.286
 7763SOL     OW24187   1.344   1.714   0.846
 7763SOL    HW124188   1.415   1.750   0.785
 7763SOL    HW224189   1.341   1.769   0.930
 7764SOL     OW24190   3.858   3.383   2.513
 7764SOL    HW124191   3.792   3.322   2.558
 7764SOL    HW224192   3.811   3.438   2.444
 7765SOL     OW24193   6.446   3.542   4.264
 7765SOL    HW124194   6.394   3.458   4.273
 7765SOL    HW224195   6.389   3.613   4.222
 7766SOL     OW24196   5.648   1.704   0.046
 7766SOL    HW124197   5.644   1.647   0.129
 7766SOL    HW224198   5.556   1.730   0.019
 7767SOL     OW24199   3.693   6.160   3.435
 7767SOL    HW124200   3.708   6.122   3.344
 7767SOL    HW224201   3.623   6.107   3.483
 7768SOL     OW24202   3.763   4.944   3.027
 7768SOL    HW124203   3.774   4.989   3.116
 7768SOL    HW224204   3.838   4.879   3.013
 7769SOL     OW24205   4.512   1.602   1.696
 7769SOL    HW124206   4.585   1.669   1.715
 7769SOL    HW224207   4.507   1.587   1.598
 7770SOL     OW24208   2.593   4.602   2.193
 7770SOL    HW124209   2.692   4.605   2.208
 7770SOL    HW224210   2.574   4.618   2.096
 7771SOL     OW24211   2.711   2.251   4.722
 7771SOL    HW124212   2.675   2.299   4.642
 7771SOL    HW224213   2.677   2.294   4.805
 7772SOL     OW24214   5.168   1.236   3.306
 7772SOL    HW124215   5.086   1.284   3.274
 7772SOL    HW224216   5.192   1.269   3.398
 7773SOL     OW24217   3.859   4.645   6.292
 7773SOL    HW124218   3.900   4.693   6.370
 7773SOL    HW224219   3.843   4.550   6.316
 7774SOL     OW24220   5.475   1.621   5.795
 7774SOL    HW124221   5.541   1.583   5.730
 7774SOL    HW224222   5.399   1.557   5.807
 7775SOL     OW24223   3.504   6.379   3.018
 7775SOL    HW124224   3.485   6.467   3.062
 7775SOL    HW224225   3.569   6.391   2.944
 7776SOL     OW24226   3.252   3.268   5.920
 7776SOL    HW124227   3.177   3.302   5.864
 7776SOL    HW224228   3.339   3.299   5.882
 7777SOL     OW24229   2.528   1.483   5.347
 7777SOL    HW124230   2.513   1.531   5.261
 7777SOL    HW224231   2.621   1.447   5.351
 7778SOL     OW24232   5.707   0.394   0.445
 7778SOL    HW124233   5.629   0.369   0.388
 7778SOL    HW224234   5.692   0.484   0.485
 7779SOL     OW24235   3.660   2.801   0.847
 7779SOL    HW124236   3.735   2.774   0.786
 7779SOL    HW224237   3.697   2.849   0.927
 7780SOL     OW24238   1.705   5.806   4.330
 7780SOL    HW124239   1.775   5.867   4.366
 7780SOL    HW224240   1.676   5.837   4.240
 7781SOL     OW24241   1.039   4.017   5.970
 7781SOL    HW124242   1.019   3.997   6.066
 7781SOL    HW224243   1.047   3.931   5.919
 7782SOL     OW24244   1.619   3.902   5.734
 7782SOL    HW124245   1.693   3.933   5.675
 7782SOL    HW224246   1.535   3.894   5.679
 7783SOL     OW24247   2.818   6.575   5.961
 7783SOL    HW124248   2.720   6.557   5.952
 7783SOL    HW224249   2.869   6.491   5.941
 7784SOL     OW24250   1.477   2.852   6.917
 7784SOL    HW124251   1.432   2.885   7.001
 7784SOL    HW224252   1.561   2.804   6.942
 7785SOL     OW24253   1.891   6.549   4.196
 7785SOL    HW124254   1.881   6.611   4.273
 7785SOL    HW224255   1.987   6.546   4.167
 7786SOL     OW24256   3.166   4.936   5.451
 7786SOL    HW124257   3.075   4.913   5.417
 7786SOL    HW224258   3.235   4.906   5.385
 7787SOL     OW24259   2.298   2.417   5.363
 7787SOL    HW124260   2.283   2.511   5.332
 7787SOL    HW224261   2.210   2.372   5.379
 7788SOL     OW24262   1.743   1.349   1.672
 7788SOL    HW124263   1.694   1.423   1.627
 7788SOL    HW224264   1.779   1.381   1.760
 7789SOL     OW24265   2.283   0.467   0.963
 7789SOL    HW124266   2.210   0.536   0.961
 7789SOL    HW224267   2.347   0.488   1.036
 7790SOL     OW24268   6.408   4.572   3.077
 7790SOL    HW124269   6.353   4.632   3.136
 7790SOL    HW224270   6.435   4.491   3.129
 7791SOL     OW24271   2.560   6.009   4.344
 7791SOL    HW124272   2.596   6.022   4.436
 7791SOL    HW224273   2.462   6.032   4.343
 7792SOL     OW24274   1.683   5.098   6.122
 7792SOL    HW124275   1.730   5.142   6.046
 7792SOL    HW224276   1.729   5.120   6.208
 7793SOL     OW24277   1.706   1.420   5.615
 7793SOL    HW124278   1.800   1.388   5.609
 7793SOL    HW224279   1.673   1.408   5.709
 7794SOL     OW24280   5.047   4.977   4.479
 7794SOL    HW124281   4.975   4.967   4.548
 7794SOL    HW224282   5.119   5.037   4.515
 7795SOL     OW24283   2.134   4.206   4.999
 7795SOL    HW124284   2.180   4.119   4.984
 7795SOL    HW224285   2.172   4.250   5.081
 7796SOL     OW24286   3.097   4.030   3.594
 7796SOL    HW124287   3.151   4.064   3.517
 7796SOL    HW224288   3.151   3.965   3.647
 7797SOL     OW24289   0.199   5.415   3.293
 7797SOL    HW124290   0.159   5.447   3.379
 7797SOL    HW224291   0.262   5.485   3.257
 7798SOL     OW24292   2.460   5.508   6.965
 7798SOL    HW124293   2.409   5.475   6.886
 7798SOL    HW224294   2.557   5.514   6.943
 7799SOL     OW24295   6.607   5.445   1.746
 7799SOL    HW124296   6.548   5.480   1.673
 7799SOL    HW224297   6.605   5.508   1.824
 7800SOL     OW24298   0.835   4.179   1.510
 7800SOL    HW124299   0.901   4.107   1.487
 7800SOL    HW224300   0.860   4.263   1.462
 7801SOL     OW24301   2.585   1.598   1.089
 7801SOL    HW124302   2.545   1.638   1.172
 7801SOL    HW224303   2.607   1.502   1.106
 7802SOL     OW24304   6.135   3.388   0.865
 7802SOL    HW124305   6.188   3.343   0.937
 7802SOL    HW224306   6.135   3.487   0.881
 7803SOL     OW24307   4.243   3.772   5.565
 7803SOL    HW124308   4.252   3.677   5.535
 7803SOL    HW224309   4.287   3.832   5.498
 7804SOL     OW24310   6.263   1.036   4.268
 7804SOL    HW124311   6.199   0.963   4.289
 7804SOL    HW224312   6.354   1.013   4.304
 7805SOL     OW24313   5.302   2.266   0.863
 7805SOL    HW124314   5.216   2.220   0.843
 7805SOL    HW224315   5.316   2.270   0.962
 7806SOL     OW24316   5.849   3.471   5.886
 7806SOL    HW124317   5.913   3.544   5.863
 7806SOL    HW224318   5.839   3.466   5.985
 7807SOL     OW24319   0.090   4.983   6.287
 7807SOL    HW124320   0.028   5.020   6.217
 7807SOL    HW224321   0.185   4.995   6.257
 7808SOL     OW24322   0.411   2.482   4.948
 7808SOL    HW124323   0.366   2.538   5.017
 7808SOL    HW224324   0.475   2.419   4.993
 7809SOL     OW24325   2.418   6.180   4.550
 7809SOL    HW124326   2.395   6.230   4.634
 7809SOL    HW224327   2.413   6.242   4.472
 7810SOL     OW24328   3.037   0.381   5.690
 7810SOL    HW124329   2.976   0.413   5.617
 7810SOL    HW224330   3.080   0.459   5.735
 7811SOL     OW24331   6.333   4.278   4.228
 7811SOL    HW124332   6.401   4.296   4.299
 7811SOL    HW224333   6.241   4.294   4.266
 7812SOL     OW24334   1.572   1.750   3.999
 7812SOL    HW124335   1.611   1.668   3.958
 7812SOL    HW224336   1.622   1.772   4.083
 7813SOL     OW24337   4.785   2.583   6.334
 7813SOL    HW124338   4.818   2.491   6.312
 7813SOL    HW224339   4.804   2.644   6.257
 7814SOL     OW24340   6.794   2.073   3.117
 7814SOL    HW124341   6.720   2.010   3.139
 7814SOL    HW224342   6.838   2.044   3.032
 7815SOL     OW24343   5.038   1.388   6.487
 7815SOL    HW124344   5.082   1.476   6.467
 7815SOL    HW224345   4.945   1.388   6.449
 7816SOL     OW24346   1.912   3.088   6.087
 7816SOL    HW124347   1.928   3.119   5.994
 7816SOL    HW224348   1.995   3.045   6.123
 7817SOL     OW24349   6.169   3.471   3.660
 7817SOL    HW124350   6.265   3.446   3.653
 7817SOL    HW224351   6.145   3.484   3.756
 7818SOL     OW24352   5.453   0.545   2.102
 7818SOL    HW124353   5.412   0.519   2.014
 7818SOL    HW224354   5.417   0.634   2.130
 7819SOL     OW24355   0.492   3.154   1.751
 7819SOL    HW124356   0.580   3.113   1.774
 7819SOL    HW224357   0.419   3.088   1.771
 7820SOL     OW24358   1.660   2.360   4.871
 7820SOL    HW124359   1.615   2.434   4.820
 7820SOL    HW224360   1.742   2.395   4.916
 7821SOL     OW24361   4.284   5.531   1.029
 7821SOL    HW124362   4.229   5.579   1.097
 7821SOL    HW224363   4.374   5.512   1.066
 7822SOL     OW24364   7.015   0.359   5.349
 7822SOL    HW124365   0.015   0.276   5.399
 7822SOL    HW224366   0.062   0.429   5.370
 7823SOL     OW24367   2.330   4.219   4.520
 7823SOL    HW124368   2.326   4.235   4.421
 7823SOL    HW224369   2.284   4.134   4.542
 7824SOL     OW24370   6.786   2.559   5.020
 7824SOL    HW124371   6.873   2.544   4.973
 7824SOL    HW224372   6.716   2.584   4.954
 7825SOL     OW24373   2.545   3.025   6.979
 7825SOL    HW124374   2.586   2.952   6.924
 7825SOL    HW224375   2.607   3.050   0.031
 7826SOL     OW24376   6.888   1.321   0.396
 7826SOL    HW124377   6.892   1.414   0.432
 7826SOL    HW224378   6.964   1.307   0.332
 7827SOL     OW24379   0.724   5.779   2.431
 7827SOL    HW124380   0.654   5.743   2.493
 7827SOL    HW224381   0.775   5.702   2.391
 7828SOL     OW24382   6.544   4.323   6.503
 7828SOL    HW124383   6.568   4.229   6.479
 7828SOL    HW224384   6.460   4.349   6.455
 7829SOL     OW24385   3.245   3.095   1.377
 7829SOL    HW124386   3.213   3.185   1.346
 7829SOL    HW224387   3.341   3.084   1.354
 7830SOL     OW24388   3.538   5.126   5.463
 7830SOL    HW124389   3.545   5.049   5.400
 7830SOL    HW224390   3.605   5.196   5.439
 7831SOL     OW24391   1.726   1.241   1.432
 7831SOL    HW124392   1.747   1.269   1.525
 7831SOL    HW224393   1.796   1.178   1.398
 7832SOL     OW24394   5.348   0.453   4.552
 7832SOL    HW124395   5.414   0.479   4.622
 7832SOL    HW224396   5.256   0.456   4.591
 7833SOL     OW24397   1.555   0.596   4.480
 7833SOL    HW124398   1.621   0.601   4.404
 7833SOL    HW224399   1.505   0.509   4.475
 7834SOL     OW24400   6.865   1.979   3.769
 7834SOL    HW124401   6.821   1.891   3.749
 7834SOL    HW224402   6.803   2.054   3.746
 7835SOL     OW24403   3.858   1.899   4.595
 7835SOL    HW124404   3.835   1.985   4.642
 7835SOL    HW224405   3.872   1.827   4.662
 7836SOL     OW24406   3.751   3.985   5.464
 7836SOL    HW124407   3.790   3.937   5.542
 7836SOL    HW224408   3.747   3.924   5.386
 7837SOL     OW24409   5.695   6.219   6.993
 7837SOL    HW124410   5.656   6.233   6.902
 7837SOL    HW224411   5.640   6.153   0.022
 7838SOL     OW24412   4.841   4.930   1.577
 7838SOL    HW124413   4.892   4.940   1.492
 7838SOL    HW224414   4.767   4.863   1.565
 7839SOL     OW24415   5.473   3.935   5.044
 7839SOL    HW124416   5.470   3.836   5.032
 7839SOL    HW224417   5.383   3.974   5.025
 7840SOL     OW24418   0.868   4.375   3.973
 7840SOL    HW124419   0.777   4.410   3.950
 7840SOL    HW224420   0.864   4.275   3.982
 7841SOL     OW24421   4.860   2.089   6.507
 7841SOL    HW124422   4.847   2.078   6.408
 7841SOL    HW224423   4.830   2.006   6.554
 7842SOL     OW24424   2.253   1.635   2.315
 7842SOL    HW124425   2.284   1.704   2.250
 7842SOL    HW224426   2.172   1.668   2.363
 7843SOL     OW24427   6.795   0.393   4.060
 7843SOL    HW124428   6.735   0.459   4.014
 7843SOL    HW224429   6.830   0.328   3.993
 7844SOL     OW24430   3.777   0.570   2.083
 7844SOL    HW124431   3.756   0.535   1.992
 7844SOL    HW224432   3.869   0.541   2.109
 7845SOL     OW24433   5.356   2.047   1.355
 7845SOL    HW124434   5.269   2.058   1.305
 7845SOL    HW224435   5.338   2.001   1.442
 7846SOL     OW24436   1.432   2.119   0.587
 7846SOL    HW124437   1.426   2.029   0.546
 7846SOL    HW224438   1.432   2.189   0.515
 7847SOL     OW24439   6.250   1.690   3.823
 7847SOL    HW124440   6.262   1.777   3.872
 7847SOL    HW224441   6.152   1.671   3.813
 7848SOL     OW24442   2.777   4.479   0.862
 7848SOL    HW124443   2.838   4.460   0.939
 7848SOL    HW224444   2.688   4.436   0.878
 7849SOL     OW24445   5.861   3.191   5.249
 7849SOL    HW124446   5.780   3.247   5.269
 7849SOL    HW224447   5.919   3.240   5.184
 7850SOL     OW24448   6.679   1.507   3.752
 7850SOL    HW124449   6.762   1.562   3.748
 7850SOL    HW224450   6.657   1.471   3.661
 7851SOL     OW24451   0.727   3.221   2.068
 7851SOL    HW124452   0.787   3.290   2.029
 7851SOL    HW224453   0.775   3.173   2.142
 7852SOL     OW24454   2.956   1.019   0.240
 7852SOL    HW124455   2.925   1.036   0.147
 7852SOL    HW224456   2.932   1.096   0.299
 7853SOL     OW24457   4.388   3.082   1.739
 7853SOL    HW124458   4.473   3.081   1.792
 7853SOL    HW224459   4.313   3.114   1.797
 7854SOL     OW24460   3.954   2.095   6.004
 7854SOL    HW124461   4.049   2.089   6.033
 7854SOL    HW224462   3.947   2.159   5.927
 7855SOL     OW24463   4.631   6.241   4.110
 7855SOL    HW124464   4.692   6.193   4.047
 7855SOL    HW224465   4.678   6.322   4.146
 7856SOL     OW24466   1.789   4.614   5.092
 7856SOL    HW124467   1.733   4.664   5.027
 7856SOL    HW224468   1.775   4.515   5.080
 7857SOL     OW24469   5.008   4.151   0.581
 7857SOL    HW124470   5.107   4.161   0.583
 7857SOL    HW224471   4.972   4.191   0.496
 7858SOL     OW24472   7.019   5.614   4.775
 7858SOL    HW124473   0.068   5.627   4.844
 7858SOL    HW224474   6.936   5.663   4.803
 7859SOL     OW24475   4.616   3.131   6.550
 7859SOL    HW124476   4.602   3.072   6.470
 7859SOL    HW224477   4.592   3.226   6.526
 7860SOL     OW24478   3.716   1.330   4.099
 7860SOL    HW124479   3.626   1.360   4.132
 7860SOL    HW224480   3.749   1.256   4.157
 7861SOL     OW24481   2.490   5.692   1.870
 7861SOL    HW124482   2.529   5.605   1.841
 7861SOL    HW224483   2.438   5.679   1.954
 7862SOL     OW24484   2.573   5.308   2.268
 7862SOL    HW124485   2.509   5.382   2.286
 7862SOL    HW224486   2.533   5.221   2.297
 7863SOL     OW24487   0.286   3.964   3.156
 7863SOL    HW124488   0.190   3.980   3.131
 7863SOL    HW224489   0.303   3.866   3.163
 7864SOL     OW24490   2.062   6.059   6.445
 7864SOL    HW124491   2.080   5.961   6.448
 7864SOL    HW224492   2.140   6.108   6.484
 7865SOL     OW24493   5.991   6.222   4.057
 7865SOL    HW124494   5.952   6.242   3.967
 7865SOL    HW224495   6.086   6.192   4.046
 7866SOL     OW24496   1.937   0.466   4.804
 7866SOL    HW124497   1.889   0.533   4.747
 7866SOL    HW224498   1.939   0.378   4.756
 7867SOL     OW24499   5.370   0.027   3.776
 7867SOL    HW124500   5.467   0.031   3.800
 7867SOL    HW224501   5.360   7.015   3.682
 7868SOL     OW24502   3.732   5.473   1.101
 7868SOL    HW124503   3.801   5.436   1.164
 7868SOL    HW224504   3.753   5.443   1.008
 7869SOL     OW24505   4.913   4.722   5.386
 7869SOL    HW124506   5.004   4.763   5.395
 7869SOL    HW224507   4.851   4.789   5.345
 7870SOL     OW24508   4.776   0.250   5.080
 7870SOL    HW124509   4.687   0.215   5.051
 7870SOL    HW224510   4.785   0.242   5.179
 7871SOL     OW24511   5.494   1.213   1.793
 7871SOL    HW124512   5.511   1.116   1.809
 7871SOL    HW224513   5.401   1.226   1.758
 7872SOL     OW24514   1.802   4.690   2.496
 7872SOL    HW124515   1.729   4.621   2.501
 7872SOL    HW224516   1.870   4.671   2.566
 7873SOL     OW24517   6.516   1.239   0.946
 7873SOL    HW124518   6.523   1.239   0.846
 7873SOL    HW224519   6.491   1.147   0.977
 7874SOL     OW24520   5.633   2.938   0.844
 7874SOL    HW124521   5.604   3.019   0.896
 7874SOL    HW224522   5.731   2.923   0.857
 7875SOL     OW24523   4.042   3.554   6.806
 7875SOL    HW124524   4.105   3.509   6.742
 7875SOL    HW224525   3.987   3.621   6.756
 7876SOL     OW24526   0.870   0.419   2.896
 7876SOL    HW124527   0.887   0.517   2.907
 7876SOL    HW224528   0.957   0.370   2.888
 7877SOL     OW24529   6.272   1.386   2.675
 7877SOL    HW124530   6.272   1.441   2.758
 7877SOL    HW224531   6.181   1.346   2.661
 7878SOL     OW24532   4.938   3.674   3.217
 7878SOL    HW124533   4.838   3.679   3.207
 7878SOL    HW224534   4.966   3.578   3.224
 7879SOL     OW24535   3.515   5.232   3.120
 7879SOL    HW124536   3.514   5.185   3.208
 7879SOL    HW224537   3.540   5.167   3.047
 7880SOL     OW24538   2.273   3.544   0.932
 7880SOL    HW124539   2.344   3.540   0.862
 7880SOL    HW224540   2.188   3.577   0.890
 7881SOL     OW24541   5.261   4.058   4.376
 7881SOL    HW124542   5.258   4.049   4.476
 7881SOL    HW224543   5.261   3.967   4.334
 7882SOL     OW24544   2.686   3.987   1.641
 7882SOL    HW124545   2.753   4.056   1.669
 7882SOL    HW224546   2.599   4.004   1.687
 7883SOL     OW24547   0.874   0.552   5.421
 7883SOL    HW124548   0.836   0.547   5.513
 7883SOL    HW224549   0.845   0.638   5.378
 7884SOL     OW24550   1.053   3.761   3.933
 7884SOL    HW124551   0.976   3.812   3.971
 7884SOL    HW224552   1.130   3.823   3.916
 7885SOL     OW24553   6.485   5.572   1.174
 7885SOL    HW124554   6.407   5.619   1.217
 7885SOL    HW224555   6.451   5.508   1.105
 7886SOL     OW24556   4.840   6.039   0.395
 7886SOL    HW124557   4.827   6.060   0.298
 7886SOL    HW224558   4.762   6.071   0.448
 7887SOL     OW24559   3.703   1.850   6.825
 7887SOL    HW124560   3.653   1.931   6.793
 7887SOL    HW224561   3.736   1.798   6.746
 7888SOL     OW24562   5.083   0.174   3.732
 7888SOL    HW124563   5.138   0.098   3.768
 7888SOL    HW224564   5.144   0.249   3.705
 7889SOL     OW24565   0.880   6.022   1.578
 7889SOL    HW124566   0.971   6.004   1.540
 7889SOL    HW224567   0.852   6.115   1.553
 7890SOL     OW24568   2.112   3.869   2.234
 7890SOL    HW124569   2.024   3.898   2.197
 7890SOL    HW224570   2.119   3.770   2.229
 7891SOL     OW24571   2.378   4.907   2.168
 7891SOL    HW124572   2.452   4.906   2.236
 7891SOL    HW224573   2.290   4.915   2.215
 7892SOL     OW24574   1.916   2.598   5.267
 7892SOL    HW124575   1.859   2.680   5.280
 7892SOL    HW224576   2.012   2.623   5.281
 7893SOL     OW24577   5.730   6.818   1.514
 7893SOL    HW124578   5.642   6.860   1.537
 7893SOL    HW224579   5.720   6.719   1.509
 7894SOL     OW24580   2.565   6.335   2.204
 7894SOL    HW124581   2.487   6.377   2.159
 7894SOL    HW224582   2.647   6.348   2.148
 7895SOL     OW24583   6.620   1.268   4.811
 7895SOL    HW124584   6.547   1.200   4.808
 7895SOL    HW224585   6.589   1.349   4.861
 7896SOL     OW24586   4.827   3.941   5.526
 7896SOL    HW124587   4.750   3.974   5.581
 7896SOL    HW224588   4.792   3.896   5.444
 7897SOL     OW24589   2.188   4.262   6.430
 7897SOL    HW124590   2.152   4.172   6.404
 7897SOL    HW224591   2.145   4.333   6.374
 7898SOL     OW24592   4.769   2.003   3.724
 7898SOL    HW124593   4.733   1.912   3.745
 7898SOL    HW224594   4.807   2.044   3.806
 7899SOL     OW24595   6.703   2.131   2.246
 7899SOL    HW124596   6.754   2.214   2.224
 7899SOL    HW224597   6.606   2.154   2.260
 7900SOL     OW24598   1.372   5.469   1.374
 7900SOL    HW124599   1.380   5.496   1.470
 7900SOL    HW224600   1.462   5.465   1.332
 7901SOL     OW24601   5.892   0.154   5.791
 7901SOL    HW124602   5.868   0.063   5.825
 7901SOL    HW224603   5.814   0.216   5.804
 7902SOL     OW24604   4.688   4.711   1.565
 7902SOL    HW124605   4.692   4.692   1.467
 7902SOL    HW224606   4.757   4.656   1.613
 7903SOL     OW24607   6.256   1.796   0.214
 7903SOL    HW124608   6.244   1.795   0.313
 7903SOL    HW224609   6.189   1.859   0.173
 7904SOL     OW24610   6.501   0.833   2.676
 7904SOL    HW124611   6.457   0.823   2.766
 7904SOL    HW224612   6.450   0.899   2.621
 7905SOL     OW24613   4.150   1.797   1.207
 7905SOL    HW124614   4.092   1.878   1.212
 7905SOL    HW224615   4.246   1.825   1.207
 7906SOL     OW24616   6.240   5.789   6.825
 7906SOL    HW124617   6.199   5.768   6.736
 7906SOL    HW224618   6.333   5.754   6.828
 7907SOL     OW24619   6.358   2.695   4.348
 7907SOL    HW124620   6.442   2.657   4.388
 7907SOL    HW224621   6.368   2.702   4.249
 7908SOL     OW24622   0.881   1.078   3.402
 7908SOL    HW124623   0.872   1.166   3.450
 7908SOL    HW224624   0.828   1.008   3.449
 7909SOL     OW24625   5.008   3.779   5.012
 7909SOL    HW124626   4.985   3.818   4.923
 7909SOL    HW224627   4.929   3.731   5.048
 7910SOL     OW24628   4.005   2.835   5.591
 7910SOL    HW124629   4.041   2.767   5.655
 7910SOL    HW224630   3.949   2.790   5.522
 7911SOL     OW24631   6.787   5.137   0.480
 7911SOL    HW124632   6.755   5.116   0.572
 7911SOL    HW224633   6.803   5.052   0.430
 7912SOL     OW24634   6.137   5.379   6.674
 7912SOL    HW124635   6.212   5.438   6.644
 7912SOL    HW224636   6.096   5.416   6.757
 7913SOL     OW24637   0.249   5.384   6.351
 7913SOL    HW124638   0.286   5.307   6.298
 7913SOL    HW224639   0.152   5.368   6.369
 7914SOL     OW24640   6.575   5.230   1.272
 7914SOL    HW124641   6.573   5.312   1.328
 7914SOL    HW224642   6.533   5.248   1.183
 7915SOL     OW24643   5.036   2.055   2.935
 7915SOL    HW124644   4.981   2.103   3.003
 7915SOL    HW224645   4.994   1.968   2.913
 7916SOL     OW24646   5.511   3.181   5.371
 7916SOL    HW124647   5.460   3.157   5.288
 7916SOL    HW224648   5.447   3.211   5.442
 7917SOL     OW24649   3.892   3.633   4.235
 7917SOL    HW124650   3.868   3.537   4.243
 7917SOL    HW224651   3.855   3.684   4.312
 7918SOL     OW24652   5.835   1.524   1.770
 7918SOL    HW124653   5.741   1.512   1.803
 7918SOL    HW224654   5.833   1.569   1.681
 7919SOL     OW24655   6.231   4.171   3.069
 7919SOL    HW124656   6.204   4.250   3.013
 7919SOL    HW224657   6.170   4.094   3.050
 7920SOL     OW24658   7.017   4.878   1.750
 7920SOL    HW124659   0.049   4.855   1.669
 7920SOL    HW224660   0.054   4.922   1.818
 7921SOL     OW24661   2.903   6.302   1.243
 7921SOL    HW124662   2.957   6.288   1.326
 7921SOL    HW224663   2.903   6.218   1.189
 7922SOL     OW24664   6.849   5.296   0.077
 7922SOL    HW124665   6.840   5.198   0.057
 7922SOL    HW224666   6.822   5.349   7.019
 7923SOL     OW24667   1.839   1.672   2.731
 7923SOL    HW124668   1.748   1.635   2.752
 7923SOL    HW224669   1.835   1.772   2.733
 7924SOL     OW24670   2.765   6.320   3.812
 7924SOL    HW124671   2.674   6.303   3.850
 7924SOL    HW224672   2.755   6.347   3.716
 7925SOL     OW24673   6.586   2.020   6.125
 7925SOL    HW124674   6.630   2.092   6.179
 7925SOL    HW224675   6.584   1.935   6.178
 7926SOL     OW24676   3.475   0.884   3.489
 7926SOL    HW124677   3.375   0.885   3.482
 7926SOL    HW224678   3.502   0.929   3.574
 7927SOL     OW24679   4.508   5.486   4.951
 7927SOL    HW124680   4.447   5.471   4.874
 7927SOL    HW224681   4.474   5.562   5.006
 7928SOL     OW24682   1.689   4.768   3.015
 7928SOL    HW124683   1.732   4.681   2.989
 7928SOL    HW224684   1.667   4.765   3.113
 7929SOL     OW24685   4.045   3.715   4.909
 7929SOL    HW124686   4.017   3.622   4.931
 7929SOL    HW224687   4.135   3.733   4.949
 7930SOL     OW24688   4.727   5.266   3.581
 7930SOL    HW124689   4.722   5.276   3.482
 7930SOL    HW224690   4.769   5.347   3.621
 7931SOL     OW24691   2.157   2.884   0.010
 7931SOL    HW124692   2.158   2.866   6.933
 7931SOL    HW224693   2.241   2.847   0.051
 7932SOL     OW24694   2.600   0.471   6.836
 7932SOL    HW124695   2.669   0.535   6.870
 7932SOL    HW224696   2.530   0.458   6.906
 7933SOL     OW24697   0.923   6.261   7.006
 7933SOL    HW124698   0.868   6.269   6.923
 7933SOL    HW224699   1.020   6.270   6.982
 7934SOL     OW24700   2.429   3.454   0.729
 7934SOL    HW124701   2.399   3.360   0.712
 7934SOL    HW224702   2.406   3.511   0.650
 7935SOL     OW24703   4.895   5.732   0.227
 7935SOL    HW124704   4.972   5.754   0.168
 7935SOL    HW224705   4.841   5.815   0.243
 7936SOL     OW24706   3.550   6.122   3.111
 7936SOL    HW124707   3.541   6.217   3.082
 7936SOL    HW224708   3.643   6.107   3.146
 7937SOL     OW24709   5.463   6.753   5.388
 7937SOL    HW124710   5.365   6.746   5.404
 7937SOL    HW224711   5.491   6.849   5.396
 7938SOL     OW24712   4.432   5.090   4.668
 7938SOL    HW124713   4.493   5.167   4.687
 7938SOL    HW224714   4.379   5.108   4.585
 7939SOL     OW24715   1.184   1.421   5.706
 7939SOL    HW124716   1.117   1.400   5.777
 7939SOL    HW224717   1.179   1.352   5.634
 7940SOL     OW24718   2.348   5.787   1.663
 7940SOL    HW124719   2.257   5.747   1.651
 7940SOL    HW224720   2.388   5.754   1.749
 7941SOL     OW24721   0.015   1.009   1.121
 7941SOL    HW124722   0.017   0.923   1.171
 7941SOL    HW224723   0.055   1.081   1.178
 7942SOL     OW24724   0.328   6.475   1.946
 7942SOL    HW124725   0.264   6.403   1.972
 7942SOL    HW224726   0.285   6.535   1.879
 7943SOL     OW24727   5.608   2.118   1.270
 7943SOL    HW124728   5.637   2.209   1.300
 7943SOL    HW224729   5.530   2.088   1.325
 7944SOL     OW24730   0.026   2.884   1.660
 7944SOL    HW124731   0.027   2.943   1.580
 7944SOL    HW224732   6.961   2.834   1.664
 7945SOL     OW24733   4.893   0.155   2.551
 7945SOL    HW124734   4.991   0.174   2.542
 7945SOL    HW224735   4.845   0.189   2.471
 7946SOL     OW24736   1.675   2.150   5.775
 7946SOL    HW124737   1.636   2.226   5.722
 7946SOL    HW224738   1.741   2.101   5.718
 7947SOL     OW24739   3.958   2.767   6.648
 7947SOL    HW124740   4.039   2.766   6.707
 7947SOL    HW224741   3.974   2.830   6.572
 7948SOL     OW24742   6.930   6.878   0.791
 7948SOL    HW124743   6.889   6.817   0.723
 7948SOL    HW224744   6.864   6.948   0.818
 7949SOL     OW24745   5.204   4.860   4.287
 7949SOL    HW124746   5.234   4.926   4.218
 7949SOL    HW224747   5.146   4.906   4.354
 7950SOL     OW24748   4.471   5.183   3.533
 7950SOL    HW124749   4.535   5.253   3.564
 7950SOL    HW224750   4.446   5.200   3.438
 7951SOL     OW24751   2.560   3.361   1.249
 7951SOL    HW124752   2.585   3.351   1.152
 7951SOL    HW224753   2.466   3.396   1.256
 7952SOL     OW24754   6.922   2.952   6.346
 7952SOL    HW124755   6.916   2.942   6.445
 7952SOL    HW224756   6.925   2.861   6.304
 7953SOL     OW24757   2.282   2.760   3.234
 7953SOL    HW124758   2.255   2.856   3.238
 7953SOL    HW224759   2.287   2.722   3.327
 7954SOL     OW24760   4.616   5.285   4.697
 7954SOL    HW124761   4.565   5.359   4.743
 7954SOL    HW224762   4.699   5.323   4.656
 7955SOL     OW24763   0.048   6.528   6.767
 7955SOL    HW124764   0.049   6.521   6.867
 7955SOL    HW224765   0.096   6.449   6.728
 7956SOL     OW24766   0.400   5.813   3.817
 7956SOL    HW124767   0.304   5.841   3.827
 7956SOL    HW224768   0.406   5.713   3.816
 7957SOL     OW24769   1.439   1.902   0.154
 7957SOL    HW124770   1.475   1.851   0.076
 7957SOL    HW224771   1.457   1.999   0.142
 7958SOL     OW24772   3.548   5.907   4.401
 7958SOL    HW124773   3.536   5.823   4.349
 7958SOL    HW224774   3.463   5.930   4.448
 7959SOL     OW24775   5.683   4.422   0.493
 7959SOL    HW124776   5.743   4.380   0.425
 7959SOL    HW224777   5.594   4.376   0.492
 7960SOL     OW24778   3.406   1.785   1.272
 7960SOL    HW124779   3.314   1.818   1.254
 7960SOL    HW224780   3.428   1.798   1.369
 7961SOL     OW24781   1.905   6.684   6.174
 7961SOL    HW124782   1.911   6.659   6.078
 7961SOL    HW224783   1.966   6.762   6.192
 7962SOL     OW24784   2.142   1.052   0.835
 7962SOL    HW124785   2.068   0.986   0.824
 7962SOL    HW224786   2.223   1.006   0.872
 7963SOL     OW24787   0.307   1.151   5.358
 7963SOL    HW124788   0.209   1.144   5.375
 7963SOL    HW224789   0.345   1.059   5.347
 7964SOL     OW24790   5.578   5.138   3.663
 7964SOL    HW124791   5.583   5.062   3.728
 7964SOL    HW224792   5.543   5.219   3.710
 7965SOL     OW24793   4.122   2.520   0.082
 7965SOL    HW124794   4.103   2.508   7.006
 7965SOL    HW224795   4.220   2.536   0.094
 7966SOL     OW24796   1.405   3.982   4.963
 7966SOL    HW124797   1.458   4.007   5.044
 7966SOL    HW224798   1.314   3.951   4.992
 7967SOL     OW24799   2.896   5.603   3.316
 7967SOL    HW124800   2.948   5.652   3.386
 7967SOL    HW224801   2.959   5.550   3.259
 7968SOL     OW24802   2.549   2.517   3.385
 7968SOL    HW124803   2.645   2.491   3.397
 7968SOL    HW224804   2.515   2.560   3.468
 7969SOL     OW24805   3.749   0.147   2.302
 7969SOL    HW124806   3.695   0.065   2.320
 7969SOL    HW224807   3.690   0.218   2.263
 7970SOL     OW24808   6.958   3.719   2.975
 7970SOL    HW124809   7.018   3.695   2.898
 7970SOL    HW224810   6.910   3.637   3.006
 7971SOL     OW24811   2.561   1.062   2.381
 7971SOL    HW124812   2.569   0.966   2.356
 7971SOL    HW224813   2.637   1.114   2.341
 7972SOL     OW24814   6.741   4.544   1.672
 7972SOL    HW124815   6.776   4.454   1.647
 7972SOL    HW224816   6.791   4.578   1.752
 7973SOL     OW24817   5.394   3.466   3.794
 7973SOL    HW124818   5.446   3.552   3.789
 7973SOL    HW224819   5.450   3.392   3.757
 7974SOL     OW24820   5.888   0.329   4.380
 7974SOL    HW124821   5.797   0.293   4.398
 7974SOL    HW224822   5.895   0.422   4.416
 7975SOL     OW24823   4.517   0.730   4.050
 7975SOL    HW124824   4.466   0.685   4.123
 7975SOL    HW224825   4.453   0.762   3.980
 7976SOL     OW24826   0.700   6.827   5.676
 7976SOL    HW124827   0.633   6.896   5.706
 7976SOL    HW224828   0.655   6.760   5.618
 7977SOL     OW24829   4.913   5.993   2.749
 7977SOL    HW124830   4.897   5.910   2.695
 7977SOL    HW224831   4.893   6.073   2.693
 7978SOL     OW24832   4.695   4.003   6.231
 7978SOL    HW124833   4.745   3.917   6.242
 7978SOL    HW224834   4.707   4.037   6.138
 7979SOL     OW24835   3.329   0.397   4.802
 7979SOL    HW124836   3.368   0.483   4.767
 7979SOL    HW224837   3.245   0.376   4.753
 7980SOL     OW24838   3.679   5.747   0.246
 7980SOL    HW124839   3.756   5.684   0.255
 7980SOL    HW224840   3.713   5.840   0.228
 7981SOL     OW24841   0.729   5.246   2.098
 7981SOL    HW124842   0.637   5.211   2.114
 7981SOL    HW224843   0.753   5.234   2.001
 7982SOL     OW24844   6.745   2.347   0.271
 7982SOL    HW124845   6.654   2.379   0.298
 7982SOL    HW224846   6.814   2.407   0.311
 7983SOL     OW24847   5.652   1.655   3.190
 7983SOL    HW124848   5.634   1.600   3.272
 7983SOL    HW224849   5.747   1.643   3.162
 7984SOL     OW24850   1.014   2.073   2.051
 7984SOL    HW124851   1.086   2.032   1.995
 7984SOL    HW224852   1.028   2.172   2.055
 7985SOL     OW24853   1.674   0.374   2.184
 7985SOL    HW124854   1.672   0.333   2.093
 7985SOL    HW224855   1.629   0.463   2.183
 7986SOL     OW24856   3.762   1.572   6.927
 7986SOL    HW124857   3.674   1.547   6.967
 7986SOL    HW224858   3.748   1.636   6.852
 7987SOL     OW24859   0.025   3.359   5.727
 7987SOL    HW124860   0.010   3.456   5.704
 7987SOL    HW224861   0.123   3.342   5.738
 7988SOL     OW24862   2.656   2.329   4.967
 7988SOL    HW124863   2.614   2.373   5.047
 7988SOL    HW224864   2.736   2.278   4.996
 7989SOL     OW24865   3.563   2.746   5.306
 7989SOL    HW124866   3.473   2.732   5.346
 7989SOL    HW224867   3.597   2.660   5.270
 7990SOL     OW24868   1.360   2.885   3.987
 7990SOL    HW124869   1.313   2.937   3.916
 7990SOL    HW224870   1.346   2.928   4.076
 7991SOL     OW24871   6.921   2.664   6.262
 7991SOL    HW124872   6.891   2.587   6.318
 7991SOL    HW224873   7.019   2.680   6.276
 7992SOL     OW24874   1.271   6.678   1.238
 7992SOL    HW124875   1.257   6.775   1.258
 7992SOL    HW224876   1.349   6.668   1.176
 7993SOL     OW24877   2.039   5.792   7.003
 7993SOL    HW124878   1.960   5.754   0.029
 7993SOL    HW224879   2.013   5.819   6.910
 7994SOL     OW24880   4.786   0.708   3.979
 7994SOL    HW124881   4.812   0.706   4.076
 7994SOL    HW224882   4.691   0.738   3.970
 7995SOL     OW24883   4.046   5.719   3.994
 7995SOL    HW124884   3.948   5.716   4.014
 7995SOL    HW224885   4.071   5.641   3.937
 7996SOL     OW24886   3.755   6.565   4.158
 7996SOL    HW124887   3.723   6.499   4.226
 7996SOL    HW224888   3.824   6.625   4.200
 7997SOL     OW24889   6.490   1.795   1.002
 7997SOL    HW124890   6.390   1.803   0.993
 7997SOL    HW224891   6.515   1.699   1.008
 7998SOL     OW24892   4.931   4.962   0.163
 7998SOL    HW124893   4.995   5.024   0.209
 7998SOL    HW224894   4.858   5.016   0.120
 7999SOL     OW24895   1.136   0.027   5.378
 7999SOL    HW124896   1.126   0.126   5.371
 7999SOL    HW224897   1.063   7.012   5.437
 8000SOL     OW24898   5.658   0.411   6.132
 8000SOL    HW124899   5.635   0.451   6.221
 8000SOL    HW224900   5.722   0.471   6.084
 8001SOL     OW24901   2.310   6.240   1.817
 8001SOL    HW124902   2.242   6.186   1.867
 8001SOL    HW224903   2.299   6.224   1.719
 8002SOL     OW24904   0.416   3.580   5.074
 8002SOL    HW124905   0.403   3.485   5.047
 8002SOL    HW224906   0.493   3.587   5.138
 8003SOL     OW24907   3.083   4.907   2.944
 8003SOL    HW124908   3.168   4.933   2.898
 8003SOL    HW224909   3.039   4.833   2.895
 8004SOL     OW24910   2.371   4.230   3.277
 8004SOL    HW124911   2.366   4.162   3.204
 8004SOL    HW224912   2.354   4.321   3.239
 8005SOL     OW24913   2.982   1.047   2.121
 8005SOL    HW124914   2.965   1.044   2.220
 8005SOL    HW224915   2.971   1.141   2.089
 8006SOL     OW24916   2.450   5.571   0.202
 8006SOL    HW124917   2.437   5.551   0.105
 8006SOL    HW224918   2.516   5.646   0.212
 8007SOL     OW24919   1.134   0.060   3.754
 8007SOL    HW124920   1.057   0.014   3.710
 8007SOL    HW224921   1.213   7.021   3.757
 8008SOL     OW24922   5.270   6.442   6.485
 8008SOL    HW124923   5.359   6.441   6.440
 8008SOL    HW224924   5.198   6.453   6.417
 8009SOL     OW24925   6.565   0.521   3.243
 8009SOL    HW124926   6.501   0.462   3.193
 8009SOL    HW224927   6.652   0.524   3.195
 8010SOL     OW24928   2.565   1.524   6.683
 8010SOL    HW124929   2.647   1.570   6.650
 8010SOL    HW224930   2.497   1.593   6.708
 8011SOL     OW24931   2.359   1.986   1.208
 8011SOL    HW124932   2.266   2.013   1.185
 8011SOL    HW224933   2.400   1.939   1.130
 8012SOL     OW24934   1.597   6.369   1.331
 8012SOL    HW124935   1.640   6.457   1.312
 8012SOL    HW224936   1.652   6.296   1.291
 8013SOL     OW24937   6.047   4.871   4.456
 8013SOL    HW124938   6.141   4.867   4.490
 8013SOL    HW224939   6.021   4.783   4.417
 8014SOL     OW24940   1.676   5.817   6.397
 8014SOL    HW124941   1.639   5.728   6.369
 8014SOL    HW224942   1.696   5.815   6.495
 8015SOL     OW24943   3.125   2.531   0.509
 8015SOL    HW124944   3.225   2.537   0.505
 8015SOL    HW224945   3.098   2.479   0.590
 8016SOL     OW24946   4.400   0.456   0.375
 8016SOL    HW124947   4.333   0.464   0.302
 8016SOL    HW224948   4.376   0.380   0.435
 8017SOL     OW24949   0.321   4.068   5.906
 8017SOL    HW124950   0.332   3.991   5.843
 8017SOL    HW224951   0.291   4.034   5.995
 8018SOL     OW24952   5.192   1.697   5.617
 8018SOL    HW124953   5.224   1.704   5.712
 8018SOL    HW224954   5.127   1.771   5.599
 8019SOL     OW24955   1.594   4.618   0.442
 8019SOL    HW124956   1.672   4.670   0.475
 8019SOL    HW224957   1.566   4.551   0.512
 8020SOL     OW24958   5.584   6.266   6.720
 8020SOL    HW124959   5.646   6.328   6.672
 8020SOL    HW224960   5.588   6.176   6.678
 8021SOL     OW24961   0.991   1.235   1.772
 8021SOL    HW124962   1.045   1.214   1.691
 8021SOL    HW224963   0.915   1.296   1.747
 8022SOL     OW24964   4.059   0.711   2.490
 8022SOL    HW124965   4.044   0.774   2.414
 8022SOL    HW224966   4.152   0.675   2.487
 8023SOL     OW24967   6.336   6.573   3.039
 8023SOL    HW124968   6.353   6.494   3.097
 8023SOL    HW224969   6.403   6.575   2.965
 8024SOL     OW24970   3.767   5.406   6.224
 8024SOL    HW124971   3.824   5.333   6.189
 8024SOL    HW224972   3.727   5.378   6.312
 8025SOL     OW24973   3.415   6.769   6.021
 8025SOL    HW124974   3.395   6.844   5.958
 8025SOL    HW224975   3.336   6.752   6.079
 8026SOL     OW24976   0.408   3.991   6.960
 8026SOL    HW124977   0.420   4.025   0.031
 8026SOL    HW224978   0.427   3.893   6.957
 8027SOL     OW24979   4.861   1.954   5.243
 8027SOL    HW124980   4.815   2.027   5.295
 8027SOL    HW224981   4.958   1.955   5.264
 8028SOL     OW24982   4.282   5.326   5.931
 8028SOL    HW124983   4.346   5.253   5.907
 8028SOL    HW224984   4.203   5.324   5.870
 8029SOL     OW24985   5.050   4.318   6.531
 8029SOL    HW124986   4.967   4.304   6.476
 8029SOL    HW224987   5.082   4.230   6.566
 8030SOL     OW24988   5.268   4.273   5.745
 8030SOL    HW124989   5.286   4.346   5.679
 8030SOL    HW224990   5.338   4.275   5.817
 8031SOL     OW24991   4.542   4.945   2.378
 8031SOL    HW124992   4.564   4.885   2.302
 8031SOL    HW224993   4.552   4.895   2.464
 8032SOL     OW24994   6.158   3.537   5.034
 8032SOL    HW124995   6.251   3.568   5.013
 8032SOL    HW224996   6.092   3.602   4.997
 8033SOL     OW24997   5.574   2.644   6.977
 8033SOL    HW124998   5.651   2.585   6.998
 8033SOL    HW224999   5.499   2.626   0.018
 8034SOL     OW25000   6.651   7.009   5.409
 8034SOL    HW125001   6.557   0.002   5.379
 8034SOL    HW225002   6.678   0.059   5.472
 8035SOL     OW25003   5.882   6.210   5.670
 8035SOL    HW125004   5.787   6.201   5.698
 8035SOL    HW225005   5.898   6.155   5.588
 8036SOL     OW25006   1.958   3.727   1.689
 8036SOL    HW125007   2.003   3.753   1.604
 8036SOL    HW225008   2.025   3.724   1.763
 8037SOL     OW25009   2.131   3.314   1.094
 8037SOL    HW125010   2.199   3.358   1.035
 8037SOL    HW225011   2.145   3.342   1.189
 8038SOL     OW25012   6.305   2.286   3.295
 8038SOL    HW125013   6.238   2.234   3.348
 8038SOL    HW225014   6.258   2.340   3.225
 8039SOL     OW25015   1.675   6.524   2.764
 8039SOL    HW125016   1.615   6.599   2.792
 8039SOL    HW225017   1.644   6.438   2.804
 8040SOL     OW25018   0.467   5.545   0.709
 8040SOL    HW125019   0.511   5.479   0.649
 8040SOL    HW225020   0.396   5.595   0.658
 8041SOL     OW25021   3.415   1.498   1.322
 8041SOL    HW125022   3.329   1.454   1.295
 8041SOL    HW225023   3.416   1.593   1.290
 8042SOL     OW25024   3.706   2.899   1.960
 8042SOL    HW125025   3.752   2.840   1.894
 8042SOL    HW225026   3.772   2.935   2.025
 8043SOL     OW25027   2.618   0.739   0.755
 8043SOL    HW125028   2.616   0.647   0.717
 8043SOL    HW225029   2.676   0.741   0.837
 8044SOL     OW25030   3.255   2.952   1.613
 8044SOL    HW125031   3.309   2.976   1.532
 8044SOL    HW225032   3.304   2.884   1.667
 8045SOL     OW25033   6.130   1.714   2.896
 8045SOL    HW125034   6.059   1.660   2.851
 8045SOL    HW225035   6.212   1.659   2.907
 8046SOL     OW25036   5.494   4.344   5.894
 8046SOL    HW125037   5.506   4.415   5.963
 8046SOL    HW225038   5.583   4.317   5.859
 8047SOL     OW25039   3.305   5.333   4.651
 8047SOL    HW125040   3.387   5.335   4.709
 8047SOL    HW225041   3.244   5.260   4.682
 8048SOL     OW25042   5.819   1.005   5.343
 8048SOL    HW125043   5.753   1.073   5.375
 8048SOL    HW225044   5.784   0.913   5.364
 8049SOL     OW25045   0.862   6.672   1.042
 8049SOL    HW125046   0.882   6.612   1.119
 8049SOL    HW225047   0.771   6.711   1.053
 8050SOL     OW25048   1.543   3.029   1.261
 8050SOL    HW125049   1.548   3.123   1.230
 8050SOL    HW225050   1.450   2.994   1.248
 8051SOL     OW25051   4.795   0.181   2.806
 8051SOL    HW125052   4.834   0.161   2.716
 8051SOL    HW225053   4.732   0.258   2.799
 8052SOL     OW25054   3.572   1.611   2.147
 8052SOL    HW125055   3.497   1.664   2.185
 8052SOL    HW225056   3.536   1.523   2.113
 8053SOL     OW25057   3.939   3.914   2.985
 8053SOL    HW125058   4.018   3.892   3.042
 8053SOL    HW225059   3.879   3.978   3.034
 8054SOL     OW25060   4.436   6.797   4.746
 8054SOL    HW125061   4.427   6.896   4.737
 8054SOL    HW225062   4.529   6.774   4.775
 8055SOL     OW25063   0.408   0.374   6.255
 8055SOL    HW125064   0.447   0.393   6.165
 8055SOL    HW225065   0.431   0.280   6.282
 8056SOL     OW25066   4.159   1.280   2.962
 8056SOL    HW125067   4.137   1.274   2.865
 8056SOL    HW225068   4.176   1.375   2.986
 8057SOL     OW25069   2.908   0.394   2.453
 8057SOL    HW125070   2.918   0.330   2.376
 8057SOL    HW225071   2.970   0.368   2.527
 8058SOL     OW25072   3.010   6.977   2.743
 8058SOL    HW125073   2.916   6.974   2.708
 8058SOL    HW225074   3.023   0.039   2.796
 8059SOL     OW25075   3.988   2.206   4.684
 8059SOL    HW125076   4.053   2.164   4.622
 8059SOL    HW225077   3.990   2.306   4.672
 8060SOL     OW25078   0.255   1.271   4.861
 8060SOL    HW125079   0.314   1.250   4.939
 8060SOL    HW225080   0.176   1.210   4.862
 8061SOL     OW25081   6.398   5.451   2.506
 8061SOL    HW125082   6.463   5.506   2.454
 8061SOL    HW225083   6.332   5.512   2.551
 8062SOL     OW25084   1.730   3.997   4.391
 8062SOL    HW125085   1.686   4.025   4.306
 8062SOL    HW225086   1.819   4.044   4.399
 8063SOL     OW25087   2.044   3.728   0.077
 8063SOL    HW125088   2.143   3.719   0.073
 8063SOL    HW225089   2.011   3.772   7.015
 8064SOL     OW25090   0.223   4.490   0.012
 8064SOL    HW125091   0.280   4.410   7.019
 8064SOL    HW225092   0.127   4.467   7.019
 8065SOL     OW25093   4.268   0.058   4.677
 8065SOL    HW125094   4.197   0.127   4.691
 8065SOL    HW225095   4.308   0.068   4.586
 8066SOL     OW25096   1.598   0.988   6.958
 8066SOL    HW125097   1.504   0.958   6.943
 8066SOL    HW225098   1.645   0.922   7.017
 8067SOL     OW25099   3.951   2.979   1.816
 8067SOL    HW125100   3.906   2.920   1.749
 8067SOL    HW225101   3.900   3.064   1.826
 8068SOL     OW25102   6.710   5.074   4.939
 8068SOL    HW125103   6.748   5.049   5.028
 8068SOL    HW225104   6.785   5.082   4.873
 8069SOL     OW25105   2.330   6.272   1.403
 8069SOL    HW125106   2.330   6.190   1.461
 8069SOL    HW225107   2.424   6.301   1.387
 8070SOL     OW25108   3.352   5.560   1.604
 8070SOL    HW125109   3.263   5.566   1.650
 8070SOL    HW225110   3.424   5.544   1.672
 8071SOL     OW25111   4.265   6.422   5.063
 8071SOL    HW125112   4.304   6.332   5.082
 8071SOL    HW225113   4.172   6.410   5.025
 8072SOL     OW25114   4.560   1.321   0.501
 8072SOL    HW125115   4.539   1.286   0.592
 8072SOL    HW225116   4.485   1.300   0.439
 8073SOL     OW25117   4.798   6.954   6.190
 8073SOL    HW125118   4.819   6.963   6.288
 8073SOL    HW225119   4.734   6.879   6.177
 8074SOL     OW25120   2.714   3.395   0.602
 8074SOL    HW125121   2.772   3.476   0.599
 8074SOL    HW225122   2.629   3.416   0.651
 8075SOL     OW25123   6.616   1.261   1.565
 8075SOL    HW125124   6.607   1.261   1.466
 8075SOL    HW225125   6.678   1.188   1.593
 8076SOL     OW25126   5.264   2.565   5.264
 8076SOL    HW125127   5.330   2.584   5.337
 8076SOL    HW225128   5.225   2.474   5.278
 8077SOL     OW25129   0.960   6.767   1.442
 8077SOL    HW125130   1.038   6.738   1.499
 8077SOL    HW225131   0.988   6.767   1.346
 8078SOL     OW25132   6.539   1.693   0.346
 8078SOL    HW125133   6.520   1.785   0.312
 8078SOL    HW225134   6.492   1.680   0.433
 8079SOL     OW25135   6.540   2.197   2.932
 8079SOL    HW125136   6.522   2.111   2.980
 8079SOL    HW225137   6.555   2.270   3.000
 8080SOL     OW25138   2.057   3.677   0.803
 8080SOL    HW125139   1.964   3.676   0.838
 8080SOL    HW225140   2.075   3.766   0.759
 8081SOL     OW25141   5.454   1.133   5.755
 8081SOL    HW125142   5.480   1.042   5.787
 8081SOL    HW225143   5.424   1.189   5.832
 8082SOL     OW25144   5.812   2.395   3.568
 8082SOL    HW125145   5.829   2.325   3.499
 8082SOL    HW225146   5.894   2.409   3.623
 8083SOL     OW25147   5.223   3.349   2.537
 8083SOL    HW125148   5.278   3.429   2.562
 8083SOL    HW225149   5.232   3.279   2.608
 8084SOL     OW25150   6.448   6.015   1.355
 8084SOL    HW125151   6.514   6.076   1.311
 8084SOL    HW225152   6.439   6.040   1.452
 8085SOL     OW25153   5.600   0.024   1.322
 8085SOL    HW125154   5.534   6.995   1.266
 8085SOL    HW225155   5.631   0.105   1.273
 8086SOL     OW25156   4.333   0.252   4.231
 8086SOL    HW125157   4.335   0.179   4.299
 8086SOL    HW225158   4.390   0.227   4.153
 8087SOL     OW25159   2.658   2.515   1.041
 8087SOL    HW125160   2.697   2.428   1.070
 8087SOL    HW225161   2.727   2.587   1.049
 8088SOL     OW25162   5.838   0.968   2.127
 8088SOL    HW125163   5.804   1.062   2.133
 8088SOL    HW225164   5.875   0.952   2.035
 8089SOL     OW25165   5.083   3.315   0.084
 8089SOL    HW125166   5.138   3.234   0.065
 8089SOL    HW225167   4.997   3.310   0.033
 8090SOL     OW25168   5.383   1.978   6.752
 8090SOL    HW125169   5.379   2.064   6.702
 8090SOL    HW225170   5.448   1.916   6.707
 8091SOL     OW25171   3.344   4.766   6.883
 8091SOL    HW125172   3.273   4.817   6.932
 8091SOL    HW225173   3.301   4.707   6.815
 8092SOL     OW25174   1.391   1.505   4.656
 8092SOL    HW125175   1.360   1.480   4.747
 8092SOL    HW225176   1.371   1.431   4.592
 8093SOL     OW25177   5.909   5.660   1.524
 8093SOL    HW125178   5.819   5.656   1.480
 8093SOL    HW225179   5.945   5.567   1.535
 8094SOL     OW25180   1.684   4.412   6.184
 8094SOL    HW125181   1.680   4.373   6.092
 8094SOL    HW225182   1.679   4.338   6.251
 8095SOL     OW25183   6.015   3.711   4.525
 8095SOL    HW125184   5.998   3.621   4.565
 8095SOL    HW225185   6.020   3.703   4.426
 8096SOL     OW25186   2.878   5.405   2.879
 8096SOL    HW125187   2.912   5.311   2.875
 8096SOL    HW225188   2.843   5.433   2.790
 8097SOL     OW25189   4.958   0.316   3.187
 8097SOL    HW125190   4.896   0.316   3.265
 8097SOL    HW225191   4.935   0.393   3.127
 8098SOL     OW25192   2.293   5.877   4.066
 8098SOL    HW125193   2.250   5.859   3.977
 8098SOL    HW225194   2.248   5.823   4.137
 8099SOL     OW25195   5.962   6.879   4.527
 8099SOL    HW125196   5.890   6.925   4.577
 8099SOL    HW225197   6.028   6.840   4.592
 8100SOL     OW25198   0.549   6.690   0.204
 8100SOL    HW125199   0.527   6.761   0.137
 8100SOL    HW225200   0.535   6.726   0.296
 8101SOL     OW25201   1.391   7.011   5.043
 8101SOL    HW125202   1.317   0.042   5.003
 8101SOL    HW225203   1.360   6.971   5.129
 8102SOL     OW25204   0.807   5.421   6.318
 8102SOL    HW125205   0.752   5.441   6.237
 8102SOL    HW225206   0.754   5.364   6.381
 8103SOL     OW25207   3.765   1.508   1.886
 8103SOL    HW125208   3.715   1.590   1.859
 8103SOL    HW225209   3.855   1.508   1.843
 8104SOL     OW25210   4.019   6.948   5.793
 8104SOL    HW125211   4.094   6.882   5.806
 8104SOL    HW225212   3.945   6.904   5.742
 8105SOL     OW25213   2.616   2.161   3.925
 8105SOL    HW125214   2.563   2.199   3.849
 8105SOL    HW225215   2.689   2.103   3.890
 8106SOL     OW25216   1.432   4.401   3.498
 8106SOL    HW125217   1.429   4.330   3.569
 8106SOL    HW225218   1.489   4.370   3.422
 8107SOL     OW25219   2.294   6.403   5.920
 8107SOL    HW125220   2.297   6.307   5.895
 8107SOL    HW225221   2.241   6.454   5.852
 8108SOL     OW25222   6.726   3.629   4.744
 8108SOL    HW125223   6.727   3.529   4.738
 8108SOL    HW225224   6.686   3.657   4.831
 8109SOL     OW25225   2.193   4.796   5.204
 8109SOL    HW125226   2.147   4.723   5.153
 8109SOL    HW225227   2.138   4.880   5.198
 8110SOL     OW25228   2.235   6.681   0.621
 8110SOL    HW125229   2.258   6.750   0.690
 8110SOL    HW225230   2.248   6.719   0.530
 8111SOL     OW25231   2.837   6.399   4.944
 8111SOL    HW125232   2.870   6.470   5.007
 8111SOL    HW225233   2.850   6.309   4.986
 8112SOL     OW25234   2.903   0.450   5.429
 8112SOL    HW125235   2.824   0.439   5.489
 8112SOL    HW225236   2.888   0.527   5.367
 8113SOL     OW25237   3.639   2.168   0.417
 8113SOL    HW125238   3.677   2.131   0.333
 8113SOL    HW225239   3.713   2.189   0.481
 8114SOL     OW25240   2.173   3.118   2.558
 8114SOL    HW125241   2.235   3.040   2.558
 8114SOL    HW225242   2.162   3.152   2.465
 8115SOL     OW25243   3.148   1.418   1.490
 8115SOL    HW125244   3.055   1.421   1.527
 8115SOL    HW225245   3.207   1.478   1.545
 8116SOL     OW25246   6.386   0.059   5.326
 8116SOL    HW125247   6.368   0.091   5.233
 8116SOL    HW225248   6.375   0.135   5.390
 8117SOL     OW25249   1.432   1.708   4.338
 8117SOL    HW125250   1.434   1.806   4.358
 8117SOL    HW225251   1.357   1.665   4.389
 8118SOL     OW25252   1.111   4.165   5.550
 8118SOL    HW125253   1.073   4.233   5.612
 8118SOL    HW225254   1.174   4.210   5.487
 8119SOL     OW25255   0.339   5.510   3.646
 8119SOL    HW125256   0.425   5.558   3.664
 8119SOL    HW225257   0.330   5.432   3.707
 8120SOL     OW25258   4.216   4.436   0.737
 8120SOL    HW125259   4.313   4.421   0.717
 8120SOL    HW225260   4.203   4.444   0.836
 8121SOL     OW25261   0.121   6.841   3.034
 8121SOL    HW125262   0.033   6.887   3.023
 8121SOL    HW225263   0.182   6.866   2.958
 8122SOL     OW25264   0.666   5.676   1.282
 8122SOL    HW125265   0.673   5.602   1.215
 8122SOL    HW225266   0.592   5.738   1.255
 8123SOL     OW25267   1.047   6.939   6.320
 8123SOL    HW125268   1.064   6.873   6.393
 8123SOL    HW225269   1.033   6.891   6.234
 8124SOL     OW25270   1.448   5.771   1.008
 8124SOL    HW125271   1.391   5.751   1.088
 8124SOL    HW225272   1.539   5.734   1.023
 8125SOL     OW25273   6.098   4.599   2.774
 8125SOL    HW125274   5.998   4.604   2.773
 8125SOL    HW225275   6.137   4.687   2.747
 8126SOL     OW25276   5.652   4.172   3.270
 8126SOL    HW125277   5.609   4.256   3.239
 8126SOL    HW225278   5.731   4.193   3.327
 8127SOL     OW25279   2.077   5.324   0.830
 8127SOL    HW125280   2.047   5.369   0.747
 8127SOL    HW225281   2.047   5.377   0.910
 8128SOL     OW25282   3.081   2.678   6.648
 8128SOL    HW125283   2.997   2.645   6.603
 8128SOL    HW225284   3.078   2.654   6.745
 8129SOL     OW25285   5.588   0.573   6.321
 8129SOL    HW125286   5.498   0.535   6.343
 8129SOL    HW225287   5.591   0.669   6.349
 8130SOL     OW25288   1.055   5.266   6.323
 8130SOL    HW125289   0.978   5.322   6.292
 8130SOL    HW225290   1.130   5.273   6.259
 8131SOL     OW25291   3.466   0.972   0.492
 8131SOL    HW125292   3.387   0.911   0.501
 8131SOL    HW225293   3.516   0.975   0.579
 8132SOL     OW25294   6.110   5.343   4.494
 8132SOL    HW125295   6.201   5.377   4.518
 8132SOL    HW225296   6.052   5.420   4.465
 8133SOL     OW25297   2.954   5.220   3.217
 8133SOL    HW125298   2.948   5.148   3.149
 8133SOL    HW225299   2.959   5.309   3.172
 8134SOL     OW25300   2.010   2.114   4.201
 8134SOL    HW125301   1.980   2.041   4.263
 8134SOL    HW225302   2.109   2.114   4.195
 8135SOL     OW25303   3.569   5.094   2.148
 8135SOL    HW125304   3.628   5.013   2.151
 8135SOL    HW225305   3.476   5.068   2.176
 8136SOL     OW25306   3.774   5.171   2.399
 8136SOL    HW125307   3.820   5.247   2.353
 8136SOL    HW225308   3.773   5.091   2.339
 8137SOL     OW25309   1.839   3.148   4.926
 8137SOL    HW125310   1.925   3.185   4.890
 8137SOL    HW225311   1.793   3.218   4.980
 8138SOL     OW25312   5.733   1.873   2.273
 8138SOL    HW125313   5.796   1.893   2.348
 8138SOL    HW225314   5.640   1.902   2.299
 8139SOL     OW25315   0.857   3.032   3.105
 8139SOL    HW125316   0.773   2.976   3.106
 8139SOL    HW225317   0.839   3.118   3.153
 8140SOL     OW25318   4.607   7.018   0.250
 8140SOL    HW125319   4.628   0.056   0.173
 8140SOL    HW225320   4.512   0.010   0.278
 8141SOL     OW25321   5.108   1.340   5.758
 8141SOL    HW125322   5.100   1.337   5.658
 8141SOL    HW225323   5.026   1.299   5.798
 8142SOL     OW25324   2.242   5.945   0.141
 8142SOL    HW125325   2.275   5.978   0.229
 8142SOL    HW225326   2.154   5.899   0.154
 8143SOL     OW25327   5.173   4.523   0.623
 8143SOL    HW125328   5.246   4.463   0.657
 8143SOL    HW225329   5.169   4.518   0.524
 8144SOL     OW25330   0.433   5.775   5.876
 8144SOL    HW125331   0.369   5.843   5.841
 8144SOL    HW225332   0.491   5.817   5.946
 8145SOL     OW25333   5.702   5.693   0.650
 8145SOL    HW125334   5.798   5.714   0.666
 8145SOL    HW225335   5.646   5.771   0.678
 8146SOL     OW25336   6.114   0.253   4.507
 8146SOL    HW125337   6.031   0.249   4.451
 8146SOL    HW225338   6.192   0.223   4.452
 8147SOL     OW25339   0.767   0.678   6.498
 8147SOL    HW125340   0.792   0.590   6.458
 8147SOL    HW225341   0.709   0.662   6.578
 8148SOL     OW25342   4.141   4.095   6.821
 8148SOL    HW125343   4.206   4.032   6.864
 8148SOL    HW225344   4.184   4.138   6.742
 8149SOL     OW25345   1.160   0.107   4.723
 8149SOL    HW125346   1.234   0.166   4.757
 8149SOL    HW225347   1.159   0.110   4.623
 8150SOL     OW25348   0.829   3.418   0.923
 8150SOL    HW125349   0.744   3.397   0.972
 8150SOL    HW225350   0.823   3.382   0.830
 8151SOL     OW25351   6.056   4.778   3.699
 8151SOL    HW125352   5.984   4.844   3.718
 8151SOL    HW225353   6.114   4.767   3.779
 8152SOL     OW25354   4.573   1.603   3.113
 8152SOL    HW125355   4.495   1.545   3.135
 8152SOL    HW225356   4.554   1.697   3.142
 8153SOL     OW25357   1.058   0.740   3.917
 8153SOL    HW125358   1.096   0.662   3.867
 8153SOL    HW225359   1.075   0.729   4.014
 8154SOL     OW25360   2.296   1.537   3.434
 8154SOL    HW125361   2.361   1.463   3.449
 8154SOL    HW225362   2.260   1.531   3.341
 8155SOL     OW25363   1.275   4.450   2.491
 8155SOL    HW125364   1.336   4.372   2.506
 8155SOL    HW225365   1.261   4.498   2.578
 8156SOL     OW25366   5.857   5.304   1.116
 8156SOL    HW125367   5.925   5.231   1.109
 8156SOL    HW225368   5.900   5.392   1.100
 8157SOL     OW25369   6.230   3.320   6.286
 8157SOL    HW125370   6.193   3.343   6.376
 8157SOL    HW225371   6.275   3.231   6.291
 8158SOL     OW25372   5.597   4.827   5.966
 8158SOL    HW125373   5.569   4.902   6.026
 8158SOL    HW225374   5.693   4.806   5.983
 8159SOL     OW25375   3.932   6.692   6.073
 8159SOL    HW125376   3.834   6.677   6.068
 8159SOL    HW225377   3.950   6.782   6.113
 8160SOL     OW25378   5.442   1.653   3.039
 8160SOL    HW125379   5.516   1.653   3.107
 8160SOL    HW225380   5.410   1.559   3.025
 8161SOL     OW25381   5.392   3.442   0.132
 8161SOL    HW125382   5.358   3.351   0.155
 8161SOL    HW225383   5.316   3.503   0.114
 8162SOL     OW25384   0.179   4.818   6.791
 8162SOL    HW125385   0.216   4.893   6.846
 8162SOL    HW225386   0.144   4.854   6.705
 8163SOL     OW25387   4.358   4.760   5.397
 8163SOL    HW125388   4.455   4.745   5.379
 8163SOL    HW225389   4.341   4.758   5.495
 8164SOL     OW25390   4.916   0.813   0.078
 8164SOL    HW125391   4.998   0.758   0.094
 8164SOL    HW225392   4.853   0.763   0.019
 8165SOL     OW25393   6.290   2.950   6.474
 8165SOL    HW125394   6.333   2.859   6.477
 8165SOL    HW225395   6.305   2.997   6.561
 8166SOL     OW25396   1.586   2.056   3.917
 8166SOL    HW125397   1.563   1.969   3.959
 8166SOL    HW225398   1.665   2.096   3.964
 8167SOL     OW25399   6.386   1.294   4.148
 8167SOL    HW125400   6.324   1.223   4.181
 8167SOL    HW225401   6.334   1.365   4.100
 8168SOL     OW25402   2.121   0.854   1.356
 8168SOL    HW125403   2.060   0.779   1.382
 8168SOL    HW225404   2.068   0.939   1.349
 8169SOL     OW25405   4.784   1.918   0.132
 8169SOL    HW125406   4.859   1.961   0.182
 8169SOL    HW225407   4.737   1.853   0.191
 8170SOL     OW25408   6.762   4.195   2.067
 8170SOL    HW125409   6.705   4.272   2.095
 8170SOL    HW225410   6.856   4.226   2.053
 8171SOL     OW25411   1.584   1.254   6.912
 8171SOL    HW125412   1.590   1.157   6.939
 8171SOL    HW225413   1.537   1.261   6.824
 8172SOL     OW25414   0.438   2.007   1.585
 8172SOL    HW125415   0.353   1.954   1.580
 8172SOL    HW225416   0.516   1.945   1.588
 8173SOL     OW25417   6.043   2.452   2.259
 8173SOL    HW125418   6.047   2.421   2.354
 8173SOL    HW225419   5.957   2.423   2.217
 8174SOL     OW25420   1.439   6.065   2.391
 8174SOL    HW125421   1.470   6.159   2.406
 8174SOL    HW225422   1.377   6.062   2.313
 8175SOL     OW25423   1.126   2.225   4.136
 8175SOL    HW125424   1.167   2.137   4.160
 8175SOL    HW225425   1.198   2.292   4.121
 8176SOL     OW25426   1.772   4.301   1.459
 8176SOL    HW125427   1.824   4.312   1.544
 8176SOL    HW225428   1.707   4.225   1.470
 8177SOL     OW25429   3.565   1.081   2.858
 8177SOL    HW125430   3.656   1.101   2.821
 8177SOL    HW225431   3.549   1.136   2.939
 8178SOL     OW25432   2.754   6.714   0.474
 8178SOL    HW125433   2.695   6.685   0.550
 8178SOL    HW225434   2.840   6.664   0.478
 8179SOL     OW25435   5.080   0.987   4.228
 8179SOL    HW125436   5.110   0.986   4.323
 8179SOL    HW225437   4.981   0.993   4.224
 8180SOL     OW25438   5.525   6.877   6.632
 8180SOL    HW125439   5.492   6.912   6.719
 8180SOL    HW225440   5.583   6.945   6.588
 8181SOL     OW25441   0.759   1.096   0.810
 8181SOL    HW125442   0.698   1.021   0.786
 8181SOL    HW225443   0.807   1.074   0.895
 8182SOL     OW25444   3.789   3.758   5.012
 8182SOL    HW125445   3.888   3.748   4.999
 8182SOL    HW225446   3.741   3.681   4.969
 8183SOL     OW25447   6.656   0.605   5.047
 8183SOL    HW125448   6.654   0.587   4.949
 8183SOL    HW225449   6.643   0.703   5.063
 8184SOL     OW25450   1.247   6.898   6.754
 8184SOL    HW125451   1.335   6.898   6.802
 8184SOL    HW225452   1.234   6.986   6.709
 8185SOL     OW25453   1.504   0.685   0.935
 8185SOL    HW125454   1.431   0.699   0.868
 8185SOL    HW225455   1.471   0.712   1.026
 8186SOL     OW25456   1.575   5.180   6.524
 8186SOL    HW125457   1.525   5.095   6.509
 8186SOL    HW225458   1.511   5.257   6.521
 8187SOL     OW25459   2.311   1.784   5.474
 8187SOL    HW125460   2.337   1.800   5.378
 8187SOL    HW225461   2.354   1.700   5.506
 8188SOL     OW25462   4.401   1.923   3.959
 8188SOL    HW125463   4.419   2.012   3.999
 8188SOL    HW225464   4.303   1.903   3.962
 8189SOL     OW25465   4.861   4.885   3.817
 8189SOL    HW125466   4.889   4.815   3.751
 8189SOL    HW225467   4.831   4.840   3.902
 8190SOL     OW25468   5.498   3.628   3.169
 8190SOL    HW125469   5.423   3.690   3.147
 8190SOL    HW225470   5.583   3.664   3.131
 8191SOL     OW25471   4.504   5.027   2.004
 8191SOL    HW125472   4.490   4.935   1.968
 8191SOL    HW225473   4.592   5.031   2.050
 8192SOL     OW25474   1.723   5.218   2.933
 8192SOL    HW125475   1.656   5.291   2.941
 8192SOL    HW225476   1.681   5.138   2.890
 8193SOL     OW25477   6.853   5.174   4.691
 8193SOL    HW125478   6.923   5.244   4.679
 8193SOL    HW225479   6.824   5.140   4.602
 8194SOL     OW25480   4.691   6.884   0.907
 8194SOL    HW125481   4.682   6.784   0.915
 8194SOL    HW225482   4.670   6.927   0.994
 8195SOL     OW25483   5.816   6.587   4.115
 8195SOL    HW125484   5.887   6.603   4.185
 8195SOL    HW225485   5.746   6.658   4.124
 8196SOL     OW25486   4.481   0.911   0.276
 8196SOL    HW125487   4.503   1.005   0.302
 8196SOL    HW225488   4.533   0.848   0.334
 8197SOL     OW25489   4.715   1.783   1.747
 8197SOL    HW125490   4.796   1.830   1.713
 8197SOL    HW225491   4.659   1.847   1.800
 8198SOL     OW25492   2.780   0.589   1.677
 8198SOL    HW125493   2.859   0.604   1.737
 8198SOL    HW225494   2.699   0.568   1.732
 8199SOL     OW25495   4.549   2.641   5.812
 8199SOL    HW125496   4.646   2.668   5.811
 8199SOL    HW225497   4.543   2.542   5.822
 8200SOL     OW25498   5.712   4.127   1.866
 8200SOL    HW125499   5.623   4.153   1.903
 8200SOL    HW225500   5.783   4.142   1.936
 8201SOL     OW25501   0.528   0.847   5.060
 8201SOL    HW125502   0.595   0.785   5.020
 8201SOL    HW225503   0.575   0.919   5.111
 8202SOL     OW25504   0.123   6.287   2.016
 8202SOL    HW125505   0.029   6.295   2.051
 8202SOL    HW225506   0.160   6.198   2.043
 8203SOL     OW25507   1.837   2.319   6.853
 8203SOL    HW125508   1.917   2.332   6.795
 8203SOL    HW225509   1.850   2.368   6.939
 8204SOL     OW25510   4.257   3.552   0.904
 8204SOL    HW125511   4.353   3.566   0.928
 8204SOL    HW225512   4.246   3.559   0.805
 8205SOL     OW25513   0.744   2.374   0.246
 8205SOL    HW125514   0.707   2.435   0.315
 8205SOL    HW225515   0.693   2.289   0.245
 8206SOL     OW25516   4.403   1.391   0.005
 8206SOL    HW125517   4.314   1.435   7.020
 8206SOL    HW225518   4.445   1.387   6.937
 8207SOL     OW25519   3.319   3.180   4.021
 8207SOL    HW125520   3.286   3.126   3.943
 8207SOL    HW225521   3.254   3.253   4.041
 8208SOL     OW25522   0.631   1.291   0.309
 8208SOL    HW125523   0.710   1.257   0.360
 8208SOL    HW225524   0.608   1.226   0.236
 8209SOL     OW25525   0.295   0.789   5.184
 8209SOL    HW125526   0.382   0.818   5.146
 8209SOL    HW225527   0.281   0.691   5.166
 8210SOL     OW25528   1.696   2.724   0.013
 8210SOL    HW125529   1.738   2.634   0.002
 8210SOL    HW225530   1.766   2.791   0.034
 8211SOL     OW25531   3.076   4.370   1.167
 8211SOL    HW125532   3.015   4.366   1.246
 8211SOL    HW225533   3.070   4.284   1.116
 8212SOL     OW25534   1.187   1.988   3.072
 8212SOL    HW125535   1.145   1.904   3.037
 8212SOL    HW225536   1.152   2.066   3.021
 8213SOL     OW25537   6.824   4.686   2.118
 8213SOL    HW125538   6.834   4.598   2.165
 8213SOL    HW225539   6.888   4.690   2.041
 8214SOL     OW25540   5.723   4.967   3.302
 8214SOL    HW125541   5.764   5.010   3.382
 8214SOL    HW225542   5.766   5.003   3.219
 8215SOL     OW25543   3.612   5.432   5.020
 8215SOL    HW125544   3.691   5.418   5.080
 8215SOL    HW225545   3.619   5.522   4.977
 8216SOL     OW25546   5.234   5.589   4.236
 8216SOL    HW125547   5.134   5.593   4.233
 8216SOL    HW225548   5.266   5.617   4.327
 8217SOL     OW25549   1.818   4.720   0.582
 8217SOL    HW125550   1.847   4.664   0.660
 8217SOL    HW225551   1.874   4.697   0.502
 8218SOL     OW25552   0.709   1.783   6.784
 8218SOL    HW125553   0.695   1.882   6.788
 8218SOL    HW225554   0.717   1.747   6.877
 8219SOL     OW25555   5.006   2.213   0.901
 8219SOL    HW125556   4.992   2.116   0.880
 8219SOL    HW225557   4.972   2.232   0.993
 8220SOL     OW25558   3.936   3.018   3.098
 8220SOL    HW125559   3.845   2.977   3.109
 8220SOL    HW225560   3.953   3.037   3.002
 8221SOL     OW25561   4.815   6.059   4.048
 8221SOL    HW125562   4.792   6.062   4.145
 8221SOL    HW225563   4.890   5.995   4.033
 8222SOL     OW25564   5.347   1.749   2.227
 8222SOL    HW125565   5.256   1.734   2.266
 8222SOL    HW225566   5.359   1.691   2.147
 8223SOL     OW25567   0.895   4.537   5.517
 8223SOL    HW125568   0.938   4.513   5.430
 8223SOL    HW225569   0.846   4.624   5.507
 8224SOL     OW25570   0.994   2.497   2.938
 8224SOL    HW125571   0.970   2.591   2.916
 8224SOL    HW225572   0.920   2.454   2.989
 8225SOL     OW25573   4.413   1.149   0.659
 8225SOL    HW125574   4.462   1.066   0.688
 8225SOL    HW225575   4.318   1.125   0.636
 8226SOL     OW25576   5.082   0.595   1.891
 8226SOL    HW125577   5.126   0.685   1.882
 8226SOL    HW225578   4.989   0.607   1.926
 8227SOL     OW25579   0.681   2.497   3.918
 8227SOL    HW125580   0.752   2.433   3.888
 8227SOL    HW225581   0.720   2.563   3.982
 8228SOL     OW25582   6.901   2.915   5.646
 8228SOL    HW125583   6.883   3.013   5.636
 8228SOL    HW225584   6.834   2.875   5.709
 8229SOL     OW25585   3.285   5.086   0.168
 8229SOL    HW125586   3.331   5.064   0.254
 8229SOL    HW225587   3.354   5.105   0.097
 8230SOL     OW25588   5.525   0.035   5.381
 8230SOL    HW125589   5.586   7.021   5.310
 8230SOL    HW225590   5.527   0.135   5.379
 8231SOL     OW25591   3.808   6.108   1.574
 8231SOL    HW125592   3.763   6.141   1.657
 8231SOL    HW225593   3.762   6.146   1.494
 8232SOL     OW25594   4.554   0.901   0.670
 8232SOL    HW125595   4.541   0.817   0.618
 8232SOL    HW225596   4.641   0.943   0.645
 8233SOL     OW25597   0.745   5.829   6.511
 8233SOL    HW125598   0.754   5.782   6.423
 8233SOL    HW225599   0.833   5.827   6.559
 8234SOL     OW25600   2.416   3.239   0.389
 8234SOL    HW125601   2.387   3.324   0.346
 8234SOL    HW225602   2.362   3.163   0.353
 8235SOL     OW25603   2.131   2.802   0.784
 8235SOL    HW125604   2.171   2.835   0.870
 8235SOL    HW225605   2.053   2.860   0.759
 8236SOL     OW25606   6.457   4.027   0.283
 8236SOL    HW125607   6.503   3.945   0.315
 8236SOL    HW225608   6.386   4.053   0.348
 8237SOL     OW25609   4.881   6.173   4.617
 8237SOL    HW125610   4.861   6.221   4.703
 8237SOL    HW225611   4.895   6.239   4.544
 8238SOL     OW25612   1.643   3.898   0.012
 8238SOL    HW125613   1.731   3.945   0.024
 8238SOL    HW225614   1.571   3.967   0.004
 8239SOL     OW25615   6.304   1.934   5.646
 8239SOL    HW125616   6.318   1.836   5.658
 8239SOL    HW225617   6.308   1.957   5.549
 8240SOL     OW25618   3.576   3.780   2.728
 8240SOL    HW125619   3.642   3.845   2.766
 8240SOL    HW225620   3.609   3.687   2.743
 8241SOL     OW25621   3.426   6.636   0.414
 8241SOL    HW125622   3.420   6.541   0.383
 8241SOL    HW225623   3.498   6.683   0.363
 8242SOL     OW25624   1.200   4.645   5.734
 8242SOL    HW125625   1.151   4.666   5.818
 8242SOL    HW225626   1.268   4.574   5.751
 8243SOL     OW25627   0.973   3.051   6.618
 8243SOL    HW125628   0.919   2.972   6.588
 8243SOL    HW225629   1.064   3.021   6.644
 8244SOL     OW25630   0.813   6.663   3.353
 8244SOL    HW125631   0.880   6.634   3.421
 8244SOL    HW225632   0.803   6.762   3.357
 8245SOL     OW25633   3.758   1.312   2.612
 8245SOL    HW125634   3.758   1.374   2.533
 8245SOL    HW225635   3.752   1.217   2.580
 8246SOL     OW25636   6.888   4.080   5.526
 8246SOL    HW125637   6.852   4.158   5.474
 8246SOL    HW225638   6.988   4.083   5.526
 8247SOL     OW25639   1.138   1.173   1.571
 8247SOL    HW125640   1.222   1.134   1.533
 8247SOL    HW225641   1.069   1.177   1.500
 8248SOL     OW25642   5.769   4.662   3.631
 8248SOL    HW125643   5.748   4.650   3.534
 8248SOL    HW225644   5.866   4.683   3.642
 8249SOL     OW25645   1.902   3.741   4.952
 8249SOL    HW125646   1.904   3.796   5.035
 8249SOL    HW225647   1.846   3.659   4.967
 8250SOL     OW25648   3.337   4.094   2.276
 8250SOL    HW125649   3.308   4.113   2.370
 8250SOL    HW225650   3.434   4.117   2.266
 8251SOL     OW25651   5.994   2.650   4.631
 8251SOL    HW125652   6.049   2.651   4.547
 8251SOL    HW225653   5.903   2.688   4.611
 8252SOL     OW25654   3.187   3.383   0.407
 8252SOL    HW125655   3.143   3.470   0.431
 8252SOL    HW225656   3.230   3.344   0.488
 8253SOL     OW25657   3.200   3.390   5.007
 8253SOL    HW125658   3.220   3.480   5.047
 8253SOL    HW225659   3.263   3.322   5.046
 8254SOL     OW25660   4.004   4.870   4.643
 8254SOL    HW125661   3.953   4.827   4.568
 8254SOL    HW225662   4.101   4.871   4.621
 8255SOL     OW25663   3.706   6.052   4.567
 8255SOL    HW125664   3.756   6.090   4.489
 8255SOL    HW225665   3.645   5.980   4.535
 8256SOL     OW25666   6.359   0.134   2.813
 8256SOL    HW125667   6.425   0.179   2.872
 8256SOL    HW225668   6.279   0.193   2.801
 8257SOL     OW25669   6.774   4.191   3.350
 8257SOL    HW125670   6.858   4.144   3.376
 8257SOL    HW225671   6.707   4.185   3.424
 8258SOL     OW25672   5.233   1.273   0.650
 8258SOL    HW125673   5.260   1.177   0.643
 8258SOL    HW225674   5.313   1.328   0.677
 8259SOL     OW25675   3.909   1.498   3.740
 8259SOL    HW125676   3.999   1.541   3.750
 8259SOL    HW225677   3.871   1.521   3.651
 8260SOL     OW25678   2.820   0.633   1.267
 8260SOL    HW125679   2.815   0.694   1.188
 8260SOL    HW225680   2.766   0.671   1.342
 8261SOL     OW25681   6.060   1.416   1.155
 8261SOL    HW125682   5.995   1.344   1.130
 8261SOL    HW225683   6.126   1.428   1.080
 8262SOL     OW25684   0.337   2.557   0.823
 8262SOL    HW125685   0.414   2.605   0.866
 8262SOL    HW225686   0.309   2.606   0.741
 8263SOL     OW25687   0.152   2.286   0.264
 8263SOL    HW125688   0.056   2.310   0.279
 8263SOL    HW225689   0.160   2.235   0.178
 8264SOL     OW25690   1.296   5.906   2.562
 8264SOL    HW125691   1.253   5.854   2.489
 8264SOL    HW225692   1.349   5.981   2.523
 8265SOL     OW25693   1.207   6.778   1.611
 8265SOL    HW125694   1.256   6.695   1.638
 8265SOL    HW225695   1.273   6.847   1.580
 8266SOL     OW25696   2.056   0.503   2.939
 8266SOL    HW125697   2.139   0.471   2.894
 8266SOL    HW225698   1.985   0.433   2.931
 8267SOL     OW25699   1.807   3.194   1.345
 8267SOL    HW125700   1.778   3.234   1.258
 8267SOL    HW225701   1.903   3.165   1.338
 8268SOL     OW25702   2.434   6.433   6.309
 8268SOL    HW125703   2.465   6.515   6.261
 8268SOL    HW225704   2.351   6.454   6.360
 8269SOL     OW25705   5.759   1.484   1.198
 8269SOL    HW125706   5.844   1.537   1.207
 8269SOL    HW225707   5.758   1.410   1.266
 8270SOL     OW25708   2.534   0.038   4.396
 8270SOL    HW125709   2.451   7.020   4.433
 8270SOL    HW225710   2.613   7.008   4.427
 8271SOL     OW25711   6.815   0.836   2.278
 8271SOL    HW125712   6.819   0.934   2.258
 8271SOL    HW225713   6.890   0.789   2.231
 8272SOL     OW25714   4.831   0.893   1.270
 8272SOL    HW125715   4.756   0.908   1.207
 8272SOL    HW225716   4.818   0.949   1.352
 8273SOL     OW25717   1.800   6.659   0.921
 8273SOL    HW125718   1.850   6.703   0.995
 8273SOL    HW225719   1.776   6.566   0.947
 8274SOL     OW25720   4.628   4.654   3.556
 8274SOL    HW125721   4.594   4.748   3.554
 8274SOL    HW225722   4.728   4.654   3.546
 8275SOL     OW25723   4.394   1.275   6.036
 8275SOL    HW125724   4.399   1.278   5.936
 8275SOL    HW225725   4.348   1.191   6.064
 8276SOL     OW25726   1.234   2.106   3.661
 8276SOL    HW125727   1.276   2.031   3.712
 8276SOL    HW225728   1.284   2.122   3.576
 8277SOL     OW25729   0.437   0.608   7.010
 8277SOL    HW125730   0.410   0.525   0.038
 8277SOL    HW225731   0.535   0.624   0.002
 8278SOL     OW25732   2.573   1.814   6.515
 8278SOL    HW125733   2.503   1.830   6.585
 8278SOL    HW225734   2.592   1.899   6.466
 8279SOL     OW25735   1.146   0.381   4.190
 8279SOL    HW125736   1.112   0.317   4.122
 8279SOL    HW225737   1.128   0.475   4.159
 8280SOL     OW25738   2.553   2.855   0.210
 8280SOL    HW125739   2.551   2.846   0.110
 8280SOL    HW225740   2.648   2.852   0.241
 8281SOL     OW25741   1.619   5.317   1.278
 8281SOL    HW125742   1.637   5.331   1.181
 8281SOL    HW225743   1.676   5.379   1.332
 8282SOL     OW25744   5.587   3.630   6.798
 8282SOL    HW125745   5.554   3.724   6.793
 8282SOL    HW225746   5.587   3.590   6.706
 8283SOL     OW25747   1.136   4.728   6.319
 8283SOL    HW125748   1.068   4.655   6.328
 8283SOL    HW225749   1.113   4.785   6.240
 8284SOL     OW25750   0.594   3.782   1.760
 8284SOL    HW125751   0.693   3.794   1.749
 8284SOL    HW225752   0.548   3.812   1.677
 8285SOL     OW25753   3.761   3.214   5.318
 8285SOL    HW125754   3.811   3.242   5.400
 8285SOL    HW225755   3.802   3.131   5.281
 8286SOL     OW25756   5.418   3.315   6.841
 8286SOL    HW125757   5.386   3.298   6.934
 8286SOL    HW225758   5.512   3.350   6.844
 8287SOL     OW25759   2.388   5.123   4.370
 8287SOL    HW125760   2.478   5.081   4.375
 8287SOL    HW225761   2.382   5.198   4.436
 8288SOL     OW25762   2.887   1.913   1.984
 8288SOL    HW125763   2.817   1.983   1.970
 8288SOL    HW225764   2.977   1.956   1.987
 8289SOL     OW25765   0.308   6.489   1.464
 8289SOL    HW125766   0.311   6.572   1.521
 8289SOL    HW225767   0.344   6.412   1.517
 8290SOL     OW25768   6.048   0.958   0.504
 8290SOL    HW125769   6.079   0.944   0.410
 8290SOL    HW225770   6.122   0.936   0.567
 8291SOL     OW25771   4.425   6.246   6.983
 8291SOL    HW125772   4.454   6.322   0.020
 8291SOL    HW225773   4.327   6.256   6.962
 8292SOL     OW25774   2.632   6.434   6.830
 8292SOL    HW125775   2.662   6.343   6.857
 8292SOL    HW225776   2.685   6.465   6.751
 8293SOL     OW25777   3.240   0.171   0.433
 8293SOL    HW125778   3.151   0.148   0.395
 8293SOL    HW225779   3.237   0.164   0.533
 8294SOL     OW25780   5.892   4.497   5.221
 8294SOL    HW125781   5.869   4.401   5.240
 8294SOL    HW225782   5.869   4.552   5.302
 8295SOL     OW25783   5.422   5.379   2.091
 8295SOL    HW125784   5.423   5.313   2.166
 8295SOL    HW225785   5.419   5.330   2.004
 8296SOL     OW25786   2.413   6.724   6.414
 8296SOL    HW125787   2.433   6.693   6.321
 8296SOL    HW225788   2.323   6.766   6.416
 8297SOL     OW25789   6.398   2.801   2.167
 8297SOL    HW125790   6.304   2.769   2.164
 8297SOL    HW225791   6.457   2.730   2.207
 8298SOL     OW25792   5.780   2.438   1.436
 8298SOL    HW125793   5.785   2.528   1.479
 8298SOL    HW225794   5.796   2.367   1.504
 8299SOL     OW25795   0.035   2.646   1.923
 8299SOL    HW125796   6.964   2.630   1.890
 8299SOL    HW225797   0.047   2.744   1.939
 8300SOL     OW25798   1.134   5.816   5.845
 8300SOL    HW125799   1.193   5.824   5.764
 8300SOL    HW225800   1.045   5.781   5.818
 8301SOL     OW25801   3.683   1.771   1.194
 8301SOL    HW125802   3.587   1.796   1.212
 8301SOL    HW225803   3.707   1.691   1.247
 8302SOL     OW25804   6.105   5.783   6.040
 8302SOL    HW125805   6.010   5.783   6.072
 8302SOL    HW225806   6.107   5.758   5.943
 8303SOL     OW25807   6.768   0.600   3.593
 8303SOL    HW125808   6.750   0.658   3.673
 8303SOL    HW225809   6.867   0.591   3.581
 8304SOL     OW25810   1.308   3.045   7.018
 8304SOL    HW125811   1.281   3.069   0.089
 8304SOL    HW225812   1.359   3.121   6.978
 8305SOL     OW25813   3.974   5.136   4.440
 8305SOL    HW125814   3.930   5.124   4.530
 8305SOL    HW225815   4.059   5.186   4.452
 8306SOL     OW25816   0.506   2.885   5.139
 8306SOL    HW125817   0.407   2.876   5.129
 8306SOL    HW225818   0.550   2.799   5.112
 8307SOL     OW25819   4.241   5.258   1.861
 8307SOL    HW125820   4.209   5.243   1.768
 8307SOL    HW225821   4.287   5.347   1.867
 8308SOL     OW25822   4.362   5.808   1.448
 8308SOL    HW125823   4.282   5.868   1.442
 8308SOL    HW225824   4.444   5.864   1.454
 8309SOL     OW25825   6.387   5.795   3.541
 8309SOL    HW125826   6.478   5.799   3.500
 8309SOL    HW225827   6.338   5.881   3.522
 8310SOL     OW25828   1.182   4.037   0.610
 8310SOL    HW125829   1.115   3.980   0.562
 8310SOL    HW225830   1.188   4.126   0.564
 8311SOL     OW25831   0.391   1.320   5.185
 8311SOL    HW125832   0.460   1.272   5.131
 8311SOL    HW225833   0.373   1.270   5.270
 8312SOL     OW25834   4.249   5.752   1.695
 8312SOL    HW125835   4.269   5.762   1.597
 8312SOL    HW225836   4.155   5.779   1.713
 8313SOL     OW25837   4.418   1.070   1.963
 8313SOL    HW125838   4.476   1.149   1.945
 8313SOL    HW225839   4.340   1.069   1.900
 8314SOL     OW25840   4.740   6.318   1.417
 8314SOL    HW125841   4.759   6.411   1.385
 8314SOL    HW225842   4.645   6.295   1.398
 8315SOL     OW25843   3.945   3.511   0.903
 8315SOL    HW125844   3.911   3.544   0.991
 8315SOL    HW225845   4.018   3.443   0.919
 8316SOL     OW25846   0.912   2.919   1.680
 8316SOL    HW125847   0.899   2.821   1.667
 8316SOL    HW225848   0.956   2.958   1.599
 8317SOL     OW25849   2.080   3.181   2.290
 8317SOL    HW125850   1.985   3.166   2.317
 8317SOL    HW225851   2.083   3.232   2.204
 8318SOL     OW25852   4.433   1.716   4.782
 8318SOL    HW125853   4.424   1.784   4.709
 8318SOL    HW225854   4.376   1.742   4.860
 8319SOL     OW25855   3.260   1.680   6.423
 8319SOL    HW125856   3.215   1.769   6.425
 8319SOL    HW225857   3.327   1.675   6.497
 8320SOL     OW25858   3.473   4.717   1.402
 8320SOL    HW125859   3.533   4.637   1.409
 8320SOL    HW225860   3.418   4.725   1.485
 8321SOL     OW25861   6.781   1.352   6.741
 8321SOL    HW125862   6.873   1.344   6.780
 8321SOL    HW225863   6.714   1.323   6.809
 8322SOL     OW25864   0.333   0.161   0.401
 8322SOL    HW125865   0.396   0.236   0.421
 8322SOL    HW225866   0.382   0.074   0.405
 8323SOL     OW25867   6.787   6.567   2.913
 8323SOL    HW125868   6.776   6.662   2.944
 8323SOL    HW225869   6.701   6.517   2.928
 8324SOL     OW25870   6.348   0.450   2.099
 8324SOL    HW125871   6.357   0.376   2.033
 8324SOL    HW225872   6.432   0.457   2.154
 8325SOL     OW25873   3.422   3.302   4.314
 8325SOL    HW125874   3.459   3.297   4.222
 8325SOL    HW225875   3.465   3.231   4.371
 8326SOL     OW25876   4.326   3.209   5.690
 8326SOL    HW125877   4.264   3.214   5.768
 8326SOL    HW225878   4.330   3.298   5.645
 8327SOL     OW25879   5.552   2.711   6.093
 8327SOL    HW125880   5.517   2.619   6.072
 8327SOL    HW225881   5.512   2.777   6.028
 8328SOL     OW25882   2.492   4.292   6.208
 8328SOL    HW125883   2.442   4.222   6.158
 8328SOL    HW225884   2.589   4.267   6.212
 8329SOL     OW25885   0.296   3.759   6.333
 8329SOL    HW125886   0.395   3.762   6.314
 8329SOL    HW225887   0.277   3.807   6.418
 8330SOL     OW25888   1.951   0.058   0.628
 8330SOL    HW125889   1.907   0.141   0.660
 8330SOL    HW225890   2.049   0.074   0.615
 8331SOL     OW25891   2.690   0.979   1.150
 8331SOL    HW125892   2.773   1.005   1.199
 8331SOL    HW225893   2.703   0.993   1.052
 8332SOL     OW25894   5.059   4.721   2.846
 8332SOL    HW125895   5.133   4.698   2.784
 8332SOL    HW225896   5.034   4.642   2.901
 8333SOL     OW25897   0.422   6.179   6.651
 8333SOL    HW125898   0.466   6.091   6.630
 8333SOL    HW225899   0.390   6.178   6.745
 8334SOL     OW25900   5.068   1.566   3.588
 8334SOL    HW125901   5.082   1.468   3.593
 8334SOL    HW225902   5.127   1.605   3.518
 8335SOL     OW25903   6.332   5.405   5.016
 8335SOL    HW125904   6.299   5.419   4.922
 8335SOL    HW225905   6.431   5.393   5.015
 8336SOL     OW25906   0.234   0.620   1.693
 8336SOL    HW125907   0.164   0.548   1.692
 8336SOL    HW225908   0.194   0.704   1.730
 8337SOL     OW25909   1.111   6.794   3.088
 8337SOL    HW125910   1.187   6.785   3.151
 8337SOL    HW225911   1.069   6.705   3.071
 8338SOL     OW25912   1.618   5.102   2.319
 8338SOL    HW125913   1.570   5.158   2.387
 8338SOL    HW225914   1.561   5.092   2.238
 8339SOL     OW25915   6.040   0.766   1.297
 8339SOL    HW125916   6.101   0.844   1.289
 8339SOL    HW225917   6.093   0.682   1.304
 8340SOL     OW25918   4.847   4.134   0.805
 8340SOL    HW125919   4.751   4.129   0.778
 8340SOL    HW225920   4.904   4.138   0.723
 8341SOL     OW25921   2.794   6.249   0.456
 8341SOL    HW125922   2.695   6.245   0.446
 8341SOL    HW225923   2.820   6.223   0.549
 8342SOL     OW25924   3.457   0.650   1.668
 8342SOL    HW125925   3.477   0.622   1.574
 8342SOL    HW225926   3.358   0.653   1.681
 8343SOL     OW25927   0.855   5.044   6.335
 8343SOL    HW125928   0.933   5.106   6.334
 8343SOL    HW225929   0.775   5.091   6.374
 8344SOL     OW25930   4.914   0.138   5.602
 8344SOL    HW125931   4.836   0.113   5.659
 8344SOL    HW225932   4.881   0.187   5.520
 8345SOL     OW25933   5.239   2.089   3.363
 8345SOL    HW125934   5.199   2.178   3.386
 8345SOL    HW225935   5.323   2.102   3.311
 8346SOL     OW25936   3.041   5.033   0.347
 8346SOL    HW125937   3.024   4.943   0.307
 8346SOL    HW225938   3.132   5.065   0.320
 8347SOL     OW25939   3.458   6.990   4.845
 8347SOL    HW125940   3.381   6.996   4.782
 8347SOL    HW225941   3.543   6.998   4.793
 8348SOL     OW25942   1.348   0.002   1.531
 8348SOL    HW125943   1.330   6.991   1.439
 8348SOL    HW225944   1.284   0.076   1.553
 8349SOL     OW25945   5.758   5.014   1.742
 8349SOL    HW125946   5.732   5.056   1.655
 8349SOL    HW225947   5.694   4.940   1.764
 8350SOL     OW25948   4.228   0.945   4.554
 8350SOL    HW125949   4.247   1.038   4.587
 8350SOL    HW225950   4.247   0.940   4.456
 8351SOL     OW25951   4.503   4.836   4.708
 8351SOL    HW125952   4.558   4.820   4.626
 8351SOL    HW225953   4.472   4.931   4.708
 8352SOL     OW25954   6.765   0.081   2.027
 8352SOL    HW125955   6.665   0.075   2.035
 8352SOL    HW225956   6.795   0.174   2.049
 8353SOL     OW25957   5.634   3.620   2.032
 8353SOL    HW125958   5.680   3.680   1.966
 8353SOL    HW225959   5.611   3.533   1.987
 8354SOL     OW25960   3.487   0.579   6.841
 8354SOL    HW125961   3.389   0.580   6.863
 8354SOL    HW225962   3.540   0.597   6.924
 8355SOL     OW25963   3.464   0.624   6.574
 8355SOL    HW125964   3.476   0.632   6.673
 8355SOL    HW225965   3.377   0.579   6.555
 8356SOL     OW25966   1.314   6.819   0.344
 8356SOL    HW125967   1.282   6.743   0.401
 8356SOL    HW225968   1.347   6.893   0.403
 8357SOL     OW25969   3.632   6.470   6.286
 8357SOL    HW125970   3.623   6.548   6.348
 8357SOL    HW225971   3.636   6.502   6.192
 8358SOL     OW25972   1.788   2.724   4.693
 8358SOL    HW125973   1.887   2.710   4.686
 8358SOL    HW225974   1.770   2.821   4.707
 8359SOL     OW25975   3.273   6.200   4.375
 8359SOL    HW125976   3.225   6.281   4.344
 8359SOL    HW225977   3.256   6.125   4.311
 8360SOL     OW25978   3.369   6.413   2.387
 8360SOL    HW125979   3.322   6.475   2.449
 8360SOL    HW225980   3.404   6.465   2.308
 8361SOL     OW25981   1.730   0.788   1.787
 8361SOL    HW125982   1.735   0.888   1.796
 8361SOL    HW225983   1.793   0.746   1.852
 8362SOL     OW25984   2.391   2.461   0.303
 8362SOL    HW125985   2.355   2.375   0.340
 8362SOL    HW225986   2.316   2.519   0.273
 8363SOL     OW25987   0.970   2.668   0.272
 8363SOL    HW125988   1.050   2.714   0.236
 8363SOL    HW225989   0.939   2.598   0.207
 8364SOL     OW25990   6.862   3.461   3.554
 8364SOL    HW125991   6.875   3.537   3.618
 8364SOL    HW225992   6.946   3.447   3.502
 8365SOL     OW25993   1.754   3.903   1.785
 8365SOL    HW125994   1.834   3.844   1.783
 8365SOL    HW225995   1.687   3.865   1.850
 8366SOL     OW25996   4.128   5.594   2.446
 8366SOL    HW125997   4.218   5.604   2.405
 8366SOL    HW225998   4.106   5.497   2.455
 8367SOL     OW25999   3.958   5.959   4.184
 8367SOL    HW126000   3.986   5.905   4.263
 8367SOL    HW226001   4.033   6.020   4.157
 8368SOL     OW26002   3.198   6.402   5.906
 8368SOL    HW126003   3.256   6.483   5.909
 8368SOL    HW226004   3.196   6.357   5.995
 8369SOL     OW26005   1.910   0.752   6.790
 8369SOL    HW126006   1.848   0.701   6.849
 8369SOL    HW226007   2.003   0.746   6.826
 8370SOL     OW26008   3.344   2.102   5.882
 8370SOL    HW126009   3.374   2.016   5.839
 8370SOL    HW226010   3.393   2.115   5.968
 8371SOL     OW26011   1.512   4.199   0.868
 8371SOL    HW126012   1.508   4.222   0.965
 8371SOL    HW226013   1.432   4.238   0.822
 8372SOL     OW26014   0.630   6.116   2.961
 8372SOL    HW126015   0.569   6.144   3.035
 8372SOL    HW226016   0.696   6.188   2.944
 8373SOL     OW26017   0.765   0.293   4.935
 8373SOL    HW126018   0.783   0.208   4.885
 8373SOL    HW226019   0.832   0.362   4.908
 8374SOL     OW26020   6.598   0.335   6.596
 8374SOL    HW126021   6.540   0.367   6.671
 8374SOL    HW226022   6.544   0.330   6.512
 8375SOL     OW26023   3.508   6.315   5.799
 8375SOL    HW126024   3.431   6.255   5.779
 8375SOL    HW226025   3.568   6.270   5.865
 8376SOL     OW26026   2.308   6.725   4.157
 8376SOL    HW126027   2.302   6.788   4.079
 8376SOL    HW226028   2.253   6.759   4.233
 8377SOL     OW26029   5.630   5.901   1.812
 8377SOL    HW126030   5.544   5.850   1.821
 8377SOL    HW226031   5.648   5.921   1.716
 8378SOL     OW26032   4.526   4.453   2.814
 8378SOL    HW126033   4.624   4.439   2.803
 8378SOL    HW226034   4.480   4.364   2.817
 8379SOL     OW26035   6.921   2.953   0.988
 8379SOL    HW126036   6.823   2.973   0.982
 8379SOL    HW226037   6.934   2.862   1.026
 8380SOL     OW26038   6.509   1.053   2.430
 8380SOL    HW126039   6.508   1.123   2.501
 8380SOL    HW226040   6.602   1.021   2.417
 8381SOL     OW26041   0.801   4.097   4.635
 8381SOL    HW126042   0.741   4.101   4.555
 8381SOL    HW226043   0.851   4.182   4.643
 8382SOL     OW26044   1.230   1.563   2.124
 8382SOL    HW126045   1.139   1.603   2.129
 8382SOL    HW226046   1.229   1.472   2.166
 8383SOL     OW26047   2.372   1.769   6.290
 8383SOL    HW126048   2.359   1.671   6.279
 8383SOL    HW226049   2.446   1.785   6.356
 8384SOL     OW26050   0.250   6.849   0.404
 8384SOL    HW126051   0.194   6.836   0.322
 8384SOL    HW226052   0.190   6.864   0.483
 8385SOL     OW26053   5.939   2.908   1.588
 8385SOL    HW126054   6.007   2.977   1.615
 8385SOL    HW226055   5.898   2.934   1.501
 8386SOL     OW26056   0.975   4.179   2.514
 8386SOL    HW126057   0.934   4.102   2.465
 8386SOL    HW226058   1.018   4.242   2.449
 8387SOL     OW26059   0.728   1.522   1.342
 8387SOL    HW126060   0.818   1.479   1.335
 8387SOL    HW226061   0.734   1.618   1.314
 8388SOL     OW26062   1.721   6.354   0.941
 8388SOL    HW126063   1.734   6.294   0.862
 8388SOL    HW226064   1.629   6.393   0.938
 8389SOL     OW26065   5.470   3.309   2.227
 8389SOL    HW126066   5.505   3.402   2.241
 8389SOL    HW226067   5.497   3.277   2.136
 8390SOL     OW26068   3.720   1.593   6.369
 8390SOL    HW126069   3.743   1.657   6.295
 8390SOL    HW226070   3.637   1.543   6.344
 8391SOL     OW26071   5.823   6.372   1.046
 8391SOL    HW126072   5.832   6.470   1.026
 8391SOL    HW226073   5.888   6.321   0.990
 8392SOL     OW26074   5.731   3.982   4.109
 8392SOL    HW126075   5.781   3.939   4.184
 8392SOL    HW226076   5.748   4.081   4.109
 8393SOL     OW26077   5.841   0.592   2.357
 8393SOL    HW126078   5.893   0.563   2.436
 8393SOL    HW226079   5.767   0.527   2.339
 8394SOL     OW26080   5.949   3.147   1.997
 8394SOL    HW126081   6.049   3.155   1.999
 8394SOL    HW226082   5.923   3.065   1.947
 8395SOL     OW26083   3.003   6.527   5.699
 8395SOL    HW126084   3.050   6.465   5.762
 8395SOL    HW226085   3.047   6.617   5.703
 8396SOL     OW26086   4.390   4.713   3.695
 8396SOL    HW126087   4.426   4.791   3.644
 8396SOL    HW226088   4.457   4.638   3.694
 8397SOL     OW26089   0.698   0.911   3.580
 8397SOL    HW126090   0.610   0.952   3.605
 8397SOL    HW226091   0.754   0.901   3.662
 8398SOL     OW26092   5.110   2.003   6.658
 8398SOL    HW126093   5.098   2.071   6.730
 8398SOL    HW226094   5.193   1.950   6.675
 8399SOL     OW26095   6.407   6.475   6.584
 8399SOL    HW126096   6.411   6.422   6.669
 8399SOL    HW226097   6.477   6.546   6.585
 8400SOL     OW26098   1.552   2.223   4.194
 8400SOL    HW126099   1.464   2.249   4.155
 8400SOL    HW226100   1.622   2.228   4.122
 8401SOL     OW26101   2.134   1.060   5.432
 8401SOL    HW126102   2.155   1.066   5.529
 8401SOL    HW226103   2.167   1.142   5.386
 8402SOL     OW26104   5.361   1.426   6.232
 8402SOL    HW126105   5.341   1.397   6.325
 8402SOL    HW226106   5.424   1.503   6.233
 8403SOL     OW26107   0.332   3.724   4.448
 8403SOL    HW126108   0.423   3.747   4.482
 8403SOL    HW226109   0.263   3.756   4.513
 8404SOL     OW26110   3.161   0.606   5.800
 8404SOL    HW126111   3.203   0.659   5.727
 8404SOL    HW226112   3.227   0.593   5.874
 8405SOL     OW26113   3.807   1.788   6.208
 8405SOL    HW126114   3.803   1.821   6.114
 8405SOL    HW226115   3.886   1.828   6.255
 8406SOL     OW26116   4.373   0.251   0.590
 8406SOL    HW126117   4.314   0.181   0.630
 8406SOL    HW226118   4.454   0.207   0.551
 8407SOL     OW26119   4.481   6.264   3.720
 8407SOL    HW126120   4.571   6.241   3.758
 8407SOL    HW226121   4.455   6.196   3.651
 8408SOL     OW26122   5.107   5.225   0.046
 8408SOL    HW126123   5.159   5.146   0.013
 8408SOL    HW226124   5.164   5.279   0.108
 8409SOL     OW26125   4.742   2.435   2.017
 8409SOL    HW126126   4.710   2.343   1.995
 8409SOL    HW226127   4.678   2.503   1.981
 8410SOL     OW26128   5.839   2.228   1.628
 8410SOL    HW126129   5.757   2.186   1.667
 8410SOL    HW226130   5.888   2.278   1.699
 8411SOL     OW26131   0.350   6.121   0.949
 8411SOL    HW126132   0.421   6.190   0.937
 8411SOL    HW226133   0.279   6.134   0.880
 8412SOL     OW26134   4.045   2.875   0.953
 8412SOL    HW126135   4.121   2.937   0.933
 8412SOL    HW226136   4.079   2.781   0.956
 8413SOL     OW26137   3.923   5.795   6.537
 8413SOL    HW126138   3.986   5.722   6.562
 8413SOL    HW226139   3.879   5.773   6.450
 8414SOL     OW26140   1.806   1.565   2.219
 8414SOL    HW126141   1.751   1.647   2.205
 8414SOL    HW226142   1.834   1.560   2.314
 8415SOL     OW26143   2.586   6.630   3.753
 8415SOL    HW126144   2.587   6.728   3.772
 8415SOL    HW226145   2.563   6.580   3.836
 8416SOL     OW26146   6.347   1.607   4.722
 8416SOL    HW126147   6.259   1.565   4.702
 8416SOL    HW226148   6.400   1.547   4.783
 8417SOL     OW26149   2.148   3.372   5.332
 8417SOL    HW126150   2.214   3.336   5.398
 8417SOL    HW226151   2.127   3.467   5.354
 8418SOL     OW26152   0.317   5.747   2.142
 8418SOL    HW126153   0.366   5.831   2.120
 8418SOL    HW226154   0.307   5.739   2.241
 8419SOL     OW26155   6.111   1.648   3.435
 8419SOL    HW126156   6.127   1.722   3.370
 8419SOL    HW226157   6.065   1.684   3.516
 8420SOL     OW26158   2.953   6.782   2.107
 8420SOL    HW126159   2.953   6.758   2.010
 8420SOL    HW226160   2.943   6.700   2.162
 8421SOL     OW26161   2.966   5.906   0.053
 8421SOL    HW126162   2.882   5.914   0.107
 8421SOL    HW226163   2.952   5.951   6.986
 8422SOL     OW26164   4.536   2.517   2.232
 8422SOL    HW126165   4.464   2.463   2.274
 8422SOL    HW226166   4.497   2.576   2.161
 8423SOL     OW26167   4.559   4.276   5.459
 8423SOL    HW126168   4.651   4.273   5.499
 8423SOL    HW226169   4.560   4.333   5.377
 8424SOL     OW26170   1.921   1.507   3.431
 8424SOL    HW126171   1.934   1.529   3.528
 8424SOL    HW226172   1.959   1.417   3.411
 8425SOL     OW26173   3.259   3.817   4.585
 8425SOL    HW126174   3.194   3.792   4.513
 8425SOL    HW226175   3.342   3.855   4.544
 8426SOL     OW26176   3.574   3.270   2.443
 8426SOL    HW126177   3.527   3.228   2.365
 8426SOL    HW226178   3.622   3.199   2.495
 8427SOL     OW26179   3.200   3.550   3.279
 8427SOL    HW126180   3.108   3.571   3.246
 8427SOL    HW226181   3.249   3.499   3.209
 8428SOL     OW26182   0.496   0.154   1.408
 8428SOL    HW126183   0.417   0.155   1.346
 8428SOL    HW226184   0.529   0.060   1.419
 8429SOL     OW26185   1.938   5.432   5.954
 8429SOL    HW126186   1.938   5.390   5.864
 8429SOL    HW226187   1.925   5.361   6.024
 8430SOL     OW26188   3.738   4.887   3.921
 8430SOL    HW126189   3.817   4.840   3.958
 8430SOL    HW226190   3.737   4.879   3.821
 8431SOL     OW26191   3.041   4.318   6.758
 8431SOL    HW126192   3.061   4.402   6.707
 8431SOL    HW226193   3.105   4.310   6.834
 8432SOL     OW26194   6.703   5.078   5.752
 8432SOL    HW126195   6.697   5.048   5.656
 8432SOL    HW226196   6.692   5.177   5.757
 8433SOL     OW26197   4.456   2.685   1.027
 8433SOL    HW126198   4.397   2.724   1.097
 8433SOL    HW226199   4.546   2.728   1.030
 8434SOL     OW26200   2.284   5.926   4.543
 8434SOL    HW126201   2.307   6.020   4.517
 8434SOL    HW226202   2.359   5.888   4.597
 8435SOL     OW26203   5.261   0.650   2.994
 8435SOL    HW126204   5.213   0.674   3.077
 8435SOL    HW226205   5.232   0.559   2.963
 8436SOL     OW26206   2.633   6.049   3.786
 8436SOL    HW126207   2.718   6.044   3.838
 8436SOL    HW226208   2.654   6.058   3.689
 8437SOL     OW26209   1.866   2.682   2.333
 8437SOL    HW126210   1.915   2.672   2.420
 8437SOL    HW226211   1.777   2.724   2.349
 8438SOL     OW26212   2.097   3.839   3.108
 8438SOL    HW126213   2.012   3.891   3.098
 8438SOL    HW226214   2.175   3.902   3.107
 8439SOL     OW26215   6.455   5.506   3.576
 8439SOL    HW126216   6.416   5.559   3.501
 8439SOL    HW226217   6.406   5.528   3.661
 8440SOL     OW26218   2.312   1.726   3.604
 8440SOL    HW126219   2.309   1.669   3.522
 8440SOL    HW226220   2.382   1.693   3.666
 8441SOL     OW26221   5.571   5.548   5.320
 8441SOL    HW126222   5.509   5.531   5.244
 8441SOL    HW226223   5.578   5.466   5.377
 8442SOL     OW26224   3.494   0.569   5.133
 8442SOL    HW126225   3.416   0.626   5.161
 8442SOL    HW226226   3.481   0.476   5.167
 8443SOL     OW26227   2.264   4.785   3.566
 8443SOL    HW126228   2.347   4.802   3.618
 8443SOL    HW226229   2.220   4.701   3.599
 8444SOL     OW26230   3.582   6.408   3.499
 8444SOL    HW126231   3.618   6.322   3.461
 8444SOL    HW226232   3.594   6.408   3.598
 8445SOL     OW26233   2.268   0.493   0.544
 8445SOL    HW126234   2.254   0.592   0.534
 8445SOL    HW226235   2.349   0.477   0.600
 8446SOL     OW26236   0.013   5.949   4.968
 8446SOL    HW126237   6.973   5.951   4.890
 8446SOL    HW226238   0.022   6.042   5.005
 8447SOL     OW26239   3.435   1.387   2.064
 8447SOL    HW126240   3.361   1.391   2.131
 8447SOL    HW226241   3.396   1.395   1.972
 8448SOL     OW26242   4.753   5.903   3.791
 8448SOL    HW126243   4.817   5.841   3.747
 8448SOL    HW226244   4.732   5.871   3.883
 8449SOL     OW26245   0.909   3.367   3.970
 8449SOL    HW126246   0.827   3.382   4.025
 8449SOL    HW226247   0.907   3.425   3.889
 8450SOL     OW26248   0.514   0.539   0.802
 8450SOL    HW126249   0.549   0.573   0.889
 8450SOL    HW226250   0.427   0.492   0.816
 8451SOL     OW26251   3.064   0.916   0.466
 8451SOL    HW126252   2.989   0.895   0.529
 8451SOL    HW226253   3.028   0.928   0.374
 8452SOL     OW26254   4.969   2.333   4.143
 8452SOL    HW126255   5.050   2.357   4.090
 8452SOL    HW226256   4.975   2.375   4.234
 8453SOL     OW26257   0.442   5.052   6.819
 8453SOL    HW126258   0.531   5.027   6.857
 8453SOL    HW226259   0.427   5.002   6.734
 8454SOL     OW26260   0.415   4.672   0.076
 8454SOL    HW126261   0.405   4.754   0.133
 8454SOL    HW226262   0.325   4.632   0.059
 8455SOL     OW26263   0.248   1.084   2.774
 8455SOL    HW126264   0.284   1.149   2.841
 8455SOL    HW226265   0.157   1.113   2.744
 8456SOL     OW26266   4.753   0.762   3.510
 8456SOL    HW126267   4.765   0.811   3.597
 8456SOL    HW226268   4.728   0.828   3.439
 8457SOL     OW26269   6.679   6.423   4.530
 8457SOL    HW126270   6.595   6.433   4.476
 8457SOL    HW226271   6.702   6.326   4.537
 8458SOL     OW26272   0.857   0.356   0.445
 8458SOL    HW126273   0.924   0.300   0.494
 8458SOL    HW226274   0.889   0.373   0.352
 8459SOL     OW26275   1.844   5.723   3.251
 8459SOL    HW126276   1.827   5.648   3.314
 8459SOL    HW226277   1.765   5.784   3.250
 8460SOL     OW26278   4.402   3.944   5.404
 8460SOL    HW126279   4.362   4.011   5.342
 8460SOL    HW226280   4.491   3.914   5.368
 8461SOL     OW26281   0.671   2.362   5.666
 8461SOL    HW126282   0.702   2.267   5.661
 8461SOL    HW226283   0.745   2.423   5.639
 8462SOL     OW26284   3.145   1.857   1.210
 8462SOL    HW126285   3.086   1.818   1.139
 8462SOL    HW226286   3.127   1.954   1.220
 8463SOL     OW26287   6.386   6.907   1.848
 8463SOL    HW126288   6.369   6.816   1.887
 8463SOL    HW226289   6.319   6.972   1.885
 8464SOL     OW26290   5.497   3.610   4.563
 8464SOL    HW126291   5.562   3.575   4.496
 8464SOL    HW226292   5.427   3.541   4.583
 8465SOL     OW26293   1.787   1.899   0.459
 8465SOL    HW126294   1.755   1.808   0.431
 8465SOL    HW226295   1.737   1.969   0.407
 8466SOL     OW26296   1.350   5.570   3.691
 8466SOL    HW126297   1.293   5.613   3.761
 8466SOL    HW226298   1.292   5.539   3.616
 8467SOL     OW26299   3.050   5.838   1.026
 8467SOL    HW126300   3.003   5.918   1.065
 8467SOL    HW226301   2.982   5.768   1.002
 8468SOL     OW26302   3.893   2.152   0.534
 8468SOL    HW126303   3.868   2.067   0.581
 8468SOL    HW226304   3.916   2.131   0.438
 8469SOL     OW26305   2.905   3.107   6.630
 8469SOL    HW126306   2.988   3.121   6.577
 8469SOL    HW226307   2.922   3.130   6.726
 8470SOL     OW26308   2.062   2.781   1.151
 8470SOL    HW126309   2.063   2.770   1.251
 8470SOL    HW226310   1.968   2.797   1.121
 8471SOL     OW26311   2.650   0.588   3.731
 8471SOL    HW126312   2.601   0.658   3.680
 8471SOL    HW226313   2.651   0.503   3.678
 8472SOL     OW26314   0.546   6.637   4.851
 8472SOL    HW126315   0.464   6.585   4.827
 8472SOL    HW226316   0.616   6.622   4.781
 8473SOL     OW26317   0.088   5.716   0.085
 8473SOL    HW126318   0.167   5.764   0.048
 8473SOL    HW226319   0.004   5.750   0.042
 8474SOL     OW26320   3.282   3.121   1.885
 8474SOL    HW126321   3.189   3.114   1.850
 8474SOL    HW226322   3.320   3.211   1.863
 8475SOL     OW26323   6.207   1.918   2.279
 8475SOL    HW126324   6.140   1.900   2.352
 8475SOL    HW226325   6.160   1.918   2.191
 8476SOL     OW26326   6.082   6.949   1.956
 8476SOL    HW126327   6.124   6.938   2.046
 8476SOL    HW226328   6.076   6.860   1.911
 8477SOL     OW26329   2.877   6.488   0.810
 8477SOL    HW126330   2.968   6.529   0.810
 8477SOL    HW226331   2.837   6.496   0.902
 8478SOL     OW26332   1.879   0.489   5.746
 8478SOL    HW126333   1.787   0.526   5.754
 8478SOL    HW226334   1.942   0.562   5.719
 8479SOL     OW26335   6.092   1.002   0.242
 8479SOL    HW126336   6.077   0.925   0.179
 8479SOL    HW226337   6.032   1.078   0.216
 8480SOL     OW26338   3.102   1.145   1.460
 8480SOL    HW126339   3.168   1.092   1.514
 8480SOL    HW226340   3.118   1.242   1.475
 8481SOL     OW26341   4.065   1.356   4.289
 8481SOL    HW126342   4.151   1.393   4.323
 8481SOL    HW226343   4.082   1.304   4.205
 8482SOL     OW26344   2.249   0.091   2.160
 8482SOL    HW126345   2.192   0.172   2.171
 8482SOL    HW226346   2.194   0.015   2.125
 8483SOL     OW26347   3.225   5.588   2.649
 8483SOL    HW126348   3.324   5.580   2.660
 8483SOL    HW226349   3.201   5.576   2.553
 8484SOL     OW26350   0.077   4.706   3.149
 8484SOL    HW126351   0.023   4.716   3.065
 8484SOL    HW226352   0.138   4.785   3.160
 8485SOL     OW26353   1.871   3.728   0.482
 8485SOL    HW126354   1.785   3.775   0.462
 8485SOL    HW226355   1.855   3.630   0.490
 8486SOL     OW26356   5.307   1.091   2.716
 8486SOL    HW126357   5.286   1.100   2.618
 8486SOL    HW226358   5.223   1.067   2.766
 8487SOL     OW26359   5.272   0.356   0.901
 8487SOL    HW126360   5.201   0.291   0.930
 8487SOL    HW226361   5.255   0.384   0.807
 8488SOL     OW26362   5.504   5.421   4.512
 8488SOL    HW126363   5.574   5.367   4.559
 8488SOL    HW226364   5.534   5.440   4.419
 8489SOL     OW26365   5.720   5.206   1.527
 8489SOL    HW126366   5.797   5.151   1.494
 8489SOL    HW226367   5.682   5.259   1.451
 8490SOL     OW26368   4.809   5.780   3.329
 8490SOL    HW126369   4.743   5.706   3.320
 8490SOL    HW226370   4.794   5.829   3.414
 8491SOL     OW26371   2.537   0.542   1.776
 8491SOL    HW126372   2.496   0.633   1.781
 8491SOL    HW226373   2.504   0.495   1.694
 8492SOL     OW26374   5.195   3.489   5.494
 8492SOL    HW126375   5.178   3.539   5.578
 8492SOL    HW226376   5.177   3.548   5.415
 8493SOL     OW26377   3.564   1.447   0.234
 8493SOL    HW126378   3.552   1.359   0.279
 8493SOL    HW226379   3.660   1.475   0.239
 8494SOL     OW26380   2.291   5.406   6.799
 8494SOL    HW126381   2.247   5.496   6.807
 8494SOL    HW226382   2.304   5.385   6.702
 8495SOL     OW26383   7.022   3.391   0.692
 8495SOL    HW126384   7.015   3.328   0.769
 8495SOL    HW226385   0.094   3.392   0.658
 8496SOL     OW26386   0.773   1.834   3.779
 8496SOL    HW126387   0.740   1.906   3.717
 8496SOL    HW226388   0.855   1.867   3.827
 8497SOL     OW26389   5.288   5.867   4.160
 8497SOL    HW126390   5.333   5.930   4.223
 8497SOL    HW226391   5.295   5.774   4.196
 8498SOL     OW26392   0.281   0.006   1.623
 8498SOL    HW126393   0.331   0.087   1.651
 8498SOL    HW226394   0.203   7.013   1.683
 8499SOL     OW26395   2.716   5.387   6.525
 8499SOL    HW126396   2.634   5.337   6.554
 8499SOL    HW226397   2.719   5.394   6.426
 8500SOL     OW26398   2.627   0.268   5.324
 8500SOL    HW126399   2.568   0.340   5.359
 8500SOL    HW226400   2.673   0.299   5.241
 8501SOL     OW26401   1.876   3.035   6.846
 8501SOL    HW126402   1.878   2.987   6.933
 8501SOL    HW226403   1.967   3.072   6.826
 8502SOL     OW26404   0.680   5.547   1.550
 8502SOL    HW126405   0.672   5.568   1.453
 8502SOL    HW226406   0.776   5.554   1.579
 8503SOL     OW26407   0.881   4.984   3.488
 8503SOL    HW126408   0.825   4.976   3.406
 8503SOL    HW226409   0.861   4.908   3.550
 8504SOL     OW26410   1.895   6.161   3.596
 8504SOL    HW126411   1.936   6.247   3.565
 8504SOL    HW226412   1.900   6.094   3.522
 8505SOL     OW26413   5.334   4.169   3.561
 8505SOL    HW126414   5.278   4.132   3.486
 8505SOL    HW226415   5.353   4.096   3.627
 8506SOL     OW26416   0.992   6.551   0.123
 8506SOL    HW126417   1.043   6.465   0.126
 8506SOL    HW226418   0.935   6.552   0.041
 8507SOL     OW26419   2.434   0.994   5.458
 8507SOL    HW126420   2.519   0.987   5.405
 8507SOL    HW226421   2.359   1.015   5.396
 8508SOL     OW26422   6.333   2.918   5.310
 8508SOL    HW126423   6.351   2.850   5.239
 8508SOL    HW226424   6.234   2.932   5.318
 8509SOL     OW26425   6.139   0.910   4.557
 8509SOL    HW126426   6.042   0.885   4.564
 8509SOL    HW226427   6.190   0.833   4.519
 8510SOL     OW26428   6.659   5.783   3.388
 8510SOL    HW126429   6.691   5.696   3.351
 8510SOL    HW226430   6.738   5.839   3.412
 8511SOL     OW26431   5.737   3.863   1.589
 8511SOL    HW126432   5.702   3.954   1.569
 8511SOL    HW226433   5.661   3.799   1.599
 8512SOL     OW26434   4.095   2.257   0.229
 8512SOL    HW126435   4.120   2.290   0.320
 8512SOL    HW226436   4.094   2.334   0.165
 8513SOL     OW26437   4.970   3.820   0.809
 8513SOL    HW126438   5.057   3.855   0.775
 8513SOL    HW226439   4.980   3.793   0.905
 8514SOL     OW26440   2.600   2.494   3.759
 8514SOL    HW126441   2.658   2.431   3.708
 8514SOL    HW226442   2.540   2.543   3.696
 8515SOL     OW26443   0.001   1.294   6.880
 8515SOL    HW126444   0.080   1.303   6.818
 8515SOL    HW226445   7.003   1.198   6.894
 8516SOL     OW26446   5.954   2.948   2.748
 8516SOL    HW126447   5.913   2.997   2.671
 8516SOL    HW226448   6.032   2.894   2.716
 8517SOL     OW26449   1.945   2.822   5.742
 8517SOL    HW126450   1.979   2.757   5.811
 8517SOL    HW226451   1.864   2.785   5.698
 8518SOL     OW26452   5.118   3.977   6.005
 8518SOL    HW126453   5.029   3.933   6.021
 8518SOL    HW226454   5.104   4.075   5.991
 8519SOL     OW26455   1.001   4.548   0.407
 8519SOL    HW126456   1.022   4.469   0.463
 8519SOL    HW226457   0.902   4.560   0.400
 8520SOL     OW26458   3.301   3.284   5.452
 8520SOL    HW126459   3.210   3.243   5.452
 8520SOL    HW226460   3.369   3.214   5.429
 8521SOL     OW26461   2.182   6.613   5.469
 8521SOL    HW126462   2.216   6.662   5.388
 8521SOL    HW226463   2.254   6.606   5.537
 8522SOL     OW26464   0.712   0.336   1.063
 8522SOL    HW126465   0.742   0.243   1.081
 8522SOL    HW226466   0.643   0.335   0.990
 8523SOL     OW26467   3.126   0.135   6.658
 8523SOL    HW126468   3.173   0.111   6.742
 8523SOL    HW226469   3.034   0.096   6.658
 8524SOL     OW26470   1.529   4.401   4.895
 8524SOL    HW126471   1.473   4.481   4.915
 8524SOL    HW226472   1.473   4.318   4.904
 8525SOL     OW26473   5.613   4.981   1.277
 8525SOL    HW126474   5.544   5.010   1.343
 8525SOL    HW226475   5.703   4.981   1.321
 8526SOL     OW26476   3.242   6.419   0.601
 8526SOL    HW126477   3.300   6.413   0.520
 8526SOL    HW226478   3.297   6.449   0.679
 8527SOL     OW26479   3.536   0.507   0.083
 8527SOL    HW126480   3.446   0.550   0.092
 8527SOL    HW226481   3.588   0.524   0.167
 8528SOL     OW26482   4.768   1.868   1.227
 8528SOL    HW126483   4.692   1.867   1.293
 8528SOL    HW226484   4.753   1.941   1.161
 8529SOL     OW26485   1.529   6.539   6.668
 8529SOL    HW126486   1.461   6.575   6.605
 8529SOL    HW226487   1.616   6.526   6.619
 8530SOL     OW26488   3.064   4.042   4.711
 8530SOL    HW126489   2.988   4.067   4.652
 8530SOL    HW226490   3.036   3.971   4.775
 8531SOL     OW26491   7.009   5.447   3.112
 8531SOL    HW126492   7.008   5.386   3.032
 8531SOL    HW226493   0.059   5.418   3.174
 8532SOL     OW26494   3.937   6.787   4.206
 8532SOL    HW126495   4.007   6.799   4.135
 8532SOL    HW226496   3.934   6.868   4.264
 8533SOL     OW26497   1.440   6.130   0.041
 8533SOL    HW126498   1.440   6.191   6.984
 8533SOL    HW226499   1.522   6.073   0.039
 8534SOL     OW26500   4.520   2.561   3.651
 8534SOL    HW126501   4.564   2.549   3.562
 8534SOL    HW226502   4.435   2.509   3.653
 8535SOL     OW26503   6.002   1.184   4.343
 8535SOL    HW126504   6.093   1.168   4.305
 8535SOL    HW226505   5.973   1.104   4.395
 8536SOL     OW26506   1.104   2.385   4.988
 8536SOL    HW126507   1.128   2.309   5.049
 8536SOL    HW226508   1.186   2.415   4.939
 8537SOL     OW26509   6.004   1.412   3.347
 8537SOL    HW126510   5.931   1.377   3.406
 8537SOL    HW226511   6.023   1.507   3.370
 8538SOL     OW26512   1.844   1.315   7.003
 8538SOL    HW126513   1.885   1.224   7.012
 8538SOL    HW226514   1.746   1.306   6.987
 8539SOL     OW26515   6.432   2.169   2.343
 8539SOL    HW126516   6.349   2.207   2.301
 8539SOL    HW226517   6.410   2.081   2.385
 8540SOL     OW26518   5.401   0.457   0.048
 8540SOL    HW126519   5.397   0.387   6.998
 8540SOL    HW226520   5.473   0.523   0.026
 8541SOL     OW26521   3.233   1.983   3.498
 8541SOL    HW126522   3.289   2.021   3.571
 8541SOL    HW226523   3.232   1.883   3.504
 8542SOL     OW26524   3.158   4.425   6.288
 8542SOL    HW126525   3.194   4.518   6.297
 8542SOL    HW226526   3.198   4.366   6.359
 8543SOL     OW26527   1.573   1.748   0.714
 8543SOL    HW126528   1.603   1.820   0.777
 8543SOL    HW226529   1.572   1.783   0.621
 8544SOL     OW26530   5.626   3.028   3.874
 8544SOL    HW126531   5.634   2.959   3.802
 8544SOL    HW226532   5.530   3.052   3.887
 8545SOL     OW26533   4.690   6.693   6.097
 8545SOL    HW126534   4.721   6.630   6.168
 8545SOL    HW226535   4.598   6.668   6.067
 8546SOL     OW26536   6.342   2.372   3.624
 8546SOL    HW126537   6.333   2.422   3.537
 8546SOL    HW226538   6.329   2.274   3.608
 8547SOL     OW26539   1.868   5.946   6.230
 8547SOL    HW126540   1.950   5.999   6.250
 8547SOL    HW226541   1.822   5.922   6.316
 8548SOL     OW26542   6.190   2.188   5.108
 8548SOL    HW126543   6.113   2.216   5.165
 8548SOL    HW226544   6.163   2.187   5.012
 8549SOL     OW26545   6.937   3.642   4.384
 8549SOL    HW126546   6.923   3.726   4.437
 8549SOL    HW226547   6.877   3.644   4.304
 8550SOL     OW26548   1.775   5.182   0.022
 8550SOL    HW126549   1.865   5.140   0.020
 8550SOL    HW226550   1.740   5.190   6.950
 8551SOL     OW26551   3.358   4.321   6.501
 8551SOL    HW126552   3.421   4.365   6.437
 8551SOL    HW226553   3.373   4.358   6.593
 8552SOL     OW26554   2.995   5.924   3.308
 8552SOL    HW126555   2.920   5.914   3.374
 8552SOL    HW226556   2.972   5.993   3.240
 8553SOL     OW26557   5.114   5.789   0.045
 8553SOL    HW126558   5.176   5.817   0.118
 8553SOL    HW226559   5.166   5.748   6.993
 8554SOL     OW26560   0.231   4.805   0.501
 8554SOL    HW126561   0.257   4.864   0.577
 8554SOL    HW226562   0.281   4.832   0.419
 8555SOL     OW26563   1.311   0.629   2.724
 8555SOL    HW126564   1.369   0.613   2.644
 8555SOL    HW226565   1.215   0.630   2.697
 8556SOL     OW26566   0.776   0.388   3.234
 8556SOL    HW126567   0.686   0.411   3.270
 8556SOL    HW226568   0.827   0.472   3.214
 8557SOL     OW26569   6.462   0.293   1.884
 8557SOL    HW126570   6.529   0.367   1.894
 8557SOL    HW226571   6.480   0.244   1.799
 8558SOL     OW26572   2.320   5.424   2.698
 8558SOL    HW126573   2.323   5.325   2.705
 8558SOL    HW226574   2.261   5.461   2.770
 8559SOL     OW26575   0.331   0.608   2.353
 8559SOL    HW126576   0.335   0.565   2.444
 8559SOL    HW226577   0.414   0.661   2.338
 8560SOL     OW26578   6.885   0.346   0.433
 8560SOL    HW126579   6.846   0.292   0.508
 8560SOL    HW226580   6.813   0.401   0.391
 8561SOL     OW26581   4.367   5.899   2.426
 8561SOL    HW126582   4.429   5.975   2.407
 8561SOL    HW226583   4.327   5.867   2.340
 8562SOL     OW26584   5.095   6.397   4.677
 8562SOL    HW126585   5.056   6.430   4.763
 8562SOL    HW226586   5.128   6.303   4.689
 8563SOL     OW26587   2.869   3.262   6.912
 8563SOL    HW126588   2.844   3.203   6.989
 8563SOL    HW226589   2.812   3.345   6.913
 8564SOL     OW26590   1.525   0.807   3.098
 8564SOL    HW126591   1.514   0.900   3.063
 8564SOL    HW226592   1.450   0.786   3.160
 8565SOL     OW26593   4.016   6.886   1.428
 8565SOL    HW126594   3.933   6.884   1.483
 8565SOL    HW226595   4.094   6.912   1.485
 8566SOL     OW26596   0.958   1.531   2.835
 8566SOL    HW126597   0.986   1.453   2.891
 8566SOL    HW226598   0.860   1.549   2.850
 8567SOL     OW26599   6.153   1.604   1.360
 8567SOL    HW126600   6.125   1.562   1.446
 8567SOL    HW226601   6.138   1.540   1.284
 8568SOL     OW26602   5.187   1.487   6.870
 8568SOL    HW126603   5.112   1.424   6.850
 8568SOL    HW226604   5.191   1.504   6.969
 8569SOL     OW26605   4.845   1.371   5.217
 8569SOL    HW126606   4.941   1.392   5.235
 8569SOL    HW226607   4.797   1.358   5.304
 8570SOL     OW26608   1.341   3.930   6.175
 8570SOL    HW126609   1.422   3.986   6.158
 8570SOL    HW226610   1.259   3.983   6.153
 8571SOL     OW26611   0.112   5.149   5.545
 8571SOL    HW126612   0.041   5.216   5.569
 8571SOL    HW226613   0.116   5.078   5.615
 8572SOL     OW26614   2.399   5.169   5.715
 8572SOL    HW126615   2.423   5.077   5.682
 8572SOL    HW226616   2.424   5.236   5.646
 8573SOL     OW26617   3.920   5.796   6.819
 8573SOL    HW126618   3.936   5.756   6.729
 8573SOL    HW226619   4.008   5.819   6.861
 8574SOL     OW26620   1.061   4.908   5.775
 8574SOL    HW126621   1.109   4.880   5.858
 8574SOL    HW226622   1.098   4.859   5.697
 8575SOL     OW26623   2.737   2.336   6.606
 8575SOL    HW126624   2.749   2.430   6.640
 8575SOL    HW226625   2.709   2.277   6.682
 8576SOL     OW26626   0.601   6.897   1.368
 8576SOL    HW126627   0.624   6.874   1.273
 8576SOL    HW226628   0.562   6.817   1.414
 8577SOL     OW26629   6.236   5.281   4.145
 8577SOL    HW126630   6.215   5.378   4.137
 8577SOL    HW226631   6.306   5.257   4.078
 8578SOL     OW26632   4.615   0.324   4.477
 8578SOL    HW126633   4.636   0.281   4.389
 8578SOL    HW226634   4.521   0.301   4.504
 8579SOL     OW26635   1.096   4.957   3.251
 8579SOL    HW126636   1.114   5.055   3.253
 8579SOL    HW226637   1.032   4.933   3.323
 8580SOL     OW26638   2.161   7.012   1.642
 8580SOL    HW126639   2.238   0.001   1.705
 8580SOL    HW226640   2.108   0.075   1.641
 8581SOL     OW26641   3.562   1.946   1.454
 8581SOL    HW126642   3.650   1.983   1.484
 8581SOL    HW226643   3.526   2.001   1.378
 8582SOL     OW26644   5.095   4.681   2.343
 8582SOL    HW126645   5.013   4.718   2.386
 8582SOL    HW226646   5.088   4.581   2.338
 8583SOL     OW26647   6.045   0.749   6.420
 8583SOL    HW126648   6.107   0.721   6.493
 8583SOL    HW226649   5.988   0.671   6.393
 8584SOL     OW26650   0.250   4.535   0.403
 8584SOL    HW126651   0.176   4.525   0.336
 8584SOL    HW226652   0.238   4.620   0.454
 8585SOL     OW26653   0.263   0.424   0.806
 8585SOL    HW126654   0.240   0.358   0.735
 8585SOL    HW226655   0.181   0.446   0.859
 8586SOL     OW26656   3.013   6.183   2.833
 8586SOL    HW126657   2.990   6.108   2.771
 8586SOL    HW226658   3.111   6.180   2.854
 8587SOL     OW26659   0.708   1.027   2.949
 8587SOL    HW126660   0.680   1.060   3.039
 8587SOL    HW226661   0.628   1.011   2.892
 8588SOL     OW26662   3.268   1.592   1.010
 8588SOL    HW126663   3.192   1.646   0.973
 8588SOL    HW226664   3.238   1.545   1.092
 8589SOL     OW26665   3.790   1.655   4.799
 8589SOL    HW126666   3.884   1.620   4.805
 8589SOL    HW226667   3.759   1.653   4.704
 8590SOL     OW26668   6.677   5.813   4.479
 8590SOL    HW126669   6.609   5.867   4.430
 8590SOL    HW226670   6.685   5.846   4.573
 8591SOL     OW26671   0.839   4.643   6.649
 8591SOL    HW126672   0.932   4.653   6.683
 8591SOL    HW226673   0.775   4.651   6.725
 8592SOL     OW26674   6.981   4.479   0.250
 8592SOL    HW126675   6.949   4.464   0.157
 8592SOL    HW226676   6.988   4.577   0.269
 8593SOL     OW26677   0.904   6.792   1.986
 8593SOL    HW126678   0.977   6.822   2.048
 8593SOL    HW226679   0.943   6.739   1.911
 8594SOL     OW26680   3.055   3.826   4.328
 8594SOL    HW126681   3.100   3.860   4.245
 8594SOL    HW226682   3.014   3.737   4.309
 8595SOL     OW26683   2.021   2.278   2.811
 8595SOL    HW126684   2.095   2.237   2.864
 8595SOL    HW226685   1.973   2.206   2.760
 8596SOL     OW26686   5.740   5.406   1.935
 8596SOL    HW126687   5.716   5.465   2.011
 8596SOL    HW226688   5.730   5.310   1.963
 8597SOL     OW26689   3.766   2.065   0.910
 8597SOL    HW126690   3.700   1.998   0.943
 8597SOL    HW226691   3.718   2.147   0.879
 8598SOL     OW26692   6.955   5.096   0.980
 8598SOL    HW126693   6.910   5.101   1.069
 8598SOL    HW226694   7.006   5.011   0.973
 8599SOL     OW26695   1.105   2.982   3.816
 8599SOL    HW126696   1.020   3.028   3.788
 8599SOL    HW226697   1.082   2.901   3.870
 8600SOL     OW26698   6.313   4.516   6.494
 8600SOL    HW126699   6.272   4.477   6.577
 8600SOL    HW226700   6.304   4.615   6.497
 8601SOL     OW26701   0.254   1.550   4.754
 8601SOL    HW126702   0.239   1.453   4.771
 8601SOL    HW226703   0.320   1.561   4.680
 8602SOL     OW26704   2.918   6.729   2.980
 8602SOL    HW126705   3.000   6.783   2.960
 8602SOL    HW226706   2.857   6.782   3.040
 8603SOL     OW26707   3.584   3.890   6.906
 8603SOL    HW126708   3.519   3.935   6.968
 8603SOL    HW226709   3.533   3.841   6.835
 8604SOL     OW26710   6.483   2.716   3.879
 8604SOL    HW126711   6.429   2.731   3.796
 8604SOL    HW226712   6.568   2.670   3.856
 8605SOL     OW26713   3.914   5.283   4.182
 8605SOL    HW126714   3.899   5.251   4.275
 8605SOL    HW226715   3.851   5.235   4.120
 8606SOL     OW26716   2.500   4.127   5.848
 8606SOL    HW126717   2.463   4.134   5.755
 8606SOL    HW226718   2.565   4.201   5.864
 8607SOL     OW26719   3.593   5.698   1.163
 8607SOL    HW126720   3.676   5.643   1.153
 8607SOL    HW226721   3.546   5.673   1.247
 8608SOL     OW26722   4.378   4.969   2.691
 8608SOL    HW126723   4.404   4.894   2.751
 8608SOL    HW226724   4.427   5.052   2.718
 8609SOL     OW26725   3.497   0.175   4.189
 8609SOL    HW126726   3.428   0.104   4.179
 8609SOL    HW226727   3.508   0.223   4.102
 8610SOL     OW26728   1.180   0.069   3.089
 8610SOL    HW126729   1.219   0.118   3.167
 8610SOL    HW226730   1.172   6.994   3.111
 8611SOL     OW26731   1.326   2.199   4.656
 8611SOL    HW126732   1.375   2.241   4.580
 8611SOL    HW226733   1.383   2.127   4.696
 8612SOL     OW26734   2.989   3.490   6.426
 8612SOL    HW126735   2.990   3.581   6.468
 8612SOL    HW226736   3.021   3.423   6.493
 8613SOL     OW26737   2.052   1.433   1.133
 8613SOL    HW126738   2.020   1.437   1.039
 8613SOL    HW226739   2.120   1.506   1.149
 8614SOL     OW26740   0.692   3.954   2.870
 8614SOL    HW126741   0.694   3.889   2.946
 8614SOL    HW226742   0.751   4.032   2.891
 8615SOL     OW26743   4.792   1.960   5.576
 8615SOL    HW126744   4.746   1.929   5.493
 8615SOL    HW226745   4.889   1.937   5.570
 8616SOL     OW26746   0.493   4.442   0.275
 8616SOL    HW126747   0.416   4.494   0.312
 8616SOL    HW226748   0.515   4.476   0.184
 8617SOL     OW26749   6.551   1.970   0.333
 8617SOL    HW126750   6.648   1.989   0.346
 8617SOL    HW226751   6.511   2.040   0.274
 8618SOL     OW26752   4.357   6.804   1.902
 8618SOL    HW126753   4.383   6.846   1.815
 8618SOL    HW226754   4.323   6.875   1.964
 8619SOL     OW26755   4.371   5.164   0.278
 8619SOL    HW126756   4.381   5.262   0.297
 8619SOL    HW226757   4.337   5.117   0.359
 8620SOL     OW26758   6.194   6.643   2.669
 8620SOL    HW126759   6.173   6.589   2.587
 8620SOL    HW226760   6.170   6.739   2.652
 8621SOL     OW26761   6.163   1.266   3.849
 8621SOL    HW126762   6.164   1.218   3.937
 8621SOL    HW226763   6.246   1.322   3.842
 8622SOL     OW26764   4.931   4.314   6.904
 8622SOL    HW126765   5.023   4.322   6.865
 8622SOL    HW226766   4.924   4.371   6.986
 8623SOL     OW26767   0.467   4.674   3.193
 8623SOL    HW126768   0.391   4.736   3.178
 8623SOL    HW226769   0.553   4.723   3.180
 8624SOL     OW26770   1.209   4.550   3.426
 8624SOL    HW126771   1.276   4.480   3.453
 8624SOL    HW226772   1.117   4.518   3.447
 8625SOL     OW26773   4.648   0.568   4.351
 8625SOL    HW126774   4.685   0.487   4.397
 8625SOL    HW226775   4.565   0.542   4.301
 8626SOL     OW26776   3.755   3.381   4.307
 8626SOL    HW126777   3.704   3.348   4.386
 8626SOL    HW226778   3.695   3.386   4.228
 8627SOL     OW26779   1.410   0.905   1.828
 8627SOL    HW126780   1.499   0.929   1.866
 8627SOL    HW226781   1.421   0.835   1.758
 8628SOL     OW26782   6.297   6.967   0.426
 8628SOL    HW126783   6.337   7.006   0.509
 8628SOL    HW226784   6.241   6.888   0.450
 8629SOL     OW26785   1.850   4.487   4.532
 8629SOL    HW126786   1.824   4.451   4.443
 8629SOL    HW226787   1.837   4.586   4.534
 8630SOL     OW26788   5.986   4.101   4.813
 8630SOL    HW126789   5.920   4.030   4.789
 8630SOL    HW226790   6.029   4.079   4.900
 8631SOL     OW26791   4.121   6.263   5.786
 8631SOL    HW126792   4.047   6.325   5.759
 8631SOL    HW226793   4.105   6.233   5.880
 8632SOL     OW26794   3.505   6.631   4.076
 8632SOL    HW126795   3.486   6.630   3.977
 8632SOL    HW226796   3.596   6.595   4.093
 8633SOL     OW26797   5.332   1.432   4.154
 8633SOL    HW126798   5.360   1.463   4.063
 8633SOL    HW226799   5.412   1.399   4.204
 8634SOL     OW26800   6.498   3.520   1.448
 8634SOL    HW126801   6.507   3.545   1.351
 8634SOL    HW226802   6.402   3.523   1.475
 8635SOL     OW26803   5.852   3.856   5.740
 8635SOL    HW126804   5.910   3.785   5.780
 8635SOL    HW226805   5.762   3.817   5.719
 8636SOL     OW26806   6.126   5.003   6.625
 8636SOL    HW126807   6.134   5.044   6.716
 8636SOL    HW226808   6.199   5.037   6.566
 8637SOL     OW26809   1.912   0.785   0.385
 8637SOL    HW126810   1.947   0.767   0.476
 8637SOL    HW226811   1.812   0.786   0.386
 8638SOL     OW26812   2.151   3.441   0.358
 8638SOL    HW126813   2.070   3.384   0.345
 8638SOL    HW226814   2.126   3.537   0.345
 8639SOL     OW26815   5.467   2.551   1.863
 8639SOL    HW126816   5.379   2.532   1.819
 8639SOL    HW226817   5.485   2.484   1.934
 8640SOL     OW26818   4.645   4.135   0.315
 8640SOL    HW126819   4.642   4.060   0.382
 8640SOL    HW226820   4.672   4.099   0.226
 8641SOL     OW26821   6.675   3.775   3.886
 8641SOL    HW126822   6.588   3.821   3.870
 8641SOL    HW226823   6.704   3.789   3.981
 8642SOL     OW26824   4.562   0.382   2.418
 8642SOL    HW126825   4.603   0.347   2.334
 8642SOL    HW226826   4.476   0.428   2.396
 8643SOL     OW26827   4.888   7.005   6.995
 8643SOL    HW126828   4.795   7.001   6.959
 8643SOL    HW226829   4.950   0.016   6.924
 8644SOL     OW26830   5.428   2.512   5.014
 8644SOL    HW126831   5.343   2.544   5.055
 8644SOL    HW226832   5.481   2.461   5.082
 8645SOL     OW26833   5.854   5.007   1.379
 8645SOL    HW126834   5.933   5.043   1.327
 8645SOL    HW226835   5.887   4.949   1.453
 8646SOL     OW26836   4.933   1.152   1.043
 8646SOL    HW126837   5.013   1.099   1.014
 8646SOL    HW226838   4.859   1.089   1.067
 8647SOL     OW26839   3.678   4.694   0.132
 8647SOL    HW126840   3.768   4.694   0.088
 8647SOL    HW226841   3.656   4.786   0.165
 8648SOL     OW26842   5.831   1.021   4.517
 8648SOL    HW126843   5.830   0.942   4.579
 8648SOL    HW226844   5.825   1.105   4.570
 8649SOL     OW26845   6.156   4.624   5.513
 8649SOL    HW126846   6.057   4.627   5.526
 8649SOL    HW226847   6.190   4.715   5.489
 8650SOL     OW26848   2.080   4.938   4.060
 8650SOL    HW126849   2.042   4.991   3.984
 8650SOL    HW226850   2.180   4.937   4.053
 8651SOL     OW26851   3.956   1.214   0.752
 8651SOL    HW126852   3.951   1.314   0.742
 8651SOL    HW226853   3.948   1.190   0.849
 8652SOL     OW26854   1.842   4.236   3.261
 8652SOL    HW126855   1.746   4.216   3.244
 8652SOL    HW226856   1.850   4.318   3.317
 8653SOL     OW26857   6.826   2.453   6.405
 8653SOL    HW126858   6.810   2.378   6.341
 8653SOL    HW226859   6.777   2.436   6.490
 8654SOL     OW26860   0.382   6.043   2.594
 8654SOL    HW126861   0.331   5.979   2.652
 8654SOL    HW226862   0.323   6.121   2.571
 8655SOL     OW26863   5.992   0.394   3.939
 8655SOL    HW126864   6.082   0.433   3.962
 8655SOL    HW226865   6.003   0.331   3.862
 8656SOL     OW26866   6.112   1.135   1.033
 8656SOL    HW126867   6.018   1.130   1.000
 8656SOL    HW226868   6.174   1.112   0.958
 8657SOL     OW26869   4.107   5.219   6.147
 8657SOL    HW126870   4.011   5.210   6.122
 8657SOL    HW226871   4.155   5.274   6.080
 8658SOL     OW26872   4.649   5.224   0.059
 8658SOL    HW126873   4.596   5.257   7.003
 8658SOL    HW226874   4.614   5.135   0.088
 8659SOL     OW26875   4.805   0.791   3.026
 8659SOL    HW126876   4.732   0.787   2.957
 8659SOL    HW226877   4.878   0.851   2.995
 8660SOL     OW26878   5.802   4.007   0.426
 8660SOL    HW126879   5.892   3.976   0.393
 8660SOL    HW226880   5.730   3.959   0.376
 8661SOL     OW26881   5.861   4.199   2.070
 8661SOL    HW126882   5.850   4.243   2.160
 8661SOL    HW226883   5.958   4.193   2.047
 8662SOL     OW26884   5.580   6.598   1.784
 8662SOL    HW126885   5.594   6.553   1.696
 8662SOL    HW226886   5.662   6.587   1.840
 8663SOL     OW26887   2.383   5.773   0.453
 8663SOL    HW126888   2.464   5.788   0.509
 8663SOL    HW226889   2.407   5.714   0.376
 8664SOL     OW26890   4.509   4.994   0.106
 8664SOL    HW126891   4.458   4.953   0.031
 8664SOL    HW226892   4.446   5.029   0.175
 8665SOL     OW26893   5.209   5.739   5.811
 8665SOL    HW126894   5.269   5.666   5.842
 8665SOL    HW226895   5.174   5.717   5.720
 8666SOL     OW26896   5.481   2.167   5.241
 8666SOL    HW126897   5.518   2.085   5.285
 8666SOL    HW226898   5.450   2.143   5.149
 8667SOL     OW26899   4.911   1.817   3.234
 8667SOL    HW126900   5.004   1.845   3.257
 8667SOL    HW226901   4.908   1.786   3.139
 8668SOL     OW26902   5.068   2.304   3.657
 8668SOL    HW126903   5.054   2.384   3.599
 8668SOL    HW226904   5.166   2.283   3.661
 8669SOL     OW26905   3.805   0.365   6.357
 8669SOL    HW126906   3.867   0.310   6.414
 8669SOL    HW226907   3.783   0.450   6.404
 8670SOL     OW26908   3.651   5.361   5.429
 8670SOL    HW126909   3.722   5.393   5.367
 8670SOL    HW226910   3.635   5.428   5.501
 8671SOL     OW26911   5.265   0.722   3.900
 8671SOL    HW126912   5.198   0.648   3.907
 8671SOL    HW226913   5.308   0.721   3.810
 8672SOL     OW26914   2.475   5.758   4.687
 8672SOL    HW126915   2.524   5.704   4.756
 8672SOL    HW226916   2.516   5.849   4.681
 8673SOL     OW26917   0.612   0.569   0.358
 8673SOL    HW126918   0.595   0.663   0.388
 8673SOL    HW226919   0.526   0.528   0.328
 8674SOL     OW26920   6.873   6.053   2.273
 8674SOL    HW126921   6.870   6.123   2.202
 8674SOL    HW226922   6.923   5.973   2.239
 8675SOL     OW26923   3.655   2.112   4.168
 8675SOL    HW126924   3.722   2.163   4.222
 8675SOL    HW226925   3.572   2.099   4.223
 8676SOL     OW26926   3.091   0.863   3.134
 8676SOL    HW126927   3.056   0.793   3.196
 8676SOL    HW226928   3.028   0.873   3.057
 8677SOL     OW26929   2.503   5.940   6.528
 8677SOL    HW126930   2.478   5.850   6.492
 8677SOL    HW226931   2.593   5.967   6.492
 8678SOL     OW26932   0.793   0.050   0.243
 8678SOL    HW126933   0.839   6.983   0.241
 8678SOL    HW226934   0.856   0.120   0.208
 8679SOL     OW26935   5.708   2.049   4.270
 8679SOL    HW126936   5.637   2.053   4.341
 8679SOL    HW226937   5.797   2.065   4.311
 8680SOL     OW26938   0.908   3.456   1.286
 8680SOL    HW126939   1.003   3.425   1.293
 8680SOL    HW226940   0.902   3.531   1.221
 8681SOL     OW26941   4.800   4.732   6.717
 8681SOL    HW126942   4.809   4.827   6.745
 8681SOL    HW226943   4.723   4.690   6.765
 8682SOL     OW26944   3.853   6.624   3.108
 8682SOL    HW126945   3.806   6.663   3.029
 8682SOL    HW226946   3.801   6.644   3.191
 8683SOL     OW26947   1.461   2.558   2.308
 8683SOL    HW126948   1.448   2.496   2.231
 8683SOL    HW226949   1.527   2.518   2.373
 8684SOL     OW26950   0.632   2.897   4.592
 8684SOL    HW126951   0.723   2.935   4.612
 8684SOL    HW226952   0.563   2.966   4.612
 8685SOL     OW26953   1.331   2.086   5.913
 8685SOL    HW126954   1.289   1.997   5.899
 8685SOL    HW226955   1.359   2.095   6.009
 8686SOL     OW26956   6.625   2.059   2.004
 8686SOL    HW126957   6.620   1.961   1.990
 8686SOL    HW226958   6.664   2.078   2.094
 8687SOL     OW26959   3.611   6.309   2.661
 8687SOL    HW126960   3.624   6.368   2.582
 8687SOL    HW226961   3.667   6.343   2.738
 8688SOL     OW26962   2.741   6.521   0.096
 8688SOL    HW126963   2.801   6.454   0.139
 8688SOL    HW226964   2.704   6.483   0.011
 8689SOL     OW26965   3.564   6.159   0.266
 8689SOL    HW126966   3.647   6.104   0.254
 8689SOL    HW226967   3.484   6.098   0.269
 8690SOL     OW26968   1.639   2.578   3.786
 8690SOL    HW126969   1.542   2.559   3.770
 8690SOL    HW226970   1.677   2.628   3.709
 8691SOL     OW26971   4.183   2.685   6.382
 8691SOL    HW126972   4.210   2.681   6.478
 8691SOL    HW226973   4.126   2.606   6.360
 8692SOL     OW26974   3.476   1.878   2.712
 8692SOL    HW126975   3.415   1.956   2.698
 8692SOL    HW226976   3.543   1.900   2.782
 8693SOL     OW26977   5.562   1.892   1.110
 8693SOL    HW126978   5.585   1.990   1.113
 8693SOL    HW226979   5.474   1.879   1.066
 8694SOL     OW26980   4.622   0.261   6.758
 8694SOL    HW126981   4.698   0.246   6.695
 8694SOL    HW226982   4.657   0.279   6.849
 8695SOL     OW26983   4.520   2.371   5.874
 8695SOL    HW126984   4.483   2.307   5.807
 8695SOL    HW226985   4.612   2.342   5.900
 8696SOL     OW26986   3.378   5.741   0.981
 8696SOL    HW126987   3.365   5.663   0.919
 8696SOL    HW226988   3.459   5.726   1.037
 8697SOL     OW26989   6.598   3.792   0.767
 8697SOL    HW126990   6.584   3.754   0.675
 8697SOL    HW226991   6.692   3.823   0.776
 8698SOL     OW26992   5.533   6.091   3.787
 8698SOL    HW126993   5.563   6.179   3.749
 8698SOL    HW226994   5.570   6.017   3.731
 8699SOL     OW26995   0.745   2.120   5.552
 8699SOL    HW126996   0.675   2.058   5.588
 8699SOL    HW226997   0.835   2.084   5.576
 8700SOL     OW26998   2.328   0.817   4.758
 8700SOL    HW126999   2.322   0.731   4.809
 8700SOL    HW227000   2.318   0.894   4.821
 8701SOL     OW27001   0.952   0.738   6.189
 8701SOL    HW127002   0.930   0.835   6.196
 8701SOL    HW227003   1.051   0.725   6.199
 8702SOL     OW27004   5.381   4.786   0.205
 8702SOL    HW127005   5.458   4.722   0.208
 8702SOL    HW227006   5.317   4.758   0.134
 8703SOL     OW27007   3.087   5.885   1.457
 8703SOL    HW127008   3.006   5.900   1.515
 8703SOL    HW227009   3.064   5.818   1.386
 8704SOL     OW27010   6.310   3.606   2.603
 8704SOL    HW127011   6.390   3.551   2.625
 8704SOL    HW227012   6.336   3.703   2.601
 8705SOL     OW27013   5.265   1.130   0.102
 8705SOL    HW127014   5.248   1.090   0.193
 8705SOL    HW227015   5.261   1.230   0.109
 8706SOL     OW27016   4.796   2.302   5.904
 8706SOL    HW127017   4.883   2.341   5.934
 8706SOL    HW227018   4.792   2.206   5.930
 8707SOL     OW27019   4.866   2.279   0.321
 8707SOL    HW127020   4.908   2.330   0.395
 8707SOL    HW227021   4.910   2.190   0.312
 8708SOL     OW27022   4.089   1.448   1.877
 8708SOL    HW127023   4.123   1.497   1.797
 8708SOL    HW227024   4.165   1.425   1.937
 8709SOL     OW27025   6.571   4.964   6.910
 8709SOL    HW127026   6.506   4.940   6.982
 8709SOL    HW227027   6.535   4.937   6.821
 8710SOL     OW27028   2.152   2.993   3.284
 8710SOL    HW127029   2.064   2.946   3.284
 8710SOL    HW227030   2.156   3.056   3.362
 8711SOL     OW27031   6.983   6.290   2.400
 8711SOL    HW127032   6.947   6.217   2.342
 8711SOL    HW227033   6.918   6.366   2.402
 8712SOL     OW27034   3.858   2.191   3.914
 8712SOL    HW127035   3.886   2.197   4.009
 8712SOL    HW227036   3.764   2.156   3.909
 8713SOL     OW27037   6.921   4.223   3.675
 8713SOL    HW127038   6.895   4.131   3.645
 8713SOL    HW227039   7.020   4.233   3.670
 8714SOL     OW27040   0.806   1.165   5.838
 8714SOL    HW127041   0.878   1.153   5.769
 8714SOL    HW227042   0.844   1.207   5.920
 8715SOL     OW27043   5.298   0.852   1.150
 8715SOL    HW127044   5.331   0.761   1.126
 8715SOL    HW227045   5.232   0.846   1.225
 8716SOL     OW27046   1.202   2.101   1.226
 8716SOL    HW127047   1.140   2.043   1.278
 8716SOL    HW227048   1.148   2.165   1.170
 8717SOL     OW27049   4.042   3.709   2.359
 8717SOL    HW127050   3.990   3.782   2.403
 8717SOL    HW227051   4.104   3.668   2.426
 8718SOL     OW27052   0.748   2.281   5.320
 8718SOL    HW127053   0.728   2.229   5.403
 8718SOL    HW227054   0.775   2.218   5.247
 8719SOL     OW27055   2.221   0.459   5.790
 8719SOL    HW127056   2.190   0.437   5.698
 8719SOL    HW227057   2.286   0.390   5.821
 8720SOL     OW27058   6.944   5.355   5.531
 8720SOL    HW127059   6.910   5.449   5.527
 8720SOL    HW227060   6.868   5.291   5.523
 8721SOL     OW27061   5.765   2.249   4.082
 8721SOL    HW127062   5.768   2.183   4.158
 8721SOL    HW227063   5.836   2.318   4.095
 8722SOL     OW27064   3.969   0.480   1.037
 8722SOL    HW127065   3.924   0.406   1.087
 8722SOL    HW227066   4.067   0.479   1.058
 8723SOL     OW27067   5.622   5.858   1.061
 8723SOL    HW127068   5.599   5.851   0.964
 8723SOL    HW227069   5.542   5.834   1.116
 8724SOL     OW27070   5.892   7.013   4.960
 8724SOL    HW127071   5.936   6.924   4.973
 8724SOL    HW227072   5.801   7.011   5.001
 8725SOL     OW27073   1.931   0.516   0.106
 8725SOL    HW127074   2.014   0.473   0.141
 8725SOL    HW227075   1.853   0.490   0.163
 8726SOL     OW27076   6.425   0.300   1.263
 8726SOL    HW127077   6.333   0.319   1.296
 8726SOL    HW227078   6.485   0.377   1.285
 8727SOL     OW27079   6.752   6.675   2.028
 8727SOL    HW127080   6.788   6.752   1.975
 8727SOL    HW227081   6.824   6.641   2.089
 8728SOL     OW27082   4.215   0.193   5.049
 8728SOL    HW127083   4.226   0.273   4.990
 8728SOL    HW227084   4.194   0.113   4.994
 8729SOL     OW27085   4.939   5.779   3.648
 8729SOL    HW127086   5.012   5.724   3.607
 8729SOL    HW227087   4.976   5.868   3.675
 8730SOL     OW27088   6.657   5.548   2.991
 8730SOL    HW127089   6.679   5.550   3.088
 8730SOL    HW227090   6.689   5.633   2.948
 8731SOL     OW27091   1.986   1.793   3.023
 8731SOL    HW127092   2.054   1.723   3.001
 8731SOL    HW227093   1.944   1.826   2.938
 8732SOL     OW27094   5.495   4.214   2.027
 8732SOL    HW127095   5.412   4.164   2.052
 8732SOL    HW227096   5.538   4.251   2.110
 8733SOL     OW27097   1.395   6.089   3.134
 8733SOL    HW127098   1.302   6.122   3.116
 8733SOL    HW227099   1.435   6.054   3.049
 8734SOL     OW27100   1.397   4.927   1.585
 8734SOL    HW127101   1.418   4.971   1.497
 8734SOL    HW227102   1.475   4.870   1.613
 8735SOL     OW27103   0.697   1.928   0.110
 8735SOL    HW127104   0.616   1.881   0.075
 8735SOL    HW227105   0.762   1.861   0.145
 8736SOL     OW27106   0.560   6.458   0.072
 8736SOL    HW127107   0.550   6.536   0.134
 8736SOL    HW227108   0.650   6.461   0.029
 8737SOL     OW27109   3.733   6.927   6.541
 8737SOL    HW127110   3.826   6.927   6.578
 8737SOL    HW227111   3.702   7.021   6.527
 8738SOL     OW27112   1.536   3.808   4.458
 8738SOL    HW127113   1.588   3.877   4.407
 8738SOL    HW227114   1.581   3.792   4.545
 8739SOL     OW27115   6.370   4.821   6.446
 8739SOL    HW127116   6.388   4.802   6.349
 8739SOL    HW227117   6.324   4.909   6.455
 8740SOL     OW27118   3.999   0.971   5.956
 8740SOL    HW127119   4.049   0.884   5.951
 8740SOL    HW227120   3.972   0.999   5.863
 8741SOL     OW27121   1.927   1.850   1.362
 8741SOL    HW127122   1.842   1.903   1.363
 8741SOL    HW227123   1.906   1.755   1.385
 8742SOL     OW27124   4.769   5.976   1.833
 8742SOL    HW127125   4.797   5.895   1.884
 8742SOL    HW227126   4.706   6.030   1.887
 8743SOL     OW27127   2.115   6.829   2.561
 8743SOL    HW127128   2.210   6.860   2.566
 8743SOL    HW227129   2.060   6.881   2.627
 8744SOL     OW27130   3.772   2.464   6.128
 8744SOL    HW127131   3.815   2.475   6.038
 8744SOL    HW227132   3.675   2.443   6.116
 8745SOL     OW27133   5.960   2.491   5.867
 8745SOL    HW127134   5.999   2.487   5.775
 8745SOL    HW227135   6.014   2.434   5.929
 8746SOL     OW27136   4.368   4.169   5.607
 8746SOL    HW127137   4.453   4.187   5.557
 8746SOL    HW227138   4.297   4.140   5.543
 8747SOL     OW27139   0.756   2.730   3.424
 8747SOL    HW127140   0.717   2.766   3.509
 8747SOL    HW227141   0.805   2.803   3.377
 8748SOL     OW27142   0.829   0.376   6.747
 8748SOL    HW127143   0.819   0.360   6.649
 8748SOL    HW227144   0.839   0.288   6.794
 8749SOL     OW27145   2.945   0.428   4.629
 8749SOL    HW127146   2.846   0.430   4.612
 8749SOL    HW227147   2.993   0.421   4.541
 8750SOL     OW27148   2.394   2.869   5.391
 8750SOL    HW127149   2.329   2.942   5.413
 8750SOL    HW227150   2.455   2.899   5.318
 8751SOL     OW27151   6.868   0.341   2.205
 8751SOL    HW127152   6.921   0.391   2.273
 8751SOL    HW227153   6.773   0.374   2.206
 8752SOL     OW27154   3.121   4.268   0.201
 8752SOL    HW127155   3.034   4.287   0.246
 8752SOL    HW227156   3.196   4.284   0.264
 8753SOL     OW27157   4.984   1.349   4.716
 8753SOL    HW127158   4.899   1.357   4.664
 8753SOL    HW227159   5.031   1.264   4.691
 8754SOL     OW27160   0.534   1.965   5.620
 8754SOL    HW127161   0.505   1.910   5.698
 8754SOL    HW227162   0.456   2.014   5.582
 8755SOL     OW27163   3.006   1.510   6.691
 8755SOL    HW127164   2.936   1.556   6.637
 8755SOL    HW227165   3.052   1.442   6.635
 8756SOL     OW27166   2.186   3.103   3.625
 8756SOL    HW127167   2.130   3.151   3.693
 8756SOL    HW227168   2.202   3.009   3.655
 8757SOL     OW27169   6.196   6.445   6.059
 8757SOL    HW127170   6.269   6.492   6.009
 8757SOL    HW227171   6.135   6.399   5.995
 8758SOL     OW27172   5.504   6.240   2.162
 8758SOL    HW127173   5.414   6.272   2.192
 8758SOL    HW227174   5.575   6.283   2.218
 8759SOL     OW27175   4.490   1.378   6.346
 8759SOL    HW127176   4.392   1.381   6.368
 8759SOL    HW227177   4.503   1.397   6.249
 8760SOL     OW27178   2.027   1.619   4.615
 8760SOL    HW127179   2.037   1.584   4.708
 8760SOL    HW227180   2.010   1.543   4.552
 8761SOL     OW27181   4.880   0.555   1.186
 8761SOL    HW127182   4.783   0.574   1.170
 8761SOL    HW227183   4.935   0.614   1.126
 8762SOL     OW27184   1.174   3.198   2.850
 8762SOL    HW127185   1.191   3.102   2.872
 8762SOL    HW227186   1.253   3.253   2.878
 8763SOL     OW27187   6.076   6.163   4.967
 8763SOL    HW127188   6.116   6.165   4.876
 8763SOL    HW227189   6.103   6.245   5.018
 8764SOL     OW27190   4.898   1.540   4.070
 8764SOL    HW127191   4.801   1.564   4.057
 8764SOL    HW227192   4.914   1.517   4.166
 8765SOL     OW27193   5.955   6.738   4.992
 8765SOL    HW127194   5.856   6.742   4.982
 8765SOL    HW227195   5.978   6.711   5.086
 8766SOL     OW27196   3.493   4.909   3.574
 8766SOL    HW127197   3.573   4.884   3.629
 8766SOL    HW227198   3.438   4.976   3.624
 8767SOL     OW27199   4.257   0.546   2.548
 8767SOL    HW127200   4.246   0.461   2.497
 8767SOL    HW227201   4.247   0.529   2.646
 8768SOL     OW27202   2.323   3.400   0.133
 8768SOL    HW127203   2.274   3.441   0.210
 8768SOL    HW227204   2.372   3.471   0.083
 8769SOL     OW27205   0.580   0.456   5.282
 8769SOL    HW127206   0.639   0.384   5.246
 8769SOL    HW227207   0.636   0.523   5.332
 8770SOL     OW27208   4.882   3.765   1.964
 8770SOL    HW127209   4.874   3.855   2.005
 8770SOL    HW227210   4.894   3.696   2.035
 8771SOL     OW27211   2.033   1.090   6.034
 8771SOL    HW127212   1.937   1.068   6.054
 8771SOL    HW227213   2.061   1.169   6.088
 8772SOL     OW27214   5.816   0.066   6.803
 8772SOL    HW127215   5.866   7.019   6.855
 8772SOL    HW227216   5.872   0.149   6.796
 8773SOL     OW27217   3.893   2.181   3.307
 8773SOL    HW127218   3.795   2.168   3.292
 8773SOL    HW227219   3.909   2.200   3.404
 8774SOL     OW27220   1.506   1.385   0.476
 8774SOL    HW127221   1.503   1.401   0.575
 8774SOL    HW227222   1.478   1.468   0.429
 8775SOL     OW27223   5.738   0.352   4.065
 8775SOL    HW127224   5.753   0.288   4.141
 8775SOL    HW227225   5.821   0.359   4.010
 8776SOL     OW27226   3.731   3.048   4.930
 8776SOL    HW127227   3.656   3.023   4.992
 8776SOL    HW227228   3.708   3.019   4.837
 8777SOL     OW27229   0.120   4.838   1.519
 8777SOL    HW127230   0.121   4.935   1.497
 8777SOL    HW227231   0.125   4.785   1.435
 8778SOL     OW27232   0.362   1.842   3.854
 8778SOL    HW127233   0.426   1.784   3.904
 8778SOL    HW227234   0.328   1.793   3.774
 8779SOL     OW27235   1.585   5.530   2.641
 8779SOL    HW127236   1.643   5.608   2.619
 8779SOL    HW227237   1.634   5.445   2.619
 8780SOL     OW27238   1.629   5.635   3.623
 8780SOL    HW127239   1.534   5.615   3.646
 8780SOL    HW227240   1.661   5.712   3.678
 8781SOL     OW27241   6.871   1.340   3.554
 8781SOL    HW127242   6.808   1.404   3.512
 8781SOL    HW227243   6.820   1.269   3.602
 8782SOL     OW27244   6.002   0.879   1.910
 8782SOL    HW127245   6.017   0.926   1.823
 8782SOL    HW227246   6.070   0.807   1.922
 8783SOL     OW27247   6.037   3.991   3.811
 8783SOL    HW127248   6.081   4.005   3.722
 8783SOL    HW227249   6.070   3.906   3.852
 8784SOL     OW27250   5.243   4.632   5.106
 8784SOL    HW127251   5.225   4.620   5.008
 8784SOL    HW227252   5.337   4.663   5.119
 8785SOL     OW27253   5.519   3.737   0.438
 8785SOL    HW127254   5.585   3.734   0.363
 8785SOL    HW227255   5.429   3.764   0.402
 8786SOL     OW27256   2.177   6.969   6.840
 8786SOL    HW127257   2.095   6.931   6.883
 8786SOL    HW227258   2.170   6.961   6.741
 8787SOL     OW27259   1.493   2.994   2.267
 8787SOL    HW127260   1.560   3.010   2.340
 8787SOL    HW227261   1.505   3.063   2.196
 8788SOL     OW27262   6.624   2.246   5.222
 8788SOL    HW127263   6.715   2.272   5.189
 8788SOL    HW227264   6.593   2.314   5.289
 8789SOL     OW27265   6.176   0.264   6.422
 8789SOL    HW127266   6.093   0.243   6.371
 8789SOL    HW227267   6.238   0.185   6.418
 8790SOL     OW27268   6.734   1.033   0.026
 8790SOL    HW127269   6.665   1.020   6.977
 8790SOL    HW227270   6.727   1.126   0.062
 8791SOL     OW27271   5.414   0.105   5.713
 8791SOL    HW127272   5.371   0.091   5.623
 8791SOL    HW227273   5.345   0.137   5.778
 8792SOL     OW27274   3.795   6.998   3.251
 8792SOL    HW127275   3.701   6.989   3.283
 8792SOL    HW227276   3.858   6.967   3.323
 8793SOL     OW27277   2.037   5.789   4.172
 8793SOL    HW127278   1.972   5.864   4.158
 8793SOL    HW227279   2.045   5.736   4.088
 8794SOL     OW27280   3.494   6.644   3.177
 8794SOL    HW127281   3.579   6.646   3.230
 8794SOL    HW227282   3.484   6.729   3.126
 8795SOL     OW27283   1.652   6.634   5.263
 8795SOL    HW127284   1.717   6.569   5.223
 8795SOL    HW227285   1.566   6.588   5.283
 8796SOL     OW27286   4.192   1.754   5.423
 8796SOL    HW127287   4.268   1.700   5.460
 8796SOL    HW227288   4.209   1.851   5.438
 8797SOL     OW27289   1.837   6.210   6.501
 8797SOL    HW127290   1.857   6.276   6.574
 8797SOL    HW227291   1.919   6.156   6.482
 8798SOL     OW27292   5.957   4.115   5.741
 8798SOL    HW127293   5.915   4.027   5.718
 8798SOL    HW227294   6.033   4.133   5.678
 8799SOL     OW27295   2.379   4.352   3.716
 8799SOL    HW127296   2.467   4.363   3.671
 8799SOL    HW227297   2.324   4.435   3.703
 8800SOL     OW27298   5.056   3.927   5.662
 8800SOL    HW127299   4.970   3.939   5.613
 8800SOL    HW227300   5.066   4.000   5.730
 8801SOL     OW27301   2.024   1.489   4.104
 8801SOL    HW127302   2.078   1.535   4.033
 8801SOL    HW227303   1.979   1.557   4.161
 8802SOL     OW27304   1.222   0.370   1.131
 8802SOL    HW127305   1.311   0.350   1.172
 8802SOL    HW227306   1.196   0.465   1.151
 8803SOL     OW27307   1.446   4.910   6.194
 8803SOL    HW127308   1.490   4.825   6.223
 8803SOL    HW227309   1.516   4.979   6.174
 8804SOL     OW27310   4.233   1.093   1.759
 8804SOL    HW127311   4.135   1.074   1.769
 8804SOL    HW227312   4.246   1.168   1.694
 8805SOL     OW27313   1.452   0.334   3.809
 8805SOL    HW127314   1.378   0.396   3.783
 8805SOL    HW227315   1.535   0.358   3.759
 8806SOL     OW27316   1.816   5.120   0.993
 8806SOL    HW127317   1.876   5.179   1.047
 8806SOL    HW227318   1.807   5.157   0.901
 8807SOL     OW27319   6.273   5.304   5.863
 8807SOL    HW127320   6.366   5.286   5.896
 8807SOL    HW227321   6.278   5.349   5.774
 8808SOL     OW27322   5.349   1.774   0.731
 8808SOL    HW127323   5.337   1.852   0.669
 8808SOL    HW227324   5.265   1.759   0.783
 8809SOL     OW27325   5.265   3.668   1.585
 8809SOL    HW127326   5.238   3.740   1.522
 8809SOL    HW227327   5.223   3.684   1.674
 8810SOL     OW27328   5.754   1.555   4.664
 8810SOL    HW127329   5.657   1.573   4.680
 8810SOL    HW227330   5.799   1.639   4.633
 8811SOL     OW27331   2.513   1.771   4.235
 8811SOL    HW127332   2.525   1.827   4.317
 8811SOL    HW227333   2.429   1.718   4.243
 8812SOL     OW27334   0.462   0.733   0.597
 8812SOL    HW127335   0.368   0.728   0.563
 8812SOL    HW227336   0.481   0.654   0.656
 8813SOL     OW27337   1.120   5.344   1.353
 8813SOL    HW127338   1.210   5.387   1.353
 8813SOL    HW227339   1.107   5.292   1.268
 8814SOL     OW27340   0.159   0.443   6.911
 8814SOL    HW127341   0.251   0.478   6.932
 8814SOL    HW227342   0.093   0.517   6.923
 8815SOL     OW27343   6.642   5.598   1.403
 8815SOL    HW127344   6.587   5.591   1.320
 8815SOL    HW227345   6.604   5.539   1.474
 8816SOL     OW27346   1.236   6.952   1.286
 8816SOL    HW127347   1.269   6.994   1.201
 8816SOL    HW227348   1.139   6.930   1.276
 8817SOL     OW27349   0.828   6.243   5.500
 8817SOL    HW127350   0.910   6.192   5.524
 8817SOL    HW227351   0.782   6.274   5.583
 8818SOL     OW27352   6.978   3.798   3.566
 8818SOL    HW127353   6.991   3.745   3.650
 8818SOL    HW227354   0.002   3.752   3.490
 8819SOL     OW27355   4.413   6.488   4.149
 8819SOL    HW127356   4.474   6.522   4.076
 8819SOL    HW227357   4.451   6.404   4.188
 8820SOL     OW27358   2.019   2.523   4.117
 8820SOL    HW127359   2.027   2.619   4.144
 8820SOL    HW227360   1.922   2.498   4.111
 8821SOL     OW27361   2.160   0.063   6.573
 8821SOL    HW127362   2.144   0.161   6.562
 8821SOL    HW227363   2.252   0.041   6.540
 8822SOL     OW27364   0.494   0.806   3.109
 8822SOL    HW127365   0.563   0.828   3.179
 8822SOL    HW227366   0.526   0.839   3.020
 8823SOL     OW27367   2.067   0.115   1.096
 8823SOL    HW127368   2.018   0.054   1.159
 8823SOL    HW227369   2.002   0.153   1.030
 8824SOL     OW27370   2.678   3.635   1.001
 8824SOL    HW127371   2.664   3.713   0.941
 8824SOL    HW227372   2.681   3.667   1.096
 8825SOL     OW27373   1.362   1.018   2.593
 8825SOL    HW127374   1.440   1.062   2.547
 8825SOL    HW227375   1.391   0.985   2.683
 8826SOL     OW27376   6.011   2.178   0.288
 8826SOL    HW127377   5.953   2.230   0.225
 8826SOL    HW227378   6.048   2.098   0.242
 8827SOL     OW27379   2.962   0.884   3.445
 8827SOL    HW127380   2.883   0.927   3.401
 8827SOL    HW227381   2.934   0.799   3.489
 8828SOL     OW27382   3.980   5.588   3.657
 8828SOL    HW127383   3.894   5.537   3.648
 8828SOL    HW227384   3.961   5.686   3.660
 8829SOL     OW27385   0.049   3.712   0.263
 8829SOL    HW127386   0.087   3.739   0.175
 8829SOL    HW227387   0.076   3.618   0.284
 8830SOL     OW27388   6.573   1.236   6.890
 8830SOL    HW127389   6.531   1.321   6.922
 8830SOL    HW227390   6.516   1.158   6.917
 8831SOL     OW27391   5.627   1.043   3.457
 8831SOL    HW127392   5.577   1.089   3.383
 8831SOL    HW227393   5.566   1.028   3.535
 8832SOL     OW27394   0.120   6.849   1.945
 8832SOL    HW127395   0.159   6.774   1.892
 8832SOL    HW227396   0.189   6.920   1.959
 8833SOL     OW27397   1.858   5.685   5.233
 8833SOL    HW127398   1.948   5.673   5.277
 8833SOL    HW227399   1.855   5.774   5.188
 8834SOL     OW27400   5.531   2.849   4.540
 8834SOL    HW127401   5.567   2.786   4.608
 8834SOL    HW227402   5.568   2.825   4.450
 8835SOL     OW27403   6.316   0.353   5.364
 8835SOL    HW127404   6.254   0.431   5.376
 8835SOL    HW227405   6.289   0.301   5.283
 8836SOL     OW27406   4.016   0.869   0.935
 8836SOL    HW127407   4.030   0.775   0.902
 8836SOL    HW227408   4.103   0.908   0.963
 8837SOL     OW27409   1.037   0.430   2.462
 8837SOL    HW127410   0.986   0.345   2.469
 8837SOL    HW227411   1.107   0.422   2.390
 8838SOL     OW27412   2.591   5.079   3.612
 8838SOL    HW127413   2.690   5.068   3.624
 8838SOL    HW227414   2.570   5.173   3.587
 8839SOL     OW27415   5.789   6.369   3.082
 8839SOL    HW127416   5.872   6.415   3.116
 8839SOL    HW227417   5.715   6.436   3.074
 8840SOL     OW27418   6.258   2.310   2.148
 8840SOL    HW127419   6.331   2.377   2.137
 8840SOL    HW227420   6.174   2.357   2.175
 8841SOL     OW27421   1.087   1.190   4.764
 8841SOL    HW127422   1.003   1.168   4.814
 8841SOL    HW227423   1.166   1.162   4.818
 8842SOL     OW27424   3.556   2.874   1.142
 8842SOL    HW127425   3.573   2.791   1.196
 8842SOL    HW227426   3.643   2.911   1.111
 8843SOL     OW27427   1.225   2.840   5.547
 8843SOL    HW127428   1.176   2.907   5.602
 8843SOL    HW227429   1.173   2.755   5.543
 8844SOL     OW27430   5.859   1.496   6.276
 8844SOL    HW127431   5.797   1.499   6.198
 8844SOL    HW227432   5.825   1.430   6.343
 8845SOL     OW27433   4.129   3.916   0.328
 8845SOL    HW127434   4.193   3.985   0.361
 8845SOL    HW227435   4.143   3.901   0.231
 8846SOL     OW27436   1.986   5.399   3.369
 8846SOL    HW127437   1.900   5.433   3.407
 8846SOL    HW227438   1.978   5.392   3.269
 8847SOL     OW27439   2.789   0.573   2.035
 8847SOL    HW127440   2.850   0.494   2.045
 8847SOL    HW227441   2.836   0.645   1.985
 8848SOL     OW27442   2.065   1.159   1.109
 8848SOL    HW127443   2.077   1.256   1.128
 8848SOL    HW227444   2.076   1.142   1.011
 8849SOL     OW27445   2.132   5.834   2.703
 8849SOL    HW127446   2.116   5.777   2.623
 8849SOL    HW227447   2.187   5.784   2.770
 8850SOL     OW27448   2.666   1.696   0.161
 8850SOL    HW127449   2.765   1.705   0.148
 8850SOL    HW227450   2.641   1.599   0.160
 8851SOL     OW27451   1.468   4.958   2.105
 8851SOL    HW127452   1.399   4.890   2.132
 8851SOL    HW227453   1.559   4.922   2.125
 8852SOL     OW27454   0.995   2.040   5.624
 8852SOL    HW127455   1.023   2.130   5.659
 8852SOL    HW227456   1.076   1.991   5.591
 8853SOL     OW27457   3.089   0.921   1.898
 8853SOL    HW127458   3.067   0.929   1.996
 8853SOL    HW227459   3.137   1.003   1.868
 8854SOL     OW27460   1.593   2.808   5.075
 8854SOL    HW127461   1.534   2.728   5.090
 8854SOL    HW227462   1.656   2.817   5.152
 8855SOL     OW27463   6.195   5.737   1.553
 8855SOL    HW127464   6.131   5.660   1.554
 8855SOL    HW227465   6.166   5.803   1.484
 8856SOL     OW27466   6.200   5.468   6.257
 8856SOL    HW127467   6.169   5.485   6.163
 8856SOL    HW227468   6.122   5.439   6.312
 8857SOL     OW27469   6.905   2.071   5.512
 8857SOL    HW127470   6.813   2.047   5.543
 8857SOL    HW227471   6.937   2.004   5.445
 8858SOL     OW27472   0.513   4.795   5.284
 8858SOL    HW127473   0.431   4.834   5.326
 8858SOL    HW227474   0.520   4.827   5.189
 8859SOL     OW27475   0.867   0.910   3.836
 8859SOL    HW127476   0.931   0.843   3.874
 8859SOL    HW227477   0.912   0.998   3.826
 8860SOL     OW27478   6.992   2.714   1.077
 8860SOL    HW127479   6.966   2.664   1.160
 8860SOL    HW227480   6.984   2.654   0.998
 8861SOL     OW27481   3.957   1.401   0.970
 8861SOL    HW127482   4.050   1.364   0.966
 8861SOL    HW227483   3.960   1.493   1.010
 8862SOL     OW27484   4.714   5.975   4.327
 8862SOL    HW127485   4.648   5.927   4.268
 8862SOL    HW227486   4.664   6.028   4.395
 8863SOL     OW27487   1.888   4.492   3.425
 8863SOL    HW127488   1.792   4.518   3.414
 8863SOL    HW227489   1.945   4.550   3.367
 8864SOL     OW27490   4.963   3.532   6.624
 8864SOL    HW127491   4.994   3.437   6.624
 8864SOL    HW227492   4.870   3.537   6.660
 8865SOL     OW27493   2.945   1.655   5.839
 8865SOL    HW127494   2.847   1.636   5.841
 8865SOL    HW227495   2.960   1.753   5.828
 8866SOL     OW27496   5.468   5.971   2.521
 8866SOL    HW127497   5.409   5.979   2.602
 8866SOL    HW227498   5.507   6.060   2.499
 8867SOL     OW27499   6.606   3.445   2.900
 8867SOL    HW127500   6.579   3.542   2.900
 8867SOL    HW227501   6.605   3.411   2.806
 8868SOL     OW27502   7.003   2.981   2.547
 8868SOL    HW127503   6.981   3.065   2.596
 8868SOL    HW227504   0.044   3.001   2.472
 8869SOL     OW27505   4.351   5.408   4.730
 8869SOL    HW127506   4.316   5.323   4.691
 8869SOL    HW227507   4.346   5.481   4.661
 8870SOL     OW27508   1.892   0.015   1.979
 8870SOL    HW127509   1.955   6.959   1.992
 8870SOL    HW227510   1.863   0.049   2.068
 8871SOL     OW27511   1.730   0.855   2.849
 8871SOL    HW127512   1.786   0.799   2.789
 8871SOL    HW227513   1.689   0.797   2.921
 8872SOL     OW27514   0.507   4.304   6.327
 8872SOL    HW127515   0.440   4.313   6.253
 8872SOL    HW227516   0.549   4.393   6.344
 8873SOL     OW27517   2.025   0.251   2.196
 8873SOL    HW127518   1.935   0.209   2.206
 8873SOL    HW227519   2.015   0.345   2.164
 8874SOL     OW27520   1.770   5.222   0.766
 8874SOL    HW127521   1.791   5.145   0.706
 8874SOL    HW227522   1.805   5.306   0.725
 8875SOL     OW27523   6.965   3.044   3.719
 8875SOL    HW127524   6.940   3.140   3.732
 8875SOL    HW227525   6.948   2.994   3.804
 8876SOL     OW27526   2.925   0.287   6.191
 8876SOL    HW127527   2.894   0.323   6.103
 8876SOL    HW227528   3.008   0.232   6.177
 8877SOL     OW27529   1.290   3.504   1.693
 8877SOL    HW127530   1.209   3.448   1.677
 8877SOL    HW227531   1.292   3.580   1.628
 8878SOL     OW27532   3.689   4.707   0.635
 8878SOL    HW127533   3.746   4.641   0.685
 8878SOL    HW227534   3.668   4.671   0.545
 8879SOL     OW27535   6.559   4.740   2.577
 8879SOL    HW127536   6.554   4.655   2.629
 8879SOL    HW227537   6.552   4.720   2.480
 8880SOL     OW27538   4.395   6.528   3.683
 8880SOL    HW127539   4.400   6.538   3.583
 8880SOL    HW227540   4.424   6.435   3.708
 8881SOL     OW27541   4.569   5.209   4.067
 8881SOL    HW127542   4.567   5.308   4.075
 8881SOL    HW227543   4.647   5.182   4.011
 8882SOL     OW27544   3.833   1.020   0.522
 8882SOL    HW127545   3.902   1.055   0.585
 8882SOL    HW227546   3.742   1.044   0.555
 8883SOL     OW27547   0.231   6.784   6.357
 8883SOL    HW127548   0.155   6.787   6.422
 8883SOL    HW227549   0.246   6.875   6.320
 8884SOL     OW27550   5.586   4.221   4.810
 8884SOL    HW127551   5.672   4.263   4.838
 8884SOL    HW227552   5.604   4.136   4.761
 8885SOL     OW27553   5.665   5.349   0.034
 8885SOL    HW127554   5.674   5.322   0.130
 8885SOL    HW227555   5.585   5.304   7.016
 8886SOL     OW27556   3.911   5.176   6.613
 8886SOL    HW127557   3.834   5.203   6.555
 8886SOL    HW227558   3.876   5.141   6.700
 8887SOL     OW27559   4.324   7.020   0.313
 8887SOL    HW127560   4.262   0.010   0.235
 8887SOL    HW227561   4.270   7.022   0.398
 8888SOL     OW27562   2.089   1.827   3.737
 8888SOL    HW127563   2.165   1.803   3.676
 8888SOL    HW227564   2.125   1.871   3.819
 8889SOL     OW27565   6.839   6.649   6.203
 8889SOL    HW127566   6.920   6.603   6.166
 8889SOL    HW227567   6.808   6.719   6.139
 8890SOL     OW27568   6.947   6.288   0.085
 8890SOL    HW127569   6.972   6.201   0.128
 8890SOL    HW227570   6.848   6.300   0.090
 8891SOL     OW27571   5.645   4.466   6.714
 8891SOL    HW127572   5.641   4.366   6.716
 8891SOL    HW227573   5.621   4.502   6.804
 8892SOL     OW27574   3.321   5.133   3.670
 8892SOL    HW127575   3.239   5.155   3.616
 8892SOL    HW227576   3.394   5.198   3.647
 8893SOL     OW27577   1.490   4.962   4.993
 8893SOL    HW127578   1.555   5.035   5.013
 8893SOL    HW227579   1.408   5.001   4.951
 8894SOL     OW27580   5.014   2.118   0.552
 8894SOL    HW127581   5.092   2.080   0.601
 8894SOL    HW227582   5.013   2.217   0.561
 8895SOL     OW27583   0.964   3.032   0.841
 8895SOL    HW127584   0.876   3.012   0.798
 8895SOL    HW227585   0.973   2.978   0.924
 8896SOL     OW27586   0.609   2.631   4.586
 8896SOL    HW127587   0.609   2.731   4.583
 8896SOL    HW227588   0.703   2.597   4.582
 8897SOL     OW27589   1.829   3.777   3.776
 8897SOL    HW127590   1.856   3.684   3.802
 8897SOL    HW227591   1.828   3.784   3.676
 8898SOL     OW27592   4.936   3.521   2.646
 8898SOL    HW127593   5.027   3.557   2.668
 8898SOL    HW227594   4.937   3.481   2.555
 8899SOL     OW27595   6.750   4.637   6.218
 8899SOL    HW127596   6.814   4.698   6.265
 8899SOL    HW227597   6.745   4.550   6.268
 8900SOL     OW27598   5.814   1.949   3.433
 8900SOL    HW127599   5.868   1.985   3.357
 8900SOL    HW227600   5.759   2.023   3.472
 8901SOL     OW27601   0.642   2.177   3.649
 8901SOL    HW127602   0.706   2.112   3.608
 8901SOL    HW227603   0.679   2.269   3.643
 8902SOL     OW27604   1.273   4.681   0.046
 8902SOL    HW127605   1.366   4.644   0.047
 8902SOL    HW227606   1.276   4.779   0.066
 8903SOL     OW27607   1.586   1.269   4.943
 8903SOL    HW127608   1.622   1.321   4.866
 8903SOL    HW227609   1.662   1.226   4.992
 8904SOL     OW27610   0.358   1.378   2.344
 8904SOL    HW127611   0.371   1.324   2.427
 8904SOL    HW227612   0.445   1.420   2.319
 8905SOL     OW27613   1.607   3.025   2.525
 8905SOL    HW127614   1.587   2.933   2.560
 8905SOL    HW227615   1.589   3.092   2.596
 8906SOL     OW27616   0.834   6.849   0.818
 8906SOL    HW127617   0.872   6.810   0.735
 8906SOL    HW227618   0.850   6.785   0.894
 8907SOL     OW27619   3.295   2.579   5.354
 8907SOL    HW127620   3.262   2.504   5.297
 8907SOL    HW227621   3.228   2.654   5.354
 8908SOL     OW27622   1.346   5.015   0.472
 8908SOL    HW127623   1.293   5.096   0.449
 8908SOL    HW227624   1.401   5.032   0.553
 8909SOL     OW27625   2.476   1.208   6.302
 8909SOL    HW127626   2.511   1.240   6.390
 8909SOL    HW227627   2.534   1.244   6.228
 8910SOL     OW27628   0.934   2.495   5.175
 8910SOL    HW127629   0.909   2.436   5.253
 8910SOL    HW227630   0.935   2.441   5.091
 8911SOL     OW27631   5.123   1.699   4.063
 8911SOL    HW127632   5.134   1.695   3.963
 8911SOL    HW227633   5.053   1.634   4.092
 8912SOL     OW27634   3.905   3.613   5.304
 8912SOL    HW127635   3.866   3.530   5.263
 8912SOL    HW227636   3.858   3.633   5.390
 8913SOL     OW27637   5.469   5.189   6.960
 8913SOL    HW127638   5.379   5.153   6.987
 8913SOL    HW227639   5.481   5.176   6.861
 8914SOL     OW27640   5.553   6.438   4.857
 8914SOL    HW127641   5.653   6.436   4.858
 8914SOL    HW227642   5.520   6.476   4.943
 8915SOL     OW27643   1.059   1.144   4.118
 8915SOL    HW127644   1.062   1.225   4.175
 8915SOL    HW227645   0.997   1.077   4.158
 8916SOL     OW27646   5.785   1.711   6.441
 8916SOL    HW127647   5.806   1.653   6.363
 8916SOL    HW227648   5.782   1.807   6.412
 8917SOL     OW27649   6.175   1.705   0.631
 8917SOL    HW127650   6.153   1.747   0.719
 8917SOL    HW227651   6.180   1.775   0.560
 8918SOL     OW27652   1.665   5.655   1.156
 8918SOL    HW127653   1.658   5.593   1.234
 8918SOL    HW227654   1.738   5.721   1.174
 8919SOL     OW27655   5.470   4.552   6.518
 8919SOL    HW127656   5.531   4.543   6.597
 8919SOL    HW227657   5.375   4.554   6.549
 8920SOL     OW27658   0.202   1.242   6.680
 8920SOL    HW127659   0.182   1.340   6.676
 8920SOL    HW227660   0.275   1.220   6.617
 8921SOL     OW27661   1.177   2.904   1.307
 8921SOL    HW127662   1.171   2.822   1.365
 8921SOL    HW227663   1.098   2.962   1.324
 8922SOL     OW27664   3.730   6.714   2.814
 8922SOL    HW127665   3.659   6.646   2.798
 8922SOL    HW227666   3.697   6.804   2.786
 8923SOL     OW27667   1.409   1.829   5.689
 8923SOL    HW127668   1.472   1.850   5.764
 8923SOL    HW227669   1.461   1.809   5.606
 8924SOL     OW27670   5.327   5.639   4.474
 8924SOL    HW127671   5.387   5.567   4.509
 8924SOL    HW227672   5.290   5.691   4.551
 8925SOL     OW27673   1.094   0.952   2.654
 8925SOL    HW127674   1.041   0.889   2.597
 8925SOL    HW227675   1.191   0.944   2.632
 8926SOL     OW27676   6.288   3.867   5.573
 8926SOL    HW127677   6.282   3.789   5.634
 8926SOL    HW227678   6.197   3.889   5.538
 8927SOL     OW27679   6.480   2.392   5.436
 8927SOL    HW127680   6.386   2.425   5.435
 8927SOL    HW227681   6.541   2.465   5.465
 8928SOL     OW27682   2.337   0.550   5.397
 8928SOL    HW127683   2.370   0.554   5.303
 8928SOL    HW227684   2.415   0.558   5.460
 8929SOL     OW27685   6.121   2.644   5.121
 8929SOL    HW127686   6.193   2.714   5.122
 8929SOL    HW227687   6.053   2.666   5.191
 8930SOL     OW27688   0.935   3.648   2.877
 8930SOL    HW127689   0.950   3.555   2.844
 8930SOL    HW227690   0.976   3.713   2.813
 8931SOL     OW27691   3.413   2.730   1.409
 8931SOL    HW127692   3.395   2.709   1.505
 8931SOL    HW227693   3.511   2.726   1.392
 8932SOL     OW27694   0.329   1.690   3.098
 8932SOL    HW127695   0.408   1.714   3.153
 8932SOL    HW227696   0.346   1.715   3.002
 8933SOL     OW27697   3.493   2.390   6.713
 8933SOL    HW127698   3.400   2.353   6.711
 8933SOL    HW227699   3.525   2.406   6.620
 8934SOL     OW27700   3.700   5.456   4.263
 8934SOL    HW127701   3.791   5.443   4.224
 8934SOL    HW227702   3.683   5.387   4.333
 8935SOL     OW27703   0.099   5.322   1.042
 8935SOL    HW127704   0.101   5.399   0.978
 8935SOL    HW227705   0.032   5.255   1.012
 8936SOL     OW27706   1.606   3.671   0.670
 8936SOL    HW127707   1.598   3.769   0.650
 8936SOL    HW227708   1.516   3.633   0.688
 8937SOL     OW27709   0.183   6.533   5.164
 8937SOL    HW127710   0.154   6.616   5.116
 8937SOL    HW227711   0.277   6.511   5.140
 8938SOL     OW27712   0.279   5.459   1.235
 8938SOL    HW127713   0.220   5.419   1.165
 8938SOL    HW227714   0.254   5.555   1.249
 8939SOL     OW27715   4.915   2.424   4.502
 8939SOL    HW127716   4.912   2.508   4.556
 8939SOL    HW227717   5.004   2.380   4.514
 8940SOL     OW27718   6.838   0.995   4.171
 8940SOL    HW127719   6.793   1.076   4.209
 8940SOL    HW227720   6.903   0.959   4.238
 8941SOL     OW27721   6.101   2.121   5.600
 8941SOL    HW127722   6.197   2.095   5.594
 8941SOL    HW227723   6.071   2.116   5.696
 8942SOL     OW27724   6.897   3.187   5.567
 8942SOL    HW127725   6.947   3.253   5.622
 8942SOL    HW227726   6.805   3.221   5.549
 8943SOL     OW27727   5.486   4.224   0.520
 8943SOL    HW127728   5.406   4.252   0.574
 8943SOL    HW227729   5.459   4.152   0.456
 8944SOL     OW27730   5.012   5.411   5.706
 8944SOL    HW127731   5.104   5.402   5.668
 8944SOL    HW227732   5.013   5.385   5.802
 8945SOL     OW27733   1.979   0.315   4.032
 8945SOL    HW127734   1.933   0.237   4.075
 8945SOL    HW227735   1.987   0.390   4.097
 8946SOL     OW27736   3.359   2.097   4.922
 8946SOL    HW127737   3.355   2.062   4.829
 8946SOL    HW227738   3.279   2.156   4.939
 8947SOL     OW27739   1.739   4.030   5.072
 8947SOL    HW127740   1.665   3.988   5.123
 8947SOL    HW227741   1.825   3.984   5.095
 8948SOL     OW27742   5.546   5.470   3.569
 8948SOL    HW127743   5.469   5.481   3.632
 8948SOL    HW227744   5.557   5.553   3.515
 8949SOL     OW27745   2.128   0.242   6.838
 8949SOL    HW127746   2.032   0.268   6.832
 8949SOL    HW227747   2.142   0.155   6.790
 8950SOL     OW27748   4.668   3.227   5.563
 8950SOL    HW127749   4.608   3.164   5.514
 8950SOL    HW227750   4.759   3.186   5.571
 8951SOL     OW27751   1.617   2.380   5.210
 8951SOL    HW127752   1.564   2.456   5.172
 8951SOL    HW227753   1.569   2.294   5.192
 8952SOL     OW27754   1.240   1.303   2.221
 8952SOL    HW127755   1.212   1.280   2.314
 8952SOL    HW227756   1.240   1.221   2.165
 8953SOL     OW27757   1.284   3.855   7.005
 8953SOL    HW127758   1.319   3.847   0.077
 8953SOL    HW227759   1.215   3.927   7.002
 8954SOL     OW27760   0.233   5.898   5.474
 8954SOL    HW127761   0.178   5.916   5.392
 8954SOL    HW227762   0.327   5.929   5.458
 8955SOL     OW27763   6.673   4.260   3.117
 8955SOL    HW127764   6.579   4.278   3.146
 8955SOL    HW227765   6.729   4.240   3.197
 8956SOL     OW27766   6.816   1.201   6.449
 8956SOL    HW127767   6.794   1.242   6.537
 8956SOL    HW227768   6.832   1.103   6.460
 8957SOL     OW27769   3.083   4.654   1.427
 8957SOL    HW127770   3.096   4.559   1.457
 8957SOL    HW227771   3.143   4.714   1.480
 8958SOL     OW27772   0.718   0.372   4.430
 8958SOL    HW127773   0.744   0.304   4.362
 8958SOL    HW227774   0.675   0.450   4.385
 8959SOL     OW27775   1.288   4.624   0.763
 8959SOL    HW127776   1.226   4.690   0.806
 8959SOL    HW227777   1.381   4.659   0.767
 8960SOL     OW27778   4.665   5.316   2.796
 8960SOL    HW127779   4.660   5.220   2.824
 8960SOL    HW227780   4.574   5.348   2.771
 8961SOL     OW27781   1.528   1.983   4.346
 8961SOL    HW127782   1.517   2.058   4.281
 8961SOL    HW227783   1.599   2.005   4.412
 8962SOL     OW27784   5.793   6.656   2.783
 8962SOL    HW127785   5.782   6.756   2.781
 8962SOL    HW227786   5.887   6.633   2.806
 8963SOL     OW27787   4.900   6.419   3.902
 8963SOL    HW127788   4.875   6.501   3.954
 8963SOL    HW227789   4.953   6.358   3.960
 8964SOL     OW27790   5.679   4.573   2.477
 8964SOL    HW127791   5.623   4.618   2.407
 8964SOL    HW227792   5.748   4.515   2.433
 8965SOL     OW27793   1.684   4.740   1.004
 8965SOL    HW127794   1.755   4.801   0.969
 8965SOL    HW227795   1.722   4.648   1.014
 8966SOL     OW27796   1.840   3.079   5.708
 8966SOL    HW127797   1.878   2.995   5.746
 8966SOL    HW227798   1.876   3.157   5.760
 8967SOL     OW27799   3.123   6.324   1.745
 8967SOL    HW127800   3.202   6.262   1.742
 8967SOL    HW227801   3.121   6.370   1.834
 8968SOL     OW27802   4.948   5.423   2.909
 8968SOL    HW127803   4.859   5.427   2.864
 8968SOL    HW227804   5.006   5.498   2.877
 8969SOL     OW27805   5.943   0.637   3.582
 8969SOL    HW127806   5.888   0.683   3.652
 8969SOL    HW227807   5.930   0.683   3.494
 8970SOL     OW27808   3.374   2.707   0.778
 8970SOL    HW127809   3.344   2.727   0.872
 8970SOL    HW227810   3.467   2.742   0.766
 8971SOL     OW27811   3.453   5.865   2.374
 8971SOL    HW127812   3.370   5.867   2.431
 8971SOL    HW227813   3.446   5.789   2.309
 8972SOL     OW27814   4.769   6.046   0.126
 8972SOL    HW127815   4.713   6.039   0.043
 8972SOL    HW227816   4.831   6.124   0.118
 8973SOL     OW27817   0.952   3.930   1.980
 8973SOL    HW127818   0.960   3.990   1.900
 8973SOL    HW227819   1.043   3.903   2.010
 8974SOL     OW27820   0.782   4.629   6.160
 8974SOL    HW127821   0.758   4.560   6.091
 8974SOL    HW227822   0.853   4.592   6.220
 8975SOL     OW27823   2.686   1.045   0.056
 8975SOL    HW127824   2.769   1.050   0.001
 8975SOL    HW227825   2.651   0.951   0.056
 8976SOL     OW27826   1.370   5.287   5.327
 8976SOL    HW127827   1.335   5.242   5.245
 8976SOL    HW227828   1.469   5.274   5.332
 8977SOL     OW27829   6.082   1.445   6.605
 8977SOL    HW127830   6.160   1.497   6.640
 8977SOL    HW227831   5.998   1.497   6.618
 8978SOL     OW27832   6.241   6.056   6.980
 8978SOL    HW127833   6.212   5.968   6.941
 8978SOL    HW227834   6.163   6.118   6.984
 8979SOL     OW27835   1.892   3.308   4.630
 8979SOL    HW127836   1.817   3.352   4.678
 8979SOL    HW227837   1.977   3.320   4.681
 8980SOL     OW27838   2.724   3.408   5.767
 8980SOL    HW127839   2.690   3.482   5.824
 8980SOL    HW227840   2.817   3.429   5.737
 8981SOL     OW27841   4.032   1.576   5.118
 8981SOL    HW127842   4.029   1.670   5.085
 8981SOL    HW227843   3.953   1.558   5.177
 8982SOL     OW27844   1.895   2.951   0.355
 8982SOL    HW127845   1.900   2.868   0.411
 8982SOL    HW227846   1.847   3.022   0.406
 8983SOL     OW27847   2.925   5.928   6.531
 8983SOL    HW127848   2.977   5.842   6.532
 8983SOL    HW227849   2.969   5.993   6.470
 8984SOL     OW27850   1.538   6.749   2.859
 8984SOL    HW127851   1.561   6.763   2.956
 8984SOL    HW227852   1.438   6.746   2.849
 8985SOL     OW27853   3.813   2.439   0.832
 8985SOL    HW127854   3.819   2.529   0.789
 8985SOL    HW227855   3.720   2.403   0.821
 8986SOL     OW27856   4.000   4.823   3.018
 8986SOL    HW127857   4.041   4.859   3.102
 8986SOL    HW227858   4.069   4.817   2.947
 8987SOL     OW27859   4.068   6.136   3.019
 8987SOL    HW127860   4.075   6.232   3.044
 8987SOL    HW227861   4.047   6.128   2.921
 8988SOL     OW27862   1.051   5.502   4.000
 8988SOL    HW127863   1.100   5.442   4.063
 8988SOL    HW227864   0.966   5.534   4.043
 8989SOL     OW27865   4.202   3.230   6.850
 8989SOL    HW127866   4.200   3.243   6.949
 8989SOL    HW227867   4.291   3.260   6.815
 8990SOL     OW27868   0.678   4.698   4.013
 8990SOL    HW127869   0.624   4.782   4.008
 8990SOL    HW227870   0.774   4.721   4.028
 8991SOL     OW27871   1.203   3.517   4.666
 8991SOL    HW127872   1.271   3.529   4.738
 8991SOL    HW227873   1.142   3.441   4.690
 8992SOL     OW27874   5.084   2.007   1.183
 8992SOL    HW127875   5.015   2.076   1.205
 8992SOL    HW227876   5.050   1.947   1.111
 8993SOL     OW27877   3.876   3.306   0.377
 8993SOL    HW127878   3.867   3.403   0.399
 8993SOL    HW227879   3.801   3.278   0.317
 8994SOL     OW27880   1.586   4.686   4.612
 8994SOL    HW127881   1.631   4.686   4.522
 8994SOL    HW227882   1.646   4.729   4.679
 8995SOL     OW27883   6.846   2.106   6.984
 8995SOL    HW127884   6.896   2.141   0.041
 8995SOL    HW227885   6.900   2.035   6.939
 8996SOL     OW27886   5.427   4.097   6.545
 8996SOL    HW127887   5.471   4.142   6.467
 8996SOL    HW227888   5.334   4.072   6.521
 8997SOL     OW27889   4.596   1.146   5.684
 8997SOL    HW127890   4.645   1.219   5.730
 8997SOL    HW227891   4.567   1.077   5.751
 8998SOL     OW27892   5.807   3.236   4.511
 8998SOL    HW127893   5.723   3.194   4.474
 8998SOL    HW227894   5.887   3.195   4.467
 8999SOL     OW27895   5.010   6.429   6.360
 8999SOL    HW127896   5.005   6.463   6.454
 8999SOL    HW227897   4.940   6.358   6.347
 9000SOL     OW27898   1.838   3.103   2.390
 9000SOL    HW127899   1.773   3.078   2.461
 9000SOL    HW227900   1.812   3.059   2.304
 9001SOL     OW27901   0.878   5.181   1.513
 9001SOL    HW127902   0.853   5.115   1.584
 9001SOL    HW227903   0.962   5.229   1.539
 9002SOL     OW27904   1.869   4.779   5.442
 9002SOL    HW127905   1.882   4.832   5.359
 9002SOL    HW227906   1.928   4.699   5.441
 9003SOL     OW27907   5.278   3.869   1.016
 9003SOL    HW127908   5.310   3.823   0.933
 9003SOL    HW227909   5.290   3.808   1.094
 9004SOL     OW27910   4.415   5.293   0.723
 9004SOL    HW127911   4.491   5.351   0.750
 9004SOL    HW227912   4.410   5.288   0.623
 9005SOL     OW27913   6.631   2.064   5.566
 9005SOL    HW127914   6.627   1.974   5.609
 9005SOL    HW227915   6.550   2.077   5.508
 9006SOL     OW27916   3.302   6.287   0.940
 9006SOL    HW127917   3.258   6.197   0.953
 9006SOL    HW227918   3.352   6.312   1.023
 9007SOL     OW27919   2.705   1.260   2.229
 9007SOL    HW127920   2.621   1.300   2.192
 9007SOL    HW227921   2.728   1.306   2.315
 9008SOL     OW27922   6.814   4.748   2.637
 9008SOL    HW127923   6.722   4.750   2.598
 9008SOL    HW227924   6.817   4.807   2.718
 9009SOL     OW27925   3.450   5.387   1.059
 9009SOL    HW127926   3.440   5.316   1.130
 9009SOL    HW227927   3.537   5.434   1.072
 9010SOL     OW27928   2.032   6.332   4.582
 9010SOL    HW127929   2.006   6.428   4.576
 9010SOL    HW227930   2.076   6.304   4.496
 9011SOL     OW27931   4.036   0.663   1.352
 9011SOL    HW127932   3.967   0.693   1.287
 9011SOL    HW227933   4.044   0.730   1.426
 9012SOL     OW27934   2.236   5.353   0.262
 9012SOL    HW127935   2.235   5.307   0.173
 9012SOL    HW227936   2.315   5.413   0.268
 9013SOL     OW27937   1.006   0.859   5.826
 9013SOL    HW127938   1.044   0.942   5.867
 9013SOL    HW227939   0.983   0.878   5.730
 9014SOL     OW27940   6.279   2.670   0.719
 9014SOL    HW127941   6.318   2.704   0.805
 9014SOL    HW227942   6.260   2.572   0.728
 9015SOL     OW27943   4.674   2.362   1.736
 9015SOL    HW127944   4.738   2.291   1.766
 9015SOL    HW227945   4.601   2.373   1.804
 9016SOL     OW27946   6.075   5.442   6.938
 9016SOL    HW127947   6.162   5.403   6.969
 9016SOL    HW227948   6.065   5.534   6.976
 9017SOL     OW27949   4.542   1.060   4.041
 9017SOL    HW127950   4.616   1.028   4.099
 9017SOL    HW227951   4.493   0.981   4.003
 9018SOL     OW27952   2.413   3.534   5.582
 9018SOL    HW127953   2.459   3.445   5.581
 9018SOL    HW227954   2.361   3.545   5.497
 9019SOL     OW27955   0.996   4.603   2.693
 9019SOL    HW127956   0.972   4.660   2.615
 9019SOL    HW227957   0.914   4.586   2.748
 9020SOL     OW27958   6.909   4.461   1.011
 9020SOL    HW127959   6.955   4.524   0.949
 9020SOL    HW227960   6.832   4.508   1.055
 9021SOL     OW27961   6.036   1.245   2.911
 9021SOL    HW127962   6.088   1.168   2.872
 9021SOL    HW227963   5.973   1.281   2.843
 9022SOL     OW27964   3.367   1.446   6.737
 9022SOL    HW127965   3.305   1.368   6.740
 9022SOL    HW227966   3.404   1.462   6.829
 9023SOL     OW27967   3.858   3.677   1.683
 9023SOL    HW127968   3.913   3.637   1.757
 9023SOL    HW227969   3.915   3.686   1.601
 9024SOL     OW27970   1.296   4.494   5.198
 9024SOL    HW127971   1.342   4.528   5.280
 9024SOL    HW227972   1.325   4.547   5.119
 9025SOL     OW27973   0.038   5.523   0.869
 9025SOL    HW127974   7.020   5.603   0.914
 9025SOL    HW227975   7.005   5.498   0.790
 9026SOL     OW27976   3.574   2.264   0.829
 9026SOL    HW127977   3.501   2.304   0.884
 9026SOL    HW227978   3.540   2.243   0.738
 9027SOL     OW27979   0.563   3.134   3.060
 9027SOL    HW127980   0.592   3.040   3.075
 9027SOL    HW227981   0.464   3.140   3.068
 9028SOL     OW27982   3.523   3.110   5.417
 9028SOL    HW127983   3.487   3.073   5.502
 9028SOL    HW227984   3.611   3.156   5.434
 9029SOL     OW27985   3.837   6.854   4.618
 9029SOL    HW127986   3.841   6.755   4.602
 9029SOL    HW227987   3.927   6.886   4.649
 9030SOL     OW27988   2.475   1.832   3.977
 9030SOL    HW127989   2.541   1.907   3.982
 9030SOL    HW227990   2.472   1.784   4.064
 9031SOL     OW27991   4.220   6.863   4.360
 9031SOL    HW127992   4.183   6.809   4.284
 9031SOL    HW227993   4.200   6.816   4.446
 9032SOL     OW27994   4.961   4.083   1.050
 9032SOL    HW127995   4.933   4.073   0.955
 9032SOL    HW227996   4.944   3.998   1.099
 9033SOL     OW27997   0.488   4.691   2.225
 9033SOL    HW127998   0.529   4.641   2.148
 9033SOL    HW227999   0.470   4.628   2.300
 9034SOL     OW28000   3.304   5.958   4.519
 9034SOL    HW128001   3.219   5.908   4.536
 9034SOL    HW228002   3.283   6.053   4.494
 9035SOL     OW28003   2.136   5.625   0.219
 9035SOL    HW128004   2.179   5.677   0.146
 9035SOL    HW228005   2.182   5.537   0.230
 9036SOL     OW28006   1.804   3.967   5.538
 9036SOL    HW128007   1.879   4.031   5.551
 9036SOL    HW228008   1.727   4.013   5.495
 9037SOL     OW28009   1.219   3.283   3.990
 9037SOL    HW128010   1.195   3.194   3.952
 9037SOL    HW228011   1.175   3.295   4.079
 9038SOL     OW28012   4.698   3.010   6.945
 9038SOL    HW128013   4.614   3.048   6.909
 9038SOL    HW228014   4.732   2.939   6.883
 9039SOL     OW28015   3.104   5.007   6.316
 9039SOL    HW128016   3.117   5.040   6.409
 9039SOL    HW228017   3.009   4.976   6.304
 9040SOL     OW28018   2.708   2.192   2.246
 9040SOL    HW128019   2.786   2.238   2.204
 9040SOL    HW228020   2.732   2.165   2.340
 9041SOL     OW28021   1.589   2.306   1.074
 9041SOL    HW128022   1.685   2.323   1.096
 9041SOL    HW228023   1.583   2.260   0.985
 9042SOL     OW28024   3.667   0.136   4.407
 9042SOL    HW128025   3.701   0.229   4.396
 9042SOL    HW228026   3.625   0.106   4.321
 9043SOL     OW28027   2.537   1.530   6.160
 9043SOL    HW128028   2.451   1.510   6.206
 9043SOL    HW228029   2.580   1.444   6.131
 9044SOL     OW28030   6.955   1.033   6.899
 9044SOL    HW128031   6.881   1.036   6.965
 9044SOL    HW228032   0.005   0.972   6.932
 9045SOL     OW28033   3.674   0.538   2.842
 9045SOL    HW128034   3.684   0.514   2.938
 9045SOL    HW228035   3.611   0.616   2.833
 9046SOL     OW28036   3.897   3.842   2.720
 9046SOL    HW128037   3.940   3.751   2.726
 9046SOL    HW228038   3.890   3.881   2.812
 9047SOL     OW28039   1.026   3.721   4.661
 9047SOL    HW128040   1.063   3.813   4.647
 9047SOL    HW228041   1.100   3.655   4.661
 9048SOL     OW28042   6.253   2.468   6.222
 9048SOL    HW128043   6.228   2.429   6.311
 9048SOL    HW228044   6.275   2.565   6.234
 9049SOL     OW28045   4.349   6.374   5.672
 9049SOL    HW128046   4.437   6.330   5.687
 9049SOL    HW228047   4.277   6.323   5.720
 9050SOL     OW28048   0.186   3.233   1.600
 9050SOL    HW128049   0.234   3.182   1.671
 9050SOL    HW228050   0.125   3.172   1.549
 9051SOL     OW28051   2.218   0.472   1.849
 9051SOL    HW128052   2.141   0.409   1.864
 9051SOL    HW228053   2.263   0.491   1.936
 9052SOL     OW28054   2.051   3.037   4.033
 9052SOL    HW128055   2.044   2.945   3.993
 9052SOL    HW228056   2.071   3.029   4.130
 9053SOL     OW28057   1.656   1.317   0.929
 9053SOL    HW128058   1.650   1.222   0.900
 9053SOL    HW228059   1.648   1.322   1.029
 9054SOL     OW28060   2.255   5.957   4.896
 9054SOL    HW128061   2.290   5.863   4.898
 9054SOL    HW228062   2.186   5.965   4.824
 9055SOL     OW28063   6.474   2.931   4.437
 9055SOL    HW128064   6.517   2.913   4.525
 9055SOL    HW228065   6.410   2.858   4.415
 9056SOL     OW28066   6.739   1.793   1.853
 9056SOL    HW128067   6.796   1.875   1.866
 9056SOL    HW228068   6.702   1.765   1.942
 9057SOL     OW28069   4.663   2.211   4.979
 9057SOL    HW128070   4.565   2.230   4.968
 9057SOL    HW228071   4.715   2.271   4.919
 9058SOL     OW28072   1.305   0.672   1.139
 9058SOL    HW128073   1.206   0.671   1.126
 9058SOL    HW228074   1.332   0.601   1.204
 9059SOL     OW28075   0.926   2.144   2.956
 9059SOL    HW128076   0.896   2.218   3.017
 9059SOL    HW228077   0.879   2.059   2.981
 9060SOL     OW28078   5.885   2.739   4.383
 9060SOL    HW128079   5.908   2.643   4.366
 9060SOL    HW228080   5.801   2.762   4.335
 9061SOL     OW28081   3.187   5.451   2.393
 9061SOL    HW128082   3.237   5.368   2.418
 9061SOL    HW228083   3.192   5.464   2.294
 9062SOL     OW28084   1.279   5.833   1.608
 9062SOL    HW128085   1.301   5.909   1.546
 9062SOL    HW228086   1.247   5.871   1.695
 9063SOL     OW28087   2.889   0.591   3.506
 9063SOL    HW128088   2.792   0.595   3.483
 9063SOL    HW228089   2.903   0.526   3.580
 9064SOL     OW28090   6.696   3.515   6.588
 9064SOL    HW128091   6.640   3.432   6.581
 9064SOL    HW228092   6.790   3.494   6.563
 9065SOL     OW28093   3.579   0.145   0.907
 9065SOL    HW128094   3.548   0.213   0.974
 9065SOL    HW228095   3.515   0.141   0.831
 9066SOL     OW28096   5.212   0.154   0.627
 9066SOL    HW128097   5.144   0.080   0.633
 9066SOL    HW228098   5.167   0.241   0.647
 9067SOL     OW28099   1.477   0.241   3.329
 9067SOL    HW128100   1.420   0.195   3.398
 9067SOL    HW228101   1.562   0.190   3.316
 9068SOL     OW28102   0.780   0.077   4.781
 9068SOL    HW128103   0.853   0.009   4.774
 9068SOL    HW228104   0.696   0.040   4.743
 9069SOL     OW28105   1.210   2.981   6.777
 9069SOL    HW128106   1.240   2.980   6.873
 9069SOL    HW228107   1.232   2.893   6.735
 9070SOL     OW28108   2.201   3.986   4.611
 9070SOL    HW128109   2.141   3.907   4.623
 9070SOL    HW228110   2.276   3.982   4.678
 9071SOL     OW28111   6.549   5.991   1.037
 9071SOL    HW128112   6.618   5.947   0.980
 9071SOL    HW228113   6.464   6.000   0.986
 9072SOL     OW28114   6.681   3.357   1.077
 9072SOL    HW128115   6.762   3.302   1.101
 9072SOL    HW228116   6.670   3.358   0.978
 9073SOL     OW28117   1.745   6.954   1.751
 9073SOL    HW128118   1.798   6.869   1.749
 9073SOL    HW228119   1.765   7.004   1.835
 9074SOL     OW28120   1.623   0.802   2.459
 9074SOL    HW128121   1.601   0.893   2.496
 9074SOL    HW228122   1.538   0.756   2.432
 9075SOL     OW28123   6.311   0.742   2.360
 9075SOL    HW128124   6.391   0.683   2.363
 9075SOL    HW228125   6.305   0.787   2.271
 9076SOL     OW28126   0.381   1.281   6.467
 9076SOL    HW128127   0.416   1.188   6.453
 9076SOL    HW228128   0.458   1.342   6.490
 9077SOL     OW28129   4.068   6.374   1.958
 9077SOL    HW128130   4.006   6.372   2.036
 9077SOL    HW228131   4.020   6.412   1.879
 9078SOL     OW28132   3.920   3.465   4.949
 9078SOL    HW128133   3.833   3.454   4.996
 9078SOL    HW228134   3.955   3.375   4.923
 9079SOL     OW28135   2.937   0.602   4.278
 9079SOL    HW128136   3.008   0.563   4.220
 9079SOL    HW228137   2.847   0.573   4.244
 9080SOL     OW28138   5.209   2.585   6.833
 9080SOL    HW128139   5.272   2.596   6.910
 9080SOL    HW228140   5.151   2.506   6.849
 9081SOL     OW28141   5.385   6.137   2.773
 9081SOL    HW128142   5.335   6.219   2.742
 9081SOL    HW228143   5.441   6.160   2.852
 9082SOL     OW28144   1.790   0.080   3.689
 9082SOL    HW128145   1.879   0.040   3.712
 9082SOL    HW228146   1.789   0.176   3.717
 9083SOL     OW28147   4.642   4.567   5.925
 9083SOL    HW128148   4.661   4.620   6.007
 9083SOL    HW228149   4.578   4.493   5.947
 9084SOL     OW28150   3.713   3.535   2.733
 9084SOL    HW128151   3.811   3.546   2.716
 9084SOL    HW228152   3.699   3.476   2.812
 9085SOL     OW28153   2.457   0.969   0.720
 9085SOL    HW128154   2.490   0.875   0.728
 9085SOL    HW228155   2.504   1.014   0.645
 9086SOL     OW28156   0.597   3.955   0.432
 9086SOL    HW128157   0.603   4.049   0.400
 9086SOL    HW228158   0.616   3.892   0.356
 9087SOL     OW28159   5.102   3.080   2.475
 9087SOL    HW128160   5.150   3.010   2.422
 9087SOL    HW228161   5.147   3.168   2.464
 9088SOL     OW28162   6.283   0.214   0.340
 9088SOL    HW128163   6.253   0.267   0.419
 9088SOL    HW228164   6.277   0.116   0.362
 9089SOL     OW28165   5.104   6.163   5.801
 9089SOL    HW128166   5.122   6.231   5.872
 9089SOL    HW228167   5.178   6.096   5.801
 9090SOL     OW28168   6.339   0.753   4.829
 9090SOL    HW128169   6.248   0.746   4.790
 9090SOL    HW228170   6.358   0.670   4.883
 9091SOL     OW28171   3.141   3.903   6.872
 9091SOL    HW128172   3.094   3.828   6.919
 9091SOL    HW228173   3.078   3.947   6.808
 9092SOL     OW28174   6.485   1.533   6.906
 9092SOL    HW128175   6.447   1.590   6.834
 9092SOL    HW228176   6.555   1.584   6.956
 9093SOL     OW28177   1.417   6.306   5.464
 9093SOL    HW128178   1.349   6.235   5.443
 9093SOL    HW228179   1.399   6.387   5.409
 9094SOL     OW28180   0.526   3.312   2.809
 9094SOL    HW128181   0.589   3.249   2.764
 9094SOL    HW228182   0.435   3.272   2.811
 9095SOL     OW28183   4.654   4.819   5.784
 9095SOL    HW128184   4.617   4.727   5.796
 9095SOL    HW228185   4.711   4.822   5.702
 9096SOL     OW28186   6.858   5.072   3.343
 9096SOL    HW128187   6.914   5.056   3.261
 9096SOL    HW228188   6.885   5.007   3.414
 9097SOL     OW28189   0.824   2.814   6.448
 9097SOL    HW128190   0.841   2.747   6.376
 9097SOL    HW228191   0.778   2.769   6.525
 9098SOL     OW28192   2.276   2.239   5.163
 9098SOL    HW128193   2.245   2.163   5.220
 9098SOL    HW228194   2.286   2.321   5.220
 9099SOL     OW28195   2.395   2.943   5.826
 9099SOL    HW128196   2.425   2.883   5.751
 9099SOL    HW228197   2.428   2.906   5.913
 9100SOL     OW28198   1.414   4.218   2.521
 9100SOL    HW128199   1.404   4.141   2.457
 9100SOL    HW228200   1.373   4.194   2.609
 9101SOL     OW28201   2.909   1.629   2.323
 9101SOL    HW128202   2.969   1.589   2.254
 9101SOL    HW228203   2.911   1.573   2.406
 9102SOL     OW28204   4.734   6.492   2.598
 9102SOL    HW128205   4.646   6.497   2.645
 9102SOL    HW228206   4.722   6.515   2.502
 9103SOL     OW28207   6.053   1.840   6.714
 9103SOL    HW128208   6.028   1.925   6.761
 9103SOL    HW228209   6.111   1.862   6.636
 9104SOL     OW28210   0.171   0.899   0.923
 9104SOL    HW128211   0.265   0.918   0.950
 9104SOL    HW228212   0.109   0.955   0.979
 9105SOL     OW28213   2.015   0.151   5.485
 9105SOL    HW128214   2.088   0.179   5.546
 9105SOL    HW228215   1.928   0.151   5.534
 9106SOL     OW28216   0.905   4.234   0.099
 9106SOL    HW128217   0.829   4.256   0.038
 9106SOL    HW228218   0.963   4.314   0.110
 9107SOL     OW28219   2.583   0.577   6.227
 9107SOL    HW128220   2.626   0.607   6.142
 9107SOL    HW228221   2.489   0.612   6.231
 9108SOL     OW28222   5.173   5.119   5.474
 9108SOL    HW128223   5.240   5.046   5.482
 9108SOL    HW228224   5.197   5.194   5.536
 9109SOL     OW28225   5.586   3.093   2.057
 9109SOL    HW128226   5.605   3.056   1.967
 9109SOL    HW228227   5.578   3.018   2.123
 9110SOL     OW28228   1.498   5.748   5.386
 9110SOL    HW128229   1.582   5.757   5.439
 9110SOL    HW228230   1.476   5.651   5.373
 9111SOL     OW28231   4.762   3.011   5.720
 9111SOL    HW128232   4.807   2.993   5.632
 9111SOL    HW228233   4.779   2.934   5.782
 9112SOL     OW28234   1.983   5.102   2.834
 9112SOL    HW128235   1.985   5.129   2.737
 9112SOL    HW228236   1.893   5.124   2.872
 9113SOL     OW28237   5.324   2.098   3.069
 9113SOL    HW128238   5.308   2.006   3.035
 9113SOL    HW228239   5.256   2.161   3.032
 9114SOL     OW28240   1.668   6.318   4.659
 9114SOL    HW128241   1.606   6.271   4.722
 9114SOL    HW228242   1.762   6.311   4.694
 9115SOL     OW28243   5.454   5.021   3.447
 9115SOL    HW128244   5.515   5.049   3.522
 9115SOL    HW228245   5.507   4.974   3.377
 9116SOL     OW28246   0.586   6.540   3.427
 9116SOL    HW128247   0.663   6.599   3.404
 9116SOL    HW228248   0.508   6.596   3.453
 9117SOL     OW28249   4.212   1.140   6.973
 9117SOL    HW128250   4.112   1.140   6.983
 9117SOL    HW228251   4.253   1.192   0.026
 9118SOL     OW28252   6.163   3.744   0.446
 9118SOL    HW128253   6.203   3.723   0.357
 9118SOL    HW228254   6.064   3.728   0.443
 9119SOL     OW28255   3.916   6.013   1.279
 9119SOL    HW128256   3.828   5.987   1.317
 9119SOL    HW228257   3.909   6.018   1.179
 9120SOL     OW28258   6.520   2.584   5.818
 9120SOL    HW128259   6.450   2.651   5.793
 9120SOL    HW228260   6.476   2.507   5.864
 9121SOL     OW28261   3.871   0.216   5.724
 9121SOL    HW128262   3.806   0.292   5.727
 9121SOL    HW228263   3.821   0.129   5.721
 9122SOL     OW28264   2.407   4.465   1.948
 9122SOL    HW128265   2.491   4.510   1.919
 9122SOL    HW228266   2.369   4.412   1.872
 9123SOL     OW28267   1.336   0.744   3.274
 9123SOL    HW128268   1.292   0.812   3.331
 9123SOL    HW228269   1.403   0.692   3.328
 9124SOL     OW28270   3.497   5.131   1.221
 9124SOL    HW128271   3.586   5.101   1.255
 9124SOL    HW228272   3.443   5.051   1.195
 9125SOL     OW28273   3.314   6.495   0.006
 9125SOL    HW128274   3.386   6.563   7.017
 9125SOL    HW228275   3.225   6.535   7.006
 9126SOL     OW28276   4.266   4.955   0.554
 9126SOL    HW128277   4.200   5.013   0.602
 9126SOL    HW228278   4.293   4.879   0.613
 9127SOL     OW28279   0.059   3.536   5.095
 9127SOL    HW128280   0.068   3.589   5.011
 9127SOL    HW228281   0.127   3.462   5.096
 9128SOL     OW28282   5.912   3.062   4.755
 9128SOL    HW128283   5.865   3.132   4.808
 9128SOL    HW228284   5.846   3.005   4.707
 9129SOL     OW28285   2.362   1.788   0.737
 9129SOL    HW128286   2.265   1.779   0.719
 9129SOL    HW228287   2.399   1.867   0.688
 9130SOL     OW28288   2.930   4.289   5.476
 9130SOL    HW128289   2.873   4.231   5.417
 9130SOL    HW228290   2.999   4.334   5.420
 9131SOL     OW28291   5.822   3.147   0.827
 9131SOL    HW128292   5.831   3.056   0.867
 9131SOL    HW228293   5.796   3.212   0.899
 9132SOL     OW28294   0.955   3.949   3.242
 9132SOL    HW128295   0.870   3.985   3.282
 9132SOL    HW228296   0.995   3.882   3.304
 9133SOL     OW28297   4.248   0.534   1.001
 9133SOL    HW128298   4.295   0.613   1.042
 9133SOL    HW228299   4.287   0.516   0.911
 9134SOL     OW28300   4.543   5.542   1.149
 9134SOL    HW128301   4.617   5.503   1.095
 9134SOL    HW228302   4.580   5.580   1.234
 9135SOL     OW28303   0.991   6.143   1.888
 9135SOL    HW128304   0.971   6.169   1.983
 9135SOL    HW228305   0.904   6.129   1.839
 9136SOL     OW28306   5.563   4.799   6.405
 9136SOL    HW128307   5.604   4.851   6.480
 9136SOL    HW228308   5.535   4.709   6.438
 9137SOL     OW28309   4.215   5.890   6.828
 9137SOL    HW128310   4.189   5.979   6.792
 9137SOL    HW228311   4.213   5.893   6.928
 9138SOL     OW28312   3.049   2.865   0.605
 9138SOL    HW128313   3.038   2.775   0.564
 9138SOL    HW228314   2.962   2.915   0.600
 9139SOL     OW28315   0.027   0.228   1.353
 9139SOL    HW128316   6.989   0.306   1.370
 9139SOL    HW228317   6.994   0.151   1.321
 9140SOL     OW28318   0.701   4.268   2.411
 9140SOL    HW128319   0.719   4.337   2.482
 9140SOL    HW228320   0.674   4.182   2.455
 9141SOL     OW28321   6.546   5.362   6.219
 9141SOL    HW128322   6.579   5.435   6.278
 9141SOL    HW228323   6.526   5.281   6.274
 9142SOL     OW28324   1.211   3.666   2.631
 9142SOL    HW128325   1.304   3.679   2.665
 9142SOL    HW228326   1.151   3.738   2.667
 9143SOL     OW28327   0.216   3.403   3.094
 9143SOL    HW128328   0.174   3.455   3.019
 9143SOL    HW228329   0.300   3.448   3.122
 9144SOL     OW28330   2.631   5.200   5.173
 9144SOL    HW128331   2.730   5.184   5.169
 9144SOL    HW228332   2.593   5.155   5.253
 9145SOL     OW28333   1.307   6.796   6.505
 9145SOL    HW128334   1.286   6.822   6.599
 9145SOL    HW228335   1.224   6.759   6.462
 9146SOL     OW28336   5.624   3.615   3.683
 9146SOL    HW128337   5.668   3.526   3.691
 9146SOL    HW228338   5.572   3.619   3.597
 9147SOL     OW28339   5.346   0.201   4.043
 9147SOL    HW128340   5.287   0.281   4.034
 9147SOL    HW228341   5.307   0.125   3.989
 9148SOL     OW28342   6.436   0.121   1.669
 9148SOL    HW128343   6.359   0.111   1.605
 9148SOL    HW228344   6.495   0.040   1.662
 9149SOL     OW28345   6.198   4.307   1.410
 9149SOL    HW128346   6.166   4.277   1.319
 9149SOL    HW228347   6.183   4.233   1.476
 9150SOL     OW28348   3.151   3.990   0.171
 9150SOL    HW128349   3.165   4.028   0.079
 9150SOL    HW228350   3.152   4.064   0.238
 9151SOL     OW28351   1.740   3.499   3.855
 9151SOL    HW128352   1.642   3.480   3.860
 9151SOL    HW228353   1.771   3.486   3.761
 9152SOL     OW28354   1.795   4.104   3.663
 9152SOL    HW128355   1.852   4.103   3.580
 9152SOL    HW228356   1.838   4.048   3.733
 9153SOL     OW28357   0.205   2.927   6.639
 9153SOL    HW128358   0.250   2.911   6.727
 9153SOL    HW228359   0.225   2.852   6.577
 9154SOL     OW28360   6.190   4.867   3.045
 9154SOL    HW128361   6.225   4.828   3.130
 9154SOL    HW228362   6.264   4.873   2.979
 9155SOL     OW28363   0.550   5.729   2.636
 9155SOL    HW128364   0.483   5.795   2.670
 9155SOL    HW228365   0.525   5.637   2.667
 9156SOL     OW28366   6.591   4.087   0.037
 9156SOL    HW128367   6.538   4.058   0.117
 9156SOL    HW228368   6.688   4.079   0.057
 9157SOL     OW28369   3.007   4.508   6.042
 9157SOL    HW128370   3.084   4.541   5.987
 9157SOL    HW228371   3.042   4.473   6.129
 9158SOL     OW28372   0.207   3.537   3.779
 9158SOL    HW128373   0.213   3.539   3.679
 9158SOL    HW228374   0.274   3.471   3.814
 9159SOL     OW28375   3.566   0.972   3.216
 9159SOL    HW128376   3.556   0.909   3.293
 9159SOL    HW228377   3.657   0.962   3.177
 9160SOL     OW28378   0.379   4.642   6.500
 9160SOL    HW128379   0.473   4.616   6.474
 9160SOL    HW228380   0.373   4.651   6.599
 9161SOL     OW28381   5.917   3.682   1.483
 9161SOL    HW128382   5.996   3.727   1.439
 9161SOL    HW228383   5.863   3.750   1.532
 9162SOL     OW28384   5.041   2.025   2.199
 9162SOL    HW128385   4.962   1.964   2.196
 9162SOL    HW228386   5.031   2.096   2.128
 9163SOL     OW28387   1.410   2.151   2.988
 9163SOL    HW128388   1.383   2.058   3.014
 9163SOL    HW228389   1.358   2.216   3.043
 9164SOL     OW28390   2.433   0.446   6.605
 9164SOL    HW128391   2.492   0.413   6.531
 9164SOL    HW228392   2.487   0.456   6.689
 9165SOL     OW28393   5.152   2.723   5.555
 9165SOL    HW128394   5.075   2.709   5.493
 9165SOL    HW228395   5.164   2.821   5.571
 9166SOL     OW28396   5.138   5.469   1.806
 9166SOL    HW128397   5.141   5.371   1.826
 9166SOL    HW228398   5.082   5.484   1.725
 9167SOL     OW28399   1.476   0.682   5.482
 9167SOL    HW128400   1.575   0.687   5.482
 9167SOL    HW228401   1.447   0.591   5.510
 9168SOL     OW28402   6.713   6.147   4.526
 9168SOL    HW128403   6.639   6.100   4.575
 9168SOL    HW228404   6.684   6.167   4.433
 9169SOL     OW28405   6.337   6.432   0.722
 9169SOL    HW128406   6.276   6.406   0.646
 9169SOL    HW228407   6.285   6.434   0.807
 9170SOL     OW28408   1.728   1.377   6.147
 9170SOL    HW128409   1.712   1.404   6.052
 9170SOL    HW228410   1.722   1.457   6.206
 9171SOL     OW28411   3.241   4.927   0.720
 9171SOL    HW128412   3.339   4.937   0.703
 9171SOL    HW228413   3.207   4.847   0.670
 9172SOL     OW28414   5.109   1.510   4.292
 9172SOL    HW128415   5.178   1.470   4.232
 9172SOL    HW228416   5.154   1.561   4.366
 9173SOL     OW28417   6.152   2.893   4.187
 9173SOL    HW128418   6.165   2.901   4.286
 9173SOL    HW228419   6.211   2.820   4.152
 9174SOL     OW28420   0.273   5.488   0.166
 9174SOL    HW128421   0.198   5.550   0.145
 9174SOL    HW228422   0.352   5.541   0.197
 9175SOL     OW28423   1.373   0.322   6.609
 9175SOL    HW128424   1.279   0.316   6.576
 9175SOL    HW228425   1.385   0.262   6.688
 9176SOL     OW28426   1.369   1.733   2.329
 9176SOL    HW128427   1.348   1.661   2.264
 9176SOL    HW228428   1.333   1.708   2.419
 9177SOL     OW28429   0.191   4.287   3.669
 9177SOL    HW128430   0.199   4.291   3.570
 9177SOL    HW228431   0.276   4.252   3.708
 9178SOL     OW28432   1.608   6.450   0.600
 9178SOL    HW128433   1.549   6.425   0.523
 9178SOL    HW228434   1.694   6.488   0.565
 9179SOL     OW28435   4.374   6.177   5.113
 9179SOL    HW128436   4.348   6.098   5.169
 9179SOL    HW228437   4.378   6.150   5.017
 9180SOL     OW28438   0.224   1.485   4.075
 9180SOL    HW128439   0.296   1.436   4.125
 9180SOL    HW228440   0.224   1.457   3.979
 9181SOL     OW28441   3.710   2.059   3.657
 9181SOL    HW128442   3.653   2.055   3.739
 9181SOL    HW228443   3.747   1.968   3.638
 9182SOL     OW28444   1.830   1.214   3.091
 9182SOL    HW128445   1.866   1.307   3.104
 9182SOL    HW228446   1.889   1.164   3.028
 9183SOL     OW28447   6.003   2.739   5.977
 9183SOL    HW128448   5.948   2.750   6.061
 9183SOL    HW228449   5.990   2.647   5.941
 9184SOL     OW28450   3.707   3.244   1.292
 9184SOL    HW128451   3.673   3.334   1.317
 9184SOL    HW228452   3.743   3.246   1.198
 9185SOL     OW28453   0.785   0.355   6.466
 9185SOL    HW128454   0.723   0.279   6.484
 9185SOL    HW228455   0.806   0.359   6.369
 9186SOL     OW28456   5.143   0.483   6.141
 9186SOL    HW128457   5.106   0.549   6.207
 9186SOL    HW228458   5.226   0.441   6.179
 9187SOL     OW28459   5.151   1.796   0.456
 9187SOL    HW128460   5.156   1.744   0.371
 9187SOL    HW228461   5.059   1.787   0.495
 9188SOL     OW28462   0.632   0.088   2.146
 9188SOL    HW128463   0.723   0.107   2.110
 9188SOL    HW228464   0.582   0.175   2.158
 9189SOL     OW28465   3.275   1.667   3.705
 9189SOL    HW128466   3.307   1.594   3.764
 9189SOL    HW228467   3.251   1.747   3.760
 9190SOL     OW28468   6.016   3.894   5.500
 9190SOL    HW128469   5.936   3.889   5.441
 9190SOL    HW228470   5.994   3.854   5.589
 9191SOL     OW28471   5.179   6.246   6.686
 9191SOL    HW128472   5.234   6.311   6.633
 9191SOL    HW228473   5.230   6.160   6.697
 9192SOL     OW28474   6.824   4.326   5.388
 9192SOL    HW128475   6.771   4.378   5.455
 9192SOL    HW228476   6.899   4.383   5.353
 9193SOL     OW28477   3.529   2.852   3.543
 9193SOL    HW128478   3.609   2.911   3.540
 9193SOL    HW228479   3.555   2.761   3.575
 9194SOL     OW28480   2.973   5.130   2.825
 9194SOL    HW128481   3.012   5.046   2.863
 9194SOL    HW228482   3.046   5.185   2.784
 9195SOL     OW28483   0.304   3.149   3.091
 9195SOL    HW128484   0.254   3.236   3.092
 9195SOL    HW228485   0.240   3.075   3.111
 9196SOL     OW28486   4.820   0.272   3.451
 9196SOL    HW128487   4.774   0.195   3.406
 9196SOL    HW228488   4.845   0.246   3.544
 9197SOL     OW28489   3.325   2.981   6.253
 9197SOL    HW128490   3.350   2.969   6.349
 9197SOL    HW228491   3.271   2.902   6.223
 9198SOL     OW28492   5.670   2.995   5.476
 9198SOL    HW128493   5.677   2.899   5.451
 9198SOL    HW228494   5.632   3.047   5.400
 9199SOL     OW28495   1.410   4.211   6.612
 9199SOL    HW128496   1.433   4.149   6.538
 9199SOL    HW228497   1.343   4.167   6.672
 9200SOL     OW28498   6.363   0.080   0.665
 9200SOL    HW128499   6.359   0.076   0.765
 9200SOL    HW228500   6.445   0.129   0.637
 9201SOL     OW28501   0.342   3.846   2.365
 9201SOL    HW128502   0.381   3.760   2.332
 9201SOL    HW228503   0.342   3.847   2.465
 9202SOL     OW28504   3.022   5.360   4.305
 9202SOL    HW128505   2.988   5.365   4.399
 9202SOL    HW228506   2.963   5.413   4.245
 9203SOL     OW28507   5.274   0.988   5.604
 9203SOL    HW128508   5.233   1.064   5.554
 9203SOL    HW228509   5.337   1.023   5.673
 9204SOL     OW28510   5.026   4.170   3.094
 9204SOL    HW128511   4.979   4.165   3.006
 9204SOL    HW228512   4.972   4.120   3.163
 9205SOL     OW28513   5.253   2.481   2.557
 9205SOL    HW128514   5.189   2.415   2.516
 9205SOL    HW228515   5.208   2.570   2.565
 9206SOL     OW28516   0.762   6.312   3.359
 9206SOL    HW128517   0.759   6.237   3.425
 9206SOL    HW228518   0.699   6.385   3.388
 9207SOL     OW28519   4.151   6.273   0.178
 9207SOL    HW128520   4.232   6.263   0.235
 9207SOL    HW228521   4.093   6.346   0.216
 9208SOL     OW28522   5.218   3.595   2.036
 9208SOL    HW128523   5.211   3.604   1.936
 9208SOL    HW228524   5.214   3.498   2.060
 9209SOL     OW28525   4.352   1.121   2.639
 9209SOL    HW128526   4.311   1.208   2.613
 9209SOL    HW228527   4.298   1.079   2.712
 9210SOL     OW28528   1.768   0.129   1.388
 9210SOL    HW128529   1.724   0.169   1.308
 9210SOL    HW228530   1.697   0.102   1.454
 9211SOL     OW28531   5.209   1.595   6.431
 9211SOL    HW128532   5.283   1.654   6.398
 9211SOL    HW228533   5.173   1.631   6.517
 9212SOL     OW28534   5.573   3.865   4.427
 9212SOL    HW128535   5.517   3.873   4.344
 9212SOL    HW228536   5.555   3.778   4.471
 9213SOL     OW28537   5.853   6.806   3.472
 9213SOL    HW128538   5.862   6.902   3.445
 9213SOL    HW228539   5.849   6.800   3.572
 9214SOL     OW28540   2.464   2.028   4.426
 9214SOL    HW128541   2.445   2.078   4.511
 9214SOL    HW228542   2.556   2.049   4.395
 9215SOL     OW28543   0.423   3.785   2.731
 9215SOL    HW128544   0.384   3.868   2.692
 9215SOL    HW228545   0.487   3.810   2.804
 9216SOL     OW28546   2.121   5.672   4.861
 9216SOL    HW128547   2.177   5.680   4.778
 9216SOL    HW228548   2.049   5.603   4.846
 9217SOL     OW28549   4.445   1.043   6.288
 9217SOL    HW128550   4.538   1.015   6.307
 9217SOL    HW228551   4.436   1.141   6.302
 9218SOL     OW28552   6.408   5.742   6.054
 9218SOL    HW128553   6.315   5.706   6.054
 9218SOL    HW228554   6.416   5.814   6.123
 9219SOL     OW28555   3.587   2.984   5.147
 9219SOL    HW128556   3.575   3.072   5.193
 9219SOL    HW228557   3.590   2.911   5.215
 9220SOL     OW28558   1.678   6.018   3.139
 9220SOL    HW128559   1.754   6.082   3.150
 9220SOL    HW228560   1.591   6.067   3.142
 9221SOL     OW28561   2.434   0.928   6.525
 9221SOL    HW128562   2.482   0.985   6.591
 9221SOL    HW228563   2.367   0.984   6.476
 9222SOL     OW28564   1.384   3.631   3.224
 9222SOL    HW128565   1.407   3.645   3.128
 9222SOL    HW228566   1.466   3.602   3.274
 9223SOL     OW28567   1.051   3.935   4.299
 9223SOL    HW128568   1.021   3.884   4.219
 9223SOL    HW228569   1.144   3.907   4.324
 9224SOL     OW28570   2.221   4.116   3.935
 9224SOL    HW128571   2.132   4.162   3.938
 9224SOL    HW228572   2.288   4.170   3.986
 9225SOL     OW28573   4.624   6.942   6.890
 9225SOL    HW128574   4.583   0.010   6.902
 9225SOL    HW228575   4.556   6.872   6.908
 9226SOL     OW28576   0.653   0.851   0.732
 9226SOL    HW128577   0.738   0.825   0.688
 9226SOL    HW228578   0.576   0.813   0.681
 9227SOL     OW28579   2.343   5.348   0.625
 9227SOL    HW128580   2.302   5.437   0.602
 9227SOL    HW228581   2.326   5.284   0.550
 9228SOL     OW28582   3.105   2.978   5.900
 9228SOL    HW128583   3.189   3.032   5.896
 9228SOL    HW228584   3.095   2.938   5.991
 9229SOL     OW28585   6.993   4.642   6.822
 9229SOL    HW128586   6.972   4.611   6.730
 9229SOL    HW228587   0.060   4.689   6.822
 9230SOL     OW28588   4.781   1.575   4.384
 9230SOL    HW128589   4.703   1.634   4.360
 9230SOL    HW228590   4.842   1.624   4.445
 9231SOL     OW28591   0.531   5.245   4.550
 9231SOL    HW128592   0.590   5.310   4.597
 9231SOL    HW228593   0.587   5.179   4.500
 9232SOL     OW28594   1.333   5.303   1.688
 9232SOL    HW128595   1.363   5.287   1.594
 9232SOL    HW228596   1.309   5.400   1.700
 9233SOL     OW28597   0.982   0.230   0.171
 9233SOL    HW128598   0.958   0.326   0.156
 9233SOL    HW228599   1.065   0.224   0.225
 9234SOL     OW28600   2.118   4.799   0.790
 9234SOL    HW128601   2.183   4.772   0.862
 9234SOL    HW228602   2.026   4.768   0.815
 9235SOL     OW28603   2.552   2.516   4.223
 9235SOL    HW128604   2.486   2.562   4.281
 9235SOL    HW228605   2.539   2.545   4.128
 9236SOL     OW28606   2.328   3.640   6.316
 9236SOL    HW128607   2.407   3.694   6.285
 9236SOL    HW228608   2.357   3.548   6.339
 9237SOL     OW28609   6.266   5.241   3.531
 9237SOL    HW128610   6.316   5.175   3.587
 9237SOL    HW228611   6.324   5.322   3.517
 9238SOL     OW28612   1.876   3.312   5.448
 9238SOL    HW128613   1.965   3.331   5.407
 9238SOL    HW228614   1.851   3.217   5.431
 9239SOL     OW28615   0.680   4.819   0.069
 9239SOL    HW128616   0.606   4.752   0.060
 9239SOL    HW228617   0.669   4.870   0.155
 9240SOL     OW28618   4.574   2.532   2.780
 9240SOL    HW128619   4.582   2.596   2.857
 9240SOL    HW228620   4.559   2.440   2.815
 9241SOL     OW28621   5.647   6.859   1.000
 9241SOL    HW128622   5.657   6.838   1.098
 9241SOL    HW228623   5.685   6.784   0.946
 9242SOL     OW28624   1.446   2.223   1.303
 9242SOL    HW128625   1.497   2.256   1.224
 9242SOL    HW228626   1.367   2.170   1.272
 9243SOL     OW28627   1.339   0.521   0.679
 9243SOL    HW128628   1.356   0.610   0.723
 9243SOL    HW228629   1.285   0.463   0.740
 9244SOL     OW28630   4.626   6.426   4.970
 9244SOL    HW128631   4.529   6.408   4.953
 9244SOL    HW228632   4.648   6.520   4.943
 9245SOL     OW28633   0.789   4.519   2.858
 9245SOL    HW128634   0.740   4.433   2.842
 9245SOL    HW228635   0.825   4.520   2.951
 9246SOL     OW28636   0.044   0.948   4.661
 9246SOL    HW128637   0.031   1.001   4.744
 9246SOL    HW228638   0.118   0.881   4.675
 9247SOL     OW28639   4.125   5.795   3.367
 9247SOL    HW128640   4.145   5.891   3.389
 9247SOL    HW228641   4.056   5.760   3.429
 9248SOL     OW28642   2.600   0.664   5.364
 9248SOL    HW128643   2.596   0.706   5.454
 9248SOL    HW228644   2.692   0.674   5.327
 9249SOL     OW28645   3.800   4.925   1.872
 9249SOL    HW128646   3.765   5.010   1.834
 9249SOL    HW228647   3.723   4.867   1.901
 9250SOL     OW28648   0.378   2.774   3.877
 9250SOL    HW128649   0.409   2.864   3.907
 9250SOL    HW228650   0.350   2.720   3.957
 9251SOL     OW28651   3.136   2.932   0.854
 9251SOL    HW128652   3.121   2.890   0.764
 9251SOL    HW228653   3.209   2.883   0.902
 9252SOL     OW28654   5.509   0.331   5.319
 9252SOL    HW128655   5.413   0.345   5.345
 9252SOL    HW228656   5.567   0.337   5.400
 9253SOL     OW28657   1.305   4.911   5.248
 9253SOL    HW128658   1.326   4.820   5.285
 9253SOL    HW228659   1.389   4.952   5.211
 9254SOL     OW28660   6.591   4.927   3.232
 9254SOL    HW128661   6.655   4.966   3.299
 9254SOL    HW228662   6.514   4.990   3.220
 9255SOL     OW28663   6.621   4.725   0.391
 9255SOL    HW128664   6.539   4.706   0.446
 9255SOL    HW228665   6.700   4.679   0.431
 9256SOL     OW28666   1.900   6.276   1.818
 9256SOL    HW128667   1.807   6.311   1.812
 9256SOL    HW228668   1.918   6.244   1.911
 9257SOL     OW28669   0.290   5.294   3.860
 9257SOL    HW128670   0.264   5.197   3.852
 9257SOL    HW228671   0.246   5.333   3.941
 9258SOL     OW28672   3.443   4.574   0.780
 9258SOL    HW128673   3.452   4.474   0.785
 9258SOL    HW228674   3.509   4.609   0.713
 9259SOL     OW28675   2.094   2.110   6.659
 9259SOL    HW128676   2.067   2.063   6.743
 9259SOL    HW228677   2.151   2.189   6.682
 9260SOL     OW28678   5.355   3.250   4.647
 9260SOL    HW128679   5.435   3.282   4.698
 9260SOL    HW228680   5.295   3.198   4.707
 9261SOL     OW28681   4.125   2.298   1.872
 9261SOL    HW128682   4.048   2.304   1.809
 9261SOL    HW228683   4.173   2.385   1.875
 9262SOL     OW28684   6.207   6.162   3.681
 9262SOL    HW128685   6.218   6.188   3.777
 9262SOL    HW228686   6.117   6.191   3.649
 9263SOL     OW28687   2.115   3.489   3.721
 9263SOL    HW128688   2.088   3.523   3.811
 9263SOL    HW228689   2.123   3.389   3.724
 9264SOL     OW28690   4.722   4.112   6.871
 9264SOL    HW128691   4.811   4.157   6.873
 9264SOL    HW228692   4.700   4.086   6.777
 9265SOL     OW28693   5.036   2.046   0.277
 9265SOL    HW128694   5.103   2.104   0.230
 9265SOL    HW228695   5.064   2.033   0.372
 9266SOL     OW28696   0.017   4.211   1.043
 9266SOL    HW128697   0.063   4.205   1.131
 9266SOL    HW228698   6.975   4.288   1.043
 9267SOL     OW28699   0.519   1.088   4.072
 9267SOL    HW128700   0.594   1.045   4.123
 9267SOL    HW228701   0.497   1.176   4.115
 9268SOL     OW28702   0.581   6.542   1.912
 9268SOL    HW128703   0.620   6.573   1.999
 9268SOL    HW228704   0.483   6.525   1.925
 9269SOL     OW28705   4.140   0.101   0.659
 9269SOL    HW128706   4.117   0.198   0.649
 9269SOL    HW228707   4.137   0.076   0.756
 9270SOL     OW28708   2.477   0.964   5.723
 9270SOL    HW128709   2.432   0.977   5.635
 9270SOL    HW228710   2.408   0.950   5.794
 9271SOL     OW28711   1.137   0.267   5.922
 9271SOL    HW128712   1.094   0.203   5.858
 9271SOL    HW228713   1.233   0.280   5.897
 9272SOL     OW28714   6.934   6.461   5.856
 9272SOL    HW128715   6.988   6.381   5.831
 9272SOL    HW228716   6.837   6.444   5.837
 9273SOL     OW28717   4.699   5.099   4.471
 9273SOL    HW128718   4.636   5.160   4.519
 9273SOL    HW228719   4.744   5.150   4.397
 9274SOL     OW28720   0.704   3.297   0.371
 9274SOL    HW128721   0.690   3.345   0.284
 9274SOL    HW228722   0.786   3.240   0.365
 9275SOL     OW28723   0.898   6.519   1.244
 9275SOL    HW128724   0.817   6.467   1.271
 9275SOL    HW228725   0.979   6.461   1.254
 9276SOL     OW28726   3.137   4.929   0.015
 9276SOL    HW128727   3.183   4.992   0.078
 9276SOL    HW228728   3.066   4.879   0.064
 9277SOL     OW28729   5.034   4.974   2.225
 9277SOL    HW128730   5.121   4.926   2.221
 9277SOL    HW228731   5.010   4.994   2.320
 9278SOL     OW28732   0.506   0.871   4.430
 9278SOL    HW128733   0.594   0.836   4.398
 9278SOL    HW228734   0.436   0.853   4.360
 9279SOL     OW28735   4.200   5.460   1.528
 9279SOL    HW128736   4.288   5.466   1.575
 9279SOL    HW228737   4.215   5.439   1.432
 9280SOL     OW28738   1.650   1.181   2.760
 9280SOL    HW128739   1.634   1.092   2.802
 9280SOL    HW228740   1.745   1.187   2.729
 9281SOL     OW28741   3.173   4.585   0.252
 9281SOL    HW128742   3.181   4.552   0.346
 9281SOL    HW228743   3.209   4.515   0.190
 9282SOL     OW28744   3.442   0.206   5.006
 9282SOL    HW128745   3.450   0.113   4.972
 9282SOL    HW228746   3.421   0.268   4.930
 9283SOL     OW28747   4.163   6.308   6.914
 9283SOL    HW128748   4.146   6.226   6.859
 9283SOL    HW228749   4.125   6.295   7.006
 9284SOL     OW28750   3.240   4.187   5.176
 9284SOL    HW128751   3.217   4.258   5.243
 9284SOL    HW228752   3.336   4.162   5.187
 9285SOL     OW28753   6.915   3.929   2.413
 9285SOL    HW128754   6.996   3.975   2.376
 9285SOL    HW228755   6.907   3.949   2.510
 9286SOL     OW28756   4.758   5.609   1.685
 9286SOL    HW128757   4.837   5.581   1.630
 9286SOL    HW228758   4.696   5.532   1.697
 9287SOL     OW28759   3.212   4.676   6.347
 9287SOL    HW128760   3.302   4.679   6.305
 9287SOL    HW228761   3.171   4.767   6.346
 9288SOL     OW28762   4.289   1.851   3.523
 9288SOL    HW128763   4.245   1.919   3.464
 9288SOL    HW228764   4.253   1.760   3.501
 9289SOL     OW28765   4.850   6.581   6.866
 9289SOL    HW128766   4.920   6.510   6.875
 9289SOL    HW228767   4.862   6.649   6.938
 9290SOL     OW28768   5.701   0.584   4.788
 9290SOL    HW128769   5.732   0.567   4.881
 9290SOL    HW228770   5.606   0.553   4.778
 9291SOL     OW28771   1.566   5.297   5.639
 9291SOL    HW128772   1.482   5.253   5.670
 9291SOL    HW228773   1.628   5.228   5.603
 9292SOL     OW28774   1.582   1.818   6.137
 9292SOL    HW128775   1.503   1.877   6.154
 9292SOL    HW228776   1.612   1.828   6.043
 9293SOL     OW28777   4.855   2.845   6.123
 9293SOL    HW128778   4.782   2.913   6.120
 9293SOL    HW228779   4.944   2.891   6.117
 9294SOL     OW28780   4.514   1.578   0.347
 9294SOL    HW128781   4.609   1.602   0.330
 9294SOL    HW228782   4.506   1.480   0.363
 9295SOL     OW28783   0.748   1.306   5.450
 9295SOL    HW128784   0.808   1.249   5.394
 9295SOL    HW228785   0.684   1.247   5.500
 9296SOL     OW28786   2.379   4.511   0.516
 9296SOL    HW128787   2.281   4.501   0.500
 9296SOL    HW228788   2.417   4.424   0.548
 9297SOL     OW28789   6.034   6.609   2.866
 9297SOL    HW128790   6.070   6.532   2.918
 9297SOL    HW228791   6.103   6.640   2.800
 9298SOL     OW28792   1.486   6.312   5.900
 9298SOL    HW128793   1.483   6.384   5.969
 9298SOL    HW228794   1.453   6.226   5.939
 9299SOL     OW28795   2.481   2.610   4.864
 9299SOL    HW128796   2.416   2.547   4.822
 9299SOL    HW228797   2.573   2.571   4.861
 9300SOL     OW28798   1.761   6.302   5.850
 9300SOL    HW128799   1.750   6.274   5.754
 9300SOL    HW228800   1.673   6.333   5.886
 9301SOL     OW28801   0.567   3.690   4.844
 9301SOL    HW128802   0.649   3.634   4.858
 9301SOL    HW228803   0.492   3.654   4.899
 9302SOL     OW28804   2.154   3.478   4.694
 9302SOL    HW128805   2.163   3.563   4.747
 9302SOL    HW228806   2.160   3.498   4.597
 9303SOL     OW28807   2.499   4.814   0.922
 9303SOL    HW128808   2.496   4.779   0.828
 9303SOL    HW228809   2.421   4.778   0.973
 9304SOL     OW28810   5.096   5.102   0.325
 9304SOL    HW128811   5.183   5.151   0.334
 9304SOL    HW228812   5.039   5.120   0.405
 9305SOL     OW28813   2.822   1.668   1.300
 9305SOL    HW128814   2.832   1.746   1.238
 9305SOL    HW228815   2.876   1.683   1.382
 9306SOL     OW28816   0.448   5.141   4.817
 9306SOL    HW128817   0.452   5.204   4.740
 9306SOL    HW228818   0.383   5.176   4.885
 9307SOL     OW28819   2.846   2.916   1.701
 9307SOL    HW128820   2.752   2.887   1.684
 9307SOL    HW228821   2.903   2.836   1.718
 9308SOL     OW28822   1.841   4.022   1.552
 9308SOL    HW128823   1.799   3.966   1.623
 9308SOL    HW228824   1.887   4.101   1.593
 9309SOL     OW28825   4.532   5.654   5.317
 9309SOL    HW128826   4.529   5.740   5.368
 9309SOL    HW228827   4.626   5.621   5.311
 9310SOL     OW28828   4.901   5.992   6.382
 9310SOL    HW128829   4.927   6.063   6.448
 9310SOL    HW228830   4.984   5.955   6.340
 9311SOL     OW28831   4.911   3.435   1.755
 9311SOL    HW128832   4.838   3.450   1.689
 9311SOL    HW228833   4.899   3.345   1.798
 9312SOL     OW28834   0.713   2.463   0.987
 9312SOL    HW128835   0.635   2.505   1.035
 9312SOL    HW228836   0.795   2.518   1.004
 9313SOL     OW28837   0.790   6.937   1.778
 9313SOL    HW128838   0.696   6.909   1.758
 9313SOL    HW228839   0.828   6.880   1.851
 9314SOL     OW28840   4.869   2.946   0.171
 9314SOL    HW128841   4.835   2.957   0.077
 9314SOL    HW228842   4.853   3.031   0.222
 9315SOL     OW28843   5.699   0.820   6.650
 9315SOL    HW128844   5.741   0.896   6.601
 9315SOL    HW228845   5.611   0.798   6.608
 9316SOL     OW28846   4.003   1.201   5.256
 9316SOL    HW128847   3.918   1.252   5.269
 9316SOL    HW228848   4.061   1.248   5.190
 9317SOL     OW28849   3.849   6.071   3.205
 9317SOL    HW128850   3.843   5.972   3.193
 9317SOL    HW228851   3.943   6.100   3.188
 9318SOL     OW28852   4.793   5.727   1.137
 9318SOL    HW128853   4.743   5.808   1.168
 9318SOL    HW228854   4.802   5.730   1.037
 9319SOL     OW28855   2.140   4.439   0.712
 9319SOL    HW128856   2.135   4.527   0.758
 9319SOL    HW228857   2.068   4.433   0.642
 9320SOL     OW28858   6.311   6.523   6.339
 9320SOL    HW128859   6.294   6.441   6.283
 9320SOL    HW228860   6.353   6.496   6.425
 9321SOL     OW28861   0.421   3.359   4.890
 9321SOL    HW128862   0.382   3.405   4.810
 9321SOL    HW228863   0.503   3.309   4.863
 9322SOL     OW28864   5.703   4.274   5.736
 9322SOL    HW128865   5.717   4.373   5.742
 9322SOL    HW228866   5.792   4.228   5.734
 9323SOL     OW28867   1.497   2.956   3.403
 9323SOL    HW128868   1.501   2.905   3.489
 9323SOL    HW228869   1.402   2.970   3.376
 9324SOL     OW28870   0.471   3.851   1.510
 9324SOL    HW128871   0.494   3.948   1.519
 9324SOL    HW228872   0.373   3.842   1.489
 9325SOL     OW28873   1.382   5.229   2.460
 9325SOL    HW128874   1.414   5.318   2.427
 9325SOL    HW228875   1.408   5.217   2.556
 9326SOL     OW28876   3.991   4.230   0.783
 9326SOL    HW128877   4.046   4.290   0.725
 9326SOL    HW228878   4.050   4.182   0.847
 9327SOL     OW28879   4.413   0.855   3.328
 9327SOL    HW128880   4.426   0.759   3.354
 9327SOL    HW228881   4.431   0.913   3.408
 9328SOL     OW28882   2.852   6.224   4.376
 9328SOL    HW128883   2.755   6.249   4.369
 9328SOL    HW228884   2.861   6.132   4.415
 9329SOL     OW28885   0.248   5.792   6.623
 9329SOL    HW128886   0.240   5.716   6.688
 9329SOL    HW228887   0.334   5.840   6.640
 9330SOL     OW28888   6.071   6.145   6.259
 9330SOL    HW128889   6.028   6.229   6.292
 9330SOL    HW228890   6.165   6.165   6.232
 9331SOL     OW28891   1.452   3.306   4.767
 9331SOL    HW128892   1.395   3.374   4.811
 9331SOL    HW228893   1.543   3.345   4.750
 9332SOL     OW28894   4.625   5.451   0.795
 9332SOL    HW128895   4.683   5.373   0.774
 9332SOL    HW228896   4.680   5.535   0.791
 9333SOL     OW28897   3.464   5.045   0.364
 9333SOL    HW128898   3.542   5.009   0.312
 9333SOL    HW228899   3.435   4.978   0.432
 9334SOL     OW28900   5.083   6.367   5.590
 9334SOL    HW128901   5.057   6.279   5.551
 9334SOL    HW228902   5.029   6.384   5.673
 9335SOL     OW28903   2.162   2.473   1.258
 9335SOL    HW128904   2.211   2.559   1.247
 9335SOL    HW228905   2.070   2.491   1.293
 9336SOL     OW28906   6.875   0.895   5.278
 9336SOL    HW128907   6.872   0.993   5.300
 9336SOL    HW228908   6.790   0.869   5.232
 9337SOL     OW28909   3.521   0.448   6.180
 9337SOL    HW128910   3.492   0.379   6.246
 9337SOL    HW228911   3.561   0.526   6.229
 9338SOL     OW28912   6.385   5.993   0.160
 9338SOL    HW128913   6.420   5.907   0.124
 9338SOL    HW228914   6.315   6.029   0.098
 9339SOL     OW28915   6.243   4.804   5.281
 9339SOL    HW128916   6.294   4.821   5.365
 9339SOL    HW228917   6.236   4.889   5.229
 9340SOL     OW28918   3.747   6.196   2.425
 9340SOL    HW128919   3.655   6.165   2.404
 9340SOL    HW228920   3.812   6.155   2.360
 9341SOL     OW28921   5.544   4.204   6.981
 9341SOL    HW128922   5.580   4.181   6.890
 9341SOL    HW228923   5.539   4.121   0.014
 9342SOL     OW28924   2.539   6.941   4.026
 9342SOL    HW128925   2.572   0.010   4.052
 9342SOL    HW228926   2.557   6.876   4.100
 9343SOL     OW28927   4.787   4.263   1.923
 9343SOL    HW128928   4.694   4.275   1.956
 9343SOL    HW228929   4.852   4.283   1.997
 9344SOL     OW28930   6.162   5.531   5.176
 9344SOL    HW128931   6.205   5.477   5.103
 9344SOL    HW228932   6.065   5.508   5.182
 9345SOL     OW28933   0.054   6.567   0.508
 9345SOL    HW128934   0.028   6.475   0.477
 9345SOL    HW228935   0.020   6.635   0.444
 9346SOL     OW28936   5.471   6.837   1.683
 9346SOL    HW128937   5.511   6.757   1.729
 9346SOL    HW228938   5.394   6.871   1.737
 9347SOL     OW28939   4.238   5.779   0.584
 9347SOL    HW128940   4.270   5.738   0.670
 9347SOL    HW228941   4.305   5.762   0.512
 9348SOL     OW28942   2.188   5.914   1.931
 9348SOL    HW128943   2.267   5.946   1.982
 9348SOL    HW228944   2.211   5.906   1.834
 9349SOL     OW28945   6.197   4.946   1.515
 9349SOL    HW128946   6.148   5.000   1.584
 9349SOL    HW228947   6.154   4.856   1.507
 9350SOL     OW28948   0.076   1.000   5.143
 9350SOL    HW128949   0.001   0.940   5.115
 9350SOL    HW228950   0.163   0.960   5.114
 9351SOL     OW28951   2.946   1.307   5.823
 9351SOL    HW128952   2.863   1.348   5.858
 9351SOL    HW228953   3.016   1.305   5.895
 9352SOL     OW28954   3.159   2.403   6.149
 9352SOL    HW128955   3.184   2.370   6.058
 9352SOL    HW228956   3.085   2.469   6.141
 9353SOL     OW28957   0.876   3.805   1.412
 9353SOL    HW128958   0.839   3.883   1.362
 9353SOL    HW228959   0.967   3.783   1.377
 9354SOL     OW28960   5.731   1.812   1.336
 9354SOL    HW128961   5.758   1.900   1.374
 9354SOL    HW228962   5.654   1.825   1.273
 9355SOL     OW28963   6.618   0.054   3.540
 9355SOL    HW128964   6.569   7.008   3.594
 9355SOL    HW228965   6.716   0.038   3.547
 9356SOL     OW28966   4.390   5.252   2.239
 9356SOL    HW128967   4.384   5.352   2.236
 9356SOL    HW228968   4.424   5.223   2.329
 9357SOL     OW28969   3.045   3.390   1.029
 9357SOL    HW128970   2.957   3.344   1.026
 9357SOL    HW228971   3.104   3.354   0.956
 9358SOL     OW28972   6.135   4.302   2.006
 9358SOL    HW128973   6.085   4.381   1.970
 9358SOL    HW228974   6.231   4.328   2.020
 9359SOL     OW28975   6.906   4.128   6.367
 9359SOL    HW128976   6.997   4.162   6.343
 9359SOL    HW228977   6.911   4.079   6.454
 9360SOL     OW28978   2.152   0.675   5.940
 9360SOL    HW128979   2.193   0.652   6.028
 9360SOL    HW228980   2.156   0.596   5.880
 9361SOL     OW28981   2.953   6.207   2.128
 9361SOL    HW128982   3.045   6.167   2.129
 9361SOL    HW228983   2.928   6.235   2.220
 9362SOL     OW28984   2.192   1.247   2.058
 9362SOL    HW128985   2.185   1.198   2.145
 9362SOL    HW228986   2.148   1.193   1.986
 9363SOL     OW28987   3.260   6.057   2.979
 9363SOL    HW128988   3.332   6.089   2.918
 9363SOL    HW228989   3.299   6.033   3.068
 9364SOL     OW28990   4.328   3.023   6.470
 9364SOL    HW128991   4.353   2.987   6.380
 9364SOL    HW228992   4.380   2.975   6.541
 9365SOL     OW28993   2.787   1.760   4.875
 9365SOL    HW128994   2.826   1.681   4.922
 9365SOL    HW228995   2.693   1.740   4.848
 9366SOL     OW28996   3.562   1.748   0.629
 9366SOL    HW128997   3.518   1.690   0.697
 9366SOL    HW228998   3.618   1.817   0.675
 9367SOL     OW28999   6.892   5.955   3.412
 9367SOL    HW129000   6.922   5.979   3.320
 9367SOL    HW229001   6.945   6.006   3.479
 9368SOL     OW29002   3.310   2.179   1.818
 9368SOL    HW129003   3.372   2.104   1.841
 9368SOL    HW229004   3.252   2.151   1.741
 9369SOL     OW29005   6.591   1.793   5.620
 9369SOL    HW129006   6.506   1.747   5.595
 9369SOL    HW229007   6.659   1.725   5.647
 9370SOL     OW29008   5.904   0.883   2.649
 9370SOL    HW129009   5.997   0.874   2.614
 9370SOL    HW229010   5.847   0.928   2.581
 9371SOL     OW29011   1.078   5.550   0.434
 9371SOL    HW129012   1.089   5.611   0.355
 9371SOL    HW229013   1.027   5.469   0.408
 9372SOL     OW29014   5.679   6.623   3.366
 9372SOL    HW129015   5.650   6.649   3.274
 9372SOL    HW229016   5.759   6.676   3.393
 9373SOL     OW29017   4.407   1.295   3.396
 9373SOL    HW129018   4.460   1.380   3.407
 9373SOL    HW229019   4.461   1.218   3.430
 9374SOL     OW29020   5.827   2.678   0.131
 9374SOL    HW129021   5.831   2.631   0.219
 9374SOL    HW229022   5.801   2.774   0.146
 9375SOL     OW29023   6.565   1.115   2.793
 9375SOL    HW129024   6.577   1.170   2.710
 9375SOL    HW229025   6.627   1.037   2.790
 9376SOL     OW29026   2.811   3.695   0.589
 9376SOL    HW129027   2.857   3.740   0.512
 9376SOL    HW229028   2.876   3.681   0.663
 9377SOL     OW29029   6.448   5.494   3.884
 9377SOL    HW129030   6.352   5.472   3.865
 9377SOL    HW229031   6.506   5.419   3.853
 9378SOL     OW29032   2.877   0.026   6.702
 9378SOL    HW129033   2.811   6.998   6.647
 9378SOL    HW229034   2.850   0.122   6.708
 9379SOL     OW29035   4.538   4.498   3.845
 9379SOL    HW129036   4.628   4.540   3.856
 9379SOL    HW229037   4.489   4.500   3.933
 9380SOL     OW29038   6.538   6.552   5.712
 9380SOL    HW129039   6.590   6.637   5.703
 9380SOL    HW229040   6.530   6.508   5.622
 9381SOL     OW29041   2.626   2.682   5.275
 9381SOL    HW129042   2.591   2.664   5.183
 9381SOL    HW229043   2.592   2.771   5.306
 9382SOL     OW29044   4.198   0.944   2.862
 9382SOL    HW129045   4.207   0.947   2.961
 9382SOL    HW229046   4.245   0.863   2.827
 9383SOL     OW29047   3.374   0.024   4.531
 9383SOL    HW129048   3.294   0.039   4.589
 9383SOL    HW229049   3.375   6.952   4.498
 9384SOL     OW29050   4.752   6.130   2.365
 9384SOL    HW129051   4.656   6.153   2.385
 9384SOL    HW229052   4.758   6.035   2.337
 9385SOL     OW29053   3.761   1.465   3.173
 9385SOL    HW129054   3.662   1.451   3.178
 9385SOL    HW229055   3.800   1.405   3.102
 9386SOL     OW29056   3.667   6.306   5.033
 9386SOL    HW129057   3.587   6.366   5.037
 9386SOL    HW229058   3.710   6.314   4.943
 9387SOL     OW29059   3.392   6.472   1.190
 9387SOL    HW129060   3.476   6.525   1.204
 9387SOL    HW229061   3.332   6.520   1.126
 9388SOL     OW29062   0.867   6.536   2.815
 9388SOL    HW129063   0.945   6.593   2.789
 9388SOL    HW229064   0.782   6.585   2.793
 9389SOL     OW29065   2.481   0.617   5.121
 9389SOL    HW129066   2.527   0.661   5.197
 9389SOL    HW229067   2.547   0.568   5.065
 9390SOL     OW29068   4.560   5.879   3.161
 9390SOL    HW129069   4.524   5.948   3.098
 9390SOL    HW229070   4.655   5.901   3.184
 9391SOL     OW29071   1.595   1.183   5.797
 9391SOL    HW129072   1.579   1.105   5.736
 9391SOL    HW229073   1.669   1.160   5.860
 9392SOL     OW29074   0.633   6.545   5.322
 9392SOL    HW129075   0.569   6.541   5.245
 9392SOL    HW229076   0.721   6.506   5.294
 9393SOL     OW29077   3.941   1.906   5.028
 9393SOL    HW129078   4.025   1.898   5.081
 9393SOL    HW229079   3.926   2.002   5.003
 9394SOL     OW29080   6.264   2.460   3.086
 9394SOL    HW129081   6.255   2.413   2.998
 9394SOL    HW229082   6.183   2.516   3.102
 9395SOL     OW29083   3.045   2.455   0.222
 9395SOL    HW129084   3.129   2.503   0.247
 9395SOL    HW229085   3.038   2.371   0.276
 9396SOL     OW29086   6.927   6.446   4.912
 9396SOL    HW129087   6.979   6.510   4.968
 9396SOL    HW229088   6.830   6.462   4.925
 9397SOL     OW29089   2.135   0.323   0.249
 9397SOL    HW129090   2.223   0.369   0.258
 9397SOL    HW229091   2.148   0.231   0.212
 9398SOL     OW29092   2.495   1.156   6.896
 9398SOL    HW129093   2.516   1.117   6.986
 9398SOL    HW229094   2.510   1.255   6.898
 9399SOL     OW29095   6.679   2.340   6.648
 9399SOL    HW129096   6.667   2.297   6.737
 9399SOL    HW229097   6.634   2.285   6.578
 9400SOL     OW29098   5.260   3.379   1.596
 9400SOL    HW129099   5.277   3.477   1.607
 9400SOL    HW229100   5.240   3.339   1.686
 9401SOL     OW29101   2.311   6.450   3.657
 9401SOL    HW129102   2.324   6.352   3.646
 9401SOL    HW229103   2.338   6.497   3.572
 9402SOL     OW29104   2.207   5.116   6.419
 9402SOL    HW129105   2.198   5.034   6.363
 9402SOL    HW229106   2.217   5.090   6.515
 9403SOL     OW29107   4.987   1.458   3.232
 9403SOL    HW129108   5.056   1.521   3.269
 9403SOL    HW229109   4.904   1.463   3.288
 9404SOL     OW29110   0.456   4.866   6.617
 9404SOL    HW129111   0.525   4.821   6.674
 9404SOL    HW229112   0.429   4.804   6.543
 9405SOL     OW29113   5.988   6.951   1.614
 9405SOL    HW129114   5.975   0.017   1.659
 9405SOL    HW229115   5.903   6.922   1.571
 9406SOL     OW29116   0.279   2.179   5.171
 9406SOL    HW129117   0.213   2.129   5.115
 9406SOL    HW229118   0.245   2.272   5.186
 9407SOL     OW29119   3.347   6.791   2.999
 9407SOL    HW129120   3.295   6.738   3.066
 9407SOL    HW229121   3.289   6.811   2.920
 9408SOL     OW29122   3.984   1.201   6.396
 9408SOL    HW129123   4.025   1.267   6.333
 9408SOL    HW229124   3.907   1.156   6.351
 9409SOL     OW29125   4.979   4.143   4.301
 9409SOL    HW129126   5.044   4.195   4.357
 9409SOL    HW229127   5.000   4.046   4.307
 9410SOL     OW29128   3.567   6.297   2.037
 9410SOL    HW129129   3.490   6.354   2.008
 9410SOL    HW229130   3.546   6.255   2.126
 9411SOL     OW29131   3.794   4.995   1.004
 9411SOL    HW129132   3.816   5.084   0.964
 9411SOL    HW229133   3.760   5.008   1.097
 9412SOL     OW29134   0.707   3.041   1.841
 9412SOL    HW129135   0.781   3.003   1.785
 9412SOL    HW229136   0.742   3.121   1.891
 9413SOL     OW29137   4.113   5.726   5.238
 9413SOL    HW129138   4.018   5.729   5.207
 9413SOL    HW229139   4.116   5.699   5.335
 9414SOL     OW29140   2.905   1.546   2.621
 9414SOL    HW129141   2.985   1.592   2.660
 9414SOL    HW229142   2.822   1.588   2.657
 9415SOL     OW29143   1.618   6.759   2.551
 9415SOL    HW129144   1.533   6.802   2.520
 9415SOL    HW229145   1.616   6.748   2.650
 9416SOL     OW29146   0.669   1.340   1.578
 9416SOL    HW129147   0.697   1.407   1.510
 9416SOL    HW229148   0.653   1.385   1.665
 9417SOL     OW29149   3.041   6.771   5.386
 9417SOL    HW129150   3.033   6.739   5.292
 9417SOL    HW229151   3.121   6.829   5.395
 9418SOL     OW29152   2.283   5.640   0.946
 9418SOL    HW129153   2.242   5.698   1.016
 9418SOL    HW229154   2.247   5.666   0.856
 9419SOL     OW29155   3.651   6.831   5.252
 9419SOL    HW129156   3.654   6.752   5.313
 9419SOL    HW229157   3.611   6.803   5.164
 9420SOL     OW29158   6.962   1.520   4.932
 9420SOL    HW129159   6.996   1.614   4.942
 9420SOL    HW229160   7.002   1.462   5.003
 9421SOL     OW29161   2.309   5.251   5.187
 9421SOL    HW129162   2.264   5.278   5.102
 9421SOL    HW229163   2.392   5.198   5.166
 9422SOL     OW29164   5.535   0.023   2.377
 9422SOL    HW129165   5.447   7.003   2.400
 9422SOL    HW229166   5.532   0.121   2.399
 9423SOL     OW29167   4.546   0.340   3.135
 9423SOL    HW129168   4.564   0.438   3.123
 9423SOL    HW229169   4.505   0.303   3.052
 9424SOL     OW29170   5.148   0.584   5.628
 9424SOL    HW129171   5.061   0.536   5.615
 9424SOL    HW229172   5.131   0.682   5.629
 9425SOL     OW29173   0.572   3.192   5.963
 9425SOL    HW129174   0.659   3.216   6.008
 9425SOL    HW229175   0.551   3.260   5.893
 9426SOL     OW29176   2.815   1.570   0.444
 9426SOL    HW129177   2.768   1.615   0.520
 9426SOL    HW229178   2.772   1.595   0.358
 9427SOL     OW29179   3.037   4.803   5.206
 9427SOL    HW129180   2.985   4.718   5.205
 9427SOL    HW229181   2.974   4.880   5.193
 9428SOL     OW29182   5.808   6.969   2.621
 9428SOL    HW129183   5.739   0.007   2.660
 9428SOL    HW229184   5.822   6.992   2.525
 9429SOL     OW29185   1.373   3.715   2.306
 9429SOL    HW129186   1.452   3.723   2.246
 9429SOL    HW229187   1.357   3.619   2.328
 9430SOL     OW29188   6.580   6.773   2.202
 9430SOL    HW129189   6.650   6.731   2.144
 9430SOL    HW229190   6.495   6.781   2.151
 9431SOL     OW29191   6.055   4.057   0.337
 9431SOL    HW129192   6.071   4.045   0.239
 9431SOL    HW229193   6.043   4.155   0.357
 9432SOL     OW29194   6.277   0.222   3.902
 9432SOL    HW129195   6.348   0.222   3.832
 9432SOL    HW229196   6.316   0.193   3.989
 9433SOL     OW29197   3.582   4.960   4.529
 9433SOL    HW129198   3.514   4.962   4.456
 9433SOL    HW229199   3.536   4.953   4.617
 9434SOL     OW29200   5.505   4.469   3.423
 9434SOL    HW129201   5.569   4.546   3.411
 9434SOL    HW229202   5.470   4.441   3.333
 9435SOL     OW29203   1.491   1.196   4.525
 9435SOL    HW129204   1.580   1.172   4.488
 9435SOL    HW229205   1.445   1.258   4.462
 9436SOL     OW29206   1.196   3.402   1.286
 9436SOL    HW129207   1.277   3.457   1.262
 9436SOL    HW229208   1.213   3.354   1.372
 9437SOL     OW29209   1.127   5.807   3.065
 9437SOL    HW129210   1.109   5.872   2.992
 9437SOL    HW229211   1.222   5.776   3.060
 9438SOL     OW29212   1.166   6.264   1.528
 9438SOL    HW129213   1.123   6.178   1.500
 9438SOL    HW229214   1.188   6.318   1.447
 9439SOL     OW29215   6.639   2.861   2.296
 9439SOL    HW129216   6.688   2.948   2.292
 9439SOL    HW229217   6.547   2.873   2.257
 9440SOL     OW29218   4.852   5.980   5.188
 9440SOL    HW129219   4.878   5.904   5.246
 9440SOL    HW229220   4.752   5.989   5.188
 9441SOL     OW29221   1.220   5.480   5.430
 9441SOL    HW129222   1.288   5.416   5.396
 9441SOL    HW229223   1.246   5.511   5.521
 9442SOL     OW29224   6.436   1.896   0.041
 9442SOL    HW129225   6.370   1.861   0.108
 9442SOL    HW229226   6.443   1.995   0.050
 9443SOL     OW29227   2.254   4.313   1.386
 9443SOL    HW129228   2.211   4.226   1.362
 9443SOL    HW229229   2.342   4.295   1.431
 9444SOL     OW29230   0.313   3.153   0.106
 9444SOL    HW129231   0.278   3.082   0.045
 9444SOL    HW229232   0.390   3.118   0.158
 9445SOL     OW29233   5.203   3.323   2.120
 9445SOL    HW129234   5.128   3.267   2.155
 9445SOL    HW229235   5.283   3.311   2.178
 9446SOL     OW29236   6.627   6.794   2.975
 9446SOL    HW129237   6.569   6.733   2.921
 9446SOL    HW229238   6.572   6.840   3.044
 9447SOL     OW29239   5.580   3.316   2.851
 9447SOL    HW129240   5.628   3.394   2.891
 9447SOL    HW229241   5.563   3.247   2.921
 9448SOL     OW29242   5.330   6.184   6.134
 9448SOL    HW129243   5.238   6.151   6.111
 9448SOL    HW229244   5.375   6.217   6.051
 9449SOL     OW29245   6.711   5.180   5.462
 9449SOL    HW129246   6.637   5.233   5.421
 9449SOL    HW229247   6.740   5.109   5.398
 9450SOL     OW29248   2.913   5.055   4.963
 9450SOL    HW129249   2.990   4.997   4.937
 9450SOL    HW229250   2.845   5.001   5.012
 9451SOL     OW29251   4.717   5.715   6.168
 9451SOL    HW129252   4.654   5.792   6.180
 9451SOL    HW229253   4.766   5.726   6.081
 9452SOL     OW29254   1.988   3.441   0.691
 9452SOL    HW129255   2.034   3.513   0.742
 9452SOL    HW229256   1.940   3.481   0.613
 9453SOL     OW29257   1.854   3.948   3.040
 9453SOL    HW129258   1.818   3.856   3.024
 9453SOL    HW229259   1.784   4.003   3.086
 9454SOL     OW29260   1.410   3.675   6.159
 9454SOL    HW129261   1.423   3.657   6.257
 9454SOL    HW229262   1.375   3.767   6.146
 9455SOL     OW29263   3.392   1.292   2.786
 9455SOL    HW129264   3.446   1.362   2.834
 9455SOL    HW229265   3.435   1.203   2.799
 9456SOL     OW29266   0.199   4.364   0.868
 9456SOL    HW129267   0.258   4.327   0.796
 9456SOL    HW229268   0.142   4.291   0.905
 9457SOL     OW29269   1.885   3.871   6.513
 9457SOL    HW129270   1.877   3.795   6.577
 9457SOL    HW229271   1.820   3.860   6.438
 9458SOL     OW29272   0.373   4.904   6.208
 9458SOL    HW129273   0.458   4.904   6.260
 9458SOL    HW229274   0.346   4.810   6.186
 9459SOL     OW29275   6.342   5.208   2.027
 9459SOL    HW129276   6.419   5.177   2.084
 9459SOL    HW229277   6.299   5.287   2.070
 9460SOL     OW29278   0.053   2.388   5.285
 9460SOL    HW129279   7.018   2.378   5.366
 9460SOL    HW229280   0.146   2.410   5.312
 9461SOL     OW29281   6.714   1.421   3.179
 9461SOL    HW129282   6.679   1.445   3.270
 9461SOL    HW229283   6.637   1.397   3.119
 9462SOL     OW29284   1.738   3.254   3.096
 9462SOL    HW129285   1.644   3.232   3.123
 9462SOL    HW229286   1.789   3.288   3.175
 9463SOL     OW29287   0.063   0.435   1.009
 9463SOL    HW129288   0.105   0.447   1.099
 9463SOL    HW229289   6.986   0.438   1.018
 9464SOL     OW29290   5.277   6.797   6.533
 9464SOL    HW129291   5.358   6.808   6.590
 9464SOL    HW229292   5.298   6.737   6.456
 9465SOL     OW29293   0.230   0.463   3.164
 9465SOL    HW129294   0.274   0.541   3.207
 9465SOL    HW229295   0.211   0.484   3.068
 9466SOL     OW29296   3.045   3.168   5.593
 9466SOL    HW129297   2.994   3.085   5.617
 9466SOL    HW229298   3.009   3.205   5.507
 9467SOL     OW29299   1.618   2.615   1.279
 9467SOL    HW129300   1.619   2.541   1.346
 9467SOL    HW229301   1.662   2.696   1.318
 9468SOL     OW29302   5.667   3.162   5.911
 9468SOL    HW129303   5.623   3.111   5.985
 9468SOL    HW229304   5.726   3.100   5.859
 9469SOL     OW29305   6.224   5.384   2.188
 9469SOL    HW129306   6.141   5.337   2.219
 9469SOL    HW229307   6.252   5.451   2.258
 9470SOL     OW29308   5.043   2.781   6.753
 9470SOL    HW129309   4.947   2.765   6.778
 9470SOL    HW229310   5.095   2.696   6.766
 9471SOL     OW29311   6.643   2.614   5.520
 9471SOL    HW129312   6.582   2.675   5.571
 9471SOL    HW229313   6.672   2.659   5.436
 9472SOL     OW29314   6.561   3.816   4.617
 9472SOL    HW129315   6.638   3.755   4.631
 9472SOL    HW229316   6.476   3.770   4.641
 9473SOL     OW29317   3.881   6.695   5.106
 9473SOL    HW129318   3.827   6.770   5.067
 9473SOL    HW229319   3.821   6.637   5.161
 9474SOL     OW29320   5.817   4.608   1.755
 9474SOL    HW129321   5.717   4.608   1.750
 9474SOL    HW229322   5.850   4.514   1.755
 9475SOL     OW29323   3.482   3.333   1.074
 9475SOL    HW129324   3.465   3.244   1.115
 9475SOL    HW229325   3.431   3.404   1.124
 9476SOL     OW29326   3.027   3.277   4.590
 9476SOL    HW129327   2.975   3.329   4.522
 9476SOL    HW229328   3.079   3.341   4.647
 9477SOL     OW29329   0.795   3.236   1.383
 9477SOL    HW129330   0.705   3.246   1.425
 9477SOL    HW229331   0.828   3.325   1.351
 9478SOL     OW29332   5.408   3.658   5.865
 9478SOL    HW129333   5.414   3.689   5.960
 9478SOL    HW229334   5.424   3.559   5.862
 9479SOL     OW29335   6.048   5.877   6.316
 9479SOL    HW129336   6.124   5.841   6.262
 9479SOL    HW229337   6.014   5.961   6.273
 9480SOL     OW29338   4.319   4.453   6.718
 9480SOL    HW129339   4.304   4.542   6.676
 9480SOL    HW229340   4.302   4.381   6.651
 9481SOL     OW29341   6.552   3.901   1.616
 9481SOL    HW129342   6.475   3.940   1.667
 9481SOL    HW229343   6.638   3.927   1.660
 9482SOL     OW29344   5.931   0.878   3.089
 9482SOL    HW129345   6.030   0.876   3.104
 9482SOL    HW229346   5.896   0.785   3.088
 9483SOL     OW29347   2.075   1.760   0.707
 9483SOL    HW129348   1.998   1.780   0.768
 9483SOL    HW229349   2.075   1.662   0.685
 9484SOL     OW29350   5.935   1.770   3.629
 9484SOL    HW129351   5.886   1.811   3.552
 9484SOL    HW229352   5.870   1.752   3.703
 9485SOL     OW29353   1.306   0.400   1.713
 9485SOL    HW129354   1.241   0.330   1.684
 9485SOL    HW229355   1.397   0.378   1.679
 9486SOL     OW29356   2.185   5.035   0.989
 9486SOL    HW129357   2.244   4.954   0.991
 9486SOL    HW229358   2.098   5.013   0.946
 9487SOL     OW29359   3.079   3.833   3.405
 9487SOL    HW129360   2.990   3.868   3.435
 9487SOL    HW229361   3.145   3.908   3.403
 9488SOL     OW29362   2.039   6.184   1.042
 9488SOL    HW129363   2.020   6.282   1.053
 9488SOL    HW229364   2.048   6.141   1.131
 9489SOL     OW29365   3.347   4.197   0.934
 9489SOL    HW129366   3.312   4.103   0.930
 9489SOL    HW229367   3.399   4.210   1.018
 9490SOL     OW29368   5.683   0.198   1.124
 9490SOL    HW129369   5.709   0.281   1.173
 9490SOL    HW229370   5.651   0.222   1.033
 9491SOL     OW29371   6.969   4.864   4.773
 9491SOL    HW129372   6.956   4.947   4.718
 9491SOL    HW229373   0.013   4.804   4.728
 9492SOL     OW29374   3.299   3.665   2.449
 9492SOL    HW129375   3.378   3.604   2.449
 9492SOL    HW229376   3.295   3.716   2.363
 9493SOL     OW29377   4.881   5.210   4.091
 9493SOL    HW129378   4.863   5.182   3.997
 9493SOL    HW229379   4.909   5.130   4.145
 9494SOL     OW29380   5.340   4.338   0.772
 9494SOL    HW129381   5.436   4.353   0.796
 9494SOL    HW229382   5.296   4.282   0.842
 9495SOL     OW29383   6.273   2.453   3.940
 9495SOL    HW129384   6.335   2.505   3.882
 9495SOL    HW229385   6.318   2.368   3.969
 9496SOL     OW29386   5.221   4.532   6.602
 9496SOL    HW129387   5.172   4.464   6.547
 9496SOL    HW229388   5.155   4.580   6.661
 9497SOL     OW29389   3.978   4.086   1.166
 9497SOL    HW129390   3.984   4.184   1.146
 9497SOL    HW229391   4.053   4.060   1.227
 9498SOL     OW29392   5.002   0.338   5.949
 9498SOL    HW129393   5.036   0.422   5.992
 9498SOL    HW229394   4.948   0.286   6.015
 9499SOL     OW29395   2.015   4.131   5.559
 9499SOL    HW129396   2.010   4.201   5.488
 9499SOL    HW229397   2.110   4.120   5.588
 9500SOL     OW29398   3.174   6.630   1.636
 9500SOL    HW129399   3.251   6.579   1.674
 9500SOL    HW229400   3.206   6.716   1.596
 9501SOL     OW29401   3.544   1.914   4.630
 9501SOL    HW129402   3.461   1.963   4.603
 9501SOL    HW229403   3.619   1.979   4.639
 9502SOL     OW29404   6.996   2.295   4.997
 9502SOL    HW129405   6.974   2.351   4.917
 9502SOL    HW229406   0.027   2.351   5.062
 9503SOL     OW29407   0.066   1.241   1.281
 9503SOL    HW129408   0.001   1.198   1.343
 9503SOL    HW229409   0.125   1.304   1.333
 9504SOL     OW29410   6.636   2.693   1.015
 9504SOL    HW129411   6.628   2.608   0.964
 9504SOL    HW229412   6.702   2.680   1.090
 9505SOL     OW29413   5.846   4.183   3.825
 9505SOL    HW129414   5.760   4.177   3.774
 9505SOL    HW229415   5.896   4.097   3.816
 9506SOL     OW29416   0.121   3.077   6.843
 9506SOL    HW129417   0.138   3.026   6.759
 9506SOL    HW229418   0.095   3.171   6.821
 9507SOL     OW29419   2.280   1.100   4.219
 9507SOL    HW129420   2.369   1.073   4.255
 9507SOL    HW229421   2.261   1.049   4.135
 9508SOL     OW29422   5.492   2.541   0.283
 9508SOL    HW129423   5.579   2.563   0.329
 9508SOL    HW229424   5.428   2.501   0.349
 9509SOL     OW29425   1.463   6.786   5.438
 9509SOL    HW129426   1.389   6.780   5.372
 9509SOL    HW229427   1.425   6.793   5.530
 9510SOL     OW29428   0.394   3.869   1.992
 9510SOL    HW129429   0.375   3.776   1.960
 9510SOL    HW229430   0.489   3.892   1.975
 9511SOL     OW29431   0.594   2.136   0.309
 9511SOL    HW129432   0.535   2.114   0.387
 9511SOL    HW229433   0.617   2.052   0.260
 9512SOL     OW29434   6.242   2.069   3.840
 9512SOL    HW129435   6.302   2.024   3.774
 9512SOL    HW229436   6.147   2.062   3.809
 9513SOL     OW29437   1.703   3.462   4.758
 9513SOL    HW129438   1.640   3.539   4.752
 9513SOL    HW229439   1.750   3.464   4.846
 9514SOL     OW29440   1.443   3.866   6.792
 9514SOL    HW129441   1.515   3.932   6.810
 9514SOL    HW229442   1.384   3.858   6.873
 9515SOL     OW29443   1.191   5.976   0.101
 9515SOL    HW129444   1.145   5.955   0.015
 9515SOL    HW229445   1.271   6.034   0.083
 9516SOL     OW29446   4.902   3.432   3.960
 9516SOL    HW129447   4.948   3.419   4.048
 9516SOL    HW229448   4.879   3.343   3.921
 9517SOL     OW29449   1.427   5.052   0.732
 9517SOL    HW129450   1.493   5.090   0.798
 9517SOL    HW229451   1.452   4.959   0.710
 9518SOL     OW29452   1.677   2.442   6.454
 9518SOL    HW129453   1.633   2.530   6.440
 9518SOL    HW229454   1.732   2.420   6.373
 9519SOL     OW29455   3.027   3.148   3.064
 9519SOL    HW129456   3.031   3.137   2.964
 9519SOL    HW229457   2.986   3.237   3.086
 9520SOL     OW29458   6.712   1.208   4.260
 9520SOL    HW129459   6.770   1.243   4.333
 9520SOL    HW229460   6.718   1.270   4.181
 9521SOL     OW29461   2.974   5.042   1.638
 9521SOL    HW129462   2.941   5.113   1.701
 9521SOL    HW229463   2.963   4.952   1.680
 9522SOL     OW29464   4.411   5.392   2.701
 9522SOL    HW129465   4.415   5.475   2.757
 9522SOL    HW229466   4.326   5.390   2.649
 9523SOL     OW29467   2.227   5.380   4.953
 9523SOL    HW129468   2.224   5.336   4.863
 9523SOL    HW229469   2.240   5.478   4.942
 9524SOL     OW29470   1.746   3.125   1.633
 9524SOL    HW129471   1.820   3.060   1.614
 9524SOL    HW229472   1.755   3.204   1.573
 9525SOL     OW29473   1.924   1.711   5.840
 9525SOL    HW129474   1.997   1.744   5.780
 9525SOL    HW229475   1.965   1.667   5.920
 9526SOL     OW29476   5.711   5.028   0.592
 9526SOL    HW129477   5.647   4.953   0.583
 9526SOL    HW229478   5.766   5.016   0.675
 9527SOL     OW29479   2.758   6.893   4.323
 9527SOL    HW129480   2.707   6.816   4.284
 9527SOL    HW229481   2.831   6.920   4.261
 9528SOL     OW29482   6.129   1.517   1.640
 9528SOL    HW129483   6.077   1.576   1.702
 9528SOL    HW229484   6.101   1.422   1.652
 9529SOL     OW29485   5.667   3.829   0.645
 9529SOL    HW129486   5.632   3.916   0.680
 9529SOL    HW229487   5.611   3.799   0.568
 9530SOL     OW29488   1.302   5.000   4.207
 9530SOL    HW129489   1.263   4.940   4.276
 9530SOL    HW229490   1.400   4.984   4.200
 9531SOL     OW29491   3.989   5.192   3.164
 9531SOL    HW129492   3.998   5.265   3.096
 9531SOL    HW229493   4.069   5.132   3.158
 9532SOL     OW29494   6.450   4.995   1.376
 9532SOL    HW129495   6.465   5.081   1.327
 9532SOL    HW229496   6.361   4.997   1.422
 9533SOL     OW29497   0.780   5.750   4.038
 9533SOL    HW129498   0.850   5.804   4.086
 9533SOL    HW229499   0.795   5.757   3.939
 9534SOL     OW29500   6.258   4.179   5.092
 9534SOL    HW129501   6.193   4.112   5.055
 9534SOL    HW229502   6.270   4.253   5.025
 9535SOL     OW29503   2.132   1.768   5.692
 9535SOL    HW129504   2.195   1.760   5.615
 9535SOL    HW229505   2.180   1.806   5.771
 9536SOL     OW29506   3.607   2.904   4.669
 9536SOL    HW129507   3.579   2.880   4.762
 9536SOL    HW229508   3.528   2.895   4.608
 9537SOL     OW29509   2.827   1.853   4.189
 9537SOL    HW129510   2.755   1.923   4.184
 9537SOL    HW229511   2.784   1.763   4.203
 9538SOL     OW29512   4.474   1.247   4.286
 9538SOL    HW129513   4.415   1.240   4.367
 9538SOL    HW229514   4.432   1.198   4.210
 9539SOL     OW29515   3.163   3.049   4.238
 9539SOL    HW129516   3.080   3.105   4.239
 9539SOL    HW229517   3.230   3.089   4.175
 9540SOL     OW29518   4.788   5.329   4.361
 9540SOL    HW129519   4.843   5.401   4.404
 9540SOL    HW229520   4.806   5.328   4.263
 9541SOL     OW29521   1.384   0.915   5.639
 9541SOL    HW129522   1.401   0.823   5.604
 9541SOL    HW229523   1.376   0.979   5.563
 9542SOL     OW29524   5.540   4.838   4.787
 9542SOL    HW129525   5.451   4.832   4.741
 9542SOL    HW229526   5.587   4.921   4.756
 9543SOL     OW29527   2.860   0.343   5.923
 9543SOL    HW129528   2.928   0.337   5.850
 9543SOL    HW229529   2.825   0.252   5.944
 9544SOL     OW29530   4.935   3.708   4.069
 9544SOL    HW129531   4.934   3.769   3.990
 9544SOL    HW229532   4.884   3.624   4.047
 9545SOL     OW29533   6.980   5.446   2.046
 9545SOL    HW129534   6.912   5.510   2.081
 9545SOL    HW229535   6.980   5.448   1.946
 9546SOL     OW29536   3.660   1.781   5.564
 9546SOL    HW129537   3.687   1.709   5.628
 9546SOL    HW229538   3.703   1.763   5.475
 9547SOL     OW29539   2.759   5.580   3.898
 9547SOL    HW129540   2.685   5.640   3.927
 9547SOL    HW229541   2.722   5.488   3.883
 9548SOL     OW29542   0.866   5.633   4.906
 9548SOL    HW129543   0.900   5.631   4.812
 9548SOL    HW229544   0.883   5.723   4.947
 9549SOL     OW29545   3.312   0.652   2.579
 9549SOL    HW129546   3.379   0.688   2.515
 9549SOL    HW229547   3.353   0.648   2.671
 9550SOL     OW29548   6.210   2.142   0.899
 9550SOL    HW129549   6.226   2.217   0.835
 9550SOL    HW229550   6.111   2.132   0.914
 9551SOL     OW29551   6.300   3.394   5.999
 9551SOL    HW129552   6.371   3.455   6.034
 9551SOL    HW229553   6.261   3.342   6.074
 9552SOL     OW29554   2.109   6.849   5.985
 9552SOL    HW129555   2.081   6.940   5.955
 9552SOL    HW229556   2.178   6.812   5.922
 9553SOL     OW29557   5.313   1.911   0.178
 9553SOL    HW129558   5.357   1.887   0.091
 9553SOL    HW229559   5.360   1.865   0.253
 9554SOL     OW29560   1.960   6.676   3.636
 9554SOL    HW129561   1.991   6.723   3.553
 9554SOL    HW229562   1.861   6.666   3.633
 9555SOL     OW29563   0.560   1.315   3.279
 9555SOL    HW129564   0.495   1.352   3.212
 9555SOL    HW229565   0.561   1.375   3.360
 9556SOL     OW29566   1.896   4.299   1.218
 9556SOL    HW129567   1.970   4.365   1.230
 9556SOL    HW229568   1.835   4.302   1.297
 9557SOL     OW29569   5.022   6.898   1.474
 9557SOL    HW129570   5.118   6.916   1.454
 9557SOL    HW229571   4.977   6.982   1.505
 9558SOL     OW29572   5.364   6.157   5.562
 9558SOL    HW129573   5.405   6.190   5.647
 9558SOL    HW229574   5.401   6.211   5.485
 9559SOL     OW29575   1.230   4.060   6.751
 9559SOL    HW129576   1.190   4.098   6.835
 9559SOL    HW229577   1.270   3.971   6.771
 9560SOL     OW29578   2.589   0.751   2.537
 9560SOL    HW129579   2.626   0.672   2.487
 9560SOL    HW229580   2.495   0.769   2.506
 9561SOL     OW29581   0.446   0.811   1.613
 9561SOL    HW129582   0.446   0.829   1.515
 9561SOL    HW229583   0.356   0.775   1.640
 9562SOL     OW29584   2.546   6.442   4.019
 9562SOL    HW129585   2.452   6.424   3.990
 9562SOL    HW229586   2.565   6.395   4.105
 9563SOL     OW29587   0.348   6.454   6.928
 9563SOL    HW129588   0.405   6.423   7.004
 9563SOL    HW229589   0.255   6.473   6.961
 9564SOL     OW29590   2.239   1.338   0.802
 9564SOL    HW129591   2.229   1.241   0.780
 9564SOL    HW229592   2.336   1.359   0.818
 9565SOL     OW29593   3.364   1.342   4.628
 9565SOL    HW129594   3.423   1.422   4.614
 9565SOL    HW229595   3.371   1.312   4.723
 9566SOL     OW29596   2.652   5.761   0.205
 9566SOL    HW129597   2.687   5.842   0.252
 9566SOL    HW229598   2.647   5.780   0.106
 9567SOL     OW29599   6.058   4.243   0.804
 9567SOL    HW129600   5.986   4.178   0.778
 9567SOL    HW229601   6.089   4.292   0.723
 9568SOL     OW29602   4.391   1.301   0.276
 9568SOL    HW129603   4.405   1.343   0.187
 9568SOL    HW229604   4.302   1.257   0.279
 9569SOL     OW29605   0.317   0.814   2.034
 9569SOL    HW129606   0.270   0.733   1.999
 9569SOL    HW229607   0.400   0.786   2.082
 9570SOL     OW29608   0.129   2.767   0.823
 9570SOL    HW129609   0.124   2.669   0.806
 9570SOL    HW229610   0.095   2.787   0.915
 9571SOL     OW29611   2.665   2.740   5.902
 9571SOL    HW129612   2.643   2.673   5.832
 9571SOL    HW229613   2.743   2.795   5.872
 9572SOL     OW29614   1.690   4.947   2.560
 9572SOL    HW129615   1.671   5.001   2.479
 9572SOL    HW229616   1.739   4.863   2.534
 9573SOL     OW29617   6.635   1.136   5.993
 9573SOL    HW129618   6.679   1.080   5.923
 9573SOL    HW229619   6.550   1.175   5.957
 9574SOL     OW29620   3.494   2.867   2.186
 9574SOL    HW129621   3.538   2.778   2.198
 9574SOL    HW229622   3.560   2.940   2.208
 9575SOL     OW29623   6.431   0.899   1.844
 9575SOL    HW129624   6.431   0.823   1.779
 9575SOL    HW229625   6.517   0.900   1.894
 9576SOL     OW29626   1.920   2.224   0.113
 9576SOL    HW129627   1.932   2.211   0.211
 9576SOL    HW229628   1.920   2.321   0.092
 9577SOL     OW29629   0.532   6.461   5.839
 9577SOL    HW129630   0.518   6.551   5.880
 9577SOL    HW229631   0.444   6.414   5.830
 9578SOL     OW29632   1.541   2.771   2.634
 9578SOL    HW129633   1.449   2.772   2.596
 9578SOL    HW229634   1.551   2.694   2.697
 9579SOL     OW29635   0.121   6.062   3.224
 9579SOL    HW129636   0.133   5.974   3.271
 9579SOL    HW229637   0.172   6.061   3.138
 9580SOL     OW29638   5.356   3.760   1.246
 9580SOL    HW129639   5.337   3.850   1.286
 9580SOL    HW229640   5.455   3.745   1.243
 9581SOL     OW29641   0.626   6.877   6.502
 9581SOL    HW129642   0.704   6.876   6.564
 9581SOL    HW229643   0.558   6.811   6.532
 9582SOL     OW29644   3.664   5.693   4.558
 9582SOL    HW129645   3.666   5.761   4.484
 9582SOL    HW229646   3.592   5.716   4.623
 9583SOL     OW29647   2.971   3.987   1.533
 9583SOL    HW129648   2.908   3.940   1.595
 9583SOL    HW229649   3.045   3.924   1.507
 9584SOL     OW29650   0.798   4.895   5.832
 9584SOL    HW129651   0.799   4.876   5.930
 9584SOL    HW229652   0.891   4.909   5.799
 9585SOL     OW29653   5.180   6.645   2.855
 9585SOL    HW129654   5.137   6.706   2.922
 9585SOL    HW229655   5.189   6.693   2.767
 9586SOL     OW29656   4.514   5.729   2.615
 9586SOL    HW129657   4.458   5.810   2.632
 9586SOL    HW229658   4.491   5.691   2.525
 9587SOL     OW29659   1.065   6.991   1.677
 9587SOL    HW129660   0.968   6.972   1.666
 9587SOL    HW229661   1.116   6.906   1.675
 9588SOL     OW29662   6.174   6.371   0.522
 9588SOL    HW129663   6.212   6.441   0.462
 9588SOL    HW229664   6.100   6.323   0.475
 9589SOL     OW29665   1.601   4.089   6.805
 9589SOL    HW129666   1.566   4.180   6.826
 9589SOL    HW229667   1.628   4.085   6.708
 9590SOL     OW29668   6.173   2.608   1.606
 9590SOL    HW129669   6.204   2.563   1.523
 9590SOL    HW229670   6.185   2.545   1.684
 9591SOL     OW29671   3.665   5.338   5.909
 9591SOL    HW129672   3.748   5.317   5.961
 9591SOL    HW229673   3.690   5.358   5.814
 9592SOL     OW29674   3.394   4.876   1.185
 9592SOL    HW129675   3.424   4.825   1.265
 9592SOL    HW229676   3.300   4.907   1.198
 9593SOL     OW29677   0.937   1.538   6.084
 9593SOL    HW129678   0.957   1.628   6.046
 9593SOL    HW229679   0.926   1.546   6.183
 9594SOL     OW29680   2.619   6.026   4.644
 9594SOL    HW129681   2.539   6.075   4.609
 9594SOL    HW229682   2.624   6.037   4.744
 9595SOL     OW29683   0.515   2.600   3.701
 9595SOL    HW129684   0.593   2.567   3.755
 9595SOL    HW229685   0.449   2.643   3.762
 9596SOL     OW29686   0.611   5.140   0.196
 9596SOL    HW129687   0.666   5.060   0.219
 9596SOL    HW229688   0.592   5.192   0.279
 9597SOL     OW29689   6.904   4.274   1.529
 9597SOL    HW129690   6.888   4.181   1.496
 9597SOL    HW229691   6.993   4.307   1.496
 9598SOL     OW29692   2.070   4.543   3.037
 9598SOL    HW129693   2.036   4.450   3.027
 9598SOL    HW229694   2.169   4.544   3.022
 9599SOL     OW29695   2.916   0.322   3.659
 9599SOL    HW129696   3.007   0.284   3.676
 9599SOL    HW229697   2.892   0.310   3.563
 9600SOL     OW29698   3.028   0.597   6.562
 9600SOL    HW129699   2.992   0.642   6.643
 9600SOL    HW229700   3.121   0.564   6.580
 9601SOL     OW29701   5.303   4.907   0.495
 9601SOL    HW129702   5.292   5.001   0.463
 9601SOL    HW229703   5.299   4.845   0.417
 9602SOL     OW29704   5.619   3.641   6.309
 9602SOL    HW129705   5.665   3.681   6.388
 9602SOL    HW229706   5.660   3.553   6.286
 9603SOL     OW29707   4.353   0.267   6.811
 9603SOL    HW129708   4.307   0.339   6.760
 9603SOL    HW229709   4.449   0.263   6.785
 9604SOL     OW29710   5.067   0.172   0.941
 9604SOL    HW129711   4.985   0.155   0.887
 9604SOL    HW229712   5.096   0.087   0.985
 9605SOL     OW29713   1.397   5.547   3.382
 9605SOL    HW129714   1.322   5.496   3.424
 9605SOL    HW229715   1.476   5.487   3.370
 9606SOL     OW29716   1.759   6.554   6.410
 9606SOL    HW129717   1.792   6.598   6.326
 9606SOL    HW229718   1.830   6.558   6.480
 9607SOL     OW29719   2.922   1.365   6.923
 9607SOL    HW129720   2.972   1.411   6.849
 9607SOL    HW229721   2.964   1.388   7.011
 9608SOL     OW29722   0.146   4.227   1.369
 9608SOL    HW129723   0.222   4.267   1.317
 9608SOL    HW229724   0.161   4.244   1.467
 9609SOL     OW29725   3.298   3.045   0.531
 9609SOL    HW129726   3.200   3.028   0.540
 9609SOL    HW229727   3.338   3.064   0.621
 9610SOL     OW29728   1.584   4.777   3.273
 9610SOL    HW129729   1.489   4.747   3.274
 9610SOL    HW229730   1.593   4.862   3.326
 9611SOL     OW29731   1.469   6.455   0.832
 9611SOL    HW129732   1.516   6.502   0.757
 9611SOL    HW229733   1.378   6.426   0.801
 9612SOL     OW29734   0.077   3.268   1.876
 9612SOL    HW129735   0.072   3.268   1.776
 9612SOL    HW229736   0.108   3.357   1.908
 9613SOL     OW29737   4.706   6.542   3.464
 9613SOL    HW129738   4.750   6.630   3.484
 9613SOL    HW229739   4.762   6.468   3.499
 9614SOL     OW29740   3.857   2.111   1.863
 9614SOL    HW129741   3.903   2.103   1.951
 9614SOL    HW229742   3.807   2.198   1.859
 9615SOL     OW29743   2.535   0.977   1.549
 9615SOL    HW129744   2.520   0.964   1.646
 9615SOL    HW229745   2.492   0.903   1.498
 9616SOL     OW29746   3.359   4.168   1.352
 9616SOL    HW129747   3.427   4.197   1.284
 9616SOL    HW229748   3.389   4.195   1.443
 9617SOL     OW29749   1.905   2.883   3.288
 9617SOL    HW129750   1.842   2.946   3.332
 9617SOL    HW229751   1.860   2.838   3.211
 9618SOL     OW29752   2.841   6.962   0.514
 9618SOL    HW129753   2.826   6.866   0.490
 9618SOL    HW229754   2.896   7.006   0.443
 9619SOL     OW29755   2.207   0.364   6.321
 9619SOL    HW129756   2.172   0.388   6.411
 9619SOL    HW229757   2.156   0.414   6.251
 9620SOL     OW29758   4.599   0.130   6.331
 9620SOL    HW129759   4.595   0.066   6.254
 9620SOL    HW229760   4.596   0.224   6.296
 9621SOL     OW29761   1.803   2.991   2.135
 9621SOL    HW129762   1.746   3.007   2.054
 9621SOL    HW229763   1.882   2.934   2.109
 9622SOL     OW29764   6.894   1.593   0.461
 9622SOL    HW129765   6.839   1.674   0.479
 9622SOL    HW229766   6.939   1.564   0.546
 9623SOL     OW29767   2.730   3.844   5.650
 9623SOL    HW129768   2.714   3.749   5.677
 9623SOL    HW229769   2.649   3.899   5.671
 9624SOL     OW29770   6.906   4.218   2.936
 9624SOL    HW129771   6.879   4.268   2.854
 9624SOL    HW229772   6.826   4.201   2.993
 9625SOL     OW29773   4.871   5.627   6.869
 9625SOL    HW129774   4.958   5.674   6.882
 9625SOL    HW229775   4.877   5.534   6.905
 9626SOL     OW29776   4.726   5.203   0.516
 9626SOL    HW129777   4.783   5.224   0.437
 9626SOL    HW229778   4.784   5.187   0.596
 9627SOL     OW29779   0.399   5.634   5.426
 9627SOL    HW129780   0.369   5.548   5.468
 9627SOL    HW229781   0.447   5.689   5.493
 9628SOL     OW29782   4.748   5.185   0.818
 9628SOL    HW129783   4.674   5.131   0.858
 9628SOL    HW229784   4.832   5.169   0.870
 9629SOL     OW29785   1.118   0.542   1.364
 9629SOL    HW129786   1.059   0.476   1.318
 9629SOL    HW229787   1.097   0.543   1.462
 9630SOL     OW29788   6.320   6.976   4.560
 9630SOL    HW129789   6.300   0.025   4.492
 9630SOL    HW229790   6.251   6.981   4.633
 9631SOL     OW29791   0.074   6.696   6.575
 9631SOL    HW129792   0.078   6.649   6.663
 9631SOL    HW229793   0.050   6.792   6.589
 9632SOL     OW29794   1.589   0.406   2.834
 9632SOL    HW129795   1.551   0.423   2.925
 9632SOL    HW229796   1.602   0.493   2.786
 9633SOL     OW29797   4.804   5.192   6.166
 9633SOL    HW129798   4.834   5.103   6.200
 9633SOL    HW229799   4.705   5.200   6.176
 9634SOL     OW29800   1.703   6.168   3.986
 9634SOL    HW129801   1.620   6.157   4.041
 9634SOL    HW229802   1.681   6.150   3.890
 9635SOL     OW29803   1.872   5.961   5.144
 9635SOL    HW129804   1.779   5.974   5.177
 9635SOL    HW229805   1.932   6.030   5.185
 9636SOL     OW29806   4.088   1.714   5.746
 9636SOL    HW129807   4.010   1.758   5.791
 9636SOL    HW229808   4.055   1.643   5.685
 9637SOL     OW29809   2.708   2.365   6.352
 9637SOL    HW129810   2.734   2.356   6.448
 9637SOL    HW229811   2.614   2.399   6.345
 9638SOL     OW29812   7.017   3.834   6.178
 9638SOL    HW129813   6.945   3.903   6.176
 9638SOL    HW229814   7.014   3.786   6.266
 9639SOL     OW29815   4.009   1.568   2.329
 9639SOL    HW129816   4.023   1.667   2.329
 9639SOL    HW229817   3.948   1.543   2.254
 9640SOL     OW29818   1.907   2.435   3.727
 9640SOL    HW129819   1.829   2.439   3.790
 9640SOL    HW229820   1.929   2.340   3.706
 9641SOL     OW29821   4.096   6.500   0.818
 9641SOL    HW129822   4.008   6.467   0.783
 9641SOL    HW229823   4.086   6.594   0.851
 9642SOL     OW29824   3.191   7.014   4.719
 9642SOL    HW129825   3.145   6.925   4.727
 9642SOL    HW229826   3.123   0.065   4.724
 9643SOL     OW29827   5.321   5.165   3.887
 9643SOL    HW129828   5.343   5.259   3.860
 9643SOL    HW229829   5.337   5.104   3.809
 9644SOL     OW29830   1.118   4.262   6.323
 9644SOL    HW129831   1.073   4.175   6.345
 9644SOL    HW229832   1.187   4.246   6.253
 9645SOL     OW29833   2.838   5.286   4.824
 9645SOL    HW129834   2.867   5.219   4.893
 9645SOL    HW229835   2.743   5.268   4.798
 9646SOL     OW29836   2.902   5.146   2.070
 9646SOL    HW129837   2.870   5.057   2.102
 9646SOL    HW229838   2.979   5.134   2.008
 9647SOL     OW29839   6.251   4.917   1.026
 9647SOL    HW129840   6.244   4.990   0.958
 9647SOL    HW229841   6.347   4.899   1.046
 9648SOL     OW29842   4.325   1.258   0.894
 9648SOL    HW129843   4.325   1.351   0.930
 9648SOL    HW229844   4.379   1.256   0.809
 9649SOL     OW29845   3.003   0.159   0.304
 9649SOL    HW129846   2.913   0.183   0.340
 9649SOL    HW229847   2.997   0.143   0.205
 9650SOL     OW29848   6.544   5.081   2.158
 9650SOL    HW129849   6.623   5.105   2.103
 9650SOL    HW229850   6.551   4.986   2.187
 9651SOL     OW29851   6.970   1.860   5.861
 9651SOL    HW129852   7.000   1.803   5.938
 9651SOL    HW229853   6.871   1.858   5.855
 9652SOL     OW29854   1.468   4.472   1.100
 9652SOL    HW129855   1.481   4.412   1.179
 9652SOL    HW229856   1.383   4.448   1.054
 9653SOL     OW29857   4.342   4.962   4.967
 9653SOL    HW129858   4.378   4.871   4.987
 9653SOL    HW229859   4.380   4.995   4.881
 9654SOL     OW29860   3.116   2.470   1.021
 9654SOL    HW129861   3.161   2.525   1.091
 9654SOL    HW229862   3.150   2.496   0.931
 9655SOL     OW29863   0.316   1.168   6.904
 9655SOL    HW129864   0.339   1.071   6.915
 9655SOL    HW229865   0.280   1.184   6.812
 9656SOL     OW29866   2.271   0.574   2.087
 9656SOL    HW129867   2.350   0.611   2.135
 9656SOL    HW229868   2.190   0.578   2.146
 9657SOL     OW29869   5.364   0.625   4.357
 9657SOL    HW129870   5.350   0.553   4.425
 9657SOL    HW229871   5.420   0.590   4.282
 9658SOL     OW29872   0.110   1.852   2.795
 9658SOL    HW129873   0.123   1.779   2.862
 9658SOL    HW229874   0.019   1.893   2.808
 9659SOL     OW29875   6.421   4.617   0.531
 9659SOL    HW129876   6.427   4.518   0.527
 9659SOL    HW229877   6.335   4.647   0.489
 9660SOL     OW29878   0.246   5.770   0.409
 9660SOL    HW129879   0.227   5.739   0.316
 9660SOL    HW229880   0.210   5.704   0.474
 9661SOL     OW29881   4.599   5.617   1.408
 9661SOL    HW129882   4.687   5.646   1.444
 9661SOL    HW229883   4.529   5.684   1.435
 9662SOL     OW29884   6.593   3.052   4.686
 9662SOL    HW129885   6.616   3.094   4.598
 9662SOL    HW229886   6.574   3.123   4.753
 9663SOL     OW29887   1.649   5.481   4.028
 9663SOL    HW129888   1.618   5.494   4.123
 9663SOL    HW229889   1.578   5.432   3.976
 9664SOL     OW29890   5.150   0.055   2.775
 9664SOL    HW129891   5.142   0.105   2.689
 9664SOL    HW229892   5.126   0.116   2.851
 9665SOL     OW29893   5.868   4.820   5.940
 9665SOL    HW129894   5.866   4.912   5.978
 9665SOL    HW229895   5.954   4.805   5.892
 9666SOL     OW29896   5.700   3.852   1.880
 9666SOL    HW129897   5.763   3.858   1.803
 9666SOL    HW229898   5.687   3.943   1.919
 9667SOL     OW29899   3.886   3.261   4.614
 9667SOL    HW129900   3.849   3.350   4.586
 9667SOL    HW229901   3.923   3.269   4.707
 9668SOL     OW29902   6.786   2.182   6.237
 9668SOL    HW129903   6.826   2.186   6.146
 9668SOL    HW229904   6.837   2.116   6.293
 9669SOL     OW29905   0.698   1.394   0.775
 9669SOL    HW129906   0.647   1.460   0.830
 9669SOL    HW229907   0.727   1.318   0.834
 9670SOL     OW29908   4.312   4.456   5.732
 9670SOL    HW129909   4.366   4.378   5.699
 9670SOL    HW229910   4.314   4.456   5.832
 9671SOL     OW29911   0.311   5.178   6.197
 9671SOL    HW129912   0.280   5.217   6.110
 9671SOL    HW229913   0.354   5.089   6.180
 9672SOL     OW29914   1.156   0.150   4.996
 9672SOL    HW129915   1.131   0.130   4.901
 9672SOL    HW229916   1.120   0.240   5.022
 9673SOL     OW29917   4.139   4.509   6.951
 9673SOL    HW129918   4.189   4.542   0.009
 9673SOL    HW229919   4.203   4.490   6.877
 9674SOL     OW29920   2.708   6.092   2.838
 9674SOL    HW129921   2.793   6.075   2.788
 9674SOL    HW229922   2.713   6.183   2.880
 9675SOL     OW29923   6.003   0.781   2.218
 9675SOL    HW129924   5.944   0.859   2.197
 9675SOL    HW229925   5.951   0.715   2.273
 9676SOL     OW29926   1.478   3.512   5.593
 9676SOL    HW129927   1.495   3.474   5.684
 9676SOL    HW229928   1.444   3.605   5.601
 9677SOL     OW29929   2.662   4.516   5.990
 9677SOL    HW129930   2.588   4.481   5.933
 9677SOL    HW229931   2.730   4.561   5.932
 9678SOL     OW29932   3.426   4.105   2.766
 9678SOL    HW129933   3.522   4.119   2.788
 9678SOL    HW229934   3.396   4.174   2.700
 9679SOL     OW29935   0.550   2.026   1.897
 9679SOL    HW129936   0.509   2.011   1.987
 9679SOL    HW229937   0.502   2.101   1.852
 9680SOL     OW29938   5.744   0.121   3.612
 9680SOL    HW129939   5.750   0.219   3.631
 9680SOL    HW229940   5.788   0.101   3.524
 9681SOL     OW29941   2.537   0.761   1.219
 9681SOL    HW129942   2.489   0.781   1.305
 9681SOL    HW229943   2.591   0.840   1.192
 9682SOL     OW29944   5.096   5.491   3.169
 9682SOL    HW129945   5.087   5.435   3.251
 9682SOL    HW229946   5.046   5.448   3.093
 9683SOL     OW29947   4.145   5.391   0.650
 9683SOL    HW129948   4.204   5.426   0.576
 9683SOL    HW229949   4.142   5.458   0.724
 9684SOL     OW29950   0.684   3.622   5.253
 9684SOL    HW129951   0.767   3.568   5.270
 9684SOL    HW229952   0.650   3.659   5.339
 9685SOL     OW29953   2.370   2.637   1.108
 9685SOL    HW129954   2.454   2.584   1.117
 9685SOL    HW229955   2.374   2.716   1.169
 9686SOL     OW29956   6.452   1.675   0.610
 9686SOL    HW129957   6.352   1.681   0.606
 9686SOL    HW229958   6.480   1.657   0.704
 9687SOL     OW29959   1.794   0.407   2.463
 9687SOL    HW129960   1.766   0.434   2.371
 9687SOL    HW229961   1.887   0.370   2.460
 9688SOL     OW29962   6.727   2.317   3.286
 9688SOL    HW129963   6.662   2.367   3.229
 9688SOL    HW229964   6.770   2.244   3.233
 9689SOL     OW29965   1.833   0.022   0.257
 9689SOL    HW129966   1.778   0.099   0.290
 9689SOL    HW229967   1.772   6.972   0.223
 9690SOL     OW29968   5.701   4.907   6.626
 9690SOL    HW129969   5.646   4.844   6.680
 9690SOL    HW229970   5.793   4.913   6.664
 9691SOL     OW29971   2.357   4.574   1.626
 9691SOL    HW129972   2.278   4.635   1.617
 9691SOL    HW229973   2.388   4.573   1.721
 9692SOL     OW29974   2.220   5.176   3.036
 9692SOL    HW129975   2.135   5.154   2.988
 9692SOL    HW229976   2.292   5.112   3.009
 9693SOL     OW29977   0.029   5.468   1.781
 9693SOL    HW129978   6.998   5.506   1.705
 9693SOL    HW229979   0.038   5.369   1.770
 9694SOL     OW29980   1.790   1.268   6.619
 9694SOL    HW129981   1.787   1.191   6.683
 9694SOL    HW229982   1.698   1.306   6.606
 9695SOL     OW29983   5.667   4.480   1.203
 9695SOL    HW129984   5.685   4.385   1.178
 9695SOL    HW229985   5.670   4.537   1.121
 9696SOL     OW29986   4.236   2.534   1.764
 9696SOL    HW129987   4.237   2.507   1.668
 9696SOL    HW229988   4.279   2.624   1.774
 9697SOL     OW29989   0.346   5.056   0.072
 9697SOL    HW129990   0.429   5.056   0.016
 9697SOL    HW229991   0.268   5.029   0.016
 9698SOL     OW29992   6.284   0.944   5.324
 9698SOL    HW129993   6.287   0.931   5.225
 9698SOL    HW229994   6.355   1.010   5.351
 9699SOL     OW29995   0.747   3.895   6.151
 9699SOL    HW129996   0.847   3.893   6.149
 9699SOL    HW229997   0.716   3.975   6.203
 9700SOL     OW29998   4.058   4.851   5.785
 9700SOL    HW129999   4.009   4.931   5.752
 9700SOL    HW230000   4.112   4.876   5.866
 9701SOL     OW30001   3.847   5.917   4.995
 9701SOL    HW130002   3.848   5.819   5.017
 9701SOL    HW230003   3.842   5.970   5.080
 9702SOL     OW30004   5.308   0.725   0.160
 9702SOL    HW130005   5.354   0.802   0.115
 9702SOL    HW230006   5.335   0.640   0.115
 9703SOL     OW30007   3.287   6.015   4.169
 9703SOL    HW130008   3.334   5.927   4.178
 9703SOL    HW230009   3.260   6.028   4.073
 9704SOL     OW30010   3.121   0.426   2.628
 9704SOL    HW130011   3.178   0.473   2.695
 9704SOL    HW230012   3.145   0.456   2.536
 9705SOL     OW30013   5.030   4.667   0.302
 9705SOL    HW130014   5.061   4.737   0.237
 9705SOL    HW230015   4.967   4.709   0.368
 9706SOL     OW30016   6.653   2.148   0.623
 9706SOL    HW130017   6.574   2.094   0.654
 9706SOL    HW230018   6.702   2.097   0.552
 9707SOL     OW30019   0.304   4.311   1.979
 9707SOL    HW130020   0.386   4.289   2.032
 9707SOL    HW230021   0.321   4.393   1.925
 9708SOL     OW30022   1.880   2.430   3.177
 9708SOL    HW130023   1.914   2.350   3.227
 9708SOL    HW230024   1.790   2.456   3.212
 9709SOL     OW30025   0.864   5.747   3.751
 9709SOL    HW130026   0.926   5.819   3.721
 9709SOL    HW230027   0.878   5.665   3.695
 9710SOL     OW30028   0.463   0.901   2.804
 9710SOL    HW130029   0.443   0.824   2.743
 9710SOL    HW230030   0.381   0.958   2.813
 9711SOL     OW30031   1.406   3.649   5.869
 9711SOL    HW130032   1.481   3.583   5.867
 9711SOL    HW230033   1.399   3.689   5.960
 9712SOL     OW30034   5.272   2.820   4.876
 9712SOL    HW130035   5.303   2.773   4.959
 9712SOL    HW230036   5.284   2.759   4.797
 9713SOL     OW30037   0.292   4.469   2.854
 9713SOL    HW130038   0.277   4.479   2.756
 9713SOL    HW230039   0.217   4.415   2.894
 9714SOL     OW30040   1.653   1.612   1.567
 9714SOL    HW130041   1.706   1.625   1.483
 9714SOL    HW230042   1.565   1.571   1.544
 9715SOL     OW30043   6.875   5.380   4.339
 9715SOL    HW130044   6.925   5.439   4.276
 9715SOL    HW230045   6.790   5.425   4.366
 9716SOL     OW30046   3.793   2.228   7.003
 9716SOL    HW130047   3.752   2.172   0.052
 9716SOL    HW230048   3.728   2.298   6.973
 9717SOL     OW30049   5.833   5.723   4.587
 9717SOL    HW130050   5.869   5.765   4.670
 9717SOL    HW230051   5.736   5.700   4.600
 9718SOL     OW30052   4.621   2.828   1.619
 9718SOL    HW130053   4.699   2.766   1.610
 9718SOL    HW230054   4.652   2.918   1.650
 9719SOL     OW30055   0.587   2.053   6.770
 9719SOL    HW130056   0.529   1.980   6.803
 9719SOL    HW230057   0.552   2.141   6.802
 9720SOL     OW30058   0.728   5.965   1.806
 9720SOL    HW130059   0.810   5.966   1.749
 9720SOL    HW230060   0.647   5.955   1.748
 9721SOL     OW30061   0.616   2.720   2.141
 9721SOL    HW130062   0.596   2.818   2.141
 9721SOL    HW230063   0.569   2.677   2.063
 9722SOL     OW30064   0.609   0.068   3.543
 9722SOL    HW130065   0.638   0.141   3.605
 9722SOL    HW230066   0.559   0.108   3.467
 9723SOL     OW30067   0.937   6.258   3.185
 9723SOL    HW130068   0.864   6.257   3.254
 9723SOL    HW230069   0.895   6.255   3.094
 9724SOL     OW30070   3.032   2.717   1.675
 9724SOL    HW130071   3.044   2.661   1.757
 9724SOL    HW230072   3.122   2.751   1.645
 9725SOL     OW30073   4.138   3.317   6.238
 9725SOL    HW130074   4.076   3.243   6.213
 9725SOL    HW230075   4.128   3.392   6.173
 9726SOL     OW30076   4.931   0.594   4.829
 9726SOL    HW130077   4.976   0.669   4.877
 9726SOL    HW230078   4.869   0.547   4.891
 9727SOL     OW30079   1.533   3.937   5.226
 9727SOL    HW130080   1.448   3.958   5.275
 9727SOL    HW230081   1.553   3.839   5.235
 9728SOL     OW30082   1.773   6.670   6.879
 9728SOL    HW130083   1.839   6.612   6.927
 9728SOL    HW230084   1.685   6.622   6.872
 9729SOL     OW30085   1.258   4.643   2.751
 9729SOL    HW130086   1.161   4.621   2.741
 9729SOL    HW230087   1.292   4.607   2.838
 9730SOL     OW30088   0.335   3.055   2.798
 9730SOL    HW130089   0.280   2.979   2.764
 9730SOL    HW230090   0.320   3.067   2.896
 9731SOL     OW30091   4.183   4.977   1.006
 9731SOL    HW130092   4.240   4.921   1.067
 9731SOL    HW230093   4.110   4.921   0.969
 9732SOL     OW30094   6.155   6.228   3.068
 9732SOL    HW130095   6.073   6.285   3.057
 9732SOL    HW230096   6.230   6.284   3.104
 9733SOL     OW30097   5.957   5.125   4.461
 9733SOL    HW130098   6.013   5.044   4.448
 9733SOL    HW230099   6.015   5.201   4.492
 9734SOL     OW30100   5.485   1.718   4.054
 9734SOL    HW130101   5.385   1.718   4.063
 9734SOL    HW230102   5.510   1.691   3.961
 9735SOL     OW30103   1.988   4.636   2.667
 9735SOL    HW130104   2.018   4.695   2.742
 9735SOL    HW230105   2.062   4.625   2.601
 9736SOL     OW30106   5.021   0.863   6.530
 9736SOL    HW130107   4.943   0.870   6.469
 9736SOL    HW230108   4.995   0.812   6.612
 9737SOL     OW30109   4.492   2.471   5.001
 9737SOL    HW130110   4.541   2.554   5.031
 9737SOL    HW230111   4.395   2.492   4.991
 9738SOL     OW30112   1.835   0.311   2.952
 9738SOL    HW130113   1.816   0.215   2.973
 9738SOL    HW230114   1.761   0.349   2.896
 9739SOL     OW30115   0.620   5.146   1.487
 9739SOL    HW130116   0.708   5.188   1.511
 9739SOL    HW230117   0.628   5.099   1.399
 9740SOL     OW30118   6.316   3.550   3.107
 9740SOL    HW130119   6.270   3.542   3.196
 9740SOL    HW230120   6.271   3.489   3.041
 9741SOL     OW30121   4.578   1.335   2.650
 9741SOL    HW130122   4.561   1.237   2.661
 9741SOL    HW230123   4.523   1.386   2.716
 9742SOL     OW30124   4.413   0.175   2.944
 9742SOL    HW130125   4.362   0.126   3.014
 9742SOL    HW230126   4.488   0.117   2.910
 9743SOL     OW30127   1.693   2.469   5.662
 9743SOL    HW130128   1.715   2.564   5.684
 9743SOL    HW230129   1.733   2.446   5.573
 9744SOL     OW30130   0.745   0.541   2.205
 9744SOL    HW130131   0.729   0.452   2.162
 9744SOL    HW230132   0.752   0.529   2.304
 9745SOL     OW30133   0.698   2.555   5.916
 9745SOL    HW130134   0.604   2.587   5.901
 9745SOL    HW230135   0.746   2.549   5.829
 9746SOL     OW30136   5.036   1.662   5.070
 9746SOL    HW130137   4.966   1.673   5.140
 9746SOL    HW230138   5.122   1.702   5.102
 9747SOL     OW30139   1.327   1.606   1.289
 9747SOL    HW130140   1.353   1.698   1.321
 9747SOL    HW230141   1.304   1.549   1.368
 9748SOL     OW30142   0.894   6.948   5.503
 9748SOL    HW130143   0.815   6.921   5.558
 9748SOL    HW230144   0.921   6.873   5.443
 9749SOL     OW30145   1.331   2.550   5.499
 9749SOL    HW130146   1.323   2.578   5.595
 9749SOL    HW230147   1.427   2.552   5.471
 9750SOL     OW30148   5.900   5.279   3.926
 9750SOL    HW130149   5.962   5.201   3.911
 9750SOL    HW230150   5.877   5.321   3.838
 9751SOL     OW30151   2.197   1.678   1.168
 9751SOL    HW130152   2.214   1.776   1.159
 9751SOL    HW230153   2.257   1.640   1.239
 9752SOL     OW30154   4.750   0.637   6.299
 9752SOL    HW130155   4.835   0.667   6.256
 9752SOL    HW230156   4.749   0.537   6.305
 9753SOL     OW30157   6.360   6.417   4.625
 9753SOL    HW130158   6.421   6.381   4.555
 9753SOL    HW230159   6.323   6.341   4.678
 9754SOL     OW30160   1.022   1.608   7.016
 9754SOL    HW130161   0.993   1.516   0.021
 9754SOL    HW230162   1.055   1.606   6.922
 9755SOL     OW30163   4.224   3.772   5.248
 9755SOL    HW130164   4.295   3.807   5.310
 9755SOL    HW230165   4.139   3.822   5.263
 9756SOL     OW30166   5.789   2.944   0.186
 9756SOL    HW130167   5.724   2.983   0.121
 9756SOL    HW230168   5.848   3.016   0.222
 9757SOL     OW30169   4.831   3.166   3.928
 9757SOL    HW130170   4.794   3.144   3.837
 9757SOL    HW230171   4.853   3.081   3.976
 9758SOL     OW30172   1.834   0.192   5.719
 9758SOL    HW130173   1.859   0.289   5.712
 9758SOL    HW230174   1.750   0.184   5.772
 9759SOL     OW30175   2.299   0.203   0.983
 9759SOL    HW130176   2.301   0.302   1.001
 9759SOL    HW230177   2.217   0.163   1.025
 9760SOL     OW30178   5.271   4.362   5.183
 9760SOL    HW130179   5.341   4.318   5.126
 9760SOL    HW230180   5.244   4.449   5.143
 9761SOL     OW30181   5.602   5.438   1.697
 9761SOL    HW130182   5.654   5.432   1.782
 9761SOL    HW230183   5.649   5.386   1.625
 9762SOL     OW30184   2.385   1.802   4.581
 9762SOL    HW130185   2.425   1.878   4.530
 9762SOL    HW230186   2.307   1.765   4.532
 9763SOL     OW30187   4.771   1.496   1.993
 9763SOL    HW130188   4.787   1.414   1.937
 9763SOL    HW230189   4.677   1.527   1.981
 9764SOL     OW30190   1.537   2.041   3.372
 9764SOL    HW130191   1.616   2.026   3.313
 9764SOL    HW230192   1.565   2.038   3.468
 9765SOL     OW30193   6.399   2.312   5.037
 9765SOL    HW130194   6.472   2.273   5.093
 9765SOL    HW230195   6.311   2.273   5.067
 9766SOL     OW30196   2.641   0.496   2.434
 9766SOL    HW130197   2.576   0.420   2.432
 9766SOL    HW230198   2.731   0.462   2.461
 9767SOL     OW30199   5.211   1.849   4.743
 9767SOL    HW130200   5.196   1.922   4.678
 9767SOL    HW230201   5.140   1.852   4.814
 9768SOL     OW30202   5.010   2.218   1.998
 9768SOL    HW130203   5.037   2.187   1.907
 9768SOL    HW230204   5.071   2.291   2.028
 9769SOL     OW30205   1.290   2.469   1.352
 9769SOL    HW130206   1.301   2.370   1.357
 9769SOL    HW230207   1.323   2.502   1.263
 9770SOL     OW30208   5.870   5.469   6.136
 9770SOL    HW130209   5.944   5.458   6.069
 9770SOL    HW230210   5.831   5.379   6.157
 9771SOL     OW30211   4.564   4.338   0.960
 9771SOL    HW130212   4.471   4.364   0.984
 9771SOL    HW230213   4.593   4.262   1.017
 9772SOL     OW30214   6.867   6.873   1.911
 9772SOL    HW130215   6.827   6.948   1.964
 9772SOL    HW230216   6.965   6.890   1.898
 9773SOL     OW30217   5.802   6.260   3.871
 9773SOL    HW130218   5.790   6.269   3.772
 9773SOL    HW230219   5.745   6.328   3.917
 9774SOL     OW30220   5.839   5.089   3.537
 9774SOL    HW130221   5.864   5.040   3.621
 9774SOL    HW230222   5.766   5.154   3.556
 9775SOL     OW30223   2.124   2.116   4.629
 9775SOL    HW130224   2.044   2.176   4.622
 9775SOL    HW230225   2.111   2.052   4.705
 9776SOL     OW30226   0.237   5.631   4.170
 9776SOL    HW130227   0.140   5.646   4.191
 9776SOL    HW230228   0.291   5.645   4.253
 9777SOL     OW30229   6.303   4.840   6.068
 9777SOL    HW130230   6.228   4.810   6.127
 9777SOL    HW230231   6.381   4.779   6.079
 9778SOL     OW30232   5.171   0.030   3.275
 9778SOL    HW130233   5.166   0.126   3.304
 9778SOL    HW230234   5.078   7.015   3.270
 9779SOL     OW30235   2.713   1.442   4.766
 9779SOL    HW130236   2.734   1.467   4.672
 9779SOL    HW230237   2.786   1.475   4.826
 9780SOL     OW30238   1.892   2.936   0.729
 9780SOL    HW130239   1.887   3.036   0.726
 9780SOL    HW230240   1.804   2.898   0.701
 9781SOL     OW30241   1.817   4.360   4.296
 9781SOL    HW130242   1.736   4.342   4.240
 9781SOL    HW230243   1.894   4.307   4.260
 9782SOL     OW30244   6.690   0.203   1.035
 9782SOL    HW130245   6.650   0.196   1.126
 9782SOL    HW230246   6.661   0.289   0.992
 9783SOL     OW30247   6.171   1.008   1.285
 9783SOL    HW130248   6.148   1.065   1.206
 9783SOL    HW230249   6.254   1.043   1.328
 9784SOL     OW30250   4.142   1.264   3.385
 9784SOL    HW130251   4.241   1.277   3.389
 9784SOL    HW230252   4.098   1.326   3.449
 9785SOL     OW30253   0.233   2.886   3.126
 9785SOL    HW130254   0.216   2.797   3.083
 9785SOL    HW230255   0.309   2.878   3.190
 9786SOL     OW30256   1.943   4.564   6.279
 9786SOL    HW130257   1.875   4.504   6.237
 9786SOL    HW230258   1.931   4.657   6.245
 9787SOL     OW30259   5.187   3.268   1.846
 9787SOL    HW130260   5.092   3.256   1.819
 9787SOL    HW230261   5.192   3.295   1.942
 9788SOL     OW30262   0.211   0.005   4.373
 9788SOL    HW130263   0.245   0.015   4.466
 9788SOL    HW230264   0.119   0.045   4.367
 9789SOL     OW30265   2.493   5.323   6.094
 9789SOL    HW130266   2.522   5.254   6.027
 9789SOL    HW230267   2.398   5.305   6.121
 9790SOL     OW30268   5.580   1.969   4.029
 9790SOL    HW130269   5.615   2.006   4.114
 9790SOL    HW230270   5.547   1.876   4.043
 9791SOL     OW30271   1.015   1.496   1.485
 9791SOL    HW130272   1.047   1.465   1.574
 9791SOL    HW230273   1.030   1.595   1.477
 9792SOL     OW30274   4.617   5.131   1.682
 9792SOL    HW130275   4.553   5.190   1.633
 9792SOL    HW230276   4.577   5.040   1.692
 9793SOL     OW30277   5.186   5.909   2.741
 9793SOL    HW130278   5.097   5.951   2.722
 9793SOL    HW230279   5.245   5.975   2.788
 9794SOL     OW30280   4.970   3.122   6.363
 9794SOL    HW130281   5.012   3.049   6.310
 9794SOL    HW230282   4.875   3.135   6.335
 9795SOL     OW30283   1.369   3.049   4.229
 9795SOL    HW130284   1.285   3.101   4.240
 9795SOL    HW230285   1.420   3.049   4.315
 9796SOL     OW30286   3.121   5.114   0.895
 9796SOL    HW130287   3.042   5.054   0.904
 9796SOL    HW230288   3.186   5.075   0.831
 9797SOL     OW30289   4.458   3.361   6.750
 9797SOL    HW130290   4.533   3.418   6.716
 9797SOL    HW230291   4.432   3.391   6.842
 9798SOL     OW30292   2.175   0.269   1.401
 9798SOL    HW130293   2.199   0.208   1.325
 9798SOL    HW230294   2.259   0.299   1.447
 9799SOL     OW30295   3.329   3.022   2.668
 9799SOL    HW130296   3.315   2.961   2.590
 9799SOL    HW230297   3.427   3.036   2.682
 9800SOL     OW30298   4.149   5.915   6.421
 9800SOL    HW130299   4.151   5.871   6.331
 9800SOL    HW230300   4.076   5.875   6.476
 9801SOL     OW30301   5.006   5.489   0.248
 9801SOL    HW130302   5.087   5.491   0.189
 9801SOL    HW230303   4.969   5.582   0.256
 9802SOL     OW30304   0.530   3.236   1.497
 9802SOL    HW130305   0.469   3.308   1.464
 9802SOL    HW230306   0.510   3.218   1.594
 9803SOL     OW30307   6.147   6.904   6.635
 9803SOL    HW130308   6.223   6.853   6.594
 9803SOL    HW230309   6.181   6.957   6.712
 9804SOL     OW30310   0.189   5.164   3.521
 9804SOL    HW130311   0.184   5.242   3.458
 9804SOL    HW230312   0.179   5.079   3.469
 9805SOL     OW30313   1.289   5.288   6.840
 9805SOL    HW130314   1.376   5.329   6.811
 9805SOL    HW230315   1.295   5.263   6.936
 9806SOL     OW30316   0.631   2.441   1.608
 9806SOL    HW130317   0.621   2.357   1.557
 9806SOL    HW230318   0.696   2.502   1.562
 9807SOL     OW30319   4.128   1.615   0.258
 9807SOL    HW130320   4.070   1.536   0.238
 9807SOL    HW230321   4.072   1.687   0.300
 9808SOL     OW30322   5.996   1.602   5.096
 9808SOL    HW130323   5.926   1.581   5.028
 9808SOL    HW230324   6.030   1.518   5.138
 9809SOL     OW30325   1.107   1.608   5.516
 9809SOL    HW130326   1.139   1.545   5.587
 9809SOL    HW230327   1.049   1.559   5.452
 9810SOL     OW30328   2.566   1.472   3.224
 9810SOL    HW130329   2.505   1.475   3.145
 9810SOL    HW230330   2.548   1.550   3.284
 9811SOL     OW30331   6.801   6.393   3.371
 9811SOL    HW130332   6.788   6.361   3.465
 9811SOL    HW230333   6.784   6.491   3.366
 9812SOL     OW30334   4.506   2.072   5.987
 9812SOL    HW130335   4.527   2.156   6.036
 9812SOL    HW230336   4.513   2.088   5.888
 9813SOL     OW30337   6.126   5.697   0.219
 9813SOL    HW130338   6.222   5.696   0.245
 9813SOL    HW230339   6.077   5.628   0.272
 9814SOL     OW30340   6.595   0.444   5.651
 9814SOL    HW130341   6.558   0.499   5.726
 9814SOL    HW230342   6.548   0.466   5.566
 9815SOL     OW30343   6.486   3.230   1.511
 9815SOL    HW130344   6.513   3.219   1.416
 9815SOL    HW230345   6.449   3.322   1.525
 9816SOL     OW30346   6.583   0.357   0.060
 9816SOL    HW130347   6.671   0.347   0.105
 9816SOL    HW230348   6.516   0.395   0.123
 9817SOL     OW30349   3.155   5.718   1.854
 9817SOL    HW130350   3.099   5.794   1.888
 9817SOL    HW230351   3.131   5.699   1.759
 9818SOL     OW30352   2.005   1.245   3.451
 9818SOL    HW130353   1.934   1.177   3.429
 9818SOL    HW230354   2.073   1.247   3.378
 9819SOL     OW30355   5.783   3.400   4.899
 9819SOL    HW130356   5.858   3.347   4.938
 9819SOL    HW230357   5.755   3.470   4.965
 9820SOL     OW30358   2.919   1.889   6.364
 9820SOL    HW130359   2.881   1.978   6.337
 9820SOL    HW230360   3.015   1.900   6.388
 9821SOL     OW30361   4.273   1.846   1.866
 9821SOL    HW130362   4.191   1.896   1.837
 9821SOL    HW230363   4.353   1.889   1.824
 9822SOL     OW30364   4.137   6.068   4.637
 9822SOL    HW130365   4.180   6.148   4.596
 9822SOL    HW230366   4.046   6.091   4.670
 9823SOL     OW30367   1.013   0.631   2.144
 9823SOL    HW130368   0.941   0.562   2.137
 9823SOL    HW230369   1.055   0.645   2.054
 9824SOL     OW30370   2.130   6.455   5.687
 9824SOL    HW130371   2.133   6.504   5.600
 9824SOL    HW230372   2.152   6.359   5.672
 9825SOL     OW30373   5.133   5.962   5.551
 9825SOL    HW130374   5.114   5.871   5.589
 9825SOL    HW230375   5.178   6.018   5.621
 9826SOL     OW30376   3.221   0.061   5.157
 9826SOL    HW130377   3.240   0.149   5.115
 9826SOL    HW230378   3.291   0.041   5.226
 9827SOL     OW30379   2.031   5.661   2.534
 9827SOL    HW130380   1.936   5.685   2.554
 9827SOL    HW230381   2.058   5.700   2.446
 9828SOL     OW30382   4.064   1.839   4.803
 9828SOL    HW130383   4.020   1.868   4.889
 9828SOL    HW230384   4.131   1.908   4.776
 9829SOL     OW30385   4.323   5.948   5.851
 9829SOL    HW130386   4.364   6.027   5.897
 9829SOL    HW230387   4.395   5.884   5.824
 9830SOL     OW30388   5.829   2.087   2.722
 9830SOL    HW130389   5.927   2.069   2.709
 9830SOL    HW230390   5.779   2.001   2.724
 9831SOL     OW30391   0.831   3.992   2.372
 9831SOL    HW130392   0.749   3.964   2.322
 9831SOL    HW230393   0.908   3.935   2.343
 9832SOL     OW30394   4.744   4.451   4.782
 9832SOL    HW130395   4.716   4.482   4.691
 9832SOL    HW230396   4.669   4.465   4.847
 9833SOL     OW30397   3.402   3.988   4.222
 9833SOL    HW130398   3.405   3.989   4.322
 9833SOL    HW230399   3.487   3.948   4.187
 9834SOL     OW30400   2.602   5.545   5.536
 9834SOL    HW130401   2.625   5.552   5.633
 9834SOL    HW230402   2.555   5.459   5.519
 9835SOL     OW30403   3.504   4.153   5.186
 9835SOL    HW130404   3.568   4.201   5.246
 9835SOL    HW230405   3.546   4.136   5.097
 9836SOL     OW30406   0.863   3.559   5.769
 9836SOL    HW130407   0.805   3.540   5.689
 9836SOL    HW230408   0.922   3.480   5.787
 9837SOL     OW30409   5.735   1.830   1.710
 9837SOL    HW130410   5.820   1.879   1.729
 9837SOL    HW230411   5.753   1.758   1.643
 9838SOL     OW30412   0.651   5.696   0.909
 9838SOL    HW130413   0.629   5.623   0.845
 9838SOL    HW230414   0.567   5.732   0.950
 9839SOL     OW30415   4.338   1.223   2.202
 9839SOL    HW130416   4.384   1.179   2.125
 9839SOL    HW230417   4.302   1.312   2.174
 9840SOL     OW30418   5.842   1.915   0.166
 9840SOL    HW130419   5.890   1.919   0.254
 9840SOL    HW230420   5.783   1.834   0.164
 9841SOL     OW30421   0.114   5.566   3.516
 9841SOL    HW130422   0.207   5.535   3.536
 9841SOL    HW230423   0.089   5.639   3.579
 9842SOL     OW30424   3.500   1.896   0.363
 9842SOL    HW130425   3.497   1.903   0.463
 9842SOL    HW230426   3.595   1.882   0.334
 9843SOL     OW30427   6.949   6.228   0.862
 9843SOL    HW130428   6.919   6.197   0.952
 9843SOL    HW230429   6.941   6.328   0.856
 9844SOL     OW30430   4.963   0.072   4.518
 9844SOL    HW130431   4.915   0.148   4.562
 9844SOL    HW230432   5.044   0.106   4.471
 9845SOL     OW30433   1.733   2.621   1.892
 9845SOL    HW130434   1.690   2.643   1.980
 9845SOL    HW230435   1.744   2.521   1.885
 9846SOL     OW30436   5.401   1.191   1.311
 9846SOL    HW130437   5.447   1.102   1.307
 9846SOL    HW230438   5.460   1.256   1.358
 9847SOL     OW30439   3.782   3.602   0.721
 9847SOL    HW130440   3.847   3.576   0.793
 9847SOL    HW230441   3.694   3.559   0.739
 9848SOL     OW30442   3.426   3.254   5.068
 9848SOL    HW130443   3.468   3.271   4.979
 9848SOL    HW230444   3.408   3.157   5.078
 9849SOL     OW30445   0.931   1.306   6.430
 9849SOL    HW130446   1.026   1.283   6.406
 9849SOL    HW230447   0.870   1.280   6.355
 9850SOL     OW30448   0.555   0.579   4.334
 9850SOL    HW130449   0.463   0.558   4.366
 9850SOL    HW230450   0.550   0.615   4.240
 9851SOL     OW30451   3.859   4.890   4.392
 9851SOL    HW130452   3.892   4.984   4.403
 9851SOL    HW230453   3.759   4.889   4.393
 9852SOL     OW30454   1.792   1.118   6.158
 9852SOL    HW130455   1.831   1.095   6.247
 9852SOL    HW230456   1.760   1.213   6.160
 9853SOL     OW30457   0.184   4.156   4.051
 9853SOL    HW130458   0.118   4.150   4.125
 9853SOL    HW230459   0.172   4.242   4.002
 9854SOL     OW30460   0.633   5.861   6.048
 9854SOL    HW130461   0.609   5.802   6.125
 9854SOL    HW230462   0.609   5.956   6.071
 9855SOL     OW30463   1.229   3.380   0.801
 9855SOL    HW130464   1.236   3.282   0.782
 9855SOL    HW230465   1.186   3.394   0.890
 9856SOL     OW30466   5.519   3.970   3.430
 9856SOL    HW130467   5.582   4.020   3.370
 9856SOL    HW230468   5.425   3.985   3.398
 9857SOL     OW30469   4.686   1.982   3.373
 9857SOL    HW130470   4.712   2.076   3.395
 9857SOL    HW230471   4.764   1.936   3.329
 9858SOL     OW30472   0.199   6.009   2.358
 9858SOL    HW130473   0.141   6.051   2.427
 9858SOL    HW230474   0.239   5.925   2.394
 9859SOL     OW30475   0.262   5.321   4.946
 9859SOL    HW130476   0.184   5.277   4.901
 9859SOL    HW230477   0.269   5.416   4.916
 9860SOL     OW30478   1.791   2.411   5.414
 9860SOL    HW130479   1.716   2.374   5.359
 9860SOL    HW230480   1.835   2.486   5.364
 9861SOL     OW30481   3.052   1.466   4.300
 9861SOL    HW130482   3.107   1.549   4.314
 9861SOL    HW230483   3.113   1.389   4.281
 9862SOL     OW30484   1.898   4.887   0.962
 9862SOL    HW130485   1.863   4.980   0.963
 9862SOL    HW230486   1.964   4.876   1.037
 9863SOL     OW30487   3.231   6.078   1.341
 9863SOL    HW130488   3.192   6.079   1.248
 9863SOL    HW230489   3.188   6.005   1.394
 9864SOL     OW30490   3.004   6.189   5.280
 9864SOL    HW130491   3.027   6.263   5.343
 9864SOL    HW230492   3.079   6.176   5.215
 9865SOL     OW30493   0.753   6.373   5.717
 9865SOL    HW130494   0.670   6.418   5.751
 9865SOL    HW230495   0.834   6.423   5.748
 9866SOL     OW30496   6.542   4.358   4.515
 9866SOL    HW130497   6.619   4.330   4.572
 9866SOL    HW230498   6.458   4.352   4.569
 9867SOL     OW30499   4.989   2.110   1.530
 9867SOL    HW130500   5.069   2.050   1.524
 9867SOL    HW230501   4.975   2.155   1.442
 9868SOL     OW30502   0.990   4.550   3.100
 9868SOL    HW130503   0.997   4.491   3.181
 9868SOL    HW230504   1.081   4.565   3.062
 9869SOL     OW30505   6.764   2.666   1.262
 9869SOL    HW130506   6.799   2.609   1.336
 9869SOL    HW230507   6.726   2.751   1.299
 9870SOL     OW30508   3.321   1.407   1.812
 9870SOL    HW130509   3.338   1.504   1.796
 9870SOL    HW230510   3.227   1.385   1.784
 9871SOL     OW30511   0.193   3.730   5.218
 9871SOL    HW130512   0.143   3.809   5.183
 9871SOL    HW230513   0.167   3.648   5.168
 9872SOL     OW30514   2.028   5.005   5.214
 9872SOL    HW130515   2.024   5.057   5.129
 9872SOL    HW230516   2.035   5.069   5.291
 9873SOL     OW30517   2.584   2.247   5.676
 9873SOL    HW130518   2.585   2.272   5.773
 9873SOL    HW230519   2.567   2.329   5.621
 9874SOL     OW30520   0.051   2.813   5.032
 9874SOL    HW130521   0.064   2.793   4.935
 9874SOL    HW230522   6.980   2.790   5.059
 9875SOL     OW30523   6.919   5.887   0.557
 9875SOL    HW130524   6.990   5.956   0.547
 9875SOL    HW230525   6.838   5.928   0.598
 9876SOL     OW30526   2.062   6.286   3.200
 9876SOL    HW130527   2.158   6.306   3.182
 9876SOL    HW230528   2.009   6.371   3.194
 9877SOL     OW30529   1.096   5.064   4.550
 9877SOL    HW130530   1.131   4.971   4.545
 9877SOL    HW230531   1.173   5.128   4.557
 9878SOL     OW30532   1.900   2.917   0.077
 9878SOL    HW130533   1.887   2.919   0.176
 9878SOL    HW230534   1.996   2.895   0.056
 9879SOL     OW30535   0.492   4.427   5.990
 9879SOL    HW130536   0.570   4.406   5.931
 9879SOL    HW230537   0.457   4.518   5.969
 9880SOL     OW30538   2.941   1.719   0.126
 9880SOL    HW130539   2.975   1.720   0.033
 9880SOL    HW230540   2.982   1.794   0.178
 9881SOL     OW30541   5.215   0.292   4.786
 9881SOL    HW130542   5.126   0.265   4.824
 9881SOL    HW230543   5.214   0.280   4.687
 9882SOL     OW30544   4.098   3.272   4.405
 9882SOL    HW130545   4.110   3.196   4.341
 9882SOL    HW230546   4.017   3.257   4.461
 9883SOL     OW30547   2.193   6.836   1.452
 9883SOL    HW130548   2.188   6.922   1.503
 9883SOL    HW230549   2.281   6.830   1.404
 9884SOL     OW30550   2.132   3.654   6.506
 9884SOL    HW130551   2.184   3.707   6.572
 9884SOL    HW230552   2.193   3.621   6.433
 9885SOL     OW30553   6.482   3.146   3.985
 9885SOL    HW130554   6.550   3.072   3.990
 9885SOL    HW230555   6.528   3.233   3.968
 9886SOL     OW30556   4.861   6.183   1.619
 9886SOL    HW130557   4.939   6.236   1.654
 9886SOL    HW230558   4.837   6.217   1.528
 9887SOL     OW30559   3.772   6.679   0.649
 9887SOL    HW130560   3.692   6.703   0.704
 9887SOL    HW230561   3.742   6.646   0.560
 9888SOL     OW30562   5.994   5.264   2.197
 9888SOL    HW130563   5.921   5.307   2.250
 9888SOL    HW230564   6.004   5.169   2.226
 9889SOL     OW30565   0.286   4.884   3.116
 9889SOL    HW130566   0.293   4.853   3.021
 9889SOL    HW230567   0.274   4.984   3.117
 9890SOL     OW30568   6.756   4.024   1.741
 9890SOL    HW130569   6.854   4.037   1.731
 9890SOL    HW230570   6.734   4.013   1.838
 9891SOL     OW30571   5.246   5.060   0.867
 9891SOL    HW130572   5.256   4.966   0.834
 9891SOL    HW230573   5.314   5.118   0.822
 9892SOL     OW30574   1.978   5.162   3.913
 9892SOL    HW130575   2.061   5.210   3.884
 9892SOL    HW230576   1.935   5.211   3.989
 9893SOL     OW30577   6.362   5.074   3.201
 9893SOL    HW130578   6.304   5.021   3.262
 9893SOL    HW230579   6.306   5.123   3.135
 9894SOL     OW30580   3.597   2.663   5.722
 9894SOL    HW130581   3.633   2.744   5.675
 9894SOL    HW230582   3.574   2.593   5.654
 9895SOL     OW30583   5.368   2.701   6.473
 9895SOL    HW130584   5.425   2.758   6.414
 9895SOL    HW230585   5.409   2.693   6.563
 9896SOL     OW30586   3.799   4.042   0.678
 9896SOL    HW130587   3.726   4.088   0.628
 9896SOL    HW230588   3.878   4.103   0.688
 9897SOL     OW30589   5.726   1.836   2.643
 9897SOL    HW130590   5.804   1.780   2.614
 9897SOL    HW230591   5.649   1.776   2.665
 9898SOL     OW30592   1.669   5.532   5.810
 9898SOL    HW130593   1.599   5.490   5.752
 9898SOL    HW230594   1.759   5.500   5.781
 9899SOL     OW30595   5.269   4.652   2.697
 9899SOL    HW130596   5.337   4.579   2.693
 9899SOL    HW230597   5.315   4.740   2.681
 9900SOL     OW30598   1.338   2.390   4.064
 9900SOL    HW130599   1.345   2.483   4.100
 9900SOL    HW230600   1.390   2.383   3.979
 9901SOL     OW30601   2.878   2.069   5.970
 9901SOL    HW130602   2.953   2.010   5.940
 9901SOL    HW230603   2.808   2.071   5.898
 9902SOL     OW30604   3.571   3.984   0.781
 9902SOL    HW130605   3.653   4.016   0.734
 9902SOL    HW230606   3.508   3.943   0.715
 9903SOL     OW30607   4.240   1.473   2.159
 9903SOL    HW130608   4.143   1.467   2.186
 9903SOL    HW230609   4.266   1.569   2.149
 9904SOL     OW30610   6.119   2.148   0.538
 9904SOL    HW130611   6.056   2.155   0.461
 9904SOL    HW230612   6.068   2.133   0.622
 9905SOL     OW30613   1.415   6.864   6.271
 9905SOL    HW130614   1.374   6.850   6.362
 9905SOL    HW230615   1.485   6.794   6.256
 9906SOL     OW30616   2.397   3.393   6.383
 9906SOL    HW130617   2.413   3.369   6.479
 9906SOL    HW230618   2.482   3.386   6.332
 9907SOL     OW30619   2.423   6.080   2.883
 9907SOL    HW130620   2.404   5.991   2.843
 9907SOL    HW230621   2.519   6.104   2.870
 9908SOL     OW30622   0.672   3.745   6.555
 9908SOL    HW130623   0.682   3.844   6.548
 9908SOL    HW230624   0.759   3.704   6.580
 9909SOL     OW30625   3.150   1.193   2.700
 9909SOL    HW130626   3.229   1.253   2.711
 9909SOL    HW230627   3.154   1.120   2.767
 9910SOL     OW30628   6.429   4.439   1.025
 9910SOL    HW130629   6.336   4.404   1.023
 9910SOL    HW230630   6.456   4.467   0.933
 9911SOL     OW30631   3.802   5.009   3.296
 9911SOL    HW130632   3.830   5.099   3.261
 9911SOL    HW230633   3.869   4.976   3.362
 9912SOL     OW30634   5.061   0.288   1.652
 9912SOL    HW130635   5.021   0.253   1.567
 9912SOL    HW230636   5.033   0.383   1.666
 9913SOL     OW30637   5.245   2.652   2.802
 9913SOL    HW130638   5.266   2.738   2.756
 9913SOL    HW230639   5.317   2.632   2.868
 9914SOL     OW30640   0.957   0.496   4.867
 9914SOL    HW130641   0.957   0.419   4.803
 9914SOL    HW230642   1.045   0.544   4.861
 9915SOL     OW30643   5.070   3.000   4.072
 9915SOL    HW130644   5.115   3.089   4.081
 9915SOL    HW230645   5.131   2.936   4.025
 9916SOL     OW30646   2.139   2.518   2.532
 9916SOL    HW130647   2.192   2.570   2.465
 9916SOL    HW230648   2.163   2.548   2.624
 9917SOL     OW30649   3.147   4.349   5.714
 9917SOL    HW130650   3.133   4.254   5.683
 9917SOL    HW230651   3.237   4.380   5.686
 9918SOL     OW30652   2.121   2.234   5.947
 9918SOL    HW130653   2.052   2.161   5.942
 9918SOL    HW230654   2.188   2.221   5.873
 9919SOL     OW30655   0.955   5.925   2.517
 9919SOL    HW130656   1.047   5.921   2.479
 9919SOL    HW230657   0.888   5.896   2.449
 9920SOL     OW30658   3.651   6.251   1.427
 9920SOL    HW130659   3.578   6.201   1.379
 9920SOL    HW230660   3.621   6.343   1.448
 9921SOL     OW30661   5.871   0.047   3.031
 9921SOL    HW130662   5.879   6.974   3.001
 9921SOL    HW230663   5.837   0.050   3.125
 9922SOL     OW30664   4.322   4.755   0.726
 9922SOL    HW130665   4.368   4.722   0.808
 9922SOL    HW230666   4.223   4.755   0.740
 9923SOL     OW30667   6.386   2.380   5.940
 9923SOL    HW130668   6.323   2.327   5.884
 9923SOL    HW230669   6.367   2.363   6.037
 9924SOL     OW30670   6.870   0.813   2.968
 9924SOL    HW130671   6.931   0.883   3.006
 9924SOL    HW230672   6.831   0.847   2.882
 9925SOL     OW30673   2.945   2.910   5.688
 9925SOL    HW130674   3.002   2.836   5.651
 9925SOL    HW230675   2.984   2.944   5.773
 9926SOL     OW30676   0.991   1.269   0.299
 9926SOL    HW130677   1.085   1.237   0.306
 9926SOL    HW230678   0.981   1.356   0.347
 9927SOL     OW30679   6.944   1.707   2.438
 9927SOL    HW130680   7.021   1.766   2.464
 9927SOL    HW230681   6.860   1.762   2.432
 9928SOL     OW30682   0.124   3.887   2.042
 9928SOL    HW130683   0.222   3.873   2.027
 9928SOL    HW230684   0.109   3.915   2.137
 9929SOL     OW30685   2.757   4.537   0.205
 9929SOL    HW130686   2.794   4.590   0.281
 9929SOL    HW230687   2.748   4.595   0.124
 9930SOL     OW30688   6.740   0.106   6.347
 9930SOL    HW130689   6.682   0.187   6.341
 9930SOL    HW230690   6.753   0.083   6.444
 9931SOL     OW30691   1.762   6.026   5.455
 9931SOL    HW130692   1.855   6.036   5.420
 9931SOL    HW230693   1.756   5.944   5.512
 9932SOL     OW30694   1.479   1.291   0.200
 9932SOL    HW130695   1.480   1.336   0.289
 9932SOL    HW230696   1.494   1.358   0.128
 9933SOL     OW30697   2.371   1.763   3.090
 9933SOL    HW130698   2.449   1.789   3.032
 9933SOL    HW230699   2.404   1.735   3.180
 9934SOL     OW30700   5.434   1.744   6.358
 9934SOL    HW130701   5.423   1.844   6.358
 9934SOL    HW230702   5.497   1.718   6.285
 9935SOL     OW30703   3.291   1.964   0.624
 9935SOL    HW130704   3.280   1.906   0.543
 9935SOL    HW230705   3.304   1.907   0.705
 9936SOL     OW30706   6.050   5.825   5.752
 9936SOL    HW130707   6.023   5.918   5.727
 9936SOL    HW230708   5.987   5.759   5.710
 9937SOL     OW30709   0.481   0.147   3.068
 9937SOL    HW130710   0.521   0.209   3.001
 9937SOL    HW230711   0.546   0.073   3.088
 9938SOL     OW30712   0.296   0.561   4.411
 9938SOL    HW130713   0.314   0.596   4.503
 9938SOL    HW230714   0.214   0.607   4.374
 9939SOL     OW30715   2.380   4.299   0.831
 9939SOL    HW130716   2.427   4.261   0.752
 9939SOL    HW230717   2.293   4.339   0.803
 9940SOL     OW30718   0.595   0.320   2.884
 9940SOL    HW130719   0.691   0.336   2.903
 9940SOL    HW230720   0.544   0.405   2.894
 9941SOL     OW30721   4.408   5.008   5.764
 9941SOL    HW130722   4.456   4.933   5.718
 9941SOL    HW230723   4.333   5.040   5.706
 9942SOL     OW30724   4.105   5.164   3.740
 9942SOL    HW130725   4.194   5.206   3.759
 9942SOL    HW230726   4.073   5.117   3.822
 9943SOL     OW30727   2.461   3.586   7.012
 9943SOL    HW130728   2.513   3.670   0.001
 9943SOL    HW230729   2.403   3.593   6.931
 9944SOL     OW30730   1.358   4.927   0.111
 9944SOL    HW130731   1.410   4.945   0.027
 9944SOL    HW230732   1.418   4.890   0.181
 9945SOL     OW30733   5.861   4.167   0.082
 9945SOL    HW130734   5.835   4.238   0.017
 9945SOL    HW230735   5.907   4.093   0.034
 9946SOL     OW30736   5.357   1.398   2.681
 9946SOL    HW130737   5.449   1.399   2.642
 9946SOL    HW230738   5.353   1.331   2.755
 9947SOL     OW30739   1.845   1.313   4.478
 9947SOL    HW130740   1.795   1.386   4.431
 9947SOL    HW230741   1.863   1.238   4.414
 9948SOL     OW30742   6.605   0.516   4.436
 9948SOL    HW130743   6.564   0.582   4.373
 9948SOL    HW230744   6.595   0.550   4.530
 9949SOL     OW30745   6.782   4.260   4.673
 9949SOL    HW130746   6.696   4.216   4.697
 9949SOL    HW230747   6.814   4.316   4.749
 9950SOL     OW30748   6.402   5.034   5.763
 9950SOL    HW130749   6.449   5.107   5.813
 9950SOL    HW230750   6.440   4.946   5.790
 9951SOL     OW30751   0.809   2.605   2.581
 9951SOL    HW130752   0.770   2.590   2.672
 9951SOL    HW230753   0.752   2.558   2.513
 9952SOL     OW30754   0.521   4.487   1.460
 9952SOL    HW130755   0.437   4.512   1.508
 9952SOL    HW230756   0.594   4.552   1.483
 9953SOL     OW30757   5.962   2.296   3.314
 9953SOL    HW130758   5.967   2.395   3.320
 9953SOL    HW230759   6.029   2.263   3.247
 9954SOL     OW30760   3.111   1.914   5.975
 9954SOL    HW130761   3.183   1.967   6.020
 9954SOL    HW230762   3.092   1.832   6.029
 9955SOL     OW30763   5.303   3.259   1.186
 9955SOL    HW130764   5.245   3.189   1.144
 9955SOL    HW230765   5.269   3.349   1.161
 9956SOL     OW30766   1.999   4.085   3.462
 9956SOL    HW130767   1.990   4.121   3.369
 9956SOL    HW230768   2.091   4.106   3.496
 9957SOL     OW30769   5.684   0.015   1.797
 9957SOL    HW130770   5.604   6.978   1.783
 9957SOL    HW230771   5.713   0.053   1.710
 9958SOL     OW30772   4.074   4.778   6.435
 9958SOL    HW130773   4.091   4.835   6.355
 9958SOL    HW230774   4.101   4.828   6.518
 9959SOL     OW30775   4.002   4.358   1.173
 9959SOL    HW130776   4.063   4.357   1.252
 9959SOL    HW230777   3.909   4.382   1.203
 9960SOL     OW30778   6.510   6.723   6.907
 9960SOL    HW130779   6.421   6.756   6.938
 9960SOL    HW230780   6.520   6.740   6.809
 9961SOL     OW30781   2.210   4.673   2.480
 9961SOL    HW130782   2.304   4.644   2.461
 9961SOL    HW230783   2.147   4.621   2.423
 9962SOL     OW30784   3.192   5.914   2.546
 9962SOL    HW130785   3.214   6.009   2.524
 9962SOL    HW230786   3.120   5.913   2.616
 9963SOL     OW30787   1.395   1.470   6.339
 9963SOL    HW130788   1.298   1.468   6.361
 9963SOL    HW230789   1.407   1.509   6.247
 9964SOL     OW30790   5.083   4.219   5.329
 9964SOL    HW130791   5.041   4.285   5.391
 9964SOL    HW230792   5.156   4.264   5.278
 9965SOL     OW30793   2.904   5.583   4.799
 9965SOL    HW130794   3.001   5.575   4.821
 9965SOL    HW230795   2.871   5.496   4.764
 9966SOL     OW30796   3.469   4.875   2.406
 9966SOL    HW130797   3.518   4.818   2.339
 9966SOL    HW230798   3.371   4.868   2.390
 9967SOL     OW30799   6.894   6.918   2.987
 9967SOL    HW130800   6.816   6.864   3.020
 9967SOL    HW230801   6.889   7.010   3.026
 9968SOL     OW30802   3.944   6.079   0.633
 9968SOL    HW130803   4.000   6.026   0.569
 9968SOL    HW230804   3.953   6.040   0.724
 9969SOL     OW30805   1.557   4.899   4.129
 9969SOL    HW130806   1.617   4.819   4.135
 9969SOL    HW230807   1.610   4.979   4.101
 9970SOL     OW30808   6.185   4.682   1.459
 9970SOL    HW130809   6.226   4.685   1.368
 9970SOL    HW230810   6.235   4.618   1.516
 9971SOL     OW30811   1.487   3.444   2.406
 9971SOL    HW130812   1.521   3.388   2.330
 9971SOL    HW230813   1.411   3.397   2.450
 9972SOL     OW30814   3.608   4.173   0.508
 9972SOL    HW130815   3.668   4.243   0.469
 9972SOL    HW230816   3.607   4.092   0.449
 9973SOL     OW30817   3.625   1.723   3.678
 9973SOL    HW130818   3.607   1.724   3.777
 9973SOL    HW230819   3.606   1.631   3.642
 9974SOL     OW30820   0.130   1.784   3.445
 9974SOL    HW130821   0.110   1.842   3.366
 9974SOL    HW230822   0.126   1.840   3.528
 9975SOL     OW30823   1.158   5.113   6.514
 9975SOL    HW130824   1.123   5.157   6.432
 9975SOL    HW230825   1.245   5.068   6.494
 9976SOL     OW30826   2.257   4.872   6.294
 9976SOL    HW130827   2.238   4.788   6.344
 9976SOL    HW230828   2.329   4.855   6.227
 9977SOL     OW30829   5.418   5.577   5.059
 9977SOL    HW130830   5.432   5.674   5.081
 9977SOL    HW230831   5.331   5.567   5.010
 9978SOL     OW30832   0.330   2.412   6.162
 9978SOL    HW130833   0.368   2.497   6.196
 9978SOL    HW230834   0.388   2.376   6.089
 9979SOL     OW30835   4.927   3.190   5.285
 9979SOL    HW130836   4.839   3.235   5.293
 9979SOL    HW230837   4.982   3.235   5.214
 9980SOL     OW30838   1.108   0.953   0.001
 9980SOL    HW130839   1.029   1.006   0.033
 9980SOL    HW230840   1.080   0.892   6.949
 9981SOL     OW30841   0.449   2.312   1.201
 9981SOL    HW130842   0.491   2.401   1.182
 9981SOL    HW230843   0.350   2.323   1.210
 9982SOL     OW30844   2.259   1.576   4.925
 9982SOL    HW130845   2.161   1.571   4.945
 9982SOL    HW230846   2.299   1.654   4.973
 9983SOL     OW30847   6.615   2.951   1.902
 9983SOL    HW130848   6.661   2.991   1.823
 9983SOL    HW230849   6.677   2.888   1.949
 9984SOL     OW30850   7.017   6.141   1.461
 9984SOL    HW130851   6.997   6.239   1.462
 9984SOL    HW230852   0.092   6.127   1.442
 9985SOL     OW30853   4.123   5.129   0.714
 9985SOL    HW130854   4.048   5.084   0.666
 9985SOL    HW230855   4.125   5.226   0.689
 9986SOL     OW30856   4.878   4.516   0.078
 9986SOL    HW130857   4.910   4.565   0.160
 9986SOL    HW230858   4.778   4.522   0.073
 9987SOL     OW30859   5.141   3.012   1.444
 9987SOL    HW130860   5.167   3.045   1.353
 9987SOL    HW230861   5.042   3.003   1.449
 9988SOL     OW30862   6.199   6.087   4.223
 9988SOL    HW130863   6.123   6.138   4.263
 9988SOL    HW230864   6.169   5.995   4.199
 9989SOL     OW30865   6.579   4.397   2.116
 9989SOL    HW130866   6.494   4.413   2.066
 9989SOL    HW230867   6.568   4.426   2.211
 9990SOL     OW30868   0.586   6.892   3.054
 9990SOL    HW130869   0.620   6.805   3.019
 9990SOL    HW230870   0.550   6.879   3.147
 9991SOL     OW30871   1.730   3.961   3.943
 9991SOL    HW130872   1.762   3.924   4.030
 9991SOL    HW230873   1.760   3.901   3.868
 9992SOL     OW30874   3.255   4.707   0.923
 9992SOL    HW130875   3.323   4.667   0.861
 9992SOL    HW230876   3.281   4.802   0.943
 9993SOL     OW30877   3.649   6.481   3.769
 9993SOL    HW130878   3.572   6.544   3.776
 9993SOL    HW230879   3.733   6.528   3.798
 9994SOL     OW30880   6.868   3.804   4.589
 9994SOL    HW130881   6.936   3.852   4.645
 9994SOL    HW230882   6.817   3.740   4.646
 9995SOL     OW30883   2.691   0.707   4.479
 9995SOL    HW130884   2.610   0.702   4.537
 9995SOL    HW230885   2.701   0.621   4.428
 9996SOL     OW30886   2.158   3.956   0.754
 9996SOL    HW130887   2.061   3.973   0.773
 9996SOL    HW230888   2.175   3.970   0.656
 9997SOL     OW30889   5.896   1.938   3.982
 9997SOL    HW130890   5.806   1.981   3.977
 9997SOL    HW230891   5.896   1.855   3.926
 9998SOL     OW30892   5.092   3.468   2.982
 9998SOL    HW130893   5.038   3.399   2.934
 9998SOL    HW230894   5.098   3.444   3.079
 9999SOL     OW30895   0.356   6.720   3.907
 9999SOL    HW130896   0.356   6.764   3.997
 9999SOL    HW230897   0.357   6.621   3.918
10000SOL     OW30898   5.145   1.829   1.406
10000SOL    HW130899   5.067   1.826   1.344
10000SOL    HW230900   5.207   1.753   1.386
10001SOL     OW30901   2.985   6.575   2.668
10001SOL    HW130902   2.922   6.529   2.606
10001SOL    HW230903   2.958   6.671   2.678
10002SOL     OW30904   2.539   1.151   0.488
10002SOL    HW130905   2.494   1.177   0.403
10002SOL    HW230906   2.567   1.234   0.537
10003SOL     OW30907   2.321   1.887   2.690
10003SOL    HW130908   2.395   1.954   2.688
10003SOL    HW230909   2.246   1.918   2.632
10004SOL     OW30910   5.392   4.341   4.672
10004SOL    HW130911   5.437   4.430   4.659
10004SOL    HW230912   5.439   4.290   4.743
10005SOL     OW30913   3.005   5.670   3.569
10005SOL    HW130914   3.081   5.734   3.565
10005SOL    HW230915   3.000   5.629   3.660
10006SOL     OW30916   6.002   0.405   5.562
10006SOL    HW130917   6.085   0.366   5.602
10006SOL    HW230918   5.921   0.363   5.604
10007SOL     OW30919   1.056   3.972   4.610
10007SOL    HW130920   0.958   3.990   4.618
10007SOL    HW230921   1.096   4.033   4.542
10008SOL     OW30922   3.253   1.891   3.887
10008SOL    HW130923   3.272   1.986   3.909
10008SOL    HW230924   3.175   1.859   3.942
10009SOL     OW30925   2.284   4.227   2.102
10009SOL    HW130926   2.326   4.221   2.193
10009SOL    HW230927   2.324   4.304   2.052
10010SOL     OW30928   2.709   4.880   6.698
10010SOL    HW130929   2.768   4.960   6.698
10010SOL    HW230930   2.676   4.863   6.605
10011SOL     OW30931   0.284   4.289   0.544
10011SOL    HW130932   0.264   4.368   0.487
10011SOL    HW230933   0.276   4.205   0.490
10012SOL     OW30934   4.909   0.656   2.249
10012SOL    HW130935   4.923   0.756   2.249
10012SOL    HW230936   4.994   0.611   2.276
10013SOL     OW30937   1.589   5.536   5.156
10013SOL    HW130938   1.684   5.565   5.150
10013SOL    HW230939   1.579   5.445   5.116
10014SOL     OW30940   0.629   6.592   2.721
10014SOL    HW130941   0.644   6.512   2.663
10014SOL    HW230942   0.554   6.647   2.684
10015SOL     OW30943   3.669   5.251   6.456
10015SOL    HW130944   3.640   5.161   6.424
10015SOL    HW230945   3.606   5.284   6.527
10016SOL     OW30946   1.629   0.875   4.367
10016SOL    HW130947   1.553   0.929   4.330
10016SOL    HW230948   1.702   0.869   4.298
10017SOL     OW30949   2.591   1.824   2.940
10017SOL    HW130950   2.639   1.766   3.006
10017SOL    HW230951   2.593   1.919   2.972
10018SOL     OW30952   6.927   4.387   5.751
10018SOL    HW130953   6.975   4.301   5.735
10018SOL    HW230954   6.848   4.370   5.810
10019SOL     OW30955   6.952   1.472   3.067
10019SOL    HW130956   6.968   1.406   2.994
10019SOL    HW230957   6.859   1.462   3.102
10020SOL     OW30958   6.691   1.007   1.617
10020SOL    HW130959   6.712   0.997   1.715
10020SOL    HW230960   6.742   0.939   1.565
10021SOL     OW30961   1.560   3.313   1.439
10021SOL    HW130962   1.492   3.240   1.441
10021SOL    HW230963   1.649   3.275   1.412
10022SOL     OW30964   2.112   6.165   6.831
10022SOL    HW130965   2.201   6.146   6.873
10022SOL    HW230966   2.102   6.263   6.815
10023SOL     OW30967   2.521   6.388   5.560
10023SOL    HW130968   2.617   6.367   5.544
10023SOL    HW230969   2.479   6.317   5.616
10024SOL     OW30970   1.605   4.984   2.832
10024SOL    HW130971   1.648   4.926   2.901
10024SOL    HW230972   1.643   4.962   2.742
10025SOL     OW30973   1.569   3.444   1.662
10025SOL    HW130974   1.572   3.379   1.586
10025SOL    HW230975   1.475   3.473   1.677
10026SOL     OW30976   5.008   1.105   2.529
10026SOL    HW130977   4.917   1.112   2.489
10026SOL    HW230978   5.001   1.081   2.626
10027SOL     OW30979   1.184   2.825   5.011
10027SOL    HW130980   1.153   2.770   5.089
10027SOL    HW230981   1.139   2.792   4.928
10028SOL     OW30982   3.539   0.948   1.514
10028SOL    HW130983   3.603   1.024   1.527
10028SOL    HW230984   3.588   0.861   1.517
10029SOL     OW30985   6.829   2.655   4.284
10029SOL    HW130986   6.834   2.635   4.186
10029SOL    HW230987   6.859   2.749   4.300
10030SOL     OW30988   2.812   0.108   4.553
10030SOL    HW130989   2.862   0.123   4.468
10030SOL    HW230990   2.876   0.085   4.627
10031SOL     OW30991   4.573   5.030   5.090
10031SOL    HW130992   4.648   4.998   5.032
10031SOL    HW230993   4.487   4.991   5.058
10032SOL     OW30994   3.523   6.832   5.676
10032SOL    HW130995   3.495   6.771   5.751
10032SOL    HW230996   3.451   6.835   5.607
10033SOL     OW30997   4.587   1.447   3.725
10033SOL    HW130998   4.632   1.382   3.787
10033SOL    HW230999   4.584   1.537   3.768
10034SOL     OW31000   1.838   0.931   3.543
10034SOL    HW131001   1.806   0.988   3.467
10034SOL    HW231002   1.788   0.956   3.626
10035SOL     OW31003   5.955   3.950   6.971
10035SOL    HW131004   6.039   3.997   6.945
10035SOL    HW231005   5.973   3.889   0.026
10036SOL     OW31006   6.328   0.763   6.845
10036SOL    HW131007   6.324   0.735   6.941
10036SOL    HW231008   6.408   0.720   6.802
10037SOL     OW31009   6.568   0.034   6.137
10037SOL    HW131010   6.622   0.084   6.070
10037SOL    HW231011   6.629   7.017   6.206
10038SOL     OW31012   4.454   6.612   6.596
10038SOL    HW131013   4.543   6.576   6.624
10038SOL    HW231014   4.391   6.536   6.580
10039SOL     OW31015   5.252   5.805   4.653
10039SOL    HW131016   5.206   5.880   4.604
10039SOL    HW231017   5.215   5.799   4.745
10040SOL     OW31018   4.362   6.060   0.608
10040SOL    HW131019   4.296   5.986   0.623
10040SOL    HW231020   4.388   6.099   0.696
10041SOL     OW31021   6.493   5.086   4.784
10041SOL    HW131022   6.527   5.094   4.690
10041SOL    HW231023   6.569   5.092   4.848
10042SOL     OW31024   0.665   1.052   5.192
10042SOL    HW131025   0.732   1.095   5.253
10042SOL    HW231026   0.639   1.116   5.120
10043SOL     OW31027   0.673   0.624   2.753
10043SOL    HW131028   0.764   0.593   2.782
10043SOL    HW231029   0.606   0.601   2.823
10044SOL     OW31030   2.689   1.588   4.504
10044SOL    HW131031   2.599   1.553   4.477
10044SOL    HW231032   2.689   1.688   4.497
10045SOL     OW31033   4.788   0.252   4.263
10045SOL    HW131034   4.826   0.160   4.268
10045SOL    HW231035   4.770   0.276   4.168
10046SOL     OW31036   0.087   1.523   1.616
10046SOL    HW131037   0.135   1.605   1.648
10046SOL    HW231038   7.017   1.549   1.586
10047SOL     OW31039   6.438   3.228   5.232
10047SOL    HW131040   6.431   3.138   5.276
10047SOL    HW231041   6.389   3.295   5.288
10048SOL     OW31042   3.116   1.854   1.500
10048SOL    HW131043   3.039   1.795   1.522
10048SOL    HW231044   3.147   1.836   1.406
10049SOL     OW31045   0.713   0.972   6.906
10049SOL    HW131046   0.796   1.026   6.890
10049SOL    HW231047   0.675   0.941   6.819
10050SOL     OW31048   5.643   3.003   4.750
10050SOL    HW131049   5.617   2.957   4.664
10050SOL    HW231050   5.670   2.934   4.817
10051SOL     OW31051   0.189   3.234   4.832
10051SOL    HW131052   0.264   3.287   4.870
10051SOL    HW231053   0.140   3.186   4.905
10052SOL     OW31054   1.970   2.783   2.091
10052SOL    HW131055   2.053   2.735   2.066
10052SOL    HW231056   1.939   2.752   2.181
10053SOL     OW31057   4.006   4.841   2.379
10053SOL    HW131058   3.986   4.832   2.477
10053SOL    HW231059   4.033   4.935   2.358
10054SOL     OW31060   4.480   5.853   6.262
10054SOL    HW131061   4.406   5.878   6.199
10054SOL    HW231062   4.446   5.784   6.327
10055SOL     OW31063   6.143   2.232   4.829
10055SOL    HW131064   6.088   2.316   4.826
10055SOL    HW231065   6.083   2.153   4.819
10056SOL     OW31066   5.892   5.222   0.831
10056SOL    HW131067   5.864   5.128   0.848
10056SOL    HW231068   5.816   5.284   0.850
10057SOL     OW31069   3.478   1.549   4.148
10057SOL    HW131070   3.527   1.518   4.230
10057SOL    HW231071   3.404   1.611   4.174
10058SOL     OW31072   7.006   3.933   5.274
10058SOL    HW131073   6.958   3.846   5.290
10058SOL    HW231074   0.043   3.954   5.352
10059SOL     OW31075   5.272   6.445   1.072
10059SOL    HW131076   5.232   6.452   1.164
10059SOL    HW231077   5.212   6.491   1.006
10060SOL     OW31078   2.375   1.640   2.566
10060SOL    HW131079   2.327   1.652   2.480
10060SOL    HW231080   2.370   1.725   2.619
10061SOL     OW31081   5.108   1.247   4.422
10061SOL    HW131082   5.088   1.344   4.409
10061SOL    HW231083   5.025   1.201   4.454
10062SOL     OW31084   6.434   6.868   4.899
10062SOL    HW131085   6.483   6.837   4.981
10062SOL    HW231086   6.406   6.789   4.845
10063SOL     OW31087   1.369   1.869   3.229
10063SOL    HW131088   1.418   1.928   3.294
10063SOL    HW231089   1.311   1.926   3.170
10064SOL     OW31090   5.928   5.550   5.716
10064SOL    HW131091   5.931   5.578   5.620
10064SOL    HW231092   5.833   5.529   5.741
10065SOL     OW31093   1.496   0.630   1.836
10065SOL    HW131094   1.469   0.653   1.929
10065SOL    HW231095   1.591   0.657   1.821
10066SOL     OW31096   1.456   1.283   4.220
10066SOL    HW131097   1.544   1.235   4.217
10066SOL    HW231098   1.408   1.271   4.133
10067SOL     OW31099   5.349   4.925   5.496
10067SOL    HW131100   5.435   4.875   5.512
10067SOL    HW231101   5.283   4.864   5.452
10068SOL     OW31102   5.348   3.059   3.938
10068SOL    HW131103   5.306   3.104   4.016
10068SOL    HW231104   5.299   2.975   3.917
10069SOL     OW31105   2.009   6.573   3.879
10069SOL    HW131106   1.932   6.509   3.869
10069SOL    HW231107   2.008   6.638   3.804
10070SOL     OW31108   0.539   6.876   4.974
10070SOL    HW131109   0.544   6.931   4.891
10070SOL    HW231110   0.536   6.779   4.949
10071SOL     OW31111   4.444   4.964   4.371
10071SOL    HW131112   4.513   4.909   4.324
10071SOL    HW231113   4.457   5.060   4.349
10072SOL     OW31114   0.987   6.583   4.354
10072SOL    HW131115   0.921   6.520   4.312
10072SOL    HW231116   1.078   6.565   4.318
10073SOL     OW31117   6.487   3.821   4.926
10073SOL    HW131118   6.489   3.738   4.982
10073SOL    HW231119   6.536   3.894   4.973
10074SOL     OW31120   0.569   0.479   5.993
10074SOL    HW131121   0.654   0.484   6.045
10074SOL    HW231122   0.557   0.387   5.958
10075SOL     OW31123   1.583   2.410   2.521
10075SOL    HW131124   1.677   2.404   2.555
10075SOL    HW231125   1.521   2.366   2.586
10076SOL     OW31126   5.501   0.439   4.173
10076SOL    HW131127   5.415   0.436   4.122
10076SOL    HW231128   5.569   0.382   4.127
10077SOL     OW31129   3.582   2.388   6.974
10077SOL    HW131130   3.555   2.402   6.879
10077SOL    HW231131   3.611   2.475   7.015
10078SOL     OW31132   6.546   6.780   3.955
10078SOL    HW131133   6.473   6.848   3.950
10078SOL    HW231134   6.534   6.724   4.037
10079SOL     OW31135   1.401   2.846   1.906
10079SOL    HW131136   1.456   2.776   1.952
10079SOL    HW231137   1.304   2.824   1.918
10080SOL     OW31138   3.174   1.953   6.447
10080SOL    HW131139   3.201   2.043   6.414
10080SOL    HW231140   3.162   1.955   6.546
10081SOL     OW31141   0.103   6.995   6.564
10081SOL    HW131142   0.173   0.015   6.622
10081SOL    HW231143   0.069   0.040   6.498
10082SOL     OW31144   6.869   2.809   2.733
10082SOL    HW131145   6.788   2.842   2.781
10082SOL    HW231146   6.912   2.886   2.685
10083SOL     OW31147   5.127   0.966   3.379
10083SOL    HW131148   5.155   1.056   3.345
10083SOL    HW231149   5.034   0.972   3.416
10084SOL     OW31150   3.882   0.509   6.118
10084SOL    HW131151   3.832   0.486   6.202
10084SOL    HW231152   3.940   0.588   6.135
10085SOL     OW31153   0.247   4.834   2.620
10085SOL    HW131154   0.325   4.897   2.609
10085SOL    HW231155   0.188   4.841   2.540
10086SOL     OW31156   5.767   5.349   2.322
10086SOL    HW131157   5.737   5.387   2.410
10086SOL    HW231158   5.705   5.275   2.295
10087SOL     OW31159   0.839   0.968   4.222
10087SOL    HW131160   0.896   0.926   4.293
10087SOL    HW231161   0.763   1.016   4.264
10088SOL     OW31162   6.893   6.945   6.185
10088SOL    HW131163   6.857   6.914   6.097
10088SOL    HW231164   6.870   0.020   6.197
10089SOL     OW31165   2.557   2.044   3.091
10089SOL    HW131166   2.532   2.027   3.186
10089SOL    HW231167   2.532   2.137   3.066
10090SOL     OW31168   0.302   4.833   1.097
10090SOL    HW131169   0.385   4.783   1.073
10090SOL    HW231170   0.320   4.931   1.097
10091SOL     OW31171   1.112   3.108   4.987
10091SOL    HW131172   1.119   3.011   5.007
10091SOL    HW231173   1.109   3.122   4.888
10092SOL     OW31174   1.621   3.256   5.079
10092SOL    HW131175   1.548   3.238   5.013
10092SOL    HW231176   1.597   3.217   5.167
10093SOL     OW31177   1.456   4.399   4.494
10093SOL    HW131178   1.510   4.482   4.480
10093SOL    HW231179   1.517   4.324   4.519
10094SOL     OW31180   2.745   6.403   1.997
10094SOL    HW131181   2.822   6.462   1.971
10094SOL    HW231182   2.773   6.307   1.992
10095SOL     OW31183   6.341   1.585   5.301
10095SOL    HW131184   6.279   1.651   5.343
10095SOL    HW231185   6.430   1.629   5.285
10096SOL     OW31186   6.394   4.844   2.879
10096SOL    HW131187   6.468   4.777   2.874
10096SOL    HW231188   6.432   4.936   2.869
10097SOL     OW31189   0.930   1.184   6.894
10097SOL    HW131190   1.000   1.140   6.837
10097SOL    HW231191   0.876   1.246   6.838
10098SOL     OW31192   1.988   0.012   5.244
10098SOL    HW131193   1.994   0.082   5.316
10098SOL    HW231194   1.937   6.956   5.279
10099SOL     OW31195   6.750   4.927   6.570
10099SOL    HW131196   6.674   4.879   6.614
10099SOL    HW231197   6.717   5.013   6.531
10100SOL     OW31198   5.426   6.990   4.496
10100SOL    HW131199   5.395   6.989   4.591
10100SOL    HW231200   5.437   6.896   4.464
10101SOL     OW31201   5.546   4.589   1.743
10101SOL    HW131202   5.502   4.536   1.816
10101SOL    HW231203   5.531   4.544   1.655
10102SOL     OW31204   2.186   0.535   2.531
10102SOL    HW131205   2.180   0.634   2.544
10102SOL    HW231206   2.120   0.506   2.462
10103SOL     OW31207   2.714   1.172   4.819
10103SOL    HW131208   2.721   1.102   4.748
10103SOL    HW231209   2.692   1.260   4.778
10104SOL     OW31210   1.043   3.402   4.937
10104SOL    HW131211   1.069   3.484   4.990
10104SOL    HW231212   1.100   3.325   4.965
10105SOL     OW31213   1.037   1.559   6.405
10105SOL    HW131214   0.992   1.473   6.429
10105SOL    HW231215   1.010   1.631   6.470
10106SOL     OW31216   4.949   5.071   0.985
10106SOL    HW131217   4.941   5.119   1.073
10106SOL    HW231218   5.043   5.075   0.953
10107SOL     OW31219   6.816   1.704   6.478
10107SOL    HW131220   6.854   1.612   6.471
10107SOL    HW231221   6.759   1.710   6.560
10108SOL     OW31222   6.654   6.011   0.006
10108SOL    HW131223   6.686   6.089   0.060
10108SOL    HW231224   6.601   6.044   6.950
10109SOL     OW31225   3.693   6.465   2.442
10109SOL    HW131226   3.709   6.373   2.406
10109SOL    HW231227   3.630   6.514   2.381
10110SOL     OW31228   3.969   6.442   5.006
10110SOL    HW131229   3.963   6.534   5.044
10110SOL    HW231230   3.883   6.419   4.960
10111SOL     OW31231   6.215   3.126   4.059
10111SOL    HW131232   6.310   3.120   4.025
10111SOL    HW231233   6.192   3.041   4.107
10112SOL     OW31234   5.667   3.974   4.672
10112SOL    HW131235   5.651   3.957   4.575
10112SOL    HW231236   5.758   3.940   4.697
10113SOL     OW31237   3.811   1.360   6.547
10113SOL    HW131238   3.874   1.302   6.495
10113SOL    HW231239   3.776   1.433   6.488
10114SOL     OW31240   5.556   0.259   0.892
10114SOL    HW131241   5.515   0.202   0.820
10114SOL    HW231242   5.499   0.340   0.906
10115SOL     OW31243   3.121   2.173   3.315
10115SOL    HW131244   3.160   2.088   3.351
10115SOL    HW231245   3.193   2.226   3.270
10116SOL     OW31246   0.809   6.289   0.226
10116SOL    HW131247   0.859   6.296   0.139
10116SOL    HW231248   0.779   6.380   0.253
10117SOL     OW31249   6.565   0.029   4.644
10117SOL    HW131250   6.475   0.017   4.603
10117SOL    HW231251   6.568   7.004   4.732
10118SOL     OW31252   6.943   5.027   3.089
10118SOL    HW131253   6.855   5.066   3.063
10118SOL    HW231254   7.010   5.048   3.018
10119SOL     OW31255   1.590   6.604   4.855
10119SOL    HW131256   1.605   6.605   4.756
10119SOL    HW231257   1.666   6.556   4.899
10120SOL     OW31258   0.697   3.494   4.102
10120SOL    HW131259   0.714   3.548   4.020
10120SOL    HW231260   0.673   3.555   4.178
10121SOL     OW31261   6.476   4.805   5.501
10121SOL    HW131262   6.494   4.776   5.595
10121SOL    HW231263   6.529   4.748   5.438
10122SOL     OW31264   5.092   3.027   0.805
10122SOL    HW131265   5.027   3.008   0.731
10122SOL    HW231266   5.163   3.090   0.772
10123SOL     OW31267   6.655   6.395   0.540
10123SOL    HW131268   6.685   6.489   0.556
10123SOL    HW231269   6.624   6.354   0.626
10124SOL     OW31270   1.820   3.695   6.703
10124SOL    HW131271   1.734   3.723   6.745
10124SOL    HW231272   1.848   3.607   6.740
10125SOL     OW31273   1.568   1.118   2.465
10125SOL    HW131274   1.664   1.090   2.469
10125SOL    HW231275   1.561   1.208   2.422
10126SOL     OW31276   0.163   6.496   6.395
10126SOL    HW131277   0.094   6.511   6.324
10126SOL    HW231278   0.165   6.574   6.457
10127SOL     OW31279   2.763   4.880   5.733
10127SOL    HW131280   2.848   4.902   5.684
10127SOL    HW231281   2.780   4.807   5.799
10128SOL     OW31282   1.028   1.967   1.398
10128SOL    HW131283   0.949   1.998   1.344
10128SOL    HW231284   0.996   1.923   1.481
10129SOL     OW31285   4.826   2.710   4.327
10129SOL    HW131286   4.753   2.689   4.392
10129SOL    HW231287   4.806   2.668   4.239
10130SOL     OW31288   2.278   4.336   2.436
10130SOL    HW131289   2.275   4.238   2.416
10130SOL    HW231290   2.204   4.382   2.386
10131SOL     OW31291   0.314   1.143   3.449
10131SOL    HW131292   0.376   1.180   3.380
10131SOL    HW231293   0.360   1.144   3.538
10132SOL     OW31294   2.004   6.659   3.340
10132SOL    HW131295   2.012   6.750   3.300
10132SOL    HW231296   1.972   6.594   3.271
10133SOL     OW31297   4.515   6.318   2.105
10133SOL    HW131298   4.420   6.297   2.083
10133SOL    HW231299   4.526   6.417   2.115
10134SOL     OW31300   6.971   0.208   3.917
10134SOL    HW131301   0.039   0.252   3.908
10134SOL    HW231302   6.971   0.151   4.000
10135SOL     OW31303   5.476   3.282   3.601
10135SOL    HW131304   5.454   3.190   3.570
10135SOL    HW231305   5.396   3.341   3.592
10136SOL     OW31306   5.542   0.287   2.573
10136SOL    HW131307   5.580   0.349   2.505
10136SOL    HW231308   5.467   0.332   2.622
10137SOL     OW31309   6.410   4.928   4.127
10137SOL    HW131310   6.465   4.863   4.075
10137SOL    HW231311   6.338   4.880   4.176
10138SOL     OW31312   4.403   2.360   1.162
10138SOL    HW131313   4.340   2.437   1.162
10138SOL    HW231314   4.482   2.381   1.105
10139SOL     OW31315   3.715   3.340   2.965
10139SOL    HW131316   3.751   3.352   3.057
10139SOL    HW231317   3.657   3.259   2.962
10140SOL     OW31318   6.745   5.925   5.801
10140SOL    HW131319   6.817   5.860   5.774
10140SOL    HW231320   6.657   5.889   5.771
10141SOL     OW31321   3.084   1.502   3.995
10141SOL    HW131322   3.095   1.406   4.020
10141SOL    HW231323   3.055   1.508   3.899
10142SOL     OW31324   6.079   6.770   4.758
10142SOL    HW131325   6.173   6.749   4.786
10142SOL    HW231326   6.016   6.746   4.832
10143SOL     OW31327   4.799   0.581   0.855
10143SOL    HW131328   4.763   0.492   0.829
10143SOL    HW231329   4.881   0.569   0.911
10144SOL     OW31330   4.411   6.856   6.717
10144SOL    HW131331   4.489   6.911   6.687
10144SOL    HW231332   4.410   6.770   6.666
10145SOL     OW31333   3.750   6.001   6.418
10145SOL    HW131334   3.747   6.098   6.439
10145SOL    HW231335   3.837   5.962   6.451
10146SOL     OW31336   3.899   4.912   5.214
10146SOL    HW131337   3.817   4.914   5.157
10146SOL    HW231338   3.874   4.921   5.310
10147SOL     OW31339   5.113   4.635   4.703
10147SOL    HW131340   5.112   4.538   4.727
10147SOL    HW231341   5.026   4.660   4.660
10148SOL     OW31342   5.876   5.145   6.588
10148SOL    HW131343   5.868   5.191   6.676
10148SOL    HW231344   5.960   5.090   6.587
10149SOL     OW31345   5.326   1.862   1.022
10149SOL    HW131346   5.281   1.775   1.042
10149SOL    HW231347   5.271   1.937   1.058
10150SOL     OW31348   4.563   3.600   0.503
10150SOL    HW131349   4.608   3.511   0.514
10150SOL    HW231350   4.611   3.668   0.557
10151SOL     OW31351   0.829   6.578   6.448
10151SOL    HW131352   0.770   6.592   6.369
10151SOL    HW231353   0.789   6.510   6.509
10152SOL     OW31354   1.527   6.249   4.432
10152SOL    HW131355   1.432   6.277   4.448
10152SOL    HW231356   1.580   6.264   4.515
10153SOL     OW31357   4.999   5.831   4.056
10153SOL    HW131358   4.997   5.739   4.017
10153SOL    HW231359   5.093   5.855   4.080
10154SOL     OW31360   6.124   0.060   4.721
10154SOL    HW131361   6.036   0.041   4.766
10154SOL    HW231362   6.113   0.138   4.659
10155SOL     OW31363   4.148   2.054   5.529
10155SOL    HW131364   4.136   2.073   5.627
10155SOL    HW231365   4.068   2.005   5.495
10156SOL     OW31366   6.193   0.512   2.454
10156SOL    HW131367   6.265   0.468   2.508
10156SOL    HW231368   6.230   0.592   2.407
10157SOL     OW31369   6.004   3.016   6.075
10157SOL    HW131370   6.072   2.979   6.138
10157SOL    HW231371   5.993   2.952   5.998
10158SOL     OW31372   4.666   3.358   0.602
10158SOL    HW131373   4.714   3.363   0.515
10158SOL    HW231374   4.625   3.267   0.612
10159SOL     OW31375   2.849   3.230   6.294
10159SOL    HW131376   2.914   3.262   6.362
10159SOL    HW231377   2.848   3.293   6.216
10160SOL     OW31378   1.949   3.424   2.421
10160SOL    HW131379   1.879   3.353   2.412
10160SOL    HW231380   2.008   3.402   2.499
10161SOL     OW31381   3.452   3.528   6.727
10161SOL    HW131382   3.397   3.612   6.732
10161SOL    HW231383   3.506   3.529   6.643
10162SOL     OW31384   2.673   4.896   0.535
10162SOL    HW131385   2.678   4.978   0.592
10162SOL    HW231386   2.632   4.920   0.446
10163SOL     OW31387   5.013   5.365   6.309
10163SOL    HW131388   5.006   5.447   6.252
10163SOL    HW231389   4.924   5.348   6.352
10164SOL     OW31390   5.529   3.152   4.433
10164SOL    HW131391   5.555   3.056   4.422
10164SOL    HW231392   5.495   3.167   4.526
10165SOL     OW31393   0.536   1.482   3.488
10165SOL    HW131394   0.505   1.555   3.547
10165SOL    HW231395   0.510   1.393   3.527
10166SOL     OW31396   3.378   1.525   2.566
10166SOL    HW131397   3.361   1.471   2.649
10166SOL    HW231398   3.314   1.497   2.495
10167SOL     OW31399   3.806   2.207   6.410
10167SOL    HW131400   3.894   2.222   6.455
10167SOL    HW231401   3.756   2.134   6.456
10168SOL     OW31402   6.131   4.216   5.351
10168SOL    HW131403   6.032   4.223   5.362
10168SOL    HW231404   6.152   4.186   5.258
10169SOL     OW31405   6.108   3.913   3.088
10169SOL    HW131406   6.011   3.891   3.081
10169SOL    HW231407   6.155   3.842   3.140
10170SOL     OW31408   1.028   4.669   5.957
10170SOL    HW131409   1.026   4.717   6.045
10170SOL    HW231410   0.934   4.658   5.924
10171SOL     OW31411   6.455   3.434   5.489
10171SOL    HW131412   6.394   3.469   5.418
10171SOL    HW231413   6.401   3.406   5.569
10172SOL     OW31414   6.233   0.085   4.305
10172SOL    HW131415   6.155   0.079   4.242
10172SOL    HW231416   6.316   0.104   4.253
10173SOL     OW31417   0.753   2.834   1.063
10173SOL    HW131418   0.790   2.775   1.135
10173SOL    HW231419   0.740   2.927   1.099
10174SOL     OW31420   5.316   5.328   2.551
10174SOL    HW131421   5.251   5.345   2.477
10174SOL    HW231422   5.398   5.284   2.514
10175SOL     OW31423   6.639   2.312   3.546
10175SOL    HW131424   6.543   2.338   3.537
10175SOL    HW231425   6.681   2.307   3.455
10176SOL     OW31426   1.576   3.435   5.851
10176SOL    HW131427   1.570   3.352   5.906
10176SOL    HW231428   1.672   3.461   5.840
10177SOL     OW31429   1.761   1.211   0.250
10177SOL    HW131430   1.671   1.250   0.230
10177SOL    HW231431   1.814   1.276   0.305
10178SOL     OW31432   0.139   2.001   5.007
10178SOL    HW131433   0.102   2.020   4.916
10178SOL    HW231434   0.190   1.915   5.005
10179SOL     OW31435   0.691   1.807   5.959
10179SOL    HW131436   0.736   1.889   5.924
10179SOL    HW231437   0.729   1.783   6.049
10180SOL     OW31438   3.752   0.376   6.999
10180SOL    HW131439   3.663   0.413   0.000
10180SOL    HW231440   3.799   0.346   0.060
10181SOL     OW31441   5.318   3.038   1.945
10181SOL    HW131442   5.417   3.046   1.959
10181SOL    HW231443   5.291   3.095   1.868
10182SOL     OW31444   5.575   0.760   1.767
10182SOL    HW131445   5.633   0.837   1.795
10182SOL    HW231446   5.615   0.674   1.802
10183SOL     OW31447   0.427   2.131   6.367
10183SOL    HW131448   0.397   2.063   6.434
10183SOL    HW231449   0.391   2.108   6.277
10184SOL     OW31450   3.567   0.858   6.678
10184SOL    HW131451   3.661   0.863   6.645
10184SOL    HW231452   3.511   0.806   6.614
10185SOL     OW31453   5.396   5.761   1.822
10185SOL    HW131454   5.427   5.723   1.909
10185SOL    HW231455   5.297   5.776   1.825
10186SOL     OW31456   5.955   3.455   3.240
10186SOL    HW131457   5.857   3.448   3.261
10186SOL    HW231458   5.999   3.515   3.306
10187SOL     OW31459   0.558   2.812   0.853
10187SOL    HW131460   0.492   2.886   0.851
10187SOL    HW231461   0.602   2.807   0.943
10188SOL     OW31462   3.396   5.520   0.807
10188SOL    HW131463   3.399   5.462   0.888
10188SOL    HW231464   3.310   5.507   0.758
10189SOL     OW31465   1.153   0.451   6.114
10189SOL    HW131466   1.125   0.531   6.060
10189SOL    HW231467   1.145   0.369   6.057
10190SOL     OW31468   4.784   3.056   1.630
10190SOL    HW131469   4.724   3.125   1.590
10190SOL    HW231470   4.765   3.048   1.728
10191SOL     OW31471   5.212   4.897   6.051
10191SOL    HW131472   5.225   4.842   6.133
10191SOL    HW231473   5.125   4.872   6.008
10192SOL     OW31474   4.897   1.764   5.908
10192SOL    HW131475   4.848   1.701   5.970
10192SOL    HW231476   4.994   1.740   5.907
10193SOL     OW31477   4.130   3.530   1.828
10193SOL    HW131478   4.148   3.433   1.847
10193SOL    HW231479   4.094   3.574   1.911
10194SOL     OW31480   5.820   4.702   5.071
10194SOL    HW131481   5.858   4.616   5.106
10194SOL    HW231482   5.749   4.682   5.005
10195SOL     OW31483   6.077   5.032   1.219
10195SOL    HW131484   6.130   5.018   1.135
10195SOL    HW231485   6.116   4.977   1.292
10196SOL     OW31486   4.188   1.594   3.751
10196SOL    HW131487   4.148   1.685   3.760
10196SOL    HW231488   4.281   1.594   3.789
10197SOL     OW31489   6.588   1.973   5.194
10197SOL    HW131490   6.495   1.963   5.158
10197SOL    HW231491   6.610   2.070   5.203
10198SOL     OW31492   3.184   0.595   1.669
10198SOL    HW131493   3.131   0.552   1.596
10198SOL    HW231494   3.124   0.613   1.747
10199SOL     OW31495   2.449   2.816   6.059
10199SOL    HW131496   2.475   2.720   6.049
10199SOL    HW231497   2.514   2.861   6.120
10200SOL     OW31498   4.860   1.603   1.268
10200SOL    HW131499   4.862   1.579   1.366
10200SOL    HW231500   4.853   1.702   1.258
10201SOL     OW31501   1.289   4.369   0.836
10201SOL    HW131502   1.209   4.328   0.879
10201SOL    HW231503   1.276   4.467   0.826
10202SOL     OW31504   3.994   2.949   0.005
10202SOL    HW131505   3.942   2.956   0.090
10202SOL    HW231506   3.972   2.863   6.981
10203SOL     OW31507   6.374   3.168   3.546
10203SOL    HW131508   6.468   3.184   3.575
10203SOL    HW231509   6.361   3.071   3.527
10204SOL     OW31510   5.260   0.081   6.593
10204SOL    HW131511   5.319   0.066   6.672
10204SOL    HW231512   5.211   7.018   6.572
10205SOL     OW31513   1.485   1.029   0.888
10205SOL    HW131514   1.416   1.090   0.928
10205SOL    HW231515   1.442   0.969   0.821
10206SOL     OW31516   0.195   1.025   6.451
10206SOL    HW131517   0.119   1.013   6.386
10206SOL    HW231518   0.159   1.056   6.539
10207SOL     OW31519   1.137   1.651   6.773
10207SOL    HW131520   1.073   1.654   6.697
10207SOL    HW231521   1.163   1.744   6.799
10208SOL     OW31522   5.834   4.953   4.029
10208SOL    HW131523   5.813   4.856   4.018
10208SOL    HW231524   5.908   4.964   4.095
10209SOL     OW31525   6.436   6.819   6.044
10209SOL    HW131526   6.447   6.779   6.135
10209SOL    HW231527   6.474   6.911   6.042
10210SOL     OW31528   5.035   6.445   1.412
10210SOL    HW131529   4.984   6.361   1.395
10210SOL    HW231530   5.026   6.472   1.508
10211SOL     OW31531   3.886   6.524   3.887
10211SOL    HW131532   3.857   6.557   3.976
10211SOL    HW231533   3.965   6.463   3.897
10212SOL     OW31534   1.030   0.386   5.121
10212SOL    HW131535   0.995   0.429   5.038
10212SOL    HW231536   0.953   0.354   5.176
10213SOL     OW31537   4.528   2.883   1.390
10213SOL    HW131538   4.490   2.973   1.413
10213SOL    HW231539   4.581   2.848   1.467
10214SOL     OW31540   0.905   1.890   1.633
10214SOL    HW131541   0.886   1.973   1.685
10214SOL    HW231542   0.823   1.833   1.631
10215SOL     OW31543   4.014   3.163   3.323
10215SOL    HW131544   3.995   3.086   3.262
10215SOL    HW231545   3.934   3.223   3.326
10216SOL     OW31546   6.717   0.814   0.927
10216SOL    HW131547   6.767   0.765   0.855
10216SOL    HW231548   6.740   0.911   0.923
10217SOL     OW31549   2.795   1.303   3.218
10217SOL    HW131550   2.706   1.344   3.197
10217SOL    HW231551   2.821   1.238   3.147
10218SOL     OW31552   1.477   2.372   2.090
10218SOL    HW131553   1.411   2.298   2.097
10218SOL    HW231554   1.533   2.359   2.009
10219SOL     OW31555   0.155   1.829   2.543
10219SOL    HW131556   0.129   1.842   2.639
10219SOL    HW231557   0.194   1.914   2.508
10220SOL     OW31558   4.067   2.829   1.496
10220SOL    HW131559   4.033   2.923   1.504
10220SOL    HW231560   4.088   2.809   1.400
10221SOL     OW31561   0.650   5.774   3.146
10221SOL    HW131562   0.724   5.746   3.086
10221SOL    HW231563   0.666   5.868   3.177
10222SOL     OW31564   2.943   3.236   5.333
10222SOL    HW131565   2.852   3.195   5.329
10222SOL    HW231566   2.939   3.329   5.296
10223SOL     OW31567   0.906   4.202   1.165
10223SOL    HW131568   0.966   4.225   1.089
10223SOL    HW231569   0.889   4.283   1.220
10224SOL     OW31570   6.664   2.946   3.979
10224SOL    HW131571   6.661   2.937   4.078
10224SOL    HW231572   6.602   2.879   3.938
10225SOL     OW31573   2.115   4.852   5.571
10225SOL    HW131574   2.031   4.802   5.590
10225SOL    HW231575   2.094   4.947   5.548
10226SOL     OW31576   3.294   0.913   6.805
10226SOL    HW131577   3.235   0.835   6.826
10226SOL    HW231578   3.379   0.905   6.857
10227SOL     OW31579   4.779   4.029   0.102
10227SOL    HW131580   4.752   4.054   0.009
10227SOL    HW231581   4.868   4.070   0.123
10228SOL     OW31582   6.683   0.017   0.822
10228SOL    HW131583   6.681   0.059   0.913
10228SOL    HW231584   6.646   6.946   0.828
10229SOL     OW31585   0.986   2.457   4.750
10229SOL    HW131586   0.956   2.405   4.670
10229SOL    HW231587   1.028   2.396   4.817
10230SOL     OW31588   6.128   5.621   3.014
10230SOL    HW131589   6.211   5.578   2.979
10230SOL    HW231590   6.069   5.551   3.054
10231SOL     OW31591   1.449   5.742   4.995
10231SOL    HW131592   1.476   5.682   5.071
10231SOL    HW231593   1.498   5.714   4.913
10232SOL     OW31594   2.627   0.662   3.182
10232SOL    HW131595   2.539   0.704   3.157
10232SOL    HW231596   2.702   0.718   3.147
10233SOL     OW31597   3.994   3.890   5.285
10233SOL    HW131598   3.973   3.792   5.288
10233SOL    HW231599   3.916   3.939   5.246
10234SOL     OW31600   6.380   6.888   1.100
10234SOL    HW131601   6.298   6.896   1.158
10234SOL    HW231602   6.366   6.816   1.032
10235SOL     OW31603   1.720   2.088   1.814
10235SOL    HW131604   1.759   2.100   1.723
10235SOL    HW231605   1.764   2.011   1.860
10236SOL     OW31606   2.338   6.724   0.380
10236SOL    HW131607   2.432   6.703   0.353
10236SOL    HW231608   2.276   6.700   0.305
10237SOL     OW31609   6.821   3.674   0.379
10237SOL    HW131610   6.890   3.729   0.332
10237SOL    HW231611   6.848   3.578   0.376
10238SOL     OW31612   4.044   4.727   1.551
10238SOL    HW131613   4.010   4.702   1.642
10238SOL    HW231614   4.101   4.809   1.558
10239SOL     OW31615   1.129   2.705   4.740
10239SOL    HW131616   1.082   2.616   4.735
10239SOL    HW231617   1.225   2.693   4.715
10240SOL     OW31618   2.810   5.935   2.447
10240SOL    HW131619   2.854   5.854   2.407
10240SOL    HW231620   2.726   5.956   2.397
10241SOL     OW31621   5.296   1.615   2.015
10241SOL    HW131622   5.205   1.620   1.973
10241SOL    HW231623   5.312   1.523   2.050
10242SOL     OW31624   6.750   1.823   0.494
10242SOL    HW131625   6.781   1.904   0.445
10242SOL    HW231626   6.655   1.803   0.470
10243SOL     OW31627   2.587   4.455   1.529
10243SOL    HW131628   2.564   4.360   1.507
10243SOL    HW231629   2.505   4.504   1.558
10244SOL     OW31630   2.205   3.946   0.491
10244SOL    HW131631   2.144   4.021   0.464
10244SOL    HW231632   2.168   3.859   0.459
10245SOL     OW31633   3.377   4.473   1.187
10245SOL    HW131634   3.439   4.504   1.260
10245SOL    HW231635   3.376   4.373   1.185
10246SOL     OW31636   2.911   3.776   4.561
10246SOL    HW131637   2.870   3.843   4.623
10246SOL    HW231638   2.959   3.823   4.487
10247SOL     OW31639   0.515   4.032   6.274
10247SOL    HW131640   0.482   4.126   6.268
10247SOL    HW231641   0.439   3.969   6.260
10248SOL     OW31642   1.033   0.616   2.635
10248SOL    HW131643   1.001   0.689   2.575
10248SOL    HW231644   1.055   0.535   2.580
10249SOL     OW31645   2.319   4.799   0.242
10249SOL    HW131646   2.385   4.873   0.257
10249SOL    HW231647   2.364   4.711   0.249
10250SOL     OW31648   6.856   3.851   0.810
10250SOL    HW131649   6.873   3.881   0.904
10250SOL    HW231650   6.923   3.781   0.784
10251SOL     OW31651   2.110   1.271   4.342
10251SOL    HW131652   2.175   1.212   4.294
10251SOL    HW231653   2.116   1.364   4.306
10252SOL     OW31654   4.340   3.719   5.994
10252SOL    HW131655   4.307   3.798   5.943
10252SOL    HW231656   4.300   3.719   6.086
10253SOL     OW31657   3.480   6.425   0.762
10253SOL    HW131658   3.545   6.362   0.719
10253SOL    HW231659   3.416   6.372   0.818
10254SOL     OW31660   4.355   1.580   5.634
10254SOL    HW131661   4.262   1.595   5.668
10254SOL    HW231662   4.419   1.638   5.684
10255SOL     OW31663   2.568   0.141   0.964
10255SOL    HW131664   2.470   0.153   0.945
10255SOL    HW231665   2.590   0.044   0.964
10256SOL     OW31666   4.585   0.782   2.086
10256SOL    HW131667   4.520   0.857   2.071
10256SOL    HW231668   4.666   0.816   2.132
10257SOL     OW31669   2.095   4.695   4.157
10257SOL    HW131670   2.184   4.713   4.198
10257SOL    HW231671   2.062   4.778   4.112
10258SOL     OW31672   3.951   2.159   3.590
10258SOL    HW131673   3.855   2.141   3.610
10258SOL    HW231674   4.002   2.169   3.675
10259SOL     OW31675   0.759   4.058   3.462
10259SOL    HW131676   0.660   4.051   3.452
10259SOL    HW231677   0.789   3.994   3.534
10260SOL     OW31678   0.607   1.273   3.687
10260SOL    HW131679   0.707   1.277   3.677
10260SOL    HW231680   0.574   1.358   3.727
10261SOL     OW31681   6.956   4.599   0.545
10261SOL    HW131682   6.884   4.530   0.535
10261SOL    HW231683   6.961   4.655   0.463
10262SOL     OW31684   3.377   6.757   6.320
10262SOL    HW131685   3.460   6.797   6.282
10262SOL    HW231686   3.305   6.758   6.250
10263SOL     OW31687   6.128   0.480   0.389
10263SOL    HW131688   6.113   0.409   0.459
10263SOL    HW231689   6.060   0.552   0.401
10264SOL     OW31690   6.000   5.370   6.427
10264SOL    HW131691   6.040   5.361   6.518
10264SOL    HW231692   5.919   5.429   6.432
10265SOL     OW31693   3.246   2.762   0.306
10265SOL    HW131694   3.147   2.747   0.310
10265SOL    HW231695   3.286   2.737   0.395
10266SOL     OW31696   3.629   2.905   2.733
10266SOL    HW131697   3.707   2.843   2.722
10266SOL    HW231698   3.581   2.884   2.818
10267SOL     OW31699   5.184   1.412   0.933
10267SOL    HW131700   5.262   1.357   0.963
10267SOL    HW231701   5.112   1.352   0.898
10268SOL     OW31702   5.704   6.513   2.314
10268SOL    HW131703   5.610   6.542   2.331
10268SOL    HW231704   5.754   6.510   2.401
10269SOL     OW31705   1.347   2.490   6.507
10269SOL    HW131706   1.388   2.534   6.427
10269SOL    HW231707   1.350   2.553   6.585
10270SOL     OW31708   2.975   5.732   2.820
10270SOL    HW131709   3.029   5.658   2.780
10270SOL    HW231710   2.902   5.694   2.876
10271SOL     OW31711   2.790   3.127   0.131
10271SOL    HW131712   2.751   3.196   0.193
10271SOL    HW231713   2.762   3.036   0.160
10272SOL     OW31714   0.956   0.477   3.788
10272SOL    HW131715   0.881   0.462   3.852
10272SOL    HW231716   0.920   0.481   3.694
10273SOL     OW31717   2.971   4.812   4.203
10273SOL    HW131718   3.026   4.777   4.279
10273SOL    HW231719   2.875   4.818   4.232
10274SOL     OW31720   0.746   4.463   5.853
10274SOL    HW131721   0.743   4.375   5.805
10274SOL    HW231722   0.709   4.534   5.793
10275SOL     OW31723   0.039   0.656   2.201
10275SOL    HW131724   0.130   0.688   2.226
10275SOL    HW231725   0.017   0.573   2.253
10276SOL     OW31726   4.425   5.699   5.844
10276SOL    HW131727   4.448   5.627   5.778
10276SOL    HW231728   4.428   5.661   5.936
10277SOL     OW31729   1.283   6.787   4.605
10277SOL    HW131730   1.337   6.803   4.688
10277SOL    HW231731   1.284   6.868   4.548
10278SOL     OW31732   0.769   0.418   3.983
10278SOL    HW131733   0.753   0.511   4.015
10278SOL    HW231734   0.692   0.359   4.009
10279SOL     OW31735   2.614   5.303   4.118
10279SOL    HW131736   2.651   5.212   4.137
10279SOL    HW231737   2.648   5.336   4.030
10280SOL     OW31738   5.158   3.587   0.073
10280SOL    HW131739   5.147   3.616   7.000
10280SOL    HW231740   5.124   3.494   0.084
10281SOL     OW31741   0.038   2.435   3.340
10281SOL    HW131742   7.002   2.470   3.267
10281SOL    HW231743   0.006   2.469   3.428
10282SOL     OW31744   5.738   3.381   3.640
10282SOL    HW131745   5.651   3.333   3.630
10282SOL    HW231746   5.811   3.326   3.600
10283SOL     OW31747   1.082   2.866   1.045
10283SOL    HW131748   1.169   2.826   1.016
10283SOL    HW231749   1.084   2.884   1.143
10284SOL     OW31750   6.293   1.986   4.275
10284SOL    HW131751   6.233   2.019   4.201
10284SOL    HW231752   6.351   1.913   4.239
10285SOL     OW31753   4.035   6.425   3.026
10285SOL    HW131754   4.124   6.435   3.071
10285SOL    HW231755   3.973   6.496   3.060
10286SOL     OW31756   3.149   0.710   3.723
10286SOL    HW131757   3.062   0.689   3.678
10286SOL    HW231758   3.220   0.648   3.688
10287SOL     OW31759   2.081   5.772   2.121
10287SOL    HW131760   2.131   5.802   2.202
10287SOL    HW231761   2.111   5.825   2.042
10288SOL     OW31762   3.905   0.077   4.239
10288SOL    HW131763   3.848   0.079   4.157
10288SOL    HW231764   3.851   0.105   4.318
10289SOL     OW31765   2.504   5.957   0.742
10289SOL    HW131766   2.557   5.897   0.682
10289SOL    HW231767   2.498   6.048   0.702
10290SOL     OW31768   3.103   3.142   2.807
10290SOL    HW131769   3.194   3.107   2.787
10290SOL    HW231770   3.045   3.134   2.726
10291SOL     OW31771   3.493   1.467   3.227
10291SOL    HW131772   3.481   1.518   3.312
10291SOL    HW231773   3.434   1.507   3.156
10292SOL     OW31774   0.728   1.599   5.766
10292SOL    HW131775   0.667   1.605   5.688
10292SOL    HW231776   0.708   1.674   5.829
10293SOL     OW31777   0.660   3.571   3.821
10293SOL    HW131778   0.758   3.568   3.802
10293SOL    HW231779   0.627   3.665   3.816
10294SOL     OW31780   4.437   1.465   2.855
10294SOL    HW131781   4.482   1.554   2.864
10294SOL    HW231782   4.417   1.429   2.946
10295SOL     OW31783   1.019   3.184   5.464
10295SOL    HW131784   1.031   3.278   5.495
10295SOL    HW231785   1.023   3.181   5.364
10296SOL     OW31786   5.861   1.658   5.905
10296SOL    HW131787   5.859   1.559   5.922
10296SOL    HW231788   5.941   1.680   5.849
10297SOL     OW31789   2.650   1.378   6.907
10297SOL    HW131790   2.749   1.364   6.911
10297SOL    HW231791   2.626   1.424   6.821
10298SOL     OW31792   1.527   4.458   1.764
10298SOL    HW131793   1.516   4.551   1.799
10298SOL    HW231794   1.483   4.452   1.674
10299SOL     OW31795   3.878   5.597   2.293
10299SOL    HW131796   3.804   5.662   2.277
10299SOL    HW231797   3.959   5.646   2.326
10300SOL     OW31798   1.769   4.412   1.876
10300SOL    HW131799   1.677   4.421   1.837
10300SOL    HW231800   1.762   4.393   1.974
10301SOL     OW31801   4.573   1.888   5.403
10301SOL    HW131802   4.562   1.789   5.412
10301SOL    HW231803   4.524   1.919   5.321
10302SOL     OW31804   1.919   5.853   4.690
10302SOL    HW131805   1.939   5.822   4.597
10302SOL    HW231806   1.978   5.930   4.714
10303SOL     OW31807   1.100   5.129   3.601
10303SOL    HW131808   1.036   5.064   3.561
10303SOL    HW231809   1.051   5.188   3.666
10304SOL     OW31810   5.808   0.384   0.897
10304SOL    HW131811   5.898   0.367   0.938
10304SOL    HW231812   5.758   0.297   0.891
10305SOL     OW31813   2.488   4.424   5.754
10305SOL    HW131814   2.526   4.472   5.675
10305SOL    HW231815   2.442   4.341   5.724
10306SOL     OW31816   5.780   5.959   0.441
10306SOL    HW131817   5.848   5.953   0.369
10306SOL    HW231818   5.817   5.921   0.526
10307SOL     OW31819   3.019   1.481   4.736
10307SOL    HW131820   2.999   1.404   4.675
10307SOL    HW231821   3.096   1.533   4.699
10308SOL     OW31822   2.021   4.273   2.132
10308SOL    HW131823   2.117   4.270   2.104
10308SOL    HW231824   1.983   4.180   2.127
10309SOL     OW31825   6.693   1.635   6.723
10309SOL    HW131826   6.699   1.536   6.712
10309SOL    HW231827   6.695   1.658   6.820
10310SOL     OW31828   2.891   3.863   0.371
10310SOL    HW131829   2.805   3.893   0.331
10310SOL    HW231830   2.953   3.941   0.382
10311SOL     OW31831   6.566   6.032   0.368
10311SOL    HW131832   6.574   5.941   0.407
10311SOL    HW231833   6.503   6.030   0.290
10312SOL     OW31834   4.872   6.726   2.332
10312SOL    HW131835   4.777   6.747   2.356
10312SOL    HW231836   4.916   6.807   2.294
10313SOL     OW31837   3.660   5.768   2.105
10313SOL    HW131838   3.565   5.749   2.082
10313SOL    HW231839   3.664   5.836   2.178
10314SOL     OW31840   6.699   0.130   0.243
10314SOL    HW131841   6.719   0.198   0.314
10314SOL    HW231842   6.637   0.061   0.281
10315SOL     OW31843   5.966   6.201   4.336
10315SOL    HW131844   5.924   6.284   4.373
10315SOL    HW231845   5.971   6.208   4.236
10316SOL     OW31846   6.462   2.897   6.097
10316SOL    HW131847   6.501   2.809   6.122
10316SOL    HW231848   6.498   2.926   6.008
10317SOL     OW31849   3.930   6.344   6.313
10317SOL    HW131850   3.862   6.317   6.382
10317SOL    HW231851   3.974   6.430   6.341
10318SOL     OW31852   4.766   1.071   6.569
10318SOL    HW131853   4.848   1.071   6.627
10318SOL    HW231854   4.755   1.162   6.528
10319SOL     OW31855   0.955   3.769   5.369
10319SOL    HW131856   0.899   3.839   5.324
10319SOL    HW231857   0.964   3.791   5.466
10320SOL     OW31858   0.871   6.275   2.935
10320SOL    HW131859   0.877   6.375   2.926
10320SOL    HW231860   0.934   6.232   2.871
10321SOL     OW31861   5.850   1.942   2.049
10321SOL    HW131862   5.914   1.878   2.007
10321SOL    HW231863   5.797   1.895   2.119
10322SOL     OW31864   4.251   4.888   4.535
10322SOL    HW131865   4.297   4.832   4.604
10322SOL    HW231866   4.319   4.924   4.471
10323SOL     OW31867   5.693   5.072   4.917
10323SOL    HW131868   5.638   5.088   5.000
10323SOL    HW231869   5.641   5.101   4.837
10324SOL     OW31870   3.720   3.151   2.626
10324SOL    HW131871   3.820   3.158   2.638
10324SOL    HW231872   3.691   3.057   2.643
10325SOL     OW31873   6.807   4.515   2.351
10325SOL    HW131874   6.875   4.548   2.417
10325SOL    HW231875   6.746   4.449   2.396
10326SOL     OW31876   5.811   3.982   6.333
10326SOL    HW131877   5.833   4.079   6.345
10326SOL    HW231878   5.763   3.970   6.245
10327SOL     OW31879   2.469   3.040   1.504
10327SOL    HW131880   2.472   3.049   1.405
10327SOL    HW231881   2.459   3.131   1.545
10328SOL     OW31882   6.270   3.205   0.700
10328SOL    HW131883   6.345   3.158   0.746
10328SOL    HW231884   6.201   3.232   0.767
10329SOL     OW31885   2.329   0.832   3.363
10329SOL    HW131886   2.332   0.919   3.412
10329SOL    HW231887   2.349   0.847   3.266
10330SOL     OW31888   3.938   1.198   1.857
10330SOL    HW131889   3.844   1.208   1.891
10330SOL    HW231890   3.984   1.287   1.859
10331SOL     OW31891   6.671   6.272   6.103
10331SOL    HW131892   6.742   6.225   6.050
10331SOL    HW231893   6.639   6.352   6.053
10332SOL     OW31894   6.991   6.762   0.326
10332SOL    HW131895   6.912   6.801   0.373
10332SOL    HW231896   6.973   6.761   0.227
10333SOL     OW31897   0.700   5.033   4.863
10333SOL    HW131898   0.740   5.024   4.772
10333SOL    HW231899   0.602   5.052   4.855
10334SOL     OW31900   3.350   0.687   4.269
10334SOL    HW131901   3.356   0.767   4.211
10334SOL    HW231902   3.281   0.701   4.340
10335SOL     OW31903   1.662   3.633   6.952
10335SOL    HW131904   1.736   3.602   7.011
10335SOL    HW231905   1.646   3.731   6.965
10336SOL     OW31906   6.185   0.342   1.718
10336SOL    HW131907   6.146   0.288   1.793
10336SOL    HW231908   6.274   0.305   1.693
10337SOL     OW31909   0.484   5.923   6.560
10337SOL    HW131910   0.571   5.877   6.546
10337SOL    HW231911   0.439   5.937   6.472
10338SOL     OW31912   1.698   6.217   2.209
10338SOL    HW131913   1.629   6.286   2.232
10338SOL    HW231914   1.654   6.140   2.162
10339SOL     OW31915   5.816   3.454   6.220
10339SOL    HW131916   5.815   3.370   6.165
10339SOL    HW231917   5.863   3.436   6.306
10340SOL     OW31918   1.705   3.181   0.193
10340SOL    HW131919   1.697   3.101   0.134
10340SOL    HW231920   1.671   3.261   0.145
10341SOL     OW31921   2.068   3.604   2.216
10341SOL    HW131922   2.134   3.554   2.162
10341SOL    HW231923   2.024   3.542   2.281
10342SOL     OW31924   2.207   0.035   4.186
10342SOL    HW131925   2.194   7.021   4.093
10342SOL    HW231926   2.176   6.989   4.252
10343SOL     OW31927   2.954   5.103   6.948
10343SOL    HW131928   3.014   5.039   6.997
10343SOL    HW231929   3.002   5.189   6.932
10344SOL     OW31930   4.149   3.679   0.440
10344SOL    HW131931   4.057   3.643   0.454
10344SOL    HW231932   4.145   3.763   0.386
10345SOL     OW31933   1.762   2.312   5.986
10345SOL    HW131934   1.762   2.233   5.924
10345SOL    HW231935   1.763   2.397   5.933
10346SOL     OW31936   0.198   5.729   1.233
10346SOL    HW131937   0.174   5.807   1.175
10346SOL    HW231938   0.172   5.749   1.328
10347SOL     OW31939   3.980   1.211   3.160
10347SOL    HW131940   4.040   1.235   3.084
10347SOL    HW231941   4.030   1.223   3.246
10348SOL     OW31942   6.502   2.682   0.566
10348SOL    HW131943   6.418   2.684   0.619
10348SOL    HW231944   6.530   2.587   0.551
10349SOL     OW31945   1.356   0.890   6.923
10349SOL    HW131946   1.266   0.925   6.951
10349SOL    HW231947   1.384   0.937   6.839
10350SOL     OW31948   3.019   5.431   5.196
10350SOL    HW131949   3.016   5.400   5.101
10350SOL    HW231950   3.042   5.528   5.198
10351SOL     OW31951   4.453   5.149   6.868
10351SOL    HW131952   4.470   5.050   6.863
10351SOL    HW231953   4.356   5.166   6.885
10352SOL     OW31954   3.222   0.972   6.521
10352SOL    HW131955   3.263   0.946   6.608
10352SOL    HW231956   3.152   0.905   6.496
10353SOL     OW31957   0.029   3.110   4.997
10353SOL    HW131958   6.973   3.113   4.934
10353SOL    HW231959   0.040   3.017   5.033
10354SOL     OW31960   5.995   1.820   2.464
10354SOL    HW131961   5.969   1.724   2.477
10354SOL    HW231962   6.031   1.857   2.550
10355SOL     OW31963   2.838   6.813   1.601
10355SOL    HW131964   2.890   6.743   1.551
10355SOL    HW231965   2.765   6.768   1.652
10356SOL     OW31966   0.357   4.898   5.512
10356SOL    HW131967   0.273   4.870   5.558
10356SOL    HW231968   0.428   4.918   5.579
10357SOL     OW31969   1.988   2.941   6.526
10357SOL    HW131970   2.028   2.948   6.618
10357SOL    HW231971   1.945   3.028   6.502
10358SOL     OW31972   0.525   2.649   3.010
10358SOL    HW131973   0.480   2.679   2.926
10358SOL    HW231974   0.483   2.564   3.042
10359SOL     OW31975   1.175   1.483   1.058
10359SOL    HW131976   1.247   1.545   1.086
10359SOL    HW231977   1.201   1.437   0.973
10360SOL     OW31978   4.914   5.105   3.247
10360SOL    HW131979   4.991   5.042   3.239
10360SOL    HW231980   4.840   5.061   3.297
10361SOL     OW31981   2.544   6.424   2.651
10361SOL    HW131982   2.531   6.408   2.749
10361SOL    HW231983   2.519   6.519   2.629
10362SOL     OW31984   1.673   4.790   4.854
10362SOL    HW131985   1.746   4.853   4.826
10362SOL    HW231986   1.589   4.842   4.871
10363SOL     OW31987   4.972   0.675   2.645
10363SOL    HW131988   4.892   0.632   2.603
10363SOL    HW231989   5.001   0.621   2.724
10364SOL     OW31990   2.953   3.507   1.536
10364SOL    HW131991   2.962   3.407   1.537
10364SOL    HW231992   3.017   3.546   1.603
10365SOL     OW31993   3.737   5.167   0.079
10365SOL    HW131994   3.667   5.197   0.144
10365SOL    HW231995   3.820   5.140   0.129
10366SOL     OW31996   2.596   0.316   3.709
10366SOL    HW131997   2.674   0.266   3.670
10366SOL    HW231998   2.567   0.272   3.793
10367SOL     OW31999   5.763   2.656   2.478
10367SOL    HW132000   5.739   2.592   2.405
10367SOL    HW232001   5.784   2.746   2.438
10368SOL     OW32002   2.366   1.136   1.151
10368SOL    HW132003   2.267   1.144   1.143
10368SOL    HW232004   2.409   1.171   1.068
10369SOL     OW32005   4.028   1.074   6.631
10369SOL    HW132006   4.014   1.123   6.545
10369SOL    HW232007   4.012   1.136   6.708
10370SOL     OW32008   5.099   1.315   4.984
10370SOL    HW132009   5.117   1.242   4.918
10370SOL    HW232010   5.002   1.338   4.982
10371SOL     OW32011   3.825   5.701   5.229
10371SOL    HW132012   3.733   5.739   5.230
10371SOL    HW232013   3.821   5.604   5.253
10372SOL     OW32014   1.981   0.971   5.190
10372SOL    HW132015   2.045   0.971   5.267
10372SOL    HW232016   1.887   0.966   5.225
10373SOL     OW32017   1.780   6.488   4.981
10373SOL    HW132018   1.848   6.437   4.928
10373SOL    HW232019   1.746   6.430   5.055
10374SOL     OW32020   3.140   1.788   3.202
10374SOL    HW132021   3.237   1.767   3.215
10374SOL    HW232022   3.132   1.875   3.152
10375SOL     OW32023   4.743   2.098   6.956
10375SOL    HW132024   4.833   2.139   6.938
10375SOL    HW232025   4.755   2.013   7.007
10376SOL     OW32026   0.985   6.740   3.805
10376SOL    HW132027   0.930   6.699   3.878
10376SOL    HW232028   1.079   6.753   3.837
10377SOL     OW32029   6.708   0.871   3.468
10377SOL    HW132030   6.767   0.791   3.478
10377SOL    HW232031   6.616   0.842   3.444
10378SOL     OW32032   6.959   0.834   5.980
10378SOL    HW132033   6.888   0.791   6.036
10378SOL    HW232034   7.009   0.902   6.035
10379SOL     OW32035   4.826   0.514   5.108
10379SOL    HW132036   4.919   0.528   5.141
10379SOL    HW232037   4.810   0.417   5.094
10380SOL     OW32038   5.435   0.713   2.742
10380SOL    HW132039   5.391   0.696   2.830
10380SOL    HW232040   5.534   0.700   2.751
10381SOL     OW32041   4.993   5.815   5.952
10381SOL    HW132042   5.071   5.770   5.907
10381SOL    HW232043   4.908   5.782   5.910
10382SOL     OW32044   2.539   5.132   6.539
10382SOL    HW132045   2.443   5.105   6.536
10382SOL    HW232046   2.590   5.079   6.472
10383SOL     OW32047   0.834   3.656   1.089
10383SOL    HW132048   0.757   3.710   1.054
10383SOL    HW232049   0.838   3.568   1.041
10384SOL     OW32050   0.141   6.885   0.646
10384SOL    HW132051   0.221   6.900   0.705
10384SOL    HW232052   0.059   6.879   0.703
10385SOL     OW32053   5.122   6.906   6.177
10385SOL    HW132054   5.147   6.991   6.222
10385SOL    HW232055   5.040   6.920   6.122
10386SOL     OW32056   6.770   3.754   5.264
10386SOL    HW132057   6.742   3.727   5.172
10386SOL    HW232058   6.732   3.689   5.330
10387SOL     OW32059   2.954   1.875   2.910
10387SOL    HW132060   2.882   1.815   2.946
10387SOL    HW232061   2.930   1.902   2.816
10388SOL     OW32062   1.307   5.392   4.098
10388SOL    HW132063   1.345   5.420   4.010
10388SOL    HW232064   1.352   5.443   4.171
10389SOL     OW32065   0.422   5.060   2.550
10389SOL    HW132066   0.450   5.093   2.460
10389SOL    HW232067   0.502   5.024   2.598
10390SOL     OW32068   1.405   3.926   2.764
10390SOL    HW132069   1.332   3.993   2.752
10390SOL    HW232070   1.475   3.939   2.693
10391SOL     OW32071   1.316   5.857   6.653
10391SOL    HW132072   1.363   5.879   6.568
10391SOL    HW232073   1.313   5.938   6.712
10392SOL     OW32074   6.463   4.032   0.787
10392SOL    HW132075   6.511   4.102   0.735
10392SOL    HW232076   6.493   3.942   0.758
10393SOL     OW32077   0.858   1.413   4.139
10393SOL    HW132078   0.846   1.439   4.043
10393SOL    HW232079   0.770   1.419   4.187
10394SOL     OW32080   1.911   6.882   6.806
10394SOL    HW132081   1.873   6.793   6.832
10394SOL    HW232082   1.836   6.945   6.784
10395SOL     OW32083   6.655   1.066   3.878
10395SOL    HW132084   6.563   1.027   3.882
10395SOL    HW232085   6.661   1.143   3.941
10396SOL     OW32086   1.115   0.619   3.172
10396SOL    HW132087   1.196   0.661   3.212
10396SOL    HW232088   1.142   0.554   3.101
10397SOL     OW32089   3.758   0.515   3.364
10397SOL    HW132090   3.687   0.561   3.417
10397SOL    HW232091   3.759   0.551   3.271
10398SOL     OW32092   6.452   3.023   0.826
10398SOL    HW132093   6.419   2.930   0.839
10398SOL    HW232094   6.521   3.044   0.896
10399SOL     OW32095   4.596   2.121   5.681
10399SOL    HW132096   4.573   2.197   5.620
10399SOL    HW232097   4.657   2.058   5.634
10400SOL     OW32098   2.655   5.828   2.855
10400SOL    HW132099   2.632   5.833   2.952
10400SOL    HW232100   2.673   5.920   2.820
10401SOL     OW32101   6.417   6.025   2.450
10401SOL    HW132102   6.417   6.045   2.547
10401SOL    HW232103   6.489   6.078   2.404
10402SOL     OW32104   0.287   2.785   5.380
10402SOL    HW132105   0.199   2.825   5.405
10402SOL    HW232106   0.329   2.743   5.460
10403SOL     OW32107   5.115   1.680   2.376
10403SOL    HW132108   5.073   1.763   2.412
10403SOL    HW232109   5.072   1.600   2.417
10404SOL     OW32110   0.825   6.626   4.003
10404SOL    HW132111   0.794   6.701   4.061
10404SOL    HW232112   0.810   6.539   4.051
10405SOL     OW32113   1.259   5.807   5.600
10405SOL    HW132114   1.177   5.824   5.546
10405SOL    HW232115   1.324   5.882   5.586
10406SOL     OW32116   1.772   4.720   5.730
10406SOL    HW132117   1.793   4.740   5.634
10406SOL    HW232118   1.675   4.738   5.746
10407SOL     OW32119   1.169   1.159   5.922
10407SOL    HW132120   1.199   1.064   5.928
10407SOL    HW232121   1.234   1.218   5.969
10408SOL     OW32122   4.505   4.904   3.549
10408SOL    HW132123   4.485   4.997   3.582
10408SOL    HW232124   4.540   4.909   3.456
10409SOL     OW32125   0.112   3.622   1.669
10409SOL    HW132126   0.060   3.696   1.711
10409SOL    HW232127   0.208   3.628   1.698
10410SOL     OW32128   4.461   0.841   0.938
10410SOL    HW132129   4.371   0.885   0.948
10410SOL    HW232130   4.490   0.848   0.843
10411SOL     OW32131   2.025   4.702   3.254
10411SOL    HW132132   2.046   4.647   3.173
10411SOL    HW232133   2.099   4.767   3.271
10412SOL     OW32134   0.915   2.468   0.047
10412SOL    HW132135   0.857   2.426   0.117
10412SOL    HW232136   0.928   2.403   6.993
10413SOL     OW32137   0.330   1.856   0.122
10413SOL    HW132138   0.378   1.836   0.208
10413SOL    HW232139   0.242   1.898   0.143
10414SOL     OW32140   4.706   6.503   6.657
10414SOL    HW132141   4.762   6.528   6.736
10414SOL    HW232142   4.695   6.403   6.655
10415SOL     OW32143   0.568   5.435   3.426
10415SOL    HW132144   0.612   5.517   3.463
10415SOL    HW232145   0.635   5.361   3.421
10416SOL     OW32146   6.225   2.533   5.433
10416SOL    HW132147   6.167   2.522   5.514
10416SOL    HW232148   6.168   2.538   5.352
10417SOL     OW32149   3.972   5.360   2.728
10417SOL    HW132150   4.009   5.396   2.813
10417SOL    HW232151   3.953   5.262   2.738
10418SOL     OW32152   6.716   3.940   5.891
10418SOL    HW132153   6.735   4.014   5.956
10418SOL    HW232154   6.658   3.975   5.817
10419SOL     OW32155   3.261   0.669   5.221
10419SOL    HW132156   3.234   0.672   5.317
10419SOL    HW232157   3.247   0.759   5.180
10420SOL     OW32158   6.305   3.022   2.821
10420SOL    HW132159   6.329   3.116   2.798
10420SOL    HW232160   6.241   3.021   2.898
10421SOL     OW32161   0.774   4.318   3.414
10421SOL    HW132162   0.766   4.221   3.436
10421SOL    HW232163   0.757   4.331   3.316
10422SOL     OW32164   0.040   3.565   4.673
10422SOL    HW132165   0.039   3.636   4.744
10422SOL    HW232166   6.993   3.587   4.604
10423SOL     OW32167   3.380   5.147   4.069
10423SOL    HW132168   3.292   5.159   4.115
10423SOL    HW232169   3.406   5.233   4.024
10424SOL     OW32170   3.847   0.863   6.620
10424SOL    HW132171   3.913   0.937   6.609
10424SOL    HW232172   3.887   0.790   6.676
10425SOL     OW32173   2.080   0.636   0.974
10425SOL    HW132174   1.980   0.645   0.978
10425SOL    HW232175   2.122   0.724   0.996
10426SOL     OW32176   5.283   2.510   5.720
10426SOL    HW132177   5.370   2.527   5.766
10426SOL    HW232178   5.264   2.584   5.655
10427SOL     OW32179   5.118   6.024   5.057
10427SOL    HW132180   5.198   6.042   5.113
10427SOL    HW232181   5.035   6.029   5.113
10428SOL     OW32182   1.601   1.672   3.378
10428SOL    HW132183   1.660   1.604   3.422
10428SOL    HW232184   1.652   1.717   3.305
10429SOL     OW32185   0.881   3.486   2.547
10429SOL    HW132186   0.962   3.489   2.490
10429SOL    HW232187   0.904   3.450   2.637
10430SOL     OW32188   3.771   6.854   3.541
10430SOL    HW132189   3.777   6.843   3.641
10430SOL    HW232190   3.862   6.847   3.502
10431SOL     OW32191   2.826   2.051   3.776
10431SOL    HW132192   2.899   2.110   3.743
10431SOL    HW232193   2.861   1.958   3.788
10432SOL     OW32194   6.710   6.801   5.998
10432SOL    HW132195   6.619   6.795   6.040
10432SOL    HW232196   6.701   6.828   5.902
10433SOL     OW32197   2.070   6.850   2.054
10433SOL    HW132198   2.079   6.804   1.966
10433SOL    HW232199   2.048   6.782   2.125
10434SOL     OW32200   5.208   6.793   5.552
10434SOL    HW132201   5.214   6.892   5.542
10434SOL    HW232202   5.228   6.768   5.647
10435SOL     OW32203   0.877   2.272   6.315
10435SOL    HW132204   0.869   2.263   6.215
10435SOL    HW232205   0.786   2.274   6.355
10436SOL     OW32206   0.894   4.223   5.126
10436SOL    HW132207   0.813   4.165   5.114
10436SOL    HW232208   0.962   4.200   5.057
10437SOL     OW32209   5.824   4.853   5.499
10437SOL    HW132210   5.769   4.895   5.572
10437SOL    HW232211   5.875   4.924   5.450
10438SOL     OW32212   6.874   6.187   6.420
10438SOL    HW132213   6.919   6.210   6.334
10438SOL    HW232214   6.805   6.256   6.441
10439SOL     OW32215   0.555   6.950   4.690
10439SOL    HW132216   0.570   6.863   4.645
10439SOL    HW232217   0.468   6.990   4.660
10440SOL     OW32218   0.067   1.509   6.645
10440SOL    HW132219   0.138   1.572   6.616
10440SOL    HW232220   0.010   1.484   6.566
10441SOL     OW32221   3.762   1.923   0.655
10441SOL    HW132222   3.727   2.002   0.705
10441SOL    HW232223   3.823   1.870   0.714
10442SOL     OW32224   2.808   1.393   5.416
10442SOL    HW132225   2.823   1.311   5.470
10442SOL    HW232226   2.849   1.472   5.463
10443SOL     OW32227   6.548   1.129   3.181
10443SOL    HW132228   6.518   1.170   3.095
10443SOL    HW232229   6.520   1.188   3.257
10444SOL     OW32230   3.973   5.885   3.790
10444SOL    HW132231   3.987   5.860   3.886
10444SOL    HW232232   4.056   5.867   3.738
10445SOL     OW32233   1.663   4.272   2.642
10445SOL    HW132234   1.748   4.286   2.591
10445SOL    HW232235   1.610   4.199   2.599
10446SOL     OW32236   1.981   4.197   4.785
10446SOL    HW132237   2.038   4.209   4.867
10446SOL    HW232238   1.898   4.251   4.794
10447SOL     OW32239   6.908   2.006   2.801
10447SOL    HW132240   6.885   2.103   2.810
10447SOL    HW232241   6.825   1.955   2.778
10448SOL     OW32242   2.224   6.603   3.004
10448SOL    HW132243   2.129   6.621   2.978
10448SOL    HW232244   2.250   6.665   3.078
10449SOL     OW32245   3.419   5.779   6.371
10449SOL    HW132246   3.452   5.753   6.280
10449SOL    HW232247   3.400   5.877   6.373
10450SOL     OW32248   6.349   0.124   5.901
10450SOL    HW132249   6.445   0.142   5.920
10450SOL    HW232250   6.293   0.162   5.975
10451SOL     OW32251   1.826   0.671   3.850
10451SOL    HW132252   1.854   0.767   3.849
10451SOL    HW232253   1.895   0.615   3.804
10452SOL     OW32254   6.895   4.083   3.928
10452SOL    HW132255   6.921   4.140   3.850
10452SOL    HW232256   6.805   4.111   3.961
10453SOL     OW32257   4.581   5.625   3.304
10453SOL    HW132258   4.548   5.701   3.248
10453SOL    HW232259   4.519   5.547   3.294
10454SOL     OW32260   6.522   1.712   5.936
10454SOL    HW132261   6.470   1.764   6.004
10454SOL    HW232262   6.594   1.770   5.898
10455SOL     OW32263   6.422   6.735   4.383
10455SOL    HW132264   6.370   6.764   4.303
10455SOL    HW232265   6.411   6.803   4.456
10456SOL     OW32266   0.050   5.399   7.009
10456SOL    HW132267   0.003   5.321   0.028
10456SOL    HW232268   0.144   5.402   0.021
10457SOL     OW32269   4.034   2.598   0.335
10457SOL    HW132270   4.061   2.694   0.348
10457SOL    HW232271   4.066   2.566   0.246
10458SOL     OW32272   6.494   6.789   6.306
10458SOL    HW132273   6.586   6.793   6.344
10458SOL    HW232274   6.430   6.754   6.374
10459SOL     OW32275   0.204   5.599   0.600
10459SOL    HW132276   0.194   5.513   0.552
10459SOL    HW232277   0.149   5.597   0.683
10460SOL     OW32278   0.261   3.865   0.869
10460SOL    HW132279   0.311   3.859   0.955
10460SOL    HW232280   0.313   3.920   0.803
10461SOL     OW32281   0.019   4.903   5.034
10461SOL    HW132282   6.996   4.986   5.069
10461SOL    HW232283   0.010   4.900   4.935
10462SOL     OW32284   4.582   1.772   1.409
10462SOL    HW132285   4.560   1.844   1.474
10462SOL    HW232286   4.533   1.789   1.323
10463SOL     OW32287   4.429   2.818   6.006
10463SOL    HW132288   4.457   2.911   5.981
10463SOL    HW232289   4.459   2.754   5.936
10464SOL     OW32290   5.860   5.450   2.936
10464SOL    HW132291   5.900   5.450   3.027
10464SOL    HW232292   5.771   5.495   2.938
10465SOL     OW32293   5.811   3.260   2.228
10465SOL    HW132294   5.720   3.280   2.191
10465SOL    HW232295   5.856   3.190   2.173
10466SOL     OW32296   5.593   4.989   6.212
10466SOL    HW132297   5.642   5.060   6.264
10466SOL    HW232298   5.565   4.916   6.274
10467SOL     OW32299   2.119   2.757   6.757
10467SOL    HW132300   2.066   2.699   6.695
10467SOL    HW232301   2.217   2.744   6.738
10468SOL     OW32302   2.884   4.756   3.669
10468SOL    HW132303   2.854   4.781   3.761
10468SOL    HW232304   2.970   4.802   3.648
10469SOL     OW32305   6.013   1.826   5.280
10469SOL    HW132306   6.018   1.753   5.212
10469SOL    HW232307   6.070   1.802   5.359
10470SOL     OW32308   2.216   2.512   3.916
10470SOL    HW132309   2.222   2.415   3.893
10470SOL    HW232310   2.143   2.526   3.983
10471SOL     OW32311   2.823   0.716   0.294
10471SOL    HW132312   2.771   0.636   0.325
10471SOL    HW232313   2.816   0.788   0.362
10472SOL     OW32314   3.941   5.028   0.530
10472SOL    HW132315   3.890   4.944   0.512
10472SOL    HW232316   3.891   5.106   0.493
10473SOL     OW32317   5.294   5.439   6.439
10473SOL    HW132318   5.385   5.401   6.421
10473SOL    HW232319   5.228   5.400   6.375
10474SOL     OW32320   5.171   0.965   3.985
10474SOL    HW132321   5.206   0.873   3.971
10474SOL    HW232322   5.136   0.974   4.079
10475SOL     OW32323   1.819   5.991   1.842
10475SOL    HW132324   1.836   5.893   1.840
10475SOL    HW232325   1.808   6.025   1.749
10476SOL     OW32326   3.934   6.309   0.528
10476SOL    HW132327   3.944   6.215   0.560
10476SOL    HW232328   3.908   6.307   0.431
10477SOL     OW32329   6.860   6.495   3.932
10477SOL    HW132330   6.855   6.421   3.999
10477SOL    HW232331   6.914   6.465   3.853
10478SOL     OW32332   5.876   6.700   0.511
10478SOL    HW132333   5.825   6.740   0.435
10478SOL    HW232334   5.901   6.772   0.576
10479SOL     OW32335   0.015   2.302   2.974
10479SOL    HW132336   6.975   2.294   2.896
10479SOL    HW232337   7.008   2.380   3.031
10480SOL     OW32338   1.146   6.883   2.109
10480SOL    HW132339   1.140   6.965   2.053
10480SOL    HW232340   1.243   6.862   2.127
10481SOL     OW32341   1.210   0.334   3.406
10481SOL    HW132342   1.142   0.406   3.394
10481SOL    HW232343   1.242   0.333   3.500
10482SOL     OW32344   5.784   4.256   4.081
10482SOL    HW132345   5.689   4.251   4.110
10482SOL    HW232346   5.792   4.225   3.986
10483SOL     OW32347   6.023   5.181   0.076
10483SOL    HW132348   5.934   5.220   0.099
10483SOL    HW232349   6.088   5.198   0.150
10484SOL     OW32350   6.210   1.447   0.926
10484SOL    HW132351   6.202   1.384   0.849
10484SOL    HW232352   6.302   1.487   0.927
10485SOL     OW32353   4.243   3.754   6.230
10485SOL    HW132354   4.275   3.723   6.320
10485SOL    HW232355   4.149   3.787   6.239
10486SOL     OW32356   6.705   2.807   0.715
10486SOL    HW132357   6.636   2.769   0.653
10486SOL    HW232358   6.663   2.824   0.804
10487SOL     OW32359   5.734   6.311   1.686
10487SOL    HW132360   5.711   6.231   1.629
10487SOL    HW232361   5.833   6.315   1.700
10488SOL     OW32362   2.897   2.629   6.393
10488SOL    HW132363   2.846   2.667   6.316
10488SOL    HW232364   2.873   2.533   6.405
10489SOL     OW32365   0.581   6.114   6.127
10489SOL    HW132366   0.509   6.176   6.159
10489SOL    HW232367   0.649   6.164   6.076
10490SOL     OW32368   6.391   1.416   3.245
10490SOL    HW132369   6.407   1.400   3.343
10490SOL    HW232370   6.298   1.387   3.222
10491SOL     OW32371   2.018   3.748   6.150
10491SOL    HW132372   1.968   3.832   6.170
10491SOL    HW232373   2.092   3.736   6.216
10492SOL     OW32374   4.913   3.711   5.301
10492SOL    HW132375   4.883   3.678   5.211
10492SOL    HW232376   5.013   3.708   5.305
10493SOL     OW32377   3.515   0.577   1.412
10493SOL    HW132378   3.549   0.503   1.353
10493SOL    HW232379   3.589   0.641   1.431
10494SOL     OW32380   5.529   2.049   4.442
10494SOL    HW132381   5.450   2.076   4.387
10494SOL    HW232382   5.546   2.118   4.513
10495SOL     OW32383   1.976   6.809   1.071
10495SOL    HW132384   2.058   6.781   1.021
10495SOL    HW232385   2.004   6.857   1.155
10496SOL     OW32386   6.953   6.756   0.062
10496SOL    HW132387   6.940   6.657   0.069
10496SOL    HW232388   6.954   6.784   6.988
10497SOL     OW32389   1.581   0.336   0.924
10497SOL    HW132390   1.660   0.342   0.863
10497SOL    HW232391   1.526   0.419   0.915
10498SOL     OW32392   2.340   0.336   7.005
10498SOL    HW132393   2.399   0.264   0.019
10498SOL    HW232394   2.262   0.295   6.959
10499SOL     OW32395   2.729   6.362   2.924
10499SOL    HW132396   2.717   6.461   2.934
10499SOL    HW232397   2.819   6.343   2.885
10500SOL     OW32398   0.189   1.992   5.818
10500SOL    HW132399   0.101   1.944   5.814
10500SOL    HW232400   0.263   1.926   5.808
10501SOL     OW32401   2.107   4.857   2.783
10501SOL    HW132402   2.166   4.884   2.707
10501SOL    HW232403   2.047   4.932   2.807
10502SOL     OW32404   3.050   6.885   0.685
10502SOL    HW132405   2.964   6.929   0.660
10502SOL    HW232406   3.090   6.842   0.604
10503SOL     OW32407   4.130   3.095   0.232
10503SOL    HW132408   4.151   3.174   0.173
10503SOL    HW232409   4.034   3.070   0.222
10504SOL     OW32410   1.719   3.088   0.504
10504SOL    HW132411   1.681   3.123   0.419
10504SOL    HW232412   1.664   3.121   0.581
10505SOL     OW32413   6.098   6.104   0.938
10505SOL    HW132414   6.097   6.056   1.026
10505SOL    HW232415   6.004   6.114   0.904
10506SOL     OW32416   0.129   4.607   6.420
10506SOL    HW132417   0.220   4.644   6.439
10506SOL    HW232418   0.065   4.682   6.404
10507SOL     OW32419   1.947   0.509   6.438
10507SOL    HW132420   1.990   0.495   6.527
10507SOL    HW232421   1.906   0.600   6.435
10508SOL     OW32422   5.786   5.494   3.400
10508SOL    HW132423   5.801   5.407   3.353
10508SOL    HW232424   5.708   5.541   3.358
10509SOL     OW32425   1.019   6.507   6.710
10509SOL    HW132426   1.018   6.596   6.757
10509SOL    HW232427   1.010   6.521   6.612
10510SOL     OW32428   5.721   5.174   6.357
10510SOL    HW132429   5.754   5.163   6.451
10510SOL    HW232430   5.797   5.200   6.298
10511SOL     OW32431   4.400   3.061   0.747
10511SOL    HW132432   4.393   2.962   0.759
10511SOL    HW232433   4.381   3.107   0.834
10512SOL     OW32434   4.197   0.782   6.680
10512SOL    HW132435   4.291   0.764   6.708
10512SOL    HW232436   4.197   0.847   6.604
10513SOL     OW32437   0.076   1.961   6.155
10513SOL    HW132438   0.092   2.042   6.098
10513SOL    HW232439   0.056   1.990   6.249
10514SOL     OW32440   6.262   4.124   0.960
10514SOL    HW132441   6.197   4.184   0.914
10514SOL    HW232442   6.314   4.073   0.892
10515SOL     OW32443   6.412   1.862   2.781
10515SOL    HW132444   6.507   1.831   2.778
10515SOL    HW232445   6.410   1.962   2.779
10516SOL     OW32446   4.725   0.928   6.349
10516SOL    HW132447   4.730   0.829   6.361
10516SOL    HW232448   4.734   0.973   6.438
10517SOL     OW32449   6.724   1.891   2.397
10517SOL    HW132450   6.728   1.977   2.345
10517SOL    HW232451   6.629   1.867   2.415
10518SOL     OW32452   1.108   5.081   0.135
10518SOL    HW132453   1.075   4.992   0.105
10518SOL    HW232454   1.207   5.079   0.146
10519SOL     OW32455   3.269   2.842   5.689
10519SOL    HW132456   3.248   2.747   5.665
10519SOL    HW232457   3.197   2.879   5.748
10520SOL     OW32458   2.775   2.838   6.582
10520SOL    HW132459   2.839   2.801   6.515
10520SOL    HW232460   2.780   2.938   6.581
10521SOL     OW32461   6.555   6.357   1.038
10521SOL    HW132462   6.633   6.413   1.010
10521SOL    HW232463   6.584   6.293   1.109
10522SOL     OW32464   6.372   0.820   0.127
10522SOL    HW132465   6.285   0.782   0.096
10522SOL    HW232466   6.367   0.841   0.224
10523SOL     OW32467   0.371   5.563   4.926
10523SOL    HW132468   0.471   5.558   4.925
10523SOL    HW232469   0.340   5.612   5.008
10524SOL     OW32470   1.869   0.249   4.606
10524SOL    HW132471   1.955   0.208   4.575
10524SOL    HW232472   1.815   0.277   4.527
10525SOL     OW32473   3.043   6.481   5.431
10525SOL    HW132474   3.099   6.557   5.401
10525SOL    HW232475   3.036   6.481   5.531
10526SOL     OW32476   0.424   0.685   2.633
10526SOL    HW132477   0.347   0.622   2.623
10526SOL    HW232478   0.509   0.632   2.639
10527SOL     OW32479   1.249   2.560   4.375
10527SOL    HW132480   1.279   2.615   4.297
10527SOL    HW232481   1.323   2.500   4.405
10528SOL     OW32482   1.212   4.353   4.791
10528SOL    HW132483   1.136   4.303   4.833
10528SOL    HW232484   1.221   4.326   4.696
10529SOL     OW32485   0.491   5.851   2.931
10529SOL    HW132486   0.526   5.782   2.995
10529SOL    HW232487   0.560   5.922   2.918
10530SOL     OW32488   2.518   2.013   6.086
10530SOL    HW132489   2.515   1.913   6.076
10530SOL    HW232490   2.470   2.038   6.170
10531SOL     OW32491   2.134   3.703   4.316
10531SOL    HW132492   2.108   3.732   4.408
10531SOL    HW232493   2.107   3.608   4.301
10532SOL     OW32494   2.203   3.013   0.398
10532SOL    HW132495   2.150   3.069   0.461
10532SOL    HW232496   2.186   3.043   0.304
10533SOL     OW32497   3.275   1.315   4.373
10533SOL    HW132498   3.229   1.227   4.359
10533SOL    HW232499   3.303   1.323   4.469
10534SOL     OW32500   0.036   5.789   0.795
10534SOL    HW132501   0.072   5.873   0.835
10534SOL    HW232502   0.008   5.807   0.701
10535SOL     OW32503   6.880   1.310   2.241
10535SOL    HW132504   6.960   1.369   2.256
10535SOL    HW232505   6.798   1.367   2.231
10536SOL     OW32506   4.280   0.454   2.794
10536SOL    HW132507   4.310   0.359   2.792
10536SOL    HW232508   4.227   0.471   2.878
10537SOL     OW32509   3.116   5.466   3.155
10537SOL    HW132510   3.182   5.393   3.145
10537SOL    HW232511   3.164   5.553   3.167
10538SOL     OW32512   4.345   3.297   6.404
10538SOL    HW132513   4.336   3.202   6.432
10538SOL    HW232514   4.265   3.323   6.349
10539SOL     OW32515   0.683   4.030   6.521
10539SOL    HW132516   0.626   4.025   6.439
10539SOL    HW232517   0.639   4.090   6.588
10540SOL     OW32518   1.395   0.408   5.501
10540SOL    HW132519   1.325   0.381   5.436
10540SOL    HW232520   1.373   0.370   5.591
10541SOL     OW32521   3.669   3.833   1.329
10541SOL    HW132522   3.570   3.848   1.319
10541SOL    HW232523   3.700   3.871   1.416
10542SOL     OW32524   0.036   1.529   0.691
10542SOL    HW132525   6.974   1.505   0.739
10542SOL    HW232526   0.113   1.482   0.734
10543SOL     OW32527   6.998   1.377   5.767
10543SOL    HW132528   6.969   1.393   5.862
10543SOL    HW232529   6.989   1.279   5.746
10544SOL     OW32530   2.675   1.811   2.433
10544SOL    HW132531   2.629   1.899   2.447
10544SOL    HW232532   2.670   1.785   2.337
10545SOL     OW32533   6.892   6.884   2.257
10545SOL    HW132534   6.945   6.963   2.228
10545SOL    HW232535   6.814   6.913   2.311
10546SOL     OW32536   1.608   6.865   5.102
10546SOL    HW132537   1.575   6.814   5.181
10546SOL    HW232538   1.535   6.922   5.065
10547SOL     OW32539   4.681   1.242   2.183
10547SOL    HW132540   4.678   1.156   2.132
10547SOL    HW232541   4.715   1.315   2.123
10548SOL     OW32542   5.442   3.843   4.699
10548SOL    HW132543   5.533   3.881   4.715
10548SOL    HW232544   5.449   3.745   4.682
10549SOL     OW32545   6.958   0.615   2.634
10549SOL    HW132546   6.985   0.705   2.668
10549SOL    HW232547   6.860   0.615   2.615
10550SOL     OW32548   4.774   6.446   4.234
10550SOL    HW132549   4.795   6.441   4.331
10550SOL    HW232550   4.799   6.537   4.199
10551SOL     OW32551   1.429   2.549   5.139
10551SOL    HW132552   1.417   2.512   5.047
10551SOL    HW232553   1.339   2.571   5.178
10552SOL     OW32554   4.163   1.874   5.185
10552SOL    HW132555   4.138   1.815   5.261
10552SOL    HW232556   4.260   1.862   5.164
10553SOL     OW32557   0.564   4.790   0.990
10553SOL    HW132558   0.621   4.709   1.006
10553SOL    HW232559   0.623   4.870   0.981
10554SOL     OW32560   5.900   4.818   6.880
10554SOL    HW132561   5.826   4.874   6.916
10554SOL    HW232562   5.957   4.785   6.956
10555SOL     OW32563   3.120   2.099   1.595
10555SOL    HW132564   3.129   2.003   1.568
10555SOL    HW232565   3.024   2.120   1.610
10556SOL     OW32566   2.091   3.253   4.855
10556SOL    HW132567   2.155   3.177   4.851
10556SOL    HW232568   2.129   3.331   4.806
10557SOL     OW32569   0.678   2.508   3.284
10557SOL    HW132570   0.704   2.585   3.342
10557SOL    HW232571   0.580   2.513   3.265
10558SOL     OW32572   4.549   6.901   5.182
10558SOL    HW132573   4.460   6.887   5.139
10558SOL    HW232574   4.589   6.812   5.207
10559SOL     OW32575   4.283   1.519   0.997
10559SOL    HW132576   4.368   1.569   1.013
10559SOL    HW232577   4.231   1.515   1.082
10560SOL     OW32578   1.959   5.180   4.992
10560SOL    HW132579   1.920   5.267   5.024
10560SOL    HW232580   1.986   5.189   4.896
10561SOL     OW32581   2.005   5.207   0.384
10561SOL    HW132582   2.057   5.237   0.304
10561SOL    HW232583   1.952   5.126   0.361
10562SOL     OW32584   5.013   6.936   0.638
10562SOL    HW132585   5.037   6.852   0.687
10562SOL    HW232586   4.968   7.000   0.701
10563SOL     OW32587   2.088   0.830   4.377
10563SOL    HW132588   2.062   0.754   4.437
10563SOL    HW232589   2.165   0.802   4.320
10564SOL     OW32590   5.702   0.088   1.552
10564SOL    HW132591   5.674   0.058   1.461
10564SOL    HW232592   5.782   0.147   1.545
10565SOL     OW32593   0.089   1.626   5.294
10565SOL    HW132594   0.174   1.636   5.346
10565SOL    HW232595   0.099   1.551   5.229
10566SOL     OW32596   3.876   3.669   6.590
10566SOL    HW132597   3.792   3.710   6.554
10566SOL    HW232598   3.876   3.571   6.573
10567SOL     OW32599   1.886   3.486   4.372
10567SOL    HW132600   1.971   3.434   4.381
10567SOL    HW232601   1.834   3.452   4.293
10568SOL     OW32602   5.625   1.433   2.498
10568SOL    HW132603   5.584   1.497   2.433
10568SOL    HW232604   5.609   1.339   2.466
10569SOL     OW32605   6.544   3.707   2.307
10569SOL    HW132606   6.517   3.800   2.282
10569SOL    HW232607   6.492   3.642   2.254
10570SOL     OW32608   1.594   4.494   2.475
10570SOL    HW132609   1.553   4.469   2.387
10570SOL    HW232610   1.606   4.411   2.530
10571SOL     OW32611   6.692   5.398   3.533
10571SOL    HW132612   6.599   5.434   3.541
10571SOL    HW232613   6.735   5.394   3.623
10572SOL     OW32614   5.745   3.738   3.139
10572SOL    HW132615   5.773   3.831   3.118
10572SOL    HW232616   5.774   3.715   3.232
10573SOL     OW32617   6.015   6.474   3.212
10573SOL    HW132618   6.057   6.560   3.182
10573SOL    HW232619   5.969   6.489   3.299
10574SOL     OW32620   1.923   1.920   3.555
10574SOL    HW132621   1.981   1.875   3.623
10574SOL    HW232622   1.963   1.912   3.465
10575SOL     OW32623   0.473   0.694   4.085
10575SOL    HW132624   0.386   0.743   4.099
10575SOL    HW232625   0.535   0.752   4.032
10576SOL     OW32626   0.906   6.759   5.298
10576SOL    HW132627   0.827   6.697   5.288
10576SOL    HW232628   0.938   6.787   5.207
10577SOL     OW32629   1.617   3.047   6.656
10577SOL    HW132630   1.669   3.090   6.583
10577SOL    HW232631   1.670   3.051   6.741
10578SOL     OW32632   6.350   0.934   5.052
10578SOL    HW132633   6.306   1.012   5.009
10578SOL    HW232634   6.359   0.859   4.986
10579SOL     OW32635   4.233   1.010   1.029
10579SOL    HW132636   4.267   1.086   0.973
10579SOL    HW232637   4.232   1.038   1.125
10580SOL     OW32638   6.837   6.982   6.592
10580SOL    HW132639   6.789   6.996   6.678
10580SOL    HW232640   6.935   6.975   6.610
10581SOL     OW32641   6.083   0.220   3.066
10581SOL    HW132642   5.999   0.167   3.077
10581SOL    HW232643   6.092   0.249   2.971
10582SOL     OW32644   3.908   4.465   6.689
10582SOL    HW132645   3.977   4.438   6.755
10582SOL    HW232646   3.865   4.384   6.649
10583SOL     OW32647   4.195   0.860   6.972
10583SOL    HW132648   4.161   0.825   6.884
10583SOL    HW232649   4.189   0.959   6.972
10584SOL     OW32650   5.490   6.061   1.225
10584SOL    HW132651   5.426   6.097   1.293
10584SOL    HW232652   5.481   5.962   1.221
10585SOL     OW32653   1.456   3.102   5.854
10585SOL    HW132654   1.494   3.089   5.763
10585SOL    HW232655   1.379   3.040   5.867
10586SOL     OW32656   2.491   6.183   5.743
10586SOL    HW132657   2.397   6.185   5.777
10586SOL    HW232658   2.512   6.091   5.710
10587SOL     OW32659   5.628   3.240   0.481
10587SOL    HW132660   5.557   3.208   0.418
10587SOL    HW232661   5.624   3.340   0.488
10588SOL     OW32662   1.439   4.196   1.881
10588SOL    HW132663   1.482   4.274   1.835
10588SOL    HW232664   1.340   4.205   1.876
10589SOL     OW32665   5.971   2.085   4.327
10589SOL    HW132666   6.030   2.120   4.399
10589SOL    HW232667   6.019   2.090   4.239
10590SOL     OW32668   1.130   6.806   2.363
10590SOL    HW132669   1.032   6.789   2.372
10590SOL    HW232670   1.147   6.859   2.280
10591SOL     OW32671   1.961   1.955   5.965
10591SOL    HW132672   1.928   1.860   5.962
10591SOL    HW232673   1.958   1.989   6.058
10592SOL     OW32674   5.880   1.626   6.982
10592SOL    HW132675   5.907   1.650   6.889
10592SOL    HW232676   5.793   1.670   7.004
10593SOL     OW32677   2.711   6.105   0.947
10593SOL    HW132678   2.644   6.066   0.884
10593SOL    HW232679   2.681   6.196   0.976
10594SOL     OW32680   6.378   1.444   3.841
10594SOL    HW132681   6.321   1.524   3.861
10594SOL    HW232682   6.462   1.474   3.796
10595SOL     OW32683   3.294   6.929   5.817
10595SOL    HW132684   3.217   6.985   5.850
10595SOL    HW232685   3.366   6.989   5.782
10596SOL     OW32686   3.821   6.893   1.622
10596SOL    HW132687   3.739   6.950   1.615
10596SOL    HW232688   3.887   6.937   1.683
10597SOL     OW32689   2.815   1.147   4.347
10597SOL    HW132690   2.809   1.160   4.248
10597SOL    HW232691   2.864   1.063   4.367
10598SOL     OW32692   2.109   2.416   6.730
10598SOL    HW132693   2.201   2.389   6.703
10598SOL    HW232694   2.102   2.417   6.830
10599SOL     OW32695   5.987   1.478   0.159
10599SOL    HW132696   6.085   1.497   0.149
10599SOL    HW232697   5.936   1.524   0.086
10600SOL     OW32698   2.402   3.333   6.635
10600SOL    HW132699   2.377   3.285   6.719
10600SOL    HW232700   2.490   3.299   6.603
10601SOL     OW32701   3.309   5.795   6.012
10601SOL    HW132702   3.279   5.700   5.999
10601SOL    HW232703   3.237   5.847   6.058
10602SOL     OW32704   5.055   1.555   1.831
10602SOL    HW132705   5.069   1.615   1.752
10602SOL    HW232706   4.962   1.565   1.864
10603SOL     OW32707   1.126   6.392   3.683
10603SOL    HW132708   1.217   6.416   3.716
10603SOL    HW232709   1.086   6.321   3.741
10604SOL     OW32710   5.996   4.449   4.553
10604SOL    HW132711   5.949   4.364   4.527
10604SOL    HW232712   5.968   4.475   4.645
10605SOL     OW32713   0.756   4.928   0.326
10605SOL    HW132714   0.693   4.926   0.403
10605SOL    HW232715   0.848   4.949   0.359
10606SOL     OW32716   6.874   0.861   1.461
10606SOL    HW132717   6.954   0.827   1.511
10606SOL    HW232718   6.878   0.828   1.366
10607SOL     OW32719   4.177   4.938   6.063
10607SOL    HW132720   4.186   5.022   6.117
10607SOL    HW232721   4.246   4.872   6.092
10608SOL     OW32722   5.954   1.736   4.664
10608SOL    HW132723   5.996   1.776   4.745
10608SOL    HW232724   6.018   1.742   4.587
10609SOL     OW32725   3.646   5.906   1.343
10609SOL    HW132726   3.659   5.834   1.275
10609SOL    HW232727   3.628   5.864   1.432
10610SOL     OW32728   0.984   4.042   6.439
10610SOL    HW132729   1.045   4.026   6.517
10610SOL    HW232730   0.889   4.033   6.469
10611SOL     OW32731   5.687   3.021   6.958
10611SOL    HW132732   5.763   3.076   6.994
10611SOL    HW232733   5.668   3.050   6.864
10612SOL     OW32734   2.628   6.917   6.593
10612SOL    HW132735   2.622   6.855   6.515
10612SOL    HW232736   2.623   6.865   6.678
10613SOL     OW32737   6.778   0.430   5.951
10613SOL    HW132738   6.701   0.493   5.955
10613SOL    HW232739   6.846   0.457   6.019
10614SOL     OW32740   0.087   0.718   4.346
10614SOL    HW132741   0.057   0.802   4.392
10614SOL    HW232742   0.011   0.679   4.295
10615SOL     OW32743   4.228   5.570   5.600
10615SOL    HW132744   4.192   5.495   5.657
10615SOL    HW232745   4.328   5.571   5.606
10616SOL     OW32746   2.977   6.543   0.460
10616SOL    HW132747   2.916   6.514   0.387
10616SOL    HW232748   3.033   6.465   0.489
10617SOL     OW32749   2.154   2.661   0.568
10617SOL    HW132750   2.166   2.727   0.642
10617SOL    HW232751   2.061   2.668   0.531
10618SOL     OW32752   6.382   2.877   0.421
10618SOL    HW132753   6.457   2.832   0.470
10618SOL    HW232754   6.304   2.887   0.483
10619SOL     OW32755   0.720   3.738   3.044
10619SOL    HW132756   0.752   3.713   3.135
10619SOL    HW232757   0.782   3.702   2.975
10620SOL     OW32758   1.345   6.092   5.653
10620SOL    HW132759   1.376   6.074   5.746
10620SOL    HW232760   1.416   6.142   5.603
10621SOL     OW32761   1.333   5.628   6.821
10621SOL    HW132762   1.339   5.703   6.755
10621SOL    HW232763   1.405   5.561   6.803
10622SOL     OW32764   4.633   1.070   1.758
10622SOL    HW132765   4.566   1.049   1.829
10622SOL    HW232766   4.591   1.130   1.690
10623SOL     OW32767   5.279   2.708   3.685
10623SOL    HW132768   5.356   2.699   3.749
10623SOL    HW232769   5.315   2.710   3.592
10624SOL     OW32770   1.352   1.463   5.328
10624SOL    HW132771   1.340   1.482   5.230
10624SOL    HW232772   1.273   1.497   5.378
10625SOL     OW32773   0.656   4.266   6.957
10625SOL    HW132774   0.557   4.277   6.962
10625SOL    HW232775   0.680   4.219   6.872
10626SOL     OW32776   1.547   2.183   1.552
10626SOL    HW132777   1.594   2.269   1.574
10626SOL    HW232778   1.479   2.200   1.481
10627SOL     OW32779   6.587   6.219   2.732
10627SOL    HW132780   6.663   6.218   2.798
10627SOL    HW232781   6.518   6.152   2.760
10628SOL     OW32782   6.277   5.227   5.239
10628SOL    HW132783   6.224   5.146   5.216
10628SOL    HW232784   6.285   5.286   5.159
10629SOL     OW32785   2.449   4.777   6.111
10629SOL    HW132786   2.417   4.753   6.019
10629SOL    HW232787   2.510   4.706   6.144
10630SOL     OW32788   6.178   0.525   3.654
10630SOL    HW132789   6.161   0.442   3.707
10630SOL    HW232790   6.092   0.573   3.639
10631SOL     OW32791   0.823   6.913   4.162
10631SOL    HW132792   0.923   6.906   4.160
10631SOL    HW232793   0.796   7.009   4.161
10632SOL     OW32794   6.398   2.377   4.514
10632SOL    HW132795   6.476   2.424   4.474
10632SOL    HW232796   6.339   2.443   4.560
10633SOL     OW32797   2.309   4.757   1.311
10633SOL    HW132798   2.406   4.736   1.295
10633SOL    HW232799   2.287   4.740   1.407
10634SOL     OW32800   2.641   5.801   0.571
10634SOL    HW132801   2.718   5.836   0.517
10634SOL    HW232802   2.667   5.713   0.612
10635SOL     OW32803   3.347   1.239   1.081
10635SOL    HW132804   3.287   1.309   1.118
10635SOL    HW232805   3.306   1.200   0.999
10636SOL     OW32806   0.415   2.058   0.994
10636SOL    HW132807   0.430   2.148   0.954
10636SOL    HW232808   0.394   2.068   1.091
10637SOL     OW32809   3.462   4.014   5.432
10637SOL    HW132810   3.493   3.919   5.432
10637SOL    HW232811   3.489   4.059   5.346
10638SOL     OW32812   0.452   6.613   4.226
10638SOL    HW132813   0.527   6.676   4.247
10638SOL    HW232814   0.369   6.665   4.204
10639SOL     OW32815   1.042   1.453   4.677
10639SOL    HW132816   0.944   1.466   4.688
10639SOL    HW232817   1.065   1.356   4.685
10640SOL     OW32818   4.687   0.746   6.937
10640SOL    HW132819   4.597   0.715   6.968
10640SOL    HW232820   4.677   0.830   6.884
10641SOL     OW32821   5.092   1.736   0.166
10641SOL    HW132822   5.131   1.806   0.107
10641SOL    HW232823   5.008   1.772   0.209
10642SOL     OW32824   0.041   2.213   1.410
10642SOL    HW132825   0.098   2.134   1.388
10642SOL    HW232826   0.074   2.293   1.361
10643SOL     OW32827   2.266   3.993   5.511
10643SOL    HW132828   2.349   3.942   5.493
10643SOL    HW232829   2.186   3.934   5.495
10644SOL     OW32830   4.452   1.688   3.810
10644SOL    HW132831   4.448   1.762   3.876
10644SOL    HW232832   4.499   1.719   3.727
10645SOL     OW32833   0.903   0.859   4.706
10645SOL    HW132834   0.926   0.762   4.698
10645SOL    HW232835   0.917   0.903   4.618
10646SOL     OW32836   0.429   2.652   5.898
10646SOL    HW132837   0.354   2.586   5.898
10646SOL    HW232838   0.410   2.724   5.965
10647SOL     OW32839   6.225   5.174   0.290
10647SOL    HW132840   6.313   5.128   0.303
10647SOL    HW232841   6.239   5.273   0.292
10648SOL     OW32842   5.030   3.271   6.587
10648SOL    HW132843   4.962   3.221   6.642
10648SOL    HW232844   5.027   3.237   6.493
10649SOL     OW32845   0.278   5.007   5.080
10649SOL    HW132846   0.269   5.039   5.175
10649SOL    HW232847   0.189   5.012   5.035
10650SOL     OW32848   2.324   6.347   3.917
10650SOL    HW132849   2.297   6.405   3.841
10650SOL    HW232850   2.337   6.253   3.884
10651SOL     OW32851   4.433   6.999   5.811
10651SOL    HW132852   4.407   6.958   5.724
10651SOL    HW232853   4.516   0.032   5.799
10652SOL     OW32854   3.076   0.044   5.940
10652SOL    HW132855   3.122   0.109   6.001
10652SOL    HW232856   2.977   0.053   5.950
10653SOL     OW32857   4.880   4.553   4.472
10653SOL    HW132858   4.819   4.486   4.429
10653SOL    HW232859   4.971   4.545   4.431
10654SOL     OW32860   2.493   0.504   1.124
10654SOL    HW132861   2.534   0.590   1.157
10654SOL    HW232862   2.501   0.434   1.194
10655SOL     OW32863   2.829   5.733   1.724
10655SOL    HW132864   2.742   5.688   1.741
10655SOL    HW232865   2.868   5.765   1.811
10656SOL     OW32866   6.178   2.608   0.086
10656SOL    HW132867   6.147   2.572   7.020
10656SOL    HW232868   6.123   2.689   0.110
10657SOL     OW32869   5.954   6.639   1.020
10657SOL    HW132870   6.014   6.713   0.990
10657SOL    HW232871   5.876   6.677   1.068
10658SOL     OW32872   1.209   4.526   4.459
10658SOL    HW132873   1.245   4.567   4.543
10658SOL    HW232874   1.259   4.442   4.438
10659SOL     OW32875   5.759   0.059   0.824
10659SOL    HW132876   5.680   0.068   0.763
10659SOL    HW232877   5.731   0.014   0.908
10660SOL     OW32878   4.237   3.904   5.813
10660SOL    HW132879   4.257   3.867   5.723
10660SOL    HW232880   4.183   3.988   5.803
10661SOL     OW32881   0.560   6.765   1.765
10661SOL    HW132882   0.509   6.816   1.835
10661SOL    HW232883   0.576   6.672   1.798
10662SOL     OW32884   0.185   1.339   1.020
10662SOL    HW132885   0.272   1.290   1.024
10662SOL    HW232886   0.127   1.310   1.096
10663SOL     OW32887   0.449   0.372   1.577
10663SOL    HW132888   0.516   0.446   1.576
10663SOL    HW232889   0.484   0.296   1.522
10664SOL     OW32890   2.162   4.439   0.295
10664SOL    HW132891   2.195   4.443   0.201
10664SOL    HW232892   2.088   4.372   0.302
10665SOL     OW32893   0.065   1.968   0.203
10665SOL    HW132894   0.013   1.882   0.200
10665SOL    HW232895   0.048   2.014   0.290
10666SOL     OW32896   3.272   5.786   6.770
10666SOL    HW132897   3.305   5.797   6.863
10666SOL    HW232898   3.311   5.857   6.712
10667SOL     OW32899   3.820   1.750   5.337
10667SOL    HW132900   3.833   1.774   5.241
10667SOL    HW232901   3.835   1.651   5.348
10668SOL     OW32902   1.519   2.057   6.369
10668SOL    HW132903   1.618   2.058   6.384
10668SOL    HW232904   1.483   2.149   6.380
10669SOL     OW32905   1.390   0.004   0.509
10669SOL    HW132906   1.426   0.097   0.519
10669SOL    HW232907   1.450   6.962   0.558
10670SOL     OW32908   5.791   4.584   5.800
10670SOL    HW132909   5.819   4.668   5.847
10670SOL    HW232910   5.695   4.565   5.822
10671SOL     OW32911   2.422   2.499   2.828
10671SOL    HW132912   2.322   2.492   2.831
10671SOL    HW232913   2.454   2.549   2.908
10672SOL     OW32914   0.429   2.530   0.209
10672SOL    HW132915   0.498   2.559   0.275
10672SOL    HW232916   0.453   2.439   0.174
10673SOL     OW32917   2.696   3.125   5.355
10673SOL    HW132918   2.706   3.064   5.434
10673SOL    HW232919   2.642   3.079   5.284
10674SOL     OW32920   3.865   3.863   0.890
10674SOL    HW132921   3.862   3.774   0.843
10674SOL    HW232922   3.852   3.936   0.823
10675SOL     OW32923   0.038   0.180   5.771
10675SOL    HW132924   0.048   0.127   5.687
10675SOL    HW232925   0.000   0.270   5.749
10676SOL     OW32926   6.296   0.416   6.227
10676SOL    HW132927   6.237   0.444   6.152
10676SOL    HW232928   6.244   0.360   6.292
10677SOL     OW32929   0.435   0.563   1.874
10677SOL    HW132930   0.509   0.583   1.811
10677SOL    HW232931   0.350   0.551   1.823
10678SOL     OW32932   2.566   5.636   2.334
10678SOL    HW132933   2.643   5.575   2.351
10678SOL    HW232934   2.509   5.644   2.416
10679SOL     OW32935   5.940   5.541   4.016
10679SOL    HW132936   5.937   5.444   4.041
10679SOL    HW232937   5.862   5.588   4.056
10680SOL     OW32938   1.189   3.027   2.430
10680SOL    HW132939   1.241   2.952   2.388
10680SOL    HW232940   1.118   2.988   2.490
10681SOL     OW32941   6.399   3.084   6.292
10681SOL    HW132942   6.384   3.029   6.374
10681SOL    HW232943   6.435   3.025   6.219
10682SOL     OW32944   0.867   1.647   2.365
10682SOL    HW132945   0.789   1.706   2.343
10682SOL    HW232946   0.936   1.700   2.415
10683SOL     OW32947   1.731   2.049   4.527
10683SOL    HW132948   1.790   2.123   4.558
10683SOL    HW232949   1.781   1.962   4.531
10684SOL     OW32950   6.118   4.353   0.577
10684SOL    HW132951   6.111   4.434   0.519
10684SOL    HW232952   6.202   4.304   0.556
10685SOL     OW32953   0.495   3.670   3.482
10685SOL    HW132954   0.512   3.761   3.521
10685SOL    HW232955   0.409   3.634   3.517
10686SOL     OW32956   3.165   6.238   0.272
10686SOL    HW132957   3.253   6.285   0.268
10686SOL    HW232958   3.171   6.163   0.338
10687SOL     OW32959   6.985   4.548   2.556
10687SOL    HW132960   7.001   4.484   2.631
10687SOL    HW232961   6.921   4.619   2.586
10688SOL     OW32962   6.862   4.949   2.276
10688SOL    HW132963   6.888   5.013   2.203
10688SOL    HW232964   6.832   4.862   2.235
10689SOL     OW32965   0.170   0.574   2.898
10689SOL    HW132966   0.153   0.659   2.846
10689SOL    HW232967   0.091   0.513   2.889
10690SOL     OW32968   4.506   5.199   2.471
10690SOL    HW132969   4.546   5.250   2.547
10690SOL    HW232970   4.570   5.129   2.441
10691SOL     OW32971   6.735   1.231   1.262
10691SOL    HW132972   6.801   1.203   1.332
10691SOL    HW232973   6.737   1.330   1.253
10692SOL     OW32974   3.644   5.910   3.853
10692SOL    HW132975   3.659   5.931   3.950
10692SOL    HW232976   3.732   5.889   3.810
10693SOL     OW32977   0.247   1.425   1.418
10693SOL    HW132978   0.185   1.471   1.481
10693SOL    HW232979   0.326   1.390   1.467
10694SOL     OW32980   3.920   5.826   1.591
10694SOL    HW132981   3.853   5.797   1.659
10694SOL    HW232982   3.890   5.911   1.549
10695SOL     OW32983   6.940   2.482   4.486
10695SOL    HW132984   6.915   2.543   4.411
10695SOL    HW232985   6.887   2.398   4.481
10696SOL     OW32986   0.162   6.060   1.120
10696SOL    HW132987   0.190   6.068   1.215
10696SOL    HW232988   0.237   6.090   1.061
10697SOL     OW32989   0.611   6.003   4.301
10697SOL    HW132990   0.564   5.988   4.214
10697SOL    HW232991   0.572   5.944   4.371
10698SOL     OW32992   3.025   0.109   3.429
10698SOL    HW132993   3.079   0.161   3.495
10698SOL    HW232994   2.939   0.156   3.413
10699SOL     OW32995   4.100   1.547   2.906
10699SOL    HW132996   4.031   1.480   2.878
10699SOL    HW232997   4.140   1.588   2.824
10700SOL     OW32998   6.891   6.418   1.211
10700SOL    HW132999   6.902   6.347   1.281
10700SOL    HW233000   6.977   6.427   1.160
10701SOL     OW33001   3.402   6.400   0.252
10701SOL    HW133002   3.484   6.344   0.243
10701SOL    HW233003   3.378   6.439   0.163
10702SOL     OW33004   6.112   2.807   0.281
10702SOL    HW133005   6.134   2.889   0.334
10702SOL    HW233006   6.058   2.745   0.336
10703SOL     OW33007   3.623   3.952   3.742
10703SOL    HW133008   3.618   3.989   3.649
10703SOL    HW233009   3.546   3.986   3.795
10704SOL     OW33010   5.174   0.167   1.851
10704SOL    HW133011   5.145   0.201   1.940
10704SOL    HW233012   5.145   0.231   1.780
10705SOL     OW33013   0.975   3.105   5.987
10705SOL    HW133014   0.941   3.053   5.908
10705SOL    HW233015   0.910   3.176   6.011
10706SOL     OW33016   3.699   0.666   1.784
10706SOL    HW133017   3.605   0.636   1.763
10706SOL    HW233018   3.696   0.758   1.823
10707SOL     OW33019   6.043   6.640   5.869
10707SOL    HW133020   6.115   6.610   5.807
10707SOL    HW233021   6.081   6.701   5.938
10708SOL     OW33022   4.638   0.963   1.076
10708SOL    HW133023   4.566   0.911   1.030
10708SOL    HW233024   4.631   1.059   1.052
10709SOL     OW33025   6.377   6.867   5.521
10709SOL    HW133026   6.355   6.902   5.430
10709SOL    HW233027   6.305   6.894   5.585
10710SOL     OW33028   6.126   5.805   4.108
10710SOL    HW133029   6.063   5.842   4.040
10710SOL    HW233030   6.075   5.771   4.187
10711SOL     OW33031   1.086   6.961   4.152
10711SOL    HW133032   1.075   0.028   4.109
10711SOL    HW233033   1.152   6.906   4.101
10712SOL     OW33034   3.423   1.356   5.137
10712SOL    HW133035   3.435   1.439   5.191
10712SOL    HW233036   3.510   1.306   5.133
10713SOL     OW33037   1.783   5.746   1.735
10713SOL    HW133038   1.741   5.674   1.791
10713SOL    HW233039   1.720   5.772   1.662
10714SOL     OW33040   0.562   5.204   5.497
10714SOL    HW133041   0.618   5.182   5.417
10714SOL    HW233042   0.549   5.122   5.552
10715SOL     OW33043   4.697   1.754   4.012
10715SOL    HW133044   4.783   1.801   4.030
10715SOL    HW233045   4.700   1.714   3.920
10716SOL     OW33046   6.856   0.611   4.247
10716SOL    HW133047   6.872   0.540   4.179
10716SOL    HW233048   6.774   0.663   4.221
10717SOL     OW33049   6.628   0.571   1.573
10717SOL    HW133050   6.666   0.663   1.586
10717SOL    HW233051   6.692   0.503   1.608
10718SOL     OW33052   6.473   5.228   6.562
10718SOL    HW133053   6.479   5.226   6.662
10718SOL    HW233054   6.565   5.231   6.523
10719SOL     OW33055   5.776   0.943   1.757
10719SOL    HW133056   5.818   0.874   1.816
10719SOL    HW233057   5.844   1.014   1.735
10720SOL     OW33058   0.376   3.714   6.610
10720SOL    HW133059   0.475   3.700   6.604
10720SOL    HW233060   0.329   3.627   6.598
10721SOL     OW33061   5.479   2.581   4.181
10721SOL    HW133062   5.502   2.543   4.092
10721SOL    HW233063   5.498   2.514   4.252
10722SOL     OW33064   6.597   3.807   0.347
10722SOL    HW133065   6.678   3.753   0.326
10722SOL    HW233066   6.531   3.752   0.397
10723SOL     OW33067   5.653   4.144   6.737
10723SOL    HW133068   5.587   4.128   6.664
10723SOL    HW233069   5.733   4.085   6.723
10724SOL     OW33070   4.027   6.567   6.426
10724SOL    HW133071   4.051   6.650   6.375
10724SOL    HW233072   3.961   6.591   6.498
10725SOL     OW33073   0.622   5.868   4.822
10725SOL    HW133074   0.674   5.847   4.739
10725SOL    HW233075   0.621   5.967   4.836
10726SOL     OW33076   5.589   0.261   4.785
10726SOL    HW133077   5.616   0.223   4.873
10726SOL    HW233078   5.532   0.342   4.800
10727SOL     OW33079   2.473   5.590   5.904
10727SOL    HW133080   2.559   5.627   5.941
10727SOL    HW233081   2.476   5.490   5.909
10728SOL     OW33082   4.418   6.818   2.771
10728SOL    HW133083   4.459   6.728   2.786
10728SOL    HW233084   4.473   6.888   2.816
10729SOL     OW33085   6.188   2.589   2.798
10729SOL    HW133086   6.179   2.637   2.711
10729SOL    HW233087   6.171   2.652   2.874
10730SOL     OW33088   1.732   0.039   2.710
10730SOL    HW133089   1.825   0.041   2.675
10730SOL    HW233090   1.728   7.002   2.791
10731SOL     OW33091   3.447   6.881   0.171
10731SOL    HW133092   3.349   6.863   0.179
10731SOL    HW233093   3.469   6.966   0.219
10732SOL     OW33094   6.061   6.080   3.276
10732SOL    HW133095   6.042   5.990   3.239
10732SOL    HW233096   6.124   6.129   3.216
10733SOL     OW33097   6.367   1.169   5.909
10733SOL    HW133098   6.381   1.262   5.875
10733SOL    HW233099   6.325   1.173   6.000
10734SOL     OW33100   1.772   0.764   5.565
10734SOL    HW133101   1.862   0.760   5.609
10734SOL    HW233102   1.703   0.788   5.632
10735SOL     OW33103   1.239   5.066   1.764
10735SOL    HW133104   1.281   4.983   1.729
10735SOL    HW233105   1.290   5.146   1.732
10736SOL     OW33106   6.818   0.234   3.702
10736SOL    HW133107   6.875   0.227   3.784
10736SOL    HW233108   6.811   0.145   3.658
10737SOL     OW33109   6.856   1.544   1.507
10737SOL    HW133110   6.779   1.588   1.460
10737SOL    HW233111   6.828   1.455   1.542
10738SOL     OW33112   2.972   0.693   2.409
10738SOL    HW133113   2.926   0.605   2.420
10738SOL    HW233114   3.068   0.678   2.389
10739SOL     OW33115   6.009   2.129   2.424
10739SOL    HW133116   5.993   2.032   2.445
10739SOL    HW233117   5.922   2.179   2.429
10740SOL     OW33118   1.753   7.003   6.064
10740SOL    HW133119   1.817   6.995   6.140
10740SOL    HW233120   1.790   6.953   5.985
10741SOL     OW33121   2.099   2.745   3.031
10741SOL    HW133122   2.005   2.742   3.066
10741SOL    HW233123   2.163   2.744   3.107
10742SOL     OW33124   5.985   5.746   2.775
10742SOL    HW133125   5.963   5.655   2.809
10742SOL    HW233126   5.997   5.809   2.851
10743SOL     OW33127   3.319   0.783   5.643
10743SOL    HW133128   3.371   0.813   5.723
10743SOL    HW233129   3.338   0.843   5.566
10744SOL     OW33130   2.093   0.289   0.707
10744SOL    HW133131   2.167   0.315   0.769
10744SOL    HW233132   2.116   0.319   0.614
10745SOL     OW33133   2.297   4.640   1.025
10745SOL    HW133134   2.218   4.660   1.083
10745SOL    HW233135   2.339   4.554   1.054
10746SOL     OW33136   1.835   6.374   6.715
10746SOL    HW133137   1.816   6.399   6.810
10746SOL    HW233138   1.869   6.454   6.665
10747SOL     OW33139   6.733   1.844   4.080
10747SOL    HW133140   6.674   1.794   4.144
10747SOL    HW233141   6.828   1.837   4.110
10748SOL     OW33142   3.950   5.672   1.365
10748SOL    HW133143   3.927   5.578   1.392
10748SOL    HW233144   3.947   5.730   1.446
10749SOL     OW33145   6.667   4.785   3.008
10749SOL    HW133146   6.636   4.848   3.080
10749SOL    HW233147   6.652   4.691   3.037
10750SOL     OW33148   5.074   2.698   4.111
10750SOL    HW133149   5.053   2.754   4.192
10750SOL    HW233150   4.991   2.655   4.077
10751SOL     OW33151   1.280   3.967   5.339
10751SOL    HW133152   1.235   3.920   5.414
10751SOL    HW233153   1.303   4.060   5.367
10752SOL     OW33154   5.897   5.911   0.696
10752SOL    HW133155   5.866   5.987   0.752
10752SOL    HW233156   5.996   5.919   0.681
10753SOL     OW33157   4.729   6.226   3.803
10753SOL    HW133158   4.755   6.132   3.826
10753SOL    HW233159   4.784   6.290   3.856
10754SOL     OW33160   1.638   3.027   1.919
10754SOL    HW133161   1.570   3.080   1.970
10754SOL    HW233162   1.591   2.974   1.848
10755SOL     OW33163   6.512   3.187   1.225
10755SOL    HW133164   6.425   3.191   1.176
10755SOL    HW233165   6.580   3.242   1.177
10756SOL     OW33166   0.268   3.095   0.622
10756SOL    HW133167   0.330   3.136   0.556
10756SOL    HW233168   0.180   3.076   0.577
10757SOL     OW33169   6.411   4.485   1.434
10757SOL    HW133170   6.400   4.539   1.351
10757SOL    HW233171   6.347   4.408   1.433
10758SOL     OW33172   0.621   6.767   6.805
10758SOL    HW133173   0.560   6.829   6.855
10758SOL    HW233174   0.570   6.723   6.731
10759SOL     OW33175   2.344   2.063   6.312
10759SOL    HW133176   2.258   2.115   6.305
10759SOL    HW233177   2.324   1.966   6.325
10760SOL     OW33178   0.253   5.241   0.248
10760SOL    HW133179   0.240   5.335   0.215
10760SOL    HW233180   0.293   5.186   0.175
10761SOL     OW33181   0.541   1.642   6.261
10761SOL    HW133182   0.443   1.651   6.243
10761SOL    HW233183   0.558   1.645   6.359
10762SOL     OW33184   3.833   6.740   5.715
10762SOL    HW133185   3.770   6.662   5.714
10762SOL    HW233186   3.925   6.709   5.692
10763SOL     OW33187   5.431   0.060   2.990
10763SOL    HW133188   5.367   0.134   2.971
10763SOL    HW233189   5.453   0.058   3.087
10764SOL     OW33190   4.484   1.246   5.405
10764SOL    HW133191   4.418   1.176   5.433
10764SOL    HW233192   4.480   1.257   5.306
10765SOL     OW33193   6.795   2.242   2.795
10765SOL    HW133194   6.787   2.313   2.725
10765SOL    HW233195   6.704   2.210   2.820
10766SOL     OW33196   1.586   4.614   6.677
10766SOL    HW133197   1.621   4.523   6.657
10766SOL    HW233198   1.513   4.608   6.746
10767SOL     OW33199   1.698   5.626   0.843
10767SOL    HW133200   1.710   5.696   0.773
10767SOL    HW233201   1.603   5.594   0.842
10768SOL     OW33202   5.940   6.252   0.410
10768SOL    HW133203   5.892   6.340   0.398
10768SOL    HW233204   5.897   6.183   0.352
10769SOL     OW33205   2.986   3.517   5.192
10769SOL    HW133206   3.047   3.455   5.143
10769SOL    HW233207   2.908   3.540   5.133
10770SOL     OW33208   5.143   7.004   4.157
10770SOL    HW133209   5.046   7.005   4.181
10770SOL    HW233210   5.190   0.055   4.206
10771SOL     OW33211   5.291   5.995   5.808
10771SOL    HW133212   5.370   5.971   5.751
10771SOL    HW233213   5.243   5.912   5.836
10772SOL     OW33214   5.909   4.738   3.066
10772SOL    HW133215   5.833   4.801   3.047
10772SOL    HW233216   5.995   4.790   3.065
10773SOL     OW33217   6.362   4.661   1.213
10773SOL    HW133218   6.368   4.589   1.143
10773SOL    HW233219   6.438   4.724   1.203
10774SOL     OW33220   1.135   2.493   0.738
10774SOL    HW133221   1.155   2.398   0.761
10774SOL    HW233222   1.120   2.501   0.639
10775SOL     OW33223   1.479   4.284   1.342
10775SOL    HW133224   1.479   4.244   1.434
10775SOL    HW233225   1.507   4.214   1.277
10776SOL     OW33226   0.384   1.258   2.962
10776SOL    HW133227   0.347   1.286   3.051
10776SOL    HW233228   0.418   1.338   2.913
10777SOL     OW33229   2.844   1.176   2.660
10777SOL    HW133230   2.926   1.232   2.663
10777SOL    HW233231   2.839   1.120   2.743
10778SOL     OW33232   6.267   6.863   3.961
10778SOL    HW133233   6.212   6.883   4.042
10778SOL    HW233234   6.222   6.792   3.906
10779SOL     OW33235   5.487   4.080   4.083
10779SOL    HW133236   5.417   4.014   4.112
10779SOL    HW233237   5.577   4.038   4.092
10780SOL     OW33238   1.165   5.731   5.032
10780SOL    HW133239   1.262   5.733   5.007
10780SOL    HW233240   1.129   5.638   5.022
10781SOL     OW33241   5.887   2.770   4.938
10781SOL    HW133242   5.987   2.778   4.928
10781SOL    HW233243   5.858   2.815   5.022
10782SOL     OW33244   0.929   3.151   5.211
10782SOL    HW133245   0.997   3.141   5.138
10782SOL    HW233246   0.863   3.076   5.206
10783SOL     OW33247   0.721   2.318   2.650
10783SOL    HW133248   0.819   2.330   2.667
10783SOL    HW233249   0.708   2.256   2.573
10784SOL     OW33250   3.466   6.137   2.283
10784SOL    HW133251   3.405   6.200   2.331
10784SOL    HW233252   3.459   6.046   2.324
10785SOL     OW33253   1.759   5.737   2.655
10785SOL    HW133254   1.746   5.745   2.754
10785SOL    HW233255   1.776   5.828   2.617
10786SOL     OW33256   4.515   1.613   1.989
10786SOL    HW133257   4.459   1.653   2.061
10786SOL    HW233258   4.496   1.658   1.902
10787SOL     OW33259   3.461   1.165   3.385
10787SOL    HW133260   3.507   1.156   3.473
10787SOL    HW233261   3.492   1.093   3.323
10788SOL     OW33262   0.882   4.190   0.461
10788SOL    HW133263   0.867   4.121   0.532
10788SOL    HW233264   0.980   4.210   0.454
10789SOL     OW33265   6.344   1.219   0.126
10789SOL    HW133266   6.358   1.143   0.062
10789SOL    HW233267   6.432   1.261   0.148
10790SOL     OW33268   0.455   2.291   4.534
10790SOL    HW133269   0.396   2.276   4.454
10790SOL    HW233270   0.417   2.364   4.590
10791SOL     OW33271   2.032   1.466   2.797
10791SOL    HW133272   1.949   1.522   2.797
10791SOL    HW233273   2.106   1.517   2.839
10792SOL     OW33274   3.970   2.264   1.025
10792SOL    HW133275   3.916   2.183   1.000
10792SOL    HW233276   3.920   2.346   0.999
10793SOL     OW33277   4.879   1.683   5.297
10793SOL    HW133278   4.787   1.645   5.291
10793SOL    HW233279   4.875   1.782   5.282
10794SOL     OW33280   4.332   3.264   1.219
10794SOL    HW133281   4.364   3.232   1.308
10794SOL    HW233282   4.316   3.363   1.223
10795SOL     OW33283   6.746   3.237   3.410
10795SOL    HW133284   6.703   3.274   3.328
10795SOL    HW233285   6.740   3.304   3.484
10796SOL     OW33286   6.799   6.483   6.710
10796SOL    HW133287   6.774   6.387   6.726
10796SOL    HW233288   6.892   6.500   6.740
10797SOL     OW33289   4.327   3.674   0.642
10797SOL    HW133290   4.268   3.677   0.561
10797SOL    HW233291   4.408   3.618   0.621
10798SOL     OW33292   2.868   6.679   6.432
10798SOL    HW133293   2.804   6.692   6.356
10798SOL    HW233294   2.832   6.608   6.493
10799SOL     OW33295   3.117   1.702   2.700
10799SOL    HW133296   3.146   1.732   2.791
10799SOL    HW233297   3.171   1.750   2.630
10800SOL     OW33298   1.366   0.370   5.824
10800SOL    HW133299   1.458   0.331   5.833
10800SOL    HW233300   1.362   0.458   5.871
10801SOL     OW33301   2.757   6.154   5.843
10801SOL    HW133302   2.816   6.137   5.765
10801SOL    HW233303   2.665   6.178   5.811
10802SOL     OW33304   0.612   3.820   4.593
10802SOL    HW133305   0.702   3.806   4.551
10802SOL    HW233306   0.609   3.774   4.682
10803SOL     OW33307   6.401   4.643   5.057
10803SOL    HW133308   6.435   4.593   5.137
10803SOL    HW233309   6.405   4.741   5.076
10804SOL     OW33310   5.284   4.880   2.359
10804SOL    HW133311   5.299   4.895   2.456
10804SOL    HW233312   5.209   4.815   2.346
10805SOL     OW33313   4.440   6.615   0.931
10805SOL    HW133314   4.384   6.541   0.894
10805SOL    HW233315   4.464   6.596   1.026
10806SOL     OW33316   5.251   4.116   0.032
10806SOL    HW133317   5.209   4.044   6.998
10806SOL    HW233318   5.327   4.156   7.005
10807SOL     OW33319   4.219   6.047   3.435
10807SOL    HW133320   4.154   6.123   3.433
10807SOL    HW233321   4.263   6.038   3.346
10808SOL     OW33322   6.944   3.093   5.904
10808SOL    HW133323   6.982   3.139   5.984
10808SOL    HW233324   7.015   3.036   5.862
10809SOL     OW33325   2.237   0.608   3.473
10809SOL    HW133326   2.275   0.695   3.441
10809SOL    HW233327   2.309   0.555   3.518
10810SOL     OW33328   6.919   1.804   5.334
10810SOL    HW133329   6.950   1.894   5.302
10810SOL    HW233330   6.991   1.736   5.316
10811SOL     OW33331   4.735   4.684   5.077
10811SOL    HW133332   4.807   4.737   5.120
10811SOL    HW233333   4.764   4.589   5.067
10812SOL     OW33334   6.434   2.700   2.575
10812SOL    HW133335   6.413   2.617   2.625
10812SOL    HW233336   6.478   2.677   2.489
10813SOL     OW33337   2.923   6.170   1.849
10813SOL    HW133338   2.936   6.120   1.934
10813SOL    HW233339   3.010   6.208   1.819
10814SOL     OW33340   1.834   6.973   4.783
10814SOL    HW133341   1.811   6.897   4.843
10814SOL    HW233342   1.765   0.023   4.791
10815SOL     OW33343   5.287   3.471   3.191
10815SOL    HW133344   5.286   3.387   3.137
10815SOL    HW233345   5.378   3.513   3.187
10816SOL     OW33346   1.633   1.125   2.021
10816SOL    HW133347   1.632   1.221   2.048
10816SOL    HW233348   1.669   1.117   1.928
10817SOL     OW33349   4.569   6.948   2.234
10817SOL    HW133350   4.586   6.910   2.143
10817SOL    HW233351   4.584   6.877   2.303
10818SOL     OW33352   4.459   3.091   6.824
10818SOL    HW133353   4.470   3.021   6.753
10818SOL    HW233354   4.475   3.181   6.783
10819SOL     OW33355   6.967   4.464   6.587
10819SOL    HW133356   6.900   4.431   6.521
10819SOL    HW233357   0.017   4.515   6.539
10820SOL     OW33358   0.340   6.489   4.499
10820SOL    HW133359   0.392   6.453   4.422
10820SOL    HW233360   0.293   6.414   4.545
10821SOL     OW33361   6.806   0.546   1.066
10821SOL    HW133362   6.785   0.472   1.129
10821SOL    HW233363   6.726   0.605   1.056
10822SOL     OW33364   0.598   3.983   2.230
10822SOL    HW133365   0.503   3.964   2.254
10822SOL    HW233366   0.610   3.971   2.131
10823SOL     OW33367   1.954   6.479   1.137
10823SOL    HW133368   2.025   6.499   1.204
10823SOL    HW233369   1.866   6.509   1.173
10824SOL     OW33370   5.371   0.685   2.478
10824SOL    HW133371   5.447   0.689   2.413
10824SOL    HW233372   5.397   0.734   2.562
10825SOL     OW33373   3.714   1.454   0.855
10825SOL    HW133374   3.800   1.440   0.903
10825SOL    HW233375   3.732   1.496   0.766
10826SOL     OW33376   6.986   3.239   2.361
10826SOL    HW133377   7.020   3.330   2.335
10826SOL    HW233378   0.025   3.169   2.323
10827SOL     OW33379   6.929   2.901   3.948
10827SOL    HW133380   6.842   2.940   3.978
10827SOL    HW233381   6.997   2.911   4.020
10828SOL     OW33382   1.231   5.723   0.574
10828SOL    HW133383   1.210   5.630   0.546
10828SOL    HW233384   1.326   5.728   0.605
10829SOL     OW33385   3.314   4.057   1.968
10829SOL    HW133386   3.231   4.067   2.023
10829SOL    HW233387   3.393   4.048   2.029
10830SOL     OW33388   5.012   2.963   4.581
10830SOL    HW133389   5.112   2.963   4.573
10830SOL    HW233390   4.972   3.005   4.500
10831SOL     OW33391   5.294   1.418   3.052
10831SOL    HW133392   5.205   1.393   3.014
10831SOL    HW233393   5.317   1.356   3.127
10832SOL     OW33394   1.171   1.738   0.412
10832SOL    HW133395   1.090   1.795   0.427
10832SOL    HW233396   1.161   1.651   0.461
10833SOL     OW33397   3.111   0.341   4.414
10833SOL    HW133398   3.078   0.386   4.331
10833SOL    HW233399   3.205   0.310   4.400
10834SOL     OW33400   1.034   1.799   5.101
10834SOL    HW133401   0.983   1.837   5.179
10834SOL    HW233402   0.974   1.796   5.022
10835SOL     OW33403   5.873   1.547   2.490
10835SOL    HW133404   5.784   1.503   2.498
10835SOL    HW233405   5.920   1.512   2.408
10836SOL     OW33406   1.966   1.998   6.227
10836SOL    HW133407   1.901   1.978   6.300
10836SOL    HW233408   2.038   2.058   6.262
10837SOL     OW33409   6.710   4.457   0.517
10837SOL    HW133410   6.698   4.410   0.604
10837SOL    HW233411   6.664   4.406   0.445
10838SOL     OW33412   6.075   6.924   6.264
10838SOL    HW133413   6.148   6.957   6.323
10838SOL    HW233414   6.050   6.831   6.291
10839SOL     OW33415   1.877   2.497   0.093
10839SOL    HW133416   1.956   2.519   0.151
10839SOL    HW233417   1.797   2.481   0.151
10840SOL     OW33418   3.887   5.247   1.708
10840SOL    HW133419   3.921   5.341   1.715
10840SOL    HW233420   3.866   5.212   1.799
10841SOL     OW33421   4.114   5.693   5.877
10841SOL    HW133422   4.114   5.780   5.926
10841SOL    HW233423   4.202   5.679   5.833
10842SOL     OW33424   6.347   2.992   1.550
10842SOL    HW133425   6.358   2.906   1.601
10842SOL    HW233426   6.422   3.053   1.572
10843SOL     OW33427   0.486   1.637   2.132
10843SOL    HW133428   0.529   1.646   2.043
10843SOL    HW233429   0.518   1.553   2.176
10844SOL     OW33430   4.807   0.187   3.720
10844SOL    HW133431   4.905   0.201   3.734
10844SOL    HW233432   4.781   0.096   3.751
10845SOL     OW33433   1.414   1.830   1.385
10845SOL    HW133434   1.488   1.795   1.443
10845SOL    HW233435   1.391   1.923   1.412
10846SOL     OW33436   3.972   2.043   1.240
10846SOL    HW133437   3.979   2.120   1.177
10846SOL    HW233438   3.986   2.075   1.334
10847SOL     OW33439   4.020   2.442   6.274
10847SOL    HW133440   4.016   2.519   6.211
10847SOL    HW233441   3.930   2.400   6.281
10848SOL     OW33442   1.021   0.810   6.528
10848SOL    HW133443   0.929   0.818   6.490
10848SOL    HW233444   1.083   0.774   6.458
10849SOL     OW33445   3.119   5.093   4.266
10849SOL    HW133446   3.079   5.084   4.175
10849SOL    HW233447   3.111   5.188   4.297
10850SOL     OW33448   5.017   6.197   0.971
10850SOL    HW133449   5.082   6.130   0.934
10850SOL    HW233450   5.017   6.192   1.071
10851SOL     OW33451   3.656   2.003   6.521
10851SOL    HW133452   3.627   2.022   6.614
10851SOL    HW233453   3.577   1.980   6.465
10852SOL     OW33454   0.628   0.575   6.691
10852SOL    HW133455   0.546   0.519   6.691
10852SOL    HW233456   0.707   0.518   6.716
10853SOL     OW33457   2.280   1.515   4.639
10853SOL    HW133458   2.300   1.532   4.736
10853SOL    HW233459   2.192   1.557   4.616
10854SOL     OW33460   6.653   6.695   6.662
10854SOL    HW133461   6.712   6.634   6.715
10854SOL    HW233462   6.705   6.731   6.584
10855SOL     OW33463   1.400   6.089   1.592
10855SOL    HW133464   1.317   6.144   1.585
10855SOL    HW233465   1.476   6.147   1.620
10856SOL     OW33466   6.105   6.924   0.029
10856SOL    HW133467   6.045   6.862   7.000
10856SOL    HW233468   6.155   6.982   6.986
10857SOL     OW33469   5.848   1.676   3.874
10857SOL    HW133470   5.884   1.583   3.870
10857SOL    HW233471   5.750   1.673   3.895
10858SOL     OW33472   2.045   3.186   0.591
10858SOL    HW133473   1.959   3.140   0.570
10858SOL    HW233474   2.027   3.272   0.638
10859SOL     OW33475   0.807   4.500   2.244
10859SOL    HW133476   0.806   4.405   2.274
10859SOL    HW233477   0.725   4.518   2.189
10860SOL     OW33478   6.195   2.216   6.959
10860SOL    HW133479   6.199   2.267   0.023
10860SOL    HW233480   6.286   2.185   6.933
10861SOL     OW33481   3.374   2.771   1.759
10861SOL    HW133482   3.344   2.817   1.843
10861SOL    HW233483   3.442   2.701   1.781
10862SOL     OW33484   3.485   3.008   5.702
10862SOL    HW133485   3.555   2.967   5.761
10862SOL    HW233486   3.404   2.949   5.700
10863SOL     OW33487   2.414   1.143   2.617
10863SOL    HW133488   2.475   1.110   2.545
10863SOL    HW233489   2.430   1.241   2.631
10864SOL     OW33490   2.801   4.878   2.085
10864SOL    HW133491   2.817   4.789   2.044
10864SOL    HW233492   2.704   4.888   2.106
10865SOL     OW33493   4.113   1.634   3.443
10865SOL    HW133494   4.113   1.632   3.344
10865SOL    HW233495   4.195   1.588   3.478
10866SOL     OW33496   0.100   3.714   3.353
10866SOL    HW133497   0.161   3.779   3.308
10866SOL    HW233498   0.045   3.667   3.284
10867SOL     OW33499   4.094   3.309   0.555
10867SOL    HW133500   4.066   3.399   0.588
10867SOL    HW233501   4.023   3.272   0.495
10868SOL     OW33502   1.284   1.767   4.019
10868SOL    HW133503   1.380   1.749   3.998
10868SOL    HW233504   1.241   1.684   4.054
10869NA      NA33505   0.022   2.367   5.900
10870NA      NA33506   4.202   4.611   5.287
10871NA      NA33507   0.907   5.283   2.453
10872NA      NA33508   5.475   4.359   3.632
10873NA      NA33509   4.354   2.349   5.175
10874NA      NA33510   2.279   5.222   0.809
10875NA      NA33511   1.108   5.234   6.712
10876NA      NA33512   3.194   4.537   1.059
10877NA      NA33513   4.307   5.153   0.880
10878NA      NA33514   3.421   1.072   6.417
10879NA      NA33515   5.587   6.090   1.990
10880NA      NA33516   1.725   6.772   5.450
10881NA      NA33517   4.286   5.133   2.068
10882NA      NA33518   3.428   3.036   6.656
   7.02199   7.02199   7.02199
