Generated by trjconv : CNT in water t= 346.00000
33518
    1C        C    1   2.846   2.768   4.746
    1C        C    2   2.897   2.718   4.867
    1C        C    3   2.838   2.769   4.984
    1C        C    4   2.849   2.774   4.258
    1C        C    5   2.899   2.721   4.380
    1C        C    6   2.849   2.775   4.501
    1C        C    7   3.016   2.644   4.624
    1C        C    8   2.899   2.724   4.623
    1C        C    9   3.079   2.605   4.744
    1C        C   10   3.008   2.630   4.863
    1C        C   11   3.184   2.491   4.980
    1C        C   12   3.061   2.559   4.970
    1C        C   13   2.849   2.774   3.770
    1C        C   14   2.902   2.724   3.892
    1C        C   15   2.849   2.774   4.013
    1C        C   16   3.018   2.647   4.137
    1C        C   17   2.901   2.727   4.136
    1C        C   18   3.081   2.614   4.259
    1C        C   19   3.019   2.648   4.381
    1C        C   20   3.209   2.551   4.505
    1C        C   21   3.081   2.611   4.503
    1C        C   22   3.277   2.525   4.626
    1C        C   23   3.207   2.541   4.747
    1C        C   24   3.414   2.481   4.864
    1C        C   25   3.272   2.501   4.867
    1C        C   26   3.491   2.477   4.981
    1C        C   27   2.854   2.768   3.282
    1C        C   28   2.901   2.720   3.406
    1C        C   29   2.849   2.768   3.529
    1C        C   30   3.017   2.638   3.650
    1C        C   31   2.902   2.719   3.651
    1C        C   32   3.080   2.606   3.773
    1C        C   33   3.015   2.640   3.894
    1C        C   34   3.204   2.544   4.018
    1C        C   35   3.075   2.602   4.016
    1C        C   36   3.275   2.523   4.138
    1C        C   37   3.210   2.556   4.259
    1C        C   38   3.414   2.504   4.382
    1C        C   39   3.276   2.533   4.382
    1C        C   40   3.489   2.504   4.502
    1C        C   41   3.417   2.505   4.623
    1C        C   42   3.630   2.480   4.743
    1C        C   43   3.488   2.481   4.743
    1C        C   44   3.706   2.482   4.862
    1C        C   45   3.630   2.470   4.979
    1C        C   46   2.840   2.755   2.793
    1C        C   47   2.894   2.709   2.916
    1C        C   48   2.841   2.757   3.038
    1C        C   49   3.016   2.634   3.162
    1C        C   50   2.902   2.718   3.159
    1C        C   51   3.076   2.596   3.284
    1C        C   52   3.014   2.635   3.405
    1C        C   53   3.206   2.546   3.528
    1C        C   54   3.074   2.597   3.528
    1C        C   55   3.274   2.525   3.650
    1C        C   56   3.208   2.547   3.773
    1C        C   57   3.413   2.504   3.893
    1C        C   58   3.273   2.526   3.896
    1C        C   59   3.482   2.492   4.015
    1C        C   60   3.414   2.499   4.139
    1C        C   61   3.627   2.493   4.259
    1C        C   62   3.485   2.493   4.261
    1C        C   63   3.702   2.502   4.378
    1C        C   64   3.630   2.497   4.499
    1C        C   65   3.836   2.542   4.622
    1C        C   66   3.700   2.502   4.622
    1C        C   67   3.907   2.557   4.743
    1C        C   68   3.841   2.521   4.863
    1C        C   69   4.053   2.581   4.977
    1C        C   70   3.925   2.523   4.975
    1C        C   71   2.824   2.734   2.307
    1C        C   72   2.885   2.693   2.428
    1C        C   73   2.831   2.742   2.549
    1C        C   74   3.009   2.627   2.670
    1C        C   75   2.890   2.703   2.672
    1C        C   76   3.071   2.593   2.792
    1C        C   77   3.011   2.630   2.915
    1C        C   78   3.204   2.545   3.035
    1C        C   79   3.073   2.599   3.038
    1C        C   80   3.271   2.523   3.157
    1C        C   81   3.206   2.542   3.282
    1C        C   82   3.411   2.499   3.402
    1C        C   83   3.272   2.524   3.405
    1C        C   84   3.483   2.495   3.524
    1C        C   85   3.414   2.506   3.647
    1C        C   86   3.625   2.501   3.769
    1C        C   87   3.484   2.499   3.770
    1C        C   88   3.693   2.513   3.892
    1C        C   89   3.624   2.496   4.014
    1C        C   90   3.829   2.549   4.135
    1C        C   91   3.695   2.503   4.136
    1C        C   92   3.900   2.571   4.255
    1C        C   93   3.838   2.540   4.378
    1C        C   94   4.027   2.636   4.497
    1C        C   95   3.903   2.568   4.500
    1C        C   96   4.093   2.664   4.618
    1C        C   97   4.035   2.618   4.739
    1C        C   98   4.189   2.762   4.860
    1C        C   99   4.102   2.648   4.861
    1C        C  100   4.205   2.844   4.972
    1C        C  101   2.822   2.729   2.069
    1C        C  102   2.990   2.592   2.189
    1C        C  103   2.876   2.677   2.188
    1C        C  104   3.063   2.570   2.309
    1C        C  105   3.003   2.616   2.428
    1C        C  106   3.196   2.522   2.550
    1C        C  107   3.071   2.587   2.549
    1C        C  108   3.268   2.510   2.671
    1C        C  109   3.198   2.532   2.792
    1C        C  110   3.409   2.489   2.913
    1C        C  111   3.270   2.516   2.913
    1C        C  112   3.480   2.489   3.035
    1C        C  113   3.410   2.499   3.157
    1C        C  114   3.622   2.495   3.278
    1C        C  115   3.481   2.496   3.279
    1C        C  116   3.692   2.506   3.400
    1C        C  117   3.624   2.497   3.523
    1C        C  118   3.829   2.547   3.646
    1C        C  119   3.694   2.506   3.646
    1C        C  120   3.895   2.574   3.768
    1C        C  121   3.830   2.548   3.891
    1C        C  122   4.021   2.637   4.013
    1C        C  123   3.895   2.574   4.013
    1C        C  124   4.085   2.678   4.132
    1C        C  125   4.022   2.642   4.254
    1C        C  126   4.194   2.768   4.376
    1C        C  127   4.087   2.676   4.375
    1C        C  128   4.239   2.821   4.499
    1C        C  129   4.193   2.764   4.620
    1C        C  130   4.321   2.937   4.738
    1C        C  131   4.236   2.823   4.741
    1C        C  132   4.356   3.000   4.859
    1C        C  133   4.283   2.960   4.971
    1C        C  134   3.172   2.463   2.081
    1C        C  135   3.041   2.512   2.081
    1C        C  136   3.261   2.479   2.189
    1C        C  137   3.195   2.517   2.307
    1C        C  138   3.402   2.471   2.427
    1C        C  139   3.263   2.492   2.429
    1C        C  140   3.477   2.473   2.547
    1C        C  141   3.407   2.487   2.669
    1C        C  142   3.620   2.490   2.791
    1C        C  143   3.479   2.481   2.790
    1C        C  144   3.691   2.497   2.912
    1C        C  145   3.621   2.492   3.035
    1C        C  146   3.830   2.538   3.154
    1C        C  147   3.694   2.500   3.156
    1C        C  148   3.896   2.560   3.276
    1C        C  149   3.829   2.540   3.399
    1C        C  150   4.021   2.629   3.520
    1C        C  151   3.894   2.567   3.522
    1C        C  152   4.075   2.673   3.643
    1C        C  153   4.019   2.641   3.769
    1C        C  154   4.189   2.768   3.889
    1C        C  155   4.077   2.682   3.891
    1C        C  156   4.238   2.821   4.010
    1C        C  157   4.192   2.770   4.133
    1C        C  158   4.336   2.926   4.251
    1C        C  159   4.248   2.815   4.255
    1C        C  160   4.372   2.985   4.374
    1C        C  161   4.331   2.928   4.497
    1C        C  162   4.436   3.116   4.614
    1C        C  163   4.368   2.992   4.617
    1C        C  164   4.463   3.187   4.733
    1C        C  165   4.426   3.123   4.854
    1C        C  166   4.504   3.322   4.972
    1C        C  167   4.470   3.188   4.970
    1C        C  168   3.475   2.429   2.070
    1C        C  169   3.401   2.458   2.185
    1C        C  170   3.615   2.461   2.306
    1C        C  171   3.473   2.456   2.306
    1C        C  172   3.689   2.484   2.424
    1C        C  173   3.618   2.479   2.546
    1C        C  174   3.824   2.538   2.664
    1C        C  175   3.688   2.497   2.667
    1C        C  176   3.891   2.560   2.786
    1C        C  177   3.827   2.536   2.910
    1C        C  178   4.023   2.624   3.032
    1C        C  179   3.896   2.562   3.031
    1C        C  180   4.082   2.665   3.154
    1C        C  181   4.022   2.624   3.276
    1C        C  182   4.191   2.751   3.397
    1C        C  183   4.084   2.659   3.398
    1C        C  184   4.240   2.803   3.519
    1C        C  185   4.189   2.757   3.643
    1C        C  186   4.330   2.918   3.761
    1C        C  187   4.242   2.807   3.764
    1C        C  188   4.375   2.979   3.881
    1C        C  189   4.335   2.925   4.005
    1C        C  190   4.445   3.105   4.128
    1C        C  191   4.376   2.981   4.127
    1C        C  192   4.473   3.172   4.249
    1C        C  193   4.442   3.108   4.371
    1C        C  194   4.510   3.313   4.491
    1C        C  195   4.469   3.178   4.491
    1C        C  196   4.521   3.387   4.610
    1C        C  197   4.502   3.323   4.735
    1C        C  198   4.560   3.534   4.848
    1C        C  199   4.531   3.394   4.855
    1C        C  200   4.586   3.616   4.963
    1C        C  201   3.615   2.422   2.070
    1C        C  202   3.826   2.507   2.181
    1C        C  203   3.691   2.458   2.186
    1C        C  204   3.895   2.537   2.302
    1C        C  205   3.826   2.517   2.424
    1C        C  206   4.019   2.617   2.542
    1C        C  207   3.894   2.552   2.543
    1C        C  208   4.077   2.661   2.663
    1C        C  209   4.016   2.627   2.786
    1C        C  210   4.187   2.752   2.906
    1C        C  211   4.076   2.664   2.908
    1C        C  212   4.245   2.797   3.027
    1C        C  213   4.193   2.752   3.151
    1C        C  214   4.330   2.910   3.270
    1C        C  215   4.243   2.798   3.274
    1C        C  216   4.364   2.970   3.393
    1C        C  217   4.328   2.913   3.517
    1C        C  218   4.434   3.100   3.636
    1C        C  219   4.369   2.974   3.637
    1C        C  220   4.461   3.168   3.758
    1C        C  221   4.437   3.106   3.882
    1C        C  222   4.505   3.306   4.001
    1C        C  223   4.468   3.170   4.004
    1C        C  224   4.517   3.378   4.122
    1C        C  225   4.507   3.309   4.245
    1C        C  226   4.524   3.521   4.364
    1C        C  227   4.520   3.380   4.366
    1C        C  228   4.525   3.596   4.484
    1C        C  229   4.530   3.528   4.608
    1C        C  230   4.505   3.743   4.726
    1C        C  231   4.537   3.604   4.726
    1C        C  232   4.504   3.821   4.844
    1C        C  233   4.552   3.752   4.956
    1C        C  234   4.018   2.606   2.064
    1C        C  235   3.891   2.551   2.065
    1C        C  236   4.085   2.648   2.180
    1C        C  237   4.018   2.607   2.298
    1C        C  238   4.194   2.733   2.421
    1C        C  239   4.080   2.649   2.418
    1C        C  240   4.249   2.787   2.539
    1C        C  241   4.188   2.748   2.660
    1C        C  242   4.335   2.901   2.783
    1C        C  243   4.239   2.797   2.783
    1C        C  244   4.376   2.962   2.904
    1C        C  245   4.333   2.907   3.027
    1C        C  246   4.442   3.090   3.148
    1C        C  247   4.372   2.968   3.148
    1C        C  248   4.463   3.158   3.271
    1C        C  249   4.431   3.095   3.393
    1C        C  250   4.491   3.302   3.510
    1C        C  251   4.454   3.166   3.513
    1C        C  252   4.504   3.370   3.634
    1C        C  253   4.496   3.304   3.759
    1C        C  254   4.523   3.517   3.876
    1C        C  255   4.515   3.376   3.879
    1C        C  256   4.525   3.590   3.997
    1C        C  257   4.528   3.519   4.119
    1C        C  258   4.496   3.728   4.242
    1C        C  259   4.527   3.590   4.241
    1C        C  260   4.471   3.800   4.361
    1C        C  261   4.491   3.733   4.484
    1C        C  262   4.425   3.938   4.600
    1C        C  263   4.477   3.807   4.603
    1C        C  264   4.400   4.007   4.721
    1C        C  265   4.435   3.944   4.842
    1C        C  266   4.319   4.129   4.956
    1C        C  267   4.394   4.011   4.958
    1C        C  268   4.254   2.783   2.063
    1C        C  269   4.192   2.739   2.181
    1C        C  270   4.344   2.892   2.298
    1C        C  271   4.247   2.788   2.302
    1C        C  272   4.383   2.955   2.418
    1C        C  273   4.340   2.895   2.539
    1C        C  274   4.446   3.080   2.658
    1C        C  275   4.374   2.958   2.661
    1C        C  276   4.467   3.149   2.779
    1C        C  277   4.441   3.087   2.903
    1C        C  278   4.511   3.287   3.023
    1C        C  279   4.475   3.151   3.025
    1C        C  280   4.517   3.362   3.143
    1C        C  281   4.505   3.292   3.266
    1C        C  282   4.520   3.507   3.387
    1C        C  283   4.514   3.366   3.386
    1C        C  284   4.516   3.579   3.508
    1C        C  285   4.514   3.511   3.632
    1C        C  286   4.491   3.724   3.750
    1C        C  287   4.519   3.585   3.752
    1C        C  288   4.477   3.792   3.873
    1C        C  289   4.499   3.729   3.997
    1C        C  290   4.429   3.928   4.117
    1C        C  291   4.473   3.794   4.119
    1C        C  292   4.399   3.999   4.235
    1C        C  293   4.430   3.934   4.357
    1C        C  294   4.327   4.125   4.477
    1C        C  295   4.396   4.001   4.477
    1C        C  296   4.283   4.185   4.597
    1C        C  297   4.326   4.129   4.719
    1C        C  298   4.203   4.311   4.836
    1C        C  299   4.292   4.199   4.838
    1C        C  300   4.172   4.398   4.946
    1C        C  301   4.354   2.879   2.060
    1C        C  302   4.470   3.067   2.173
    1C        C  303   4.397   2.944   2.177
    1C        C  304   4.482   3.141   2.293
    1C        C  305   4.449   3.080   2.416
    1C        C  306   4.508   3.285   2.536
    1C        C  307   4.479   3.147   2.538
    1C        C  308   4.516   3.355   2.659
    1C        C  309   4.500   3.286   2.781
    1C        C  310   4.526   3.499   2.899
    1C        C  311   4.521   3.358   2.901
    1C        C  312   4.516   3.570   3.021
    1C        C  313   4.520   3.503   3.145
    1C        C  314   4.490   3.717   3.264
    1C        C  315   4.519   3.578   3.265
    1C        C  316   4.474   3.787   3.385
    1C        C  317   4.496   3.719   3.507
    1C        C  318   4.420   3.922   3.629
    1C        C  319   4.473   3.791   3.627
    1C        C  320   4.395   3.990   3.750
    1C        C  321   4.426   3.924   3.871
    1C        C  322   4.322   4.109   3.991
    1C        C  323   4.396   3.988   3.993
    1C        C  324   4.279   4.169   4.111
    1C        C  325   4.327   4.120   4.234
    1C        C  326   4.185   4.281   4.353
    1C        C  327   4.286   4.182   4.355
    1C        C  328   4.132   4.333   4.473
    1C        C  329   4.187   4.289   4.595
    1C        C  330   4.025   4.432   4.716
    1C        C  331   4.141   4.349   4.714
    1C        C  332   3.968   4.483   4.835
    1C        C  333   4.053   4.471   4.945
    1C        C  334   4.562   3.266   2.065
    1C        C  335   4.538   3.128   2.063
    1C        C  336   4.544   3.350   2.176
    1C        C  337   4.520   3.278   2.295
    1C        C  338   4.528   3.495   2.411
    1C        C  339   4.529   3.353   2.414
    1C        C  340   4.520   3.565   2.533
    1C        C  341   4.519   3.496   2.656
    1C        C  342   4.495   3.708   2.775
    1C        C  343   4.520   3.569   2.776
    1C        C  344   4.480   3.779   2.896
    1C        C  345   4.494   3.709   3.018
    1C        C  346   4.421   3.912   3.134
    1C        C  347   4.472   3.781   3.139
    1C        C  348   4.394   3.978   3.256
    1C        C  349   4.425   3.919   3.381
    1C        C  350   4.314   4.099   3.500
    1C        C  351   4.390   3.980   3.504
    1C        C  352   4.275   4.162   3.620
    1C        C  353   4.317   4.108   3.744
    1C        C  354   4.178   4.263   3.866
    1C        C  355   4.276   4.162   3.868
    1C        C  356   4.124   4.314   3.986
    1C        C  357   4.176   4.266   4.109
    1C        C  358   4.012   4.401   4.230
    1C        C  359   4.125   4.317   4.230
    1C        C  360   3.950   4.442   4.350
    1C        C  361   4.013   4.410   4.472
    1C        C  362   3.830   4.516   4.592
    1C        C  363   3.957   4.454   4.594
    1C        C  364   3.762   4.543   4.712
    1C        C  365   3.836   4.532   4.832
    1C        C  366   3.627   4.586   4.950
    1C        C  367   3.763   4.558   4.949
    1C        C  368   4.518   3.563   2.047
    1C        C  369   4.531   3.491   2.167
    1C        C  370   4.505   3.703   2.286
    1C        C  371   4.526   3.564   2.287
    1C        C  372   4.485   3.772   2.407
    1C        C  373   4.502   3.705   2.530
    1C        C  374   4.420   3.902   2.647
    1C        C  375   4.480   3.775   2.651
    1C        C  376   4.394   3.970   2.768
    1C        C  377   4.427   3.910   2.892
    1C        C  378   4.321   4.098   3.011
    1C        C  379   4.390   3.975   3.012
    1C        C  380   4.273   4.152   3.133
    1C        C  381   4.312   4.093   3.255
    1C        C  382   4.172   4.254   3.375
    1C        C  383   4.269   4.151   3.377
    1C        C  384   4.118   4.300   3.497
    1C        C  385   4.171   4.258   3.621
    1C        C  386   4.006   4.388   3.738
    1C        C  387   4.124   4.310   3.744
    1C        C  388   3.946   4.424   3.860
    1C        C  389   4.007   4.394   3.984
    1C        C  390   3.820   4.490   4.106
    1C        C  391   3.948   4.430   4.107
    1C        C  392   3.751   4.512   4.227
    1C        C  393   3.820   4.496   4.349
    1C        C  394   3.617   4.549   4.474
    1C        C  395   3.757   4.529   4.472
    1C        C  396   3.546   4.560   4.595
    1C        C  397   3.621   4.559   4.715
    1C        C  398   3.409   4.552   4.838
    1C        C  399   3.548   4.575   4.834
    1C        C  400   3.340   4.521   4.956
    1C        C  401   4.496   3.700   2.050
    1C        C  402   4.452   3.913   2.166
    1C        C  403   4.491   3.778   2.166
    1C        C  404   4.414   3.977   2.286
    1C        C  405   4.438   3.906   2.406
    1C        C  406   4.322   4.088   2.523
    1C        C  407   4.400   3.970   2.525
    1C        C  408   4.275   4.144   2.644
    1C        C  409   4.318   4.090   2.767
    1C        C  410   4.173   4.247   2.886
    1C        C  411   4.275   4.149   2.887
    1C        C  412   4.121   4.296   3.008
    1C        C  413   4.170   4.248   3.131
    1C        C  414   4.001   4.378   3.251
    1C        C  415   4.117   4.298   3.253
    1C        C  416   3.938   4.409   3.374
    1C        C  417   4.001   4.380   3.497
    1C        C  418   3.813   4.482   3.618
    1C        C  419   3.940   4.420   3.618
    1C        C  420   3.750   4.505   3.742
    1C        C  421   3.818   4.485   3.864
    1C        C  422   3.611   4.535   3.985
    1C        C  423   3.751   4.514   3.985
    1C        C  424   3.541   4.542   4.108
    1C        C  425   3.612   4.541   4.230
    1C        C  426   3.402   4.549   4.356
    1C        C  427   3.543   4.547   4.353
    1C        C  428   3.331   4.545   4.478
    1C        C  429   3.405   4.553   4.598
    1C        C  430   3.194   4.518   4.721
    1C        C  431   3.334   4.543   4.719
    1C        C  432   3.124   4.490   4.842
    1C        C  433   3.205   4.489   4.956
    1C        C  434   4.385   4.121   2.051
    1C        C  435   4.447   3.995   2.052
    1C        C  436   4.302   4.160   2.161
    1C        C  437   4.333   4.094   2.283
    1C        C  438   4.178   4.246   2.400
    1C        C  439   4.277   4.146   2.402
    1C        C  440   4.122   4.291   2.522
    1C        C  441   4.176   4.245   2.644
    1C        C  442   4.003   4.375   2.766
    1C        C  443   4.116   4.289   2.764
    1C        C  444   3.944   4.416   2.888
    1C        C  445   4.006   4.378   3.009
    1C        C  446   3.812   4.472   3.129
    1C        C  447   3.942   4.418   3.129
    1C        C  448   3.745   4.494   3.252
    1C        C  449   3.812   4.473   3.375
    1C        C  450   3.608   4.535   3.494
    1C        C  451   3.746   4.504   3.495
    1C        C  452   3.542   4.538   3.619
    1C        C  453   3.611   4.533   3.742
    1C        C  454   3.399   4.546   3.863
    1C        C  455   3.541   4.547   3.864
    1C        C  456   3.333   4.534   3.987
    1C        C  457   3.400   4.538   4.111
    1C        C  458   3.194   4.501   4.236
    1C        C  459   3.331   4.539   4.234
    1C        C  460   3.128   4.478   4.358
    1C        C  461   3.194   4.511   4.479
    1C        C  462   2.998   4.431   4.604
    1C        C  463   3.124   4.494   4.601
    1C        C  464   2.927   4.399   4.722
    1C        C  465   2.988   4.444   4.842
    1C        C  466   2.801   4.336   4.960
    1C        C  467   2.905   4.430   4.958
    1C        C  468   4.123   4.281   2.039
    1C        C  469   4.189   4.248   2.158
    1C        C  470   4.007   4.370   2.278
    1C        C  471   4.127   4.294   2.277
    1C        C  472   3.944   4.405   2.399
    1C        C  473   4.008   4.375   2.522
    1C        C  474   3.815   4.464   2.642
    1C        C  475   3.947   4.414   2.643
    1C        C  476   3.749   4.490   2.764
    1C        C  477   3.815   4.474   2.887
    1C        C  478   3.605   4.522   3.006
    1C        C  479   3.744   4.495   3.007
    1C        C  480   3.536   4.534   3.129
    1C        C  481   3.606   4.518   3.251
    1C        C  482   3.395   4.530   3.374
    1C        C  483   3.536   4.534   3.372
    1C        C  484   3.328   4.526   3.499
    1C        C  485   3.401   4.535   3.620
    1C        C  486   3.191   4.503   3.743
    1C        C  487   3.329   4.534   3.741
    1C        C  488   3.129   4.476   3.867
    1C        C  489   3.196   4.498   3.989
    1C        C  490   3.004   4.412   4.113
    1C        C  491   3.132   4.474   4.113
    1C        C  492   2.944   4.377   4.235
    1C        C  493   3.000   4.418   4.359
    1C        C  494   2.829   4.300   4.480
    1C        C  495   2.938   4.390   4.483
    1C        C  496   2.773   4.254   4.601
    1C        C  497   2.817   4.310   4.723
    1C        C  498   2.667   4.161   4.846
    1C        C  499   2.757   4.270   4.845
    1C        C  500   2.592   4.115   4.955
    1C        C  501   4.005   4.354   2.041
    1C        C  502   3.815   4.464   2.154
    1C        C  503   3.940   4.400   2.157
    1C        C  504   3.745   4.476   2.276
    1C        C  505   3.813   4.455   2.398
    1C        C  506   3.609   4.515   2.519
    1C        C  507   3.747   4.485   2.520
    1C        C  508   3.536   4.518   2.640
    1C        C  509   3.609   4.511   2.761
    1C        C  510   3.396   4.524   2.884
    1C        C  511   3.537   4.526   2.882
    1C        C  512   3.326   4.519   3.006
    1C        C  513   3.395   4.532   3.129
    1C        C  514   3.187   4.498   3.255
    1C        C  515   3.325   4.528   3.251
    1C        C  516   3.124   4.468   3.378
    1C        C  517   3.190   4.495   3.499
    1C        C  518   2.999   4.407   3.625
    1C        C  519   3.124   4.474   3.622
    1C        C  520   2.942   4.367   3.747
    1C        C  521   3.006   4.406   3.867
    1C        C  522   2.832   4.288   3.997
    1C        C  523   2.945   4.373   3.990
    1C        C  524   2.787   4.233   4.118
    1C        C  525   2.836   4.287   4.240
    1C        C  526   2.696   4.128   4.365
    1C        C  527   2.779   4.241   4.361
    1C        C  528   2.647   4.076   4.487
    1C        C  529   2.686   4.143   4.605
    1C        C  530   2.580   3.960   4.728
    1C        C  531   2.642   4.088   4.728
    1C        C  532   2.536   3.902   4.850
    1C        C  533   2.528   3.990   4.962
    1C        C  534   3.622   4.552   2.040
    1C        C  535   3.756   4.510   2.036
    1C        C  536   3.537   4.534   2.154
    1C        C  537   3.607   4.513   2.276
    1C        C  538   3.395   4.515   2.399
    1C        C  539   3.536   4.514   2.398
    1C        C  540   3.323   4.509   2.521
    1C        C  541   3.395   4.519   2.642
    1C        C  542   3.185   4.485   2.765
    1C        C  543   3.322   4.518   2.763
    1C        C  544   3.123   4.460   2.889
    1C        C  545   3.190   4.482   3.012
    1C        C  546   2.997   4.397   3.135
    1C        C  547   3.121   4.466   3.134
    1C        C  548   2.938   4.361   3.258
    1C        C  549   2.999   4.401   3.379
    1C        C  550   2.830   4.277   3.506
    1C        C  551   2.942   4.363   3.503
    1C        C  552   2.777   4.229   3.627
    1C        C  553   2.829   4.281   3.748
    1C        C  554   2.704   4.120   3.872
    1C        C  555   2.783   4.237   3.875
    1C        C  556   2.664   4.062   3.994
    1C        C  557   2.702   4.120   4.117
    1C        C  558   2.599   3.940   4.243
    1C        C  559   2.662   4.067   4.242
    1C        C  560   2.566   3.880   4.366
    1C        C  561   2.587   3.949   4.488
    1C        C  562   2.528   3.746   4.615
    1C        C  563   2.559   3.884   4.611
    1C        C  564   2.518   3.680   4.739
    1C        C  565   2.519   3.760   4.857
    1C        C  566   2.529   3.540   4.976
    1C        C  567   2.524   3.679   4.971
    1C        C  568   3.333   4.466   2.039
    1C        C  569   3.397   4.514   2.154
    1C        C  570   3.188   4.468   2.278
    1C        C  571   3.326   4.504   2.276
    1C        C  572   3.119   4.446   2.400
    1C        C  573   3.186   4.475   2.521
    1C        C  574   2.994   4.390   2.648
    1C        C  575   3.119   4.456   2.643
    1C        C  576   2.933   4.358   2.771
    1C        C  577   2.996   4.397   2.891
    1C        C  578   2.834   4.261   3.013
    1C        C  579   2.938   4.357   3.013
    1C        C  580   2.782   4.218   3.137
    1C        C  581   2.830   4.270   3.260
    1C        C  582   2.697   4.111   3.383
    1C        C  583   2.781   4.224   3.384
    1C        C  584   2.662   4.052   3.506
    1C        C  585   2.697   4.113   3.628
    1C        C  586   2.590   3.935   3.754
    1C        C  587   2.659   4.058   3.753
    1C        C  588   2.570   3.871   3.878
    1C        C  589   2.601   3.935   4.000
    1C        C  590   2.532   3.736   4.126
    1C        C  591   2.572   3.871   4.123
    1C        C  592   2.518   3.670   4.250
    1C        C  593   2.530   3.744   4.370
    1C        C  594   2.511   3.534   4.494
    1C        C  595   2.519   3.675   4.493
    1C        C  596   2.514   3.464   4.617
    1C        C  597   2.517   3.538   4.737
    1C        C  598   2.530   3.324   4.859
    1C        C  599   2.524   3.465   4.858
    1C        C  600   2.533   3.249   4.976
    1C        C  601   3.200   4.430   2.045
    1C        C  602   2.981   4.396   2.155
    1C        C  603   3.119   4.436   2.159
    1C        C  604   2.927   4.355   2.280
    1C        C  605   2.990   4.390   2.402
    1C        C  606   2.825   4.263   2.528
    1C        C  607   2.931   4.356   2.526
    1C        C  608   2.772   4.213   2.650
    1C        C  609   2.824   4.268   2.769
    1C        C  610   2.689   4.105   2.894
    1C        C  611   2.778   4.215   2.892
    1C        C  612   2.651   4.047   3.017
    1C        C  613   2.695   4.107   3.138
    1C        C  614   2.597   3.922   3.263
    1C        C  615   2.657   4.050   3.262
    1C        C  616   2.567   3.863   3.388
    1C        C  617   2.594   3.928   3.511
    1C        C  618   2.524   3.730   3.639
    1C        C  619   2.565   3.865   3.634
    1C        C  620   2.508   3.663   3.763
    1C        C  621   2.529   3.735   3.883
    1C        C  622   2.507   3.524   4.009
    1C        C  623   2.519   3.664   4.005
    1C        C  624   2.507   3.453   4.132
    1C        C  625   2.514   3.529   4.251
    1C        C  626   2.533   3.319   4.377
    1C        C  627   2.512   3.459   4.374
    1C        C  628   2.551   3.250   4.499
    1C        C  629   2.535   3.324   4.618
    1C        C  630   2.589   3.116   4.741
    1C        C  631   2.544   3.251   4.739
    1C        C  632   2.616   3.048   4.863
    1C        C  633   2.559   3.111   4.978
    1C        C  634   2.777   4.304   2.052
    1C        C  635   2.888   4.388   2.046
    1C        C  636   2.750   4.227   2.167
    1C        C  637   2.811   4.273   2.285
    1C        C  638   2.679   4.107   2.408
    1C        C  639   2.768   4.217   2.407
    1C        C  640   2.637   4.046   2.529
    1C        C  641   2.680   4.105   2.649
    1C        C  642   2.583   3.920   2.775
    1C        C  643   2.647   4.046   2.773
    1C        C  644   2.554   3.857   2.899
    1C        C  645   2.583   3.924   3.020
    1C        C  646   2.520   3.722   3.146
    1C        C  647   2.566   3.856   3.142
    1C        C  648   2.511   3.655   3.270
    1C        C  649   2.524   3.729   3.391
    1C        C  650   2.514   3.521   3.520
    1C        C  651   2.515   3.663   3.515
    1C        C  652   2.512   3.452   3.643
    1C        C  653   2.499   3.522   3.765
    1C        C  654   2.524   3.312   3.889
    1C        C  655   2.499   3.452   3.888
    1C        C  656   2.542   3.243   4.011
    1C        C  657   2.523   3.312   4.133
    1C        C  658   2.584   3.111   4.257
    1C        C  659   2.544   3.246   4.257
    1C        C  660   2.628   3.053   4.379
    1C        C  661   2.605   3.119   4.502
    1C        C  662   2.715   2.937   4.623
    1C        C  663   2.634   3.053   4.623
    1C        C  664   2.752   2.875   4.745
    1C        C  665   2.698   2.931   4.864
    1C        C  666   2.744   2.871   4.982
    1C        C  667   2.678   4.021   2.055
    1C        C  668   2.686   4.101   2.169
    1C        C  669   2.586   3.910   2.292
    1C        C  670   2.645   4.039   2.289
    1C        C  671   2.558   3.846   2.415
    1C        C  672   2.583   3.916   2.535
    1C        C  673   2.515   3.713   2.657
    1C        C  674   2.557   3.848   2.656
    1C        C  675   2.510   3.646   2.781
    1C        C  676   2.526   3.719   2.901
    1C        C  677   2.502   3.510   3.031
    1C        C  678   2.510   3.651   3.024
    1C        C  679   2.506   3.440   3.154
    1C        C  680   2.502   3.514   3.274
    1C        C  681   2.534   3.309   3.402
    1C        C  682   2.511   3.449   3.399
    1C        C  683   2.553   3.242   3.525
    1C        C  684   2.533   3.312   3.646
    1C        C  685   2.602   3.113   3.771
    1C        C  686   2.549   3.244   3.768
    1C        C  687   2.638   3.052   3.893
    1C        C  688   2.597   3.113   4.014
    1C        C  689   2.706   2.934   4.138
    1C        C  690   2.621   3.047   4.137
    1C        C  691   2.756   2.880   4.259
    1C        C  692   2.714   2.942   4.379
    1C        C  693   2.760   2.884   4.500
    1C        C  694   2.624   3.892   2.055
    1C        C  695   2.527   3.702   2.175
    1C        C  696   2.573   3.836   2.173
    1C        C  697   2.503   3.635   2.297
    1C        C  698   2.518   3.710   2.416
    1C        C  699   2.489   3.500   2.542
    1C        C  700   2.499   3.640   2.537
    1C        C  701   2.495   3.431   2.666
    1C        C  702   2.499   3.505   2.786
    1C        C  703   2.522   3.297   2.909
    1C        C  704   2.502   3.437   2.910
    1C        C  705   2.546   3.232   3.032
    1C        C  706   2.534   3.302   3.154
    1C        C  707   2.604   3.108   3.280
    1C        C  708   2.555   3.241   3.280
    1C        C  709   2.630   3.043   3.403
    1C        C  710   2.601   3.109   3.524
    1C        C  711   2.711   2.932   3.646
    1C        C  712   2.632   3.049   3.648
    1C        C  713   2.755   2.878   3.769
    1C        C  714   2.713   2.932   3.893
    1C        C  715   2.752   2.878   4.017
    1C        C  716   2.446   3.500   2.062
    1C        C  717   2.488   3.633   2.060
    1C        C  718   2.458   3.420   2.181
    1C        C  719   2.478   3.495   2.299
    1C        C  720   2.511   3.288   2.421
    1C        C  721   2.480   3.426   2.422
    1C        C  722   2.536   3.221   2.543
    1C        C  723   2.520   3.292   2.664
    1C        C  724   2.594   3.095   2.789
    1C        C  725   2.539   3.226   2.788
    1C        C  726   2.626   3.035   2.912
    1C        C  727   2.598   3.101   3.034
    1C        C  728   2.709   2.924   3.159
    1C        C  729   2.633   3.043   3.159
    1C        C  730   2.757   2.870   3.281
    1C        C  731   2.707   2.924   3.402
    1C        C  732   2.754   2.872   3.525
    1C        C  733   2.486   3.196   2.073
    1C        C  734   2.487   3.280   2.185
    1C        C  735   2.582   3.080   2.305
    1C        C  736   2.525   3.211   2.304
    1C        C  737   2.611   3.017   2.428
    1C        C  738   2.575   3.086   2.546
    1C        C  739   2.696   2.909   2.670
    1C        C  740   2.619   3.028   2.667
    1C        C  741   2.743   2.857   2.793
    1C        C  742   2.705   2.918   2.915
    1C        C  743   2.748   2.863   3.038
    1C        C  744   2.541   3.068   2.072
    1C        C  745   2.686   2.896   2.184
    1C        C  746   2.606   3.012   2.183
    1C        C  747   2.729   2.840   2.306
    1C        C  748   2.688   2.899   2.428
    1C        C  749   2.740   2.849   2.550
    1C        C  750   2.738   2.840   2.067
    1C        C  751   3.666   2.316   1.980
    1C        O  752   3.643   2.194   1.998
    1C        O  753   3.730   2.344   1.859
    1C        C  754   4.638   3.051   1.985
    1C        O  755   4.630   3.048   1.859
    1C        O  756   4.772   3.037   2.020
    1C        C  757   4.443   4.228   1.967
    1C        O  758   4.542   4.293   2.011
    1C        O  759   4.437   4.243   1.828
    1C        C  760   3.598   4.672   1.958
    1C        O  761   3.596   4.785   2.014
    1C        O  762   3.557   4.665   1.824
    1C        C  763   2.902   4.472   1.925
    1C        O  764   2.937   4.429   1.812
    1C        O  765   2.888   4.611   1.934
    1C        C  766   2.350   3.465   1.955
    1C        O  767   2.402   3.426   1.847
    1C        O  768   2.217   3.508   1.965
    1C        C  769   4.666   3.576   5.081
    1C        O  770   4.605   3.563   5.190
    1C        O  771   4.781   3.651   5.108
    1C        C  772   4.267   4.427   5.056
    1C        O  773   4.260   4.383   5.174
    1C        O  774   4.344   4.544   5.060
    1C        C  775   4.145   2.541   5.085
    1C        O  776   4.256   2.485   5.064
    1C        O  777   4.145   2.622   5.199
    1C        C  778   2.885   4.543   5.051
    1C        O  779   2.843   4.653   5.005
    1C        O  780   2.903   4.531   5.189
    1C        C  781   2.463   3.039   5.065
    1C        O  782   2.358   2.996   5.012
    1C        O  783   2.478   3.044   5.203
    1C        C  784   2.408   3.991   5.049
    1C        O  785   2.289   4.005   5.009
    1C        O  786   2.411   3.993   5.189
    1C        C  787   2.953   2.425   2.000
    1C        O  788   2.909   2.457   1.887
    1C        O  789   2.905   2.300   2.040
    1C        C  790   3.179   2.384   5.081
    1C        O  791   3.152   2.263   5.055
    1C        O  792   3.206   2.419   5.214
    1C        H  793   4.280   3.021   5.059
    1C        H  794   4.197   2.805   5.072
    1C        H  795   4.472   3.141   5.066
    1C        H  796   4.512   3.371   5.067
    1C        H  797   4.584   3.822   5.031
    1C        H  798   4.404   3.961   5.052
    1C        H  799   4.259   4.151   5.042
    1C        H  800   4.040   4.542   5.024
    1C        H  801   3.813   4.564   5.043
    1C        H  802   3.596   4.656   5.024
    1C        H  803   3.396   4.487   5.041
    1C        H  804   3.154   4.493   5.051
    1C        H  805   3.909   2.447   5.048
    1C        H  806   3.681   2.452   5.072
    1C        H  807   2.993   2.542   5.051
    1C        H  808   3.449   2.450   5.075
    1C        H  809   2.884   2.743   5.077
    1C        H  810   2.704   2.896   5.078
    1C        H  811   2.569   3.301   5.063
    1C        H  812   2.574   3.497   5.063
    1C        H  813   2.494   3.722   5.064
    1C        H  814   2.587   4.179   5.041
    1C        H  815   2.763   4.303   5.055
    1C        H  816   2.723   2.889   1.973
    1C        H  817   2.869   2.701   1.977
    1C        H  818   3.199   2.386   2.012
    1C        H  819   3.426   2.359   2.004
    1C        H  820   3.831   2.579   1.981
    1C        H  821   4.084   2.552   1.999
    1C        H  822   4.252   2.716   1.979
    1C        H  823   4.429   2.860   1.986
    1C        H  824   4.621   3.301   1.983
    1C        H  825   4.504   3.517   1.952
    1C        H  826   4.462   3.742   1.957
    1C        H  827   3.825   4.579   1.993
    1C        H  828   3.941   4.327   1.959
    1C        H  829   4.183   4.296   1.952
    1C        H  830   4.529   3.981   1.985
    1C        H  831   2.670   3.829   1.981
    1C        H  832   2.708   4.053   1.957
    1C        H  833   2.688   4.347   2.009
    1C        H  834   3.379   4.468   1.942
    1C        H  835   3.150   4.392   1.958
    1C        H  836   2.533   3.012   1.981
    1C        H  837   2.409   3.213   2.001
    1C        H  838   2.444   3.700   1.988
    2V3OU   H29  839   2.808   3.538   3.722
    2V3OU   C27  840   2.796   3.500   3.826
    2V3OU   H27  841   2.739   3.570   3.893
    2V3OU   H28  842   2.739   3.404   3.821
    2V3OU   O11  843   2.919   3.471   3.894
    2V3OU   C15  844   2.927   3.398   4.010
    2V3OU   C13  845   3.054   3.374   4.065
    2V3OU   C14  846   3.078   3.271   4.157
    2V3OU   C16  847   2.980   3.191   4.214
    2V3OU    H6  848   2.993   3.099   4.273
    2V3OU   C12  849   3.214   3.229   4.197
    2V3OU    O2  850   3.240   3.128   4.266
    2V3OU   C10  851   3.326   3.307   4.143
    2V3OU    C8  852   3.459   3.271   4.167
    2V3OU   O10  853   3.494   3.147   4.211
    2V3OU   H26  854   3.406   3.115   4.238
    2V3OU    C6  855   3.569   3.354   4.130
    2V3OU    C5  856   3.539   3.470   4.060
    2V3OU    C4  857   3.705   3.293   4.129
    2V3OU    H4  858   3.724   3.226   4.218
    2V3OU    H5  859   3.711   3.233   4.034
    2V3OU    C2  860   3.817   3.398   4.129
    2V3OU    O6  861   3.806   3.468   4.253
    2V3OU   H21  862   3.765   3.551   4.223
    2V3OU    C3  863   3.783   3.495   4.015
    2V3OU    H2  864   3.868   3.565   3.995
    2V3OU    H3  865   3.779   3.439   3.918
    2V3OU   C25  866   3.952   3.329   4.108
    2V3OU    O7  867   3.996   3.289   4.000
    2V3OU   C26  868   4.027   3.286   4.233
    2V3OU   H22  869   4.066   3.379   4.281
    2V3OU   H23  870   4.112   3.219   4.204
    2V3OU    O8  871   3.962   3.211   4.334
    2V3OU   H24  872   3.923   3.267   4.403
    2V3OU    C1  873   3.649   3.566   4.025
    2V3OU    H1  874   3.628   3.620   3.928
    2V3OU    O3  875   3.654   3.651   4.140
    2V3OU   C19  876   3.621   3.789   4.127
    2V3OU    H9  877   3.525   3.802   4.069
    2V3OU    O4  878   3.715   3.848   4.040
    2V3OU   C20  879   3.844   3.874   4.094
    2V3OU   H10  880   3.899   3.777   4.110
    2V3OU   C24  881   3.609   3.855   4.265
    2V3OU   H16  882   3.539   3.794   4.327
    2V3OU   H17  883   3.567   3.957   4.245
    2V3OU   C23  884   3.747   3.873   4.328
    2V3OU   H15  885   3.791   3.768   4.338
    2V3OU    N1  886   3.740   3.952   4.450
    2V3OU   H19  887   3.812   3.929   4.515
    2V3OU   H20  888   3.646   3.928   4.476
    2V3OU   C21  889   3.843   3.947   4.229
    2V3OU   H11  890   3.948   3.931   4.266
    2V3OU    O5  891   3.820   4.087   4.231
    2V3OU   H18  892   3.773   4.102   4.314
    2V3OU   C22  893   3.913   3.952   3.983
    2V3OU   H12  894   3.862   4.051   3.967
    2V3OU   H13  895   3.901   3.898   3.885
    2V3OU   H14  896   4.023   3.958   3.998
    2V3OU   C11  897   3.162   3.470   4.038
    2V3OU    O1  898   3.138   3.587   3.999
    2V3OU    C9  899   3.299   3.425   4.071
    2V3OU    C7  900   3.404   3.507   4.031
    2V3OU    O9  901   3.386   3.622   3.956
    2V3OU   H25  902   3.289   3.632   3.953
    2V3OU   C17  903   2.827   3.315   4.066
    2V3OU    H7  904   2.730   3.359   4.041
    2V3OU   C18  905   2.854   3.216   4.160
    2V3OU    H8  906   2.788   3.170   4.235
    3SOL     OW  907   2.635   4.212   5.717
    3SOL    HW1  908   2.662   4.299   5.677
    3SOL    HW2  909   2.535   4.205   5.719
    4SOL     OW  910   6.714   0.212   6.911
    4SOL    HW1  911   6.794   0.176   6.863
    4SOL    HW2  912   6.634   0.210   6.850
    5SOL     OW  913   4.978   1.523   2.818
    5SOL    HW1  914   4.981   1.434   2.772
    5SOL    HW2  915   4.917   1.585   2.768
    6SOL     OW  916   5.101   2.294   3.085
    6SOL    HW1  917   5.053   2.229   3.026
    6SOL    HW2  918   5.197   2.300   3.057
    7SOL     OW  919   0.934   3.862   4.053
    7SOL    HW1  920   0.930   3.775   4.103
    7SOL    HW2  921   0.856   3.919   4.079
    8SOL     OW  922   3.111   1.893   5.316
    8SOL    HW1  923   3.194   1.930   5.274
    8SOL    HW2  924   3.059   1.967   5.358
    9SOL     OW  925   6.347   1.604   5.824
    9SOL    HW1  926   6.301   1.515   5.836
    9SOL    HW2  927   6.433   1.591   5.776
   10SOL     OW  928   3.570   4.953   4.249
   10SOL    HW1  929   3.648   4.932   4.308
   10SOL    HW2  930   3.599   5.013   4.175
   11SOL     OW  931   1.829   1.195   0.078
   11SOL    HW1  932   1.828   1.222   0.174
   11SOL    HW2  933   1.779   1.263   0.023
   12SOL     OW  934   2.631   4.679   3.974
   12SOL    HW1  935   2.694   4.677   3.896
   12SOL    HW2  936   2.583   4.592   3.979
   13SOL     OW  937   3.473   6.187   2.913
   13SOL    HW1  938   3.378   6.211   2.936
   13SOL    HW2  939   3.476   6.151   2.820
   14SOL     OW  940   4.355   4.177   6.448
   14SOL    HW1  941   4.310   4.234   6.379
   14SOL    HW2  942   4.401   4.100   6.403
   15SOL     OW  943   0.707   6.530   6.235
   15SOL    HW1  944   0.778   6.475   6.191
   15SOL    HW2  945   0.702   6.620   6.190
   16SOL     OW  946   5.588   2.372   6.255
   16SOL    HW1  947   5.621   2.366   6.161
   16SOL    HW2  948   5.542   2.460   6.269
   17SOL     OW  949   5.357   0.643   6.488
   17SOL    HW1  950   5.276   0.585   6.496
   17SOL    HW2  951   5.439   0.586   6.490
   18SOL     OW  952   3.869   1.387   5.112
   18SOL    HW1  953   3.905   1.441   5.188
   18SOL    HW2  954   3.896   1.291   5.122
   19SOL     OW  955   0.502   2.245   2.862
   19SOL    HW1  956   0.437   2.275   2.932
   19SOL    HW2  957   0.590   2.291   2.875
   20SOL     OW  958   5.490   2.144   5.371
   20SOL    HW1  959   5.396   2.177   5.367
   20SOL    HW2  960   5.491   2.045   5.386
   21SOL     OW  961   3.062   0.344   3.183
   21SOL    HW1  962   3.139   0.283   3.170
   21SOL    HW2  963   2.976   0.294   3.168
   22SOL     OW  964   1.065   6.163   6.099
   22SOL    HW1  965   1.048   6.162   6.198
   22SOL    HW2  966   1.096   6.073   6.070
   23SOL     OW  967   3.921   5.495   2.451
   23SOL    HW1  968   3.943   5.405   2.488
   23SOL    HW2  969   3.963   5.506   2.361
   24SOL     OW  970   3.815   0.000   2.297
   24SOL    HW1  971   3.728   0.037   2.330
   24SOL    HW2  972   3.801   6.929   2.260
   25SOL     OW  973   2.660   7.018   4.446
   25SOL    HW1  974   2.653   0.096   4.461
   25SOL    HW2  975   2.749   6.996   4.407
   26SOL     OW  976   0.501   2.111   6.906
   26SOL    HW1  977   0.532   2.195   6.861
   26SOL    HW2  978   0.567   2.038   6.889
   27SOL     OW  979   1.254   1.509   2.124
   27SOL    HW1  980   1.272   1.606   2.112
   27SOL    HW2  981   1.320   1.456   2.071
   28SOL     OW  982   0.807   0.902   4.585
   28SOL    HW1  983   0.708   0.902   4.600
   28SOL    HW2  984   0.853   0.873   4.669
   29SOL     OW  985   6.292   0.999   1.306
   29SOL    HW1  986   6.278   0.901   1.323
   29SOL    HW2  987   6.204   1.047   1.312
   30SOL     OW  988   3.365   0.428   5.130
   30SOL    HW1  989   3.333   0.374   5.208
   30SOL    HW2  990   3.454   0.467   5.150
   31SOL     OW  991   0.317   2.363   5.345
   31SOL    HW1  992   0.374   2.399   5.417
   31SOL    HW2  993   0.299   2.434   5.277
   32SOL     OW  994   1.308   1.686   2.613
   32SOL    HW1  995   1.322   1.767   2.670
   32SOL    HW2  996   1.370   1.614   2.643
   33SOL     OW  997   0.652   3.932   5.300
   33SOL    HW1  998   0.692   3.865   5.237
   33SOL    HW2  999   0.604   4.003   5.247
   34SOL     OW 1000   2.365   5.720   4.824
   34SOL    HW1 1001   2.338   5.807   4.783
   34SOL    HW2 1002   2.284   5.673   4.859
   35SOL     OW 1003   4.793   1.772   5.225
   35SOL    HW1 1004   4.825   1.679   5.206
   35SOL    HW2 1005   4.702   1.785   5.186
   36SOL     OW 1006   5.407   1.233   3.849
   36SOL    HW1 1007   5.481   1.298   3.833
   36SOL    HW2 1008   5.355   1.261   3.930
   37SOL     OW 1009   2.017   1.567   4.348
   37SOL    HW1 1010   2.025   1.667   4.351
   37SOL    HW2 1011   1.934   1.541   4.298
   38SOL     OW 1012   2.202   4.136   1.632
   38SOL    HW1 1013   2.274   4.160   1.697
   38SOL    HW2 1014   2.116   4.178   1.661
   39SOL     OW 1015   6.529   4.906   6.409
   39SOL    HW1 1016   6.603   4.915   6.475
   39SOL    HW2 1017   6.563   4.928   6.318
   40SOL     OW 1018   3.271   1.297   6.383
   40SOL    HW1 1019   3.245   1.294   6.479
   40SOL    HW2 1020   3.363   1.335   6.374
   41SOL     OW 1021   6.324   3.952   2.612
   41SOL    HW1 1022   6.338   4.044   2.651
   41SOL    HW2 1023   6.237   3.916   2.642
   42SOL     OW 1024   3.464   6.385   4.054
   42SOL    HW1 1025   3.530   6.376   4.129
   42SOL    HW2 1026   3.434   6.480   4.047
   43SOL     OW 1027   4.097   0.041   5.490
   43SOL    HW1 1028   4.116   0.114   5.555
   43SOL    HW2 1029   4.141   0.062   5.403
   44SOL     OW 1030   5.954   2.738   4.955
   44SOL    HW1 1031   6.002   2.816   4.996
   44SOL    HW2 1032   5.866   2.769   4.919
   45SOL     OW 1033   4.370   5.579   1.283
   45SOL    HW1 1034   4.361   5.672   1.320
   45SOL    HW2 1035   4.292   5.558   1.225
   46SOL     OW 1036   0.296   2.697   3.949
   46SOL    HW1 1037   0.305   2.692   4.048
   46SOL    HW2 1038   0.310   2.606   3.910
   47SOL     OW 1039   5.203   4.007   1.429
   47SOL    HW1 1040   5.120   3.957   1.402
   47SOL    HW2 1041   5.240   4.055   1.349
   48SOL     OW 1042   0.128   2.302   6.266
   48SOL    HW1 1043   0.032   2.318   6.241
   48SOL    HW2 1044   0.165   2.385   6.309
   49SOL     OW 1045   5.286   2.935   1.577
   49SOL    HW1 1046   5.381   2.934   1.610
   49SOL    HW2 1047   5.285   2.921   1.478
   50SOL     OW 1048   6.000   1.923   5.573
   50SOL    HW1 1049   5.931   1.882   5.633
   50SOL    HW2 1050   6.008   2.021   5.594
   51SOL     OW 1051   2.247   6.062   2.798
   51SOL    HW1 1052   2.195   6.072   2.714
   51SOL    HW2 1053   2.219   5.979   2.846
   52SOL     OW 1054   5.278   2.606   1.859
   52SOL    HW1 1055   5.255   2.521   1.906
   52SOL    HW2 1056   5.207   2.627   1.792
   53SOL     OW 1057   4.953   0.086   3.630
   53SOL    HW1 1058   5.051   0.069   3.624
   53SOL    HW2 1059   4.905   0.029   3.564
   54SOL     OW 1060   5.192   6.595   0.107
   54SOL    HW1 1061   5.119   6.572   0.043
   54SOL    HW2 1062   5.187   6.536   0.187
   55SOL     OW 1063   2.731   2.238   5.502
   55SOL    HW1 1064   2.701   2.281   5.418
   55SOL    HW2 1065   2.724   2.303   5.578
   56SOL     OW 1066   1.243   1.860   1.321
   56SOL    HW1 1067   1.145   1.840   1.329
   56SOL    HW2 1068   1.295   1.798   1.380
   57SOL     OW 1069   3.808   1.337   0.140
   57SOL    HW1 1070   3.886   1.400   0.141
   57SOL    HW2 1071   3.840   1.245   0.118
   58SOL     OW 1072   0.508   0.243   5.974
   58SOL    HW1 1073   0.411   0.266   5.980
   58SOL    HW2 1074   0.560   0.324   5.945
   59SOL     OW 1075   6.586   3.667   6.383
   59SOL    HW1 1076   6.668   3.712   6.347
   59SOL    HW2 1077   6.613   3.600   6.452
   60SOL     OW 1078   5.435   1.824   3.770
   60SOL    HW1 1079   5.534   1.835   3.760
   60SOL    HW2 1080   5.411   1.820   3.866
   61SOL     OW 1081   0.199   0.973   4.112
   61SOL    HW1 1082   0.166   0.887   4.073
   61SOL    HW2 1083   0.292   0.960   4.146
   62SOL     OW 1084   1.350   1.452   1.147
   62SOL    HW1 1085   1.312   1.420   1.234
   62SOL    HW2 1086   1.274   1.473   1.084
   63SOL     OW 1087   3.845   0.635   4.258
   63SOL    HW1 1088   3.940   0.641   4.288
   63SOL    HW2 1089   3.785   0.669   4.330
   64SOL     OW 1090   0.715   3.583   6.507
   64SOL    HW1 1091   0.686   3.675   6.479
   64SOL    HW2 1092   0.783   3.549   6.442
   65SOL     OW 1093   1.121   6.544   5.741
   65SOL    HW1 1094   1.133   6.529   5.839
   65SOL    HW2 1095   1.180   6.482   5.690
   66SOL     OW 1096   3.413   0.360   3.064
   66SOL    HW1 1097   3.428   0.398   3.156
   66SOL    HW2 1098   3.497   0.318   3.031
   67SOL     OW 1099   0.239   2.676   6.201
   67SOL    HW1 1100   0.246   2.589   6.249
   67SOL    HW2 1101   0.236   2.751   6.267
   68SOL     OW 1102   6.818   1.596   6.225
   68SOL    HW1 1103   6.767   1.600   6.311
   68SOL    HW2 1104   6.875   1.514   6.224
   69SOL     OW 1105   1.963   3.273   6.004
   69SOL    HW1 1106   1.977   3.252   6.101
   69SOL    HW2 1107   1.872   3.242   5.976
   70SOL     OW 1108   5.025   4.611   4.933
   70SOL    HW1 1109   5.002   4.584   5.027
   70SOL    HW2 1110   5.015   4.710   4.923
   71SOL     OW 1111   4.767   1.637   3.484
   71SOL    HW1 1112   4.788   1.702   3.557
   71SOL    HW2 1113   4.850   1.620   3.430
   72SOL     OW 1114   0.712   1.069   3.064
   72SOL    HW1 1115   0.636   1.105   3.010
   72SOL    HW2 1116   0.676   1.014   3.140
   73SOL     OW 1117   2.942   0.211   0.654
   73SOL    HW1 1118   3.004   0.289   0.644
   73SOL    HW2 1119   2.969   0.157   0.734
   74SOL     OW 1120   2.538   1.663   6.591
   74SOL    HW1 1121   2.549   1.564   6.597
   74SOL    HW2 1122   2.628   1.707   6.587
   75SOL     OW 1123   3.732   1.114   1.653
   75SOL    HW1 1124   3.781   1.080   1.572
   75SOL    HW2 1125   3.769   1.069   1.734
   76SOL     OW 1126   1.973   4.155   5.863
   76SOL    HW1 1127   1.878   4.158   5.895
   76SOL    HW2 1128   2.018   4.075   5.902
   77SOL     OW 1129   2.214   5.953   3.737
   77SOL    HW1 1130   2.299   5.914   3.702
   77SOL    HW2 1131   2.136   5.910   3.692
   78SOL     OW 1132   4.290   1.435   1.109
   78SOL    HW1 1133   4.381   1.464   1.082
   78SOL    HW2 1134   4.297   1.370   1.185
   79SOL     OW 1135   2.281   6.043   2.197
   79SOL    HW1 1136   2.256   6.125   2.145
   79SOL    HW2 1137   2.301   6.068   2.292
   80SOL     OW 1138   4.675   1.806   4.840
   80SOL    HW1 1139   4.770   1.834   4.859
   80SOL    HW2 1140   4.621   1.813   4.924
   81SOL     OW 1141   1.729   0.106   0.529
   81SOL    HW1 1142   1.765   0.013   0.541
   81SOL    HW2 1143   1.738   0.133   0.433
   82SOL     OW 1144   0.464   6.101   1.735
   82SOL    HW1 1145   0.556   6.065   1.723
   82SOL    HW2 1146   0.466   6.200   1.727
   83SOL     OW 1147   0.165   1.453   6.150
   83SOL    HW1 1148   0.164   1.378   6.216
   83SOL    HW2 1149   0.133   1.421   6.061
   84SOL     OW 1150   6.342   3.956   2.894
   84SOL    HW1 1151   6.294   3.880   2.938
   84SOL    HW2 1152   6.409   3.920   2.829
   85SOL     OW 1153   1.831   0.224   3.620
   85SOL    HW1 1154   1.837   0.305   3.561
   85SOL    HW2 1155   1.844   0.142   3.565
   86SOL     OW 1156   6.509   0.848   6.465
   86SOL    HW1 1157   6.448   0.825   6.389
   86SOL    HW2 1158   6.460   0.841   6.551
   87SOL     OW 1159   4.345   3.894   0.753
   87SOL    HW1 1160   4.382   3.957   0.685
   87SOL    HW2 1161   4.338   3.941   0.841
   88SOL     OW 1162   3.013   2.023   6.003
   88SOL    HW1 1163   2.987   1.944   6.059
   88SOL    HW2 1164   3.012   1.997   5.906
   89SOL     OW 1165   3.035   3.771   1.401
   89SOL    HW1 1166   3.041   3.761   1.302
   89SOL    HW2 1167   2.998   3.862   1.423
   90SOL     OW 1168   4.810   4.572   2.051
   90SOL    HW1 1169   4.800   4.494   2.113
   90SOL    HW2 1170   4.855   4.647   2.099
   91SOL     OW 1171   6.145   5.447   6.715
   91SOL    HW1 1172   6.153   5.419   6.619
   91SOL    HW2 1173   6.236   5.457   6.754
   92SOL     OW 1174   5.034   3.472   1.119
   92SOL    HW1 1175   4.990   3.505   1.203
   92SOL    HW2 1176   5.112   3.414   1.143
   93SOL     OW 1177   3.166   3.601   0.778
   93SOL    HW1 1178   3.082   3.580   0.827
   93SOL    HW2 1179   3.166   3.554   0.689
   94SOL     OW 1180   2.652   5.966   0.640
   94SOL    HW1 1181   2.575   6.030   0.640
   94SOL    HW2 1182   2.620   5.877   0.673
   95SOL     OW 1183   1.463   0.916   3.516
   95SOL    HW1 1184   1.483   0.849   3.443
   95SOL    HW2 1185   1.546   0.934   3.568
   96SOL     OW 1186   4.668   5.773   6.751
   96SOL    HW1 1187   4.756   5.758   6.708
   96SOL    HW2 1188   4.668   5.861   6.798
   97SOL     OW 1189   2.165   4.484   5.040
   97SOL    HW1 1190   2.166   4.433   4.954
   97SOL    HW2 1191   2.247   4.462   5.093
   98SOL     OW 1192   0.932   2.314   0.829
   98SOL    HW1 1193   1.022   2.288   0.864
   98SOL    HW2 1194   0.919   2.273   0.738
   99SOL     OW 1195   3.693   4.106   3.203
   99SOL    HW1 1196   3.617   4.091   3.267
   99SOL    HW2 1197   3.757   4.171   3.241
  100SOL     OW 1198   6.399   0.270   4.351
  100SOL    HW1 1199   6.359   0.189   4.393
  100SOL    HW2 1200   6.330   0.342   4.345
  101SOL     OW 1201   0.659   5.623   2.131
  101SOL    HW1 1202   0.696   5.688   2.065
  101SOL    HW2 1203   0.641   5.536   2.085
  102SOL     OW 1204   2.735   6.388   2.298
  102SOL    HW1 1205   2.824   6.410   2.339
  102SOL    HW2 1206   2.747   6.319   2.227
  103SOL     OW 1207   1.567   1.527   2.341
  103SOL    HW1 1208   1.585   1.623   2.319
  103SOL    HW2 1209   1.485   1.496   2.293
  104SOL     OW 1210   1.697   5.204   2.389
  104SOL    HW1 1211   1.740   5.277   2.442
  104SOL    HW2 1212   1.750   5.120   2.398
  105SOL     OW 1213   5.177   1.375   6.630
  105SOL    HW1 1214   5.176   1.415   6.722
  105SOL    HW2 1215   5.192   1.446   6.562
  106SOL     OW 1216   4.843   4.988   1.658
  106SOL    HW1 1217   4.802   4.918   1.718
  106SOL    HW2 1218   4.805   4.978   1.566
  107SOL     OW 1219   6.409   0.666   6.744
  107SOL    HW1 1220   6.329   0.722   6.718
  107SOL    HW2 1221   6.476   0.724   6.791
  108SOL     OW 1222   3.116   6.914   5.381
  108SOL    HW1 1223   3.212   6.885   5.382
  108SOL    HW2 1224   3.073   6.889   5.467
  109SOL     OW 1225   3.007   0.824   2.596
  109SOL    HW1 1226   3.098   0.862   2.613
  109SOL    HW2 1227   2.961   0.808   2.683
  110SOL     OW 1228   2.728   5.307   4.795
  110SOL    HW1 1229   2.674   5.390   4.784
  110SOL    HW2 1230   2.670   5.233   4.828
  111SOL     OW 1231   0.594   1.661   2.574
  111SOL    HW1 1232   0.540   1.709   2.505
  111SOL    HW2 1233   0.591   1.713   2.660
  112SOL     OW 1234   4.760   6.777   6.484
  112SOL    HW1 1235   4.722   6.796   6.394
  112SOL    HW2 1236   4.771   6.862   6.535
  113SOL     OW 1237   6.776   5.893   2.546
  113SOL    HW1 1238   6.807   5.821   2.608
  113SOL    HW2 1239   6.789   5.983   2.588
  114SOL     OW 1240   0.891   5.053   2.845
  114SOL    HW1 1241   0.856   5.146   2.839
  114SOL    HW2 1242   0.986   5.051   2.814
  115SOL     OW 1243   5.701   1.062   3.417
  115SOL    HW1 1244   5.783   1.039   3.365
  115SOL    HW2 1245   5.683   1.160   3.409
  116SOL     OW 1246   0.042   6.145   1.237
  116SOL    HW1 1247   6.994   6.087   1.280
  116SOL    HW2 1248   0.097   6.190   1.307
  117SOL     OW 1249   2.096   0.657   0.283
  117SOL    HW1 1250   2.013   0.712   0.287
  117SOL    HW2 1251   2.150   0.684   0.203
  118SOL     OW 1252   1.598   1.394   3.610
  118SOL    HW1 1253   1.503   1.364   3.621
  118SOL    HW2 1254   1.644   1.393   3.699
  119SOL     OW 1255   0.213   6.502   6.743
  119SOL    HW1 1256   0.198   6.507   6.645
  119SOL    HW2 1257   0.264   6.583   6.773
  120SOL     OW 1258   4.653   0.263   4.583
  120SOL    HW1 1259   4.602   0.297   4.505
  120SOL    HW2 1260   4.673   0.338   4.646
  121SOL     OW 1261   1.882   3.894   0.167
  121SOL    HW1 1262   1.902   3.942   0.252
  121SOL    HW2 1263   1.968   3.878   0.117
  122SOL     OW 1264   1.636   3.650   0.444
  122SOL    HW1 1265   1.588   3.563   0.447
  122SOL    HW2 1266   1.661   3.671   0.349
  123SOL     OW 1267   1.104   0.841   1.020
  123SOL    HW1 1268   1.178   0.904   1.044
  123SOL    HW2 1269   1.073   0.861   0.927
  124SOL     OW 1270   3.228   1.906   0.504
  124SOL    HW1 1271   3.136   1.939   0.486
  124SOL    HW2 1272   3.291   1.984   0.505
  125SOL     OW 1273   3.703   2.789   0.340
  125SOL    HW1 1274   3.635   2.852   0.378
  125SOL    HW2 1275   3.786   2.840   0.317
  126SOL     OW 1276   2.996   3.297   3.262
  126SOL    HW1 1277   2.922   3.342   3.212
  126SOL    HW2 1278   3.032   3.221   3.207
  127SOL     OW 1279   6.785   5.990   5.746
  127SOL    HW1 1280   6.863   5.929   5.731
  127SOL    HW2 1281   6.818   6.083   5.762
  128SOL     OW 1282   5.014   3.078   2.550
  128SOL    HW1 1283   5.078   3.077   2.473
  128SOL    HW2 1284   5.065   3.092   2.635
  129SOL     OW 1285   2.885   4.427   0.946
  129SOL    HW1 1286   2.870   4.505   1.007
  129SOL    HW2 1287   2.808   4.420   0.882
  130SOL     OW 1288   6.398   0.578   4.893
  130SOL    HW1 1289   6.321   0.576   4.829
  130SOL    HW2 1290   6.414   0.672   4.923
  131SOL     OW 1291   5.733   0.425   4.370
  131SOL    HW1 1292   5.639   0.405   4.398
  131SOL    HW2 1293   5.786   0.455   4.450
  132SOL     OW 1294   3.586   3.316   1.331
  132SOL    HW1 1295   3.670   3.295   1.380
  132SOL    HW2 1296   3.524   3.238   1.335
  133SOL     OW 1297   5.364   1.251   3.434
  133SOL    HW1 1298   5.306   1.284   3.509
  133SOL    HW2 1299   5.371   1.151   3.439
  134SOL     OW 1300   0.429   0.746   2.534
  134SOL    HW1 1301   0.517   0.758   2.581
  134SOL    HW2 1302   0.357   0.793   2.585
  135SOL     OW 1303   5.195   3.351   4.336
  135SOL    HW1 1304   5.276   3.301   4.304
  135SOL    HW2 1305   5.116   3.327   4.279
  136SOL     OW 1306   2.717   6.155   4.597
  136SOL    HW1 1307   2.731   6.083   4.528
  136SOL    HW2 1308   2.635   6.207   4.573
  137SOL     OW 1309   4.238   1.037   4.335
  137SOL    HW1 1310   4.248   1.136   4.319
  137SOL    HW2 1311   4.144   1.010   4.315
  138SOL     OW 1312   0.849   4.979   3.481
  138SOL    HW1 1313   0.843   5.077   3.461
  138SOL    HW2 1314   0.818   4.928   3.401
  139SOL     OW 1315   2.523   5.677   6.654
  139SOL    HW1 1316   2.547   5.714   6.744
  139SOL    HW2 1317   2.466   5.742   6.605
  140SOL     OW 1318   1.720   6.480   2.773
  140SOL    HW1 1319   1.686   6.415   2.705
  140SOL    HW2 1320   1.712   6.442   2.864
  141SOL     OW 1321   6.707   3.704   6.805
  141SOL    HW1 1322   6.690   3.623   6.748
  141SOL    HW2 1323   6.805   3.716   6.816
  142SOL     OW 1324   2.021   3.772   1.340
  142SOL    HW1 1325   2.003   3.700   1.407
  142SOL    HW2 1326   2.107   3.818   1.363
  143SOL     OW 1327   5.654   6.337   1.099
  143SOL    HW1 1328   5.563   6.336   1.140
  143SOL    HW2 1329   5.712   6.271   1.146
  144SOL     OW 1330   3.021   4.793   3.747
  144SOL    HW1 1331   2.980   4.871   3.794
  144SOL    HW2 1332   3.094   4.824   3.686
  145SOL     OW 1333   1.163   5.054   2.346
  145SOL    HW1 1334   1.193   5.010   2.262
  145SOL    HW2 1335   1.080   5.009   2.379
  146SOL     OW 1336   5.358   0.786   5.444
  146SOL    HW1 1337   5.373   0.759   5.539
  146SOL    HW2 1338   5.262   0.772   5.420
  147SOL     OW 1339   5.351   1.314   4.926
  147SOL    HW1 1340   5.301   1.399   4.908
  147SOL    HW2 1341   5.407   1.291   4.846
  148SOL     OW 1342   1.196   5.177   1.487
  148SOL    HW1 1343   1.265   5.126   1.435
  148SOL    HW2 1344   1.216   5.275   1.482
  149SOL     OW 1345   3.029   2.378   5.423
  149SOL    HW1 1346   3.062   2.368   5.329
  149SOL    HW2 1347   3.023   2.475   5.446
  150SOL     OW 1348   4.277   0.767   5.988
  150SOL    HW1 1349   4.228   0.777   5.901
  150SOL    HW2 1350   4.366   0.724   5.971
  151SOL     OW 1351   4.417   0.715   1.641
  151SOL    HW1 1352   4.510   0.694   1.672
  151SOL    HW2 1353   4.360   0.633   1.648
  152SOL     OW 1354   6.850   1.442   0.364
  152SOL    HW1 1355   6.922   1.491   0.315
  152SOL    HW2 1356   6.857   1.461   0.462
  153SOL     OW 1357   3.085   0.643   3.742
  153SOL    HW1 1358   3.015   0.651   3.812
  153SOL    HW2 1359   3.147   0.567   3.766
  154SOL     OW 1360   6.698   2.562   0.295
  154SOL    HW1 1361   6.674   2.651   0.254
  154SOL    HW2 1362   6.645   2.490   0.251
  155SOL     OW 1363   0.549   0.208   1.806
  155SOL    HW1 1364   0.644   0.186   1.831
  155SOL    HW2 1365   0.499   0.124   1.786
  156SOL     OW 1366   6.364   1.593   0.442
  156SOL    HW1 1367   6.340   1.587   0.539
  156SOL    HW2 1368   6.397   1.504   0.411
  157SOL     OW 1369   5.727   2.887   0.251
  157SOL    HW1 1370   5.815   2.927   0.224
  157SOL    HW2 1371   5.670   2.959   0.291
  158SOL     OW 1372   1.584   2.429   1.810
  158SOL    HW1 1373   1.583   2.359   1.881
  158SOL    HW2 1374   1.573   2.519   1.852
  159SOL     OW 1375   4.221   4.444   1.279
  159SOL    HW1 1376   4.252   4.364   1.329
  159SOL    HW2 1377   4.290   4.470   1.211
  160SOL     OW 1378   6.562   0.428   1.685
  160SOL    HW1 1379   6.580   0.334   1.714
  160SOL    HW2 1380   6.613   0.447   1.601
  161SOL     OW 1381   0.870   6.714   1.178
  161SOL    HW1 1382   0.779   6.725   1.140
  161SOL    HW2 1383   0.894   6.794   1.233
  162SOL     OW 1384   2.862   6.440   0.437
  162SOL    HW1 1385   2.795   6.465   0.507
  162SOL    HW2 1386   2.872   6.341   0.435
  163SOL     OW 1387   0.324   5.154   3.156
  163SOL    HW1 1388   0.369   5.164   3.245
  163SOL    HW2 1389   0.363   5.076   3.108
  164SOL     OW 1390   0.861   2.014   2.739
  164SOL    HW1 1391   0.814   1.949   2.798
  164SOL    HW2 1392   0.858   1.983   2.644
  165SOL     OW 1393   6.321   5.639   1.963
  165SOL    HW1 1394   6.372   5.710   2.011
  165SOL    HW2 1395   6.223   5.654   1.977
  166SOL     OW 1396   6.496   3.806   1.795
  166SOL    HW1 1397   6.511   3.773   1.888
  166SOL    HW2 1398   6.402   3.783   1.767
  167SOL     OW 1399   5.401   1.602   6.870
  167SOL    HW1 1400   5.310   1.585   6.906
  167SOL    HW2 1401   5.408   1.696   6.837
  168SOL     OW 1402   3.568   2.544   1.322
  168SOL    HW1 1403   3.545   2.450   1.347
  168SOL    HW2 1404   3.492   2.583   1.270
  169SOL     OW 1405   6.074   2.846   6.980
  169SOL    HW1 1406   6.039   2.929   6.936
  169SOL    HW2 1407   6.148   2.870   0.022
  170SOL     OW 1408   0.293   5.743   3.628
  170SOL    HW1 1409   0.229   5.755   3.704
  170SOL    HW2 1410   0.280   5.817   3.562
  171SOL     OW 1411   1.684   3.519   6.467
  171SOL    HW1 1412   1.595   3.534   6.424
  171SOL    HW2 1413   1.673   3.467   6.551
  172SOL     OW 1414   6.047   2.733   2.355
  172SOL    HW1 1415   6.070   2.820   2.311
  172SOL    HW2 1416   5.977   2.749   2.425
  173SOL     OW 1417   5.787   1.422   4.317
  173SOL    HW1 1418   5.846   1.412   4.397
  173SOL    HW2 1419   5.733   1.339   4.304
  174SOL     OW 1420   5.164   5.277   4.992
  174SOL    HW1 1421   5.176   5.191   4.943
  174SOL    HW2 1422   5.142   5.258   5.088
  175SOL     OW 1423   2.932   0.330   1.275
  175SOL    HW1 1424   3.007   0.277   1.237
  175SOL    HW2 1425   2.846   0.279   1.264
  176SOL     OW 1426   4.803   4.163   3.246
  176SOL    HW1 1427   4.787   4.249   3.294
  176SOL    HW2 1428   4.834   4.093   3.310
  177SOL     OW 1429   5.552   2.449   5.467
  177SOL    HW1 1430   5.498   2.411   5.542
  177SOL    HW2 1431   5.632   2.391   5.451
  178SOL     OW 1432   3.020   5.030   4.177
  178SOL    HW1 1433   3.103   5.075   4.209
  178SOL    HW2 1434   2.973   4.987   4.254
  179SOL     OW 1435   4.045   6.286   0.073
  179SOL    HW1 1436   4.082   6.357   0.014
  179SOL    HW2 1437   4.096   6.201   0.060
  180SOL     OW 1438   2.618   6.499   0.192
  180SOL    HW1 1439   2.712   6.505   0.225
  180SOL    HW2 1440   2.616   6.448   0.106
  181SOL     OW 1441   3.110   2.490   5.754
  181SOL    HW1 1442   3.176   2.450   5.817
  181SOL    HW2 1443   3.143   2.480   5.660
  182SOL     OW 1444   4.733   3.113   6.758
  182SOL    HW1 1445   4.776   3.109   6.848
  182SOL    HW2 1446   4.650   3.057   6.758
  183SOL     OW 1447   4.242   1.905   3.765
  183SOL    HW1 1448   4.203   1.922   3.856
  183SOL    HW2 1449   4.169   1.909   3.696
  184SOL     OW 1450   0.898   6.848   3.202
  184SOL    HW1 1451   0.828   6.912   3.169
  184SOL    HW2 1452   0.987   6.893   3.204
  185SOL     OW 1453   1.139   1.656   3.894
  185SOL    HW1 1454   1.125   1.572   3.946
  185SOL    HW2 1455   1.067   1.722   3.916
  186SOL     OW 1456   5.558   6.511   4.168
  186SOL    HW1 1457   5.504   6.457   4.232
  186SOL    HW2 1458   5.528   6.493   4.074
  187SOL     OW 1459   4.296   5.700   2.185
  187SOL    HW1 1460   4.202   5.675   2.160
  187SOL    HW2 1461   4.353   5.700   2.103
  188SOL     OW 1462   1.038   1.973   3.070
  188SOL    HW1 1463   1.077   1.999   2.981
  188SOL    HW2 1464   0.938   1.978   3.065
  189SOL     OW 1465   0.017   4.565   6.519
  189SOL    HW1 1466   0.028   4.538   6.615
  189SOL    HW2 1467   0.032   4.485   6.461
  190SOL     OW 1468   5.730   4.972   6.812
  190SOL    HW1 1469   5.760   5.020   6.729
  190SOL    HW2 1470   5.703   4.879   6.788
  191SOL     OW 1471   6.581   1.523   5.702
  191SOL    HW1 1472   6.596   1.425   5.694
  191SOL    HW2 1473   6.656   1.573   5.659
  192SOL     OW 1474   0.723   4.904   1.423
  192SOL    HW1 1475   0.687   4.997   1.420
  192SOL    HW2 1476   0.673   4.847   1.358
  193SOL     OW 1477   4.637   4.916   5.538
  193SOL    HW1 1478   4.701   4.868   5.478
  193SOL    HW2 1479   4.545   4.910   5.501
  194SOL     OW 1480   4.163   6.834   1.752
  194SOL    HW1 1481   4.246   6.889   1.758
  194SOL    HW2 1482   4.088   6.891   1.717
  195SOL     OW 1483   2.467   0.649   3.584
  195SOL    HW1 1484   2.436   0.733   3.539
  195SOL    HW2 1485   2.486   0.668   3.681
  196SOL     OW 1486   3.222   0.233   6.968
  196SOL    HW1 1487   3.312   0.252   7.007
  196SOL    HW2 1488   3.212   0.284   6.882
  197SOL     OW 1489   3.051   5.822   6.731
  197SOL    HW1 1490   3.074   5.730   6.762
  197SOL    HW2 1491   3.056   5.885   6.809
  198SOL     OW 1492   4.066   6.318   0.847
  198SOL    HW1 1493   4.067   6.323   0.747
  198SOL    HW2 1494   4.142   6.370   0.884
  199SOL     OW 1495   6.610   1.047   2.607
  199SOL    HW1 1496   6.605   0.947   2.612
  199SOL    HW2 1497   6.678   1.080   2.673
  200SOL     OW 1498   0.927   3.273   2.425
  200SOL    HW1 1499   0.852   3.211   2.448
  200SOL    HW2 1500   1.002   3.260   2.489
  201SOL     OW 1501   2.988   6.652   5.672
  201SOL    HW1 1502   2.892   6.648   5.647
  201SOL    HW2 1503   3.001   6.612   5.763
  202SOL     OW 1504   5.246   0.582   5.042
  202SOL    HW1 1505   5.279   0.670   5.009
  202SOL    HW2 1506   5.147   0.586   5.056
  203SOL     OW 1507   4.536   2.531   5.617
  203SOL    HW1 1508   4.518   2.622   5.654
  203SOL    HW2 1509   4.459   2.471   5.639
  204SOL     OW 1510   0.685   0.316   6.875
  204SOL    HW1 1511   0.766   0.370   6.896
  204SOL    HW2 1512   0.694   0.225   6.916
  205SOL     OW 1513   0.728   1.508   1.499
  205SOL    HW1 1514   0.712   1.561   1.583
  205SOL    HW2 1515   0.669   1.543   1.427
  206SOL     OW 1516   6.985   5.256   2.115
  206SOL    HW1 1517   6.973   5.348   2.153
  206SOL    HW2 1518   0.052   5.219   2.146
  207SOL     OW 1519   4.198   0.686   5.478
  207SOL    HW1 1520   4.163   0.739   5.401
  207SOL    HW2 1521   4.153   0.596   5.478
  208SOL     OW 1522   5.431   4.185   5.507
  208SOL    HW1 1523   5.333   4.188   5.528
  208SOL    HW2 1524   5.455   4.263   5.450
  209SOL     OW 1525   0.857   5.603   5.625
  209SOL    HW1 1526   0.955   5.604   5.606
  209SOL    HW2 1527   0.832   5.682   5.680
  210SOL     OW 1528   4.198   2.223   2.368
  210SOL    HW1 1529   4.182   2.263   2.459
  210SOL    HW2 1530   4.130   2.151   2.351
  211SOL     OW 1531   1.117   6.952   3.539
  211SOL    HW1 1532   1.181   6.915   3.606
  211SOL    HW2 1533   1.137   6.913   3.449
  212SOL     OW 1534   2.002   4.772   1.940
  212SOL    HW1 1535   1.912   4.751   1.979
  212SOL    HW2 1536   1.990   4.818   1.852
  213SOL     OW 1537   4.235   0.683   0.046
  213SOL    HW1 1538   4.239   0.583   0.053
  213SOL    HW2 1539   4.229   0.709   6.970
  214SOL     OW 1540   2.037   5.856   2.647
  214SOL    HW1 1541   2.125   5.861   2.600
  214SOL    HW2 1542   1.983   5.780   2.609
  215SOL     OW 1543   3.558   4.090   2.303
  215SOL    HW1 1544   3.558   4.185   2.273
  215SOL    HW2 1545   3.467   4.051   2.291
  216SOL     OW 1546   1.737   0.039   4.670
  216SOL    HW1 1547   1.770   6.967   4.657
  216SOL    HW2 1548   1.815   0.100   4.684
  217SOL     OW 1549   1.985   2.853   4.775
  217SOL    HW1 1550   1.958   2.785   4.707
  217SOL    HW2 1551   2.084   2.846   4.792
  218SOL     OW 1552   0.996   2.725   5.041
  218SOL    HW1 1553   1.030   2.670   4.965
  218SOL    HW2 1554   1.069   2.739   5.107
  219SOL     OW 1555   3.882   4.702   5.750
  219SOL    HW1 1556   3.876   4.614   5.797
  219SOL    HW2 1557   3.977   4.733   5.751
  220SOL     OW 1558   3.299   5.108   0.039
  220SOL    HW1 1559   3.371   5.122   6.991
  220SOL    HW2 1560   3.300   5.013   0.068
  221SOL     OW 1561   5.780   4.142   2.518
  221SOL    HW1 1562   5.828   4.180   2.597
  221SOL    HW2 1563   5.775   4.043   2.527
  222SOL     OW 1564   1.752   4.861   5.277
  222SOL    HW1 1565   1.790   4.779   5.320
  222SOL    HW2 1566   1.682   4.834   5.211
  223SOL     OW 1567   0.534   3.436   0.763
  223SOL    HW1 1568   0.613   3.495   0.780
  223SOL    HW2 1569   0.565   3.351   0.721
  224SOL     OW 1570   2.941   2.299   3.764
  224SOL    HW1 1571   3.012   2.369   3.770
  224SOL    HW2 1572   2.854   2.337   3.794
  225SOL     OW 1573   5.427   1.160   6.478
  225SOL    HW1 1574   5.487   1.147   6.557
  225SOL    HW2 1575   5.334   1.133   6.502
  226SOL     OW 1576   0.865   6.444   6.697
  226SOL    HW1 1577   0.846   6.536   6.664
  226SOL    HW2 1578   0.820   6.377   6.636
  227SOL     OW 1579   1.029   4.556   3.019
  227SOL    HW1 1580   0.992   4.533   2.930
  227SOL    HW2 1581   1.074   4.645   3.015
  228SOL     OW 1582   3.056   0.313   3.827
  228SOL    HW1 1583   3.042   0.338   3.731
  228SOL    HW2 1584   3.013   0.382   3.885
  229SOL     OW 1585   6.362   5.626   0.989
  229SOL    HW1 1586   6.347   5.528   0.999
  229SOL    HW2 1587   6.459   5.644   0.977
  230SOL     OW 1588   2.711   4.745   3.293
  230SOL    HW1 1589   2.670   4.803   3.364
  230SOL    HW2 1590   2.667   4.656   3.293
  231SOL     OW 1591   6.402   2.635   6.035
  231SOL    HW1 1592   6.341   2.561   6.062
  231SOL    HW2 1593   6.362   2.687   5.959
  232SOL     OW 1594   0.732   4.361   6.207
  232SOL    HW1 1595   0.796   4.370   6.130
  232SOL    HW2 1596   0.706   4.453   6.238
  233SOL     OW 1597   2.457   1.129   4.541
  233SOL    HW1 1598   2.493   1.164   4.628
  233SOL    HW2 1599   2.529   1.080   4.492
  234SOL     OW 1600   2.697   5.310   5.455
  234SOL    HW1 1601   2.755   5.243   5.501
  234SOL    HW2 1602   2.736   5.333   5.366
  235SOL     OW 1603   3.920   3.074   2.273
  235SOL    HW1 1604   3.856   3.110   2.205
  235SOL    HW2 1605   3.947   2.981   2.248
  236SOL     OW 1606   5.950   3.377   6.679
  236SOL    HW1 1607   5.990   3.308   6.739
  236SOL    HW2 1608   5.940   3.339   6.587
  237SOL     OW 1609   0.548   6.537   0.820
  237SOL    HW1 1610   0.538   6.523   0.721
  237SOL    HW2 1611   0.574   6.632   0.837
  238SOL     OW 1612   6.773   2.990   0.645
  238SOL    HW1 1613   6.789   3.026   0.737
  238SOL    HW2 1614   6.852   2.935   0.617
  239SOL     OW 1615   6.621   4.751   0.241
  239SOL    HW1 1616   6.567   4.731   0.159
  239SOL    HW2 1617   6.578   4.708   0.320
  240SOL     OW 1618   0.346   3.190   6.064
  240SOL    HW1 1619   0.350   3.101   6.109
  240SOL    HW2 1620   0.271   3.244   6.103
  241SOL     OW 1621   0.561   0.387   4.026
  241SOL    HW1 1622   0.537   0.293   4.002
  241SOL    HW2 1623   0.580   0.439   3.943
  242SOL     OW 1624   1.156   2.271   6.201
  242SOL    HW1 1625   1.181   2.310   6.113
  242SOL    HW2 1626   1.220   2.303   6.271
  243SOL     OW 1627   4.402   0.272   6.006
  243SOL    HW1 1628   4.314   0.271   6.054
  243SOL    HW2 1629   4.391   0.315   5.917
  244SOL     OW 1630   4.863   2.919   4.161
  244SOL    HW1 1631   4.816   2.863   4.230
  244SOL    HW2 1632   4.957   2.937   4.191
  245SOL     OW 1633   6.828   2.503   4.303
  245SOL    HW1 1634   6.769   2.579   4.277
  245SOL    HW2 1635   6.779   2.417   4.292
  246SOL     OW 1636   5.261   3.574   3.647
  246SOL    HW1 1637   5.282   3.497   3.587
  246SOL    HW2 1638   5.341   3.594   3.705
  247SOL     OW 1639   2.809   1.386   3.100
  247SOL    HW1 1640   2.857   1.385   3.012
  247SOL    HW2 1641   2.813   1.478   3.139
  248SOL     OW 1642   4.820   2.409   4.327
  248SOL    HW1 1643   4.751   2.337   4.335
  248SOL    HW2 1644   4.900   2.384   4.380
  249SOL     OW 1645   3.337   6.813   4.931
  249SOL    HW1 1646   3.246   6.852   4.946
  249SOL    HW2 1647   3.373   6.845   4.844
  250SOL     OW 1648   5.426   1.645   5.745
  250SOL    HW1 1649   5.329   1.665   5.757
  250SOL    HW2 1650   5.436   1.563   5.689
  251SOL     OW 1651   4.521   3.518   5.883
  251SOL    HW1 1652   4.518   3.529   5.982
  251SOL    HW2 1653   4.593   3.575   5.844
  252SOL     OW 1654   0.071   1.197   6.075
  252SOL    HW1 1655   0.056   1.269   6.007
  252SOL    HW2 1656   7.021   1.203   6.145
  253SOL     OW 1657   2.591   4.535   0.315
  253SOL    HW1 1658   2.613   4.532   0.218
  253SOL    HW2 1659   2.585   4.442   0.351
  254SOL     OW 1660   6.287   2.485   3.740
  254SOL    HW1 1661   6.284   2.564   3.802
  254SOL    HW2 1662   6.345   2.414   3.780
  255SOL     OW 1663   2.823   1.786   4.151
  255SOL    HW1 1664   2.881   1.737   4.087
  255SOL    HW2 1665   2.778   1.721   4.212
  256SOL     OW 1666   6.831   4.919   0.171
  256SOL    HW1 1667   6.852   4.981   0.246
  256SOL    HW2 1668   6.789   4.835   0.207
  257SOL     OW 1669   3.248   5.497   5.242
  257SOL    HW1 1670   3.263   5.508   5.144
  257SOL    HW2 1671   3.194   5.415   5.258
  258SOL     OW 1672   5.129   3.560   4.833
  258SOL    HW1 1673   5.207   3.525   4.782
  258SOL    HW2 1674   5.157   3.642   4.885
  259SOL     OW 1675   1.584   3.030   2.875
  259SOL    HW1 1676   1.570   2.931   2.879
  259SOL    HW2 1677   1.523   3.070   2.807
  260SOL     OW 1678   4.479   0.127   0.840
  260SOL    HW1 1679   4.457   0.116   0.937
  260SOL    HW2 1680   4.529   0.047   0.807
  261SOL     OW 1681   0.681   3.648   1.188
  261SOL    HW1 1682   0.611   3.631   1.118
  261SOL    HW2 1683   0.647   3.714   1.254
  262SOL     OW 1684   0.721   4.465   2.352
  262SOL    HW1 1685   0.655   4.430   2.419
  262SOL    HW2 1686   0.685   4.449   2.260
  263SOL     OW 1687   6.978   1.965   4.445
  263SOL    HW1 1688   0.041   1.932   4.488
  263SOL    HW2 1689   7.001   2.019   4.364
  264SOL     OW 1690   6.699   3.504   5.780
  264SOL    HW1 1691   6.603   3.527   5.765
  264SOL    HW2 1692   6.752   3.530   5.700
  265SOL     OW 1693   5.151   3.910   3.417
  265SOL    HW1 1694   5.147   3.873   3.510
  265SOL    HW2 1695   5.204   3.847   3.359
  266SOL     OW 1696   3.207   2.211   6.749
  266SOL    HW1 1697   3.227   2.150   6.673
  266SOL    HW2 1698   3.274   2.285   6.751
  267SOL     OW 1699   1.083   2.899   0.015
  267SOL    HW1 1700   0.992   2.930   7.005
  267SOL    HW2 1701   1.123   2.840   6.966
  268SOL     OW 1702   4.772   5.248   4.813
  268SOL    HW1 1703   4.675   5.233   4.793
  268SOL    HW2 1704   4.782   5.299   4.898
  269SOL     OW 1705   1.946   2.213   6.699
  269SOL    HW1 1706   1.943   2.140   6.631
  269SOL    HW2 1707   1.889   2.290   6.669
  270SOL     OW 1708   4.987   0.995   2.376
  270SOL    HW1 1709   4.916   0.933   2.341
  270SOL    HW2 1710   5.075   0.968   2.336
  271SOL     OW 1711   1.918   1.829   0.931
  271SOL    HW1 1712   1.939   1.898   1.001
  271SOL    HW2 1713   1.909   1.739   0.974
  272SOL     OW 1714   4.086   5.629   3.919
  272SOL    HW1 1715   3.998   5.676   3.912
  272SOL    HW2 1716   4.127   5.648   4.008
  273SOL     OW 1717   1.355   5.431   5.052
  273SOL    HW1 1718   1.383   5.484   5.132
  273SOL    HW2 1719   1.417   5.451   4.975
  274SOL     OW 1720   5.007   2.826   3.578
  274SOL    HW1 1721   5.031   2.831   3.481
  274SOL    HW2 1722   4.944   2.901   3.600
  275SOL     OW 1723   0.666   5.255   6.102
  275SOL    HW1 1724   0.667   5.196   6.022
  275SOL    HW2 1725   0.587   5.233   6.159
  276SOL     OW 1726   6.433   5.527   4.243
  276SOL    HW1 1727   6.385   5.493   4.324
  276SOL    HW2 1728   6.382   5.502   4.161
  277SOL     OW 1729   2.686   0.715   5.936
  277SOL    HW1 1730   2.611   0.658   5.971
  277SOL    HW2 1731   2.684   0.804   5.980
  278SOL     OW 1732   5.496   3.570   2.299
  278SOL    HW1 1733   5.592   3.548   2.278
  278SOL    HW2 1734   5.451   3.490   2.337
  279SOL     OW 1735   6.456   3.075   3.686
  279SOL    HW1 1736   6.393   3.035   3.619
  279SOL    HW2 1737   6.531   3.012   3.704
  280SOL     OW 1738   4.837   6.641   3.974
  280SOL    HW1 1739   4.769   6.569   3.992
  280SOL    HW2 1740   4.827   6.713   4.042
  281SOL     OW 1741   3.454   5.077   3.710
  281SOL    HW1 1742   3.516   5.060   3.634
  281SOL    HW2 1743   3.490   5.033   3.792
  282SOL     OW 1744   3.834   2.073   5.504
  282SOL    HW1 1745   3.776   2.044   5.580
  282SOL    HW2 1746   3.894   2.147   5.535
  283SOL     OW 1747   6.090   6.723   5.104
  283SOL    HW1 1748   6.043   6.648   5.057
  283SOL    HW2 1749   6.174   6.746   5.054
  284SOL     OW 1750   0.507   4.429   4.207
  284SOL    HW1 1751   0.427   4.375   4.234
  284SOL    HW2 1752   0.480   4.524   4.193
  285SOL     OW 1753   5.280   6.354   0.272
  285SOL    HW1 1754   5.278   6.255   0.282
  285SOL    HW2 1755   5.210   6.395   0.331
  286SOL     OW 1756   3.899   4.871   5.540
  286SOL    HW1 1757   3.884   4.831   5.630
  286SOL    HW2 1758   3.969   4.943   5.546
  287SOL     OW 1759   1.532   5.591   6.275
  287SOL    HW1 1760   1.594   5.540   6.215
  287SOL    HW2 1761   1.560   5.578   6.370
  288SOL     OW 1762   4.003   0.680   1.083
  288SOL    HW1 1763   3.934   0.753   1.081
  288SOL    HW2 1764   4.084   0.712   1.133
  289SOL     OW 1765   1.429   5.672   5.819
  289SOL    HW1 1766   1.445   5.607   5.894
  289SOL    HW2 1767   1.437   5.624   5.731
  290SOL     OW 1768   4.302   0.236   3.066
  290SOL    HW1 1769   4.386   0.283   3.039
  290SOL    HW2 1770   4.224   0.299   3.057
  291SOL     OW 1771   4.158   1.310   3.836
  291SOL    HW1 1772   4.070   1.334   3.795
  291SOL    HW2 1773   4.143   1.271   3.927
  292SOL     OW 1774   4.039   0.777   3.347
  292SOL    HW1 1775   4.123   0.824   3.319
  292SOL    HW2 1776   4.058   0.680   3.359
  293SOL     OW 1777   4.462   6.039   1.570
  293SOL    HW1 1778   4.390   6.093   1.525
  293SOL    HW2 1779   4.511   6.098   1.634
  294SOL     OW 1780   5.922   6.147   6.114
  294SOL    HW1 1781   5.905   6.151   6.213
  294SOL    HW2 1782   6.020   6.136   6.098
  295SOL     OW 1783   1.325   2.556   5.713
  295SOL    HW1 1784   1.242   2.543   5.659
  295SOL    HW2 1785   1.405   2.531   5.658
  296SOL     OW 1786   6.329   2.200   1.226
  296SOL    HW1 1787   6.244   2.168   1.186
  296SOL    HW2 1788   6.407   2.162   1.176
  297SOL     OW 1789   4.712   4.883   3.431
  297SOL    HW1 1790   4.624   4.886   3.385
  297SOL    HW2 1791   4.766   4.806   3.395
  298SOL     OW 1792   3.948   0.712   0.450
  298SOL    HW1 1793   3.948   0.619   0.487
  298SOL    HW2 1794   4.028   0.761   0.484
  299SOL     OW 1795   3.428   1.572   0.106
  299SOL    HW1 1796   3.476   1.594   0.021
  299SOL    HW2 1797   3.398   1.657   0.150
  300SOL     OW 1798   3.936   1.022   2.632
  300SOL    HW1 1799   3.967   1.108   2.592
  300SOL    HW2 1800   3.837   1.013   2.621
  301SOL     OW 1801   5.074   0.405   1.678
  301SOL    HW1 1802   4.997   0.436   1.623
  301SOL    HW2 1803   5.045   0.329   1.736
  302SOL     OW 1804   0.651   0.182   2.142
  302SOL    HW1 1805   0.681   0.245   2.214
  302SOL    HW2 1806   0.704   0.198   2.059
  303SOL     OW 1807   5.691   5.927   1.664
  303SOL    HW1 1808   5.756   6.003   1.654
  303SOL    HW2 1809   5.686   5.900   1.760
  304SOL     OW 1810   2.133   6.356   5.959
  304SOL    HW1 1811   2.070   6.298   5.907
  304SOL    HW2 1812   2.227   6.335   5.932
  305SOL     OW 1813   1.486   2.872   0.823
  305SOL    HW1 1814   1.410   2.809   0.808
  305SOL    HW2 1815   1.449   2.962   0.847
  306SOL     OW 1816   0.277   1.085   2.661
  306SOL    HW1 1817   0.363   1.116   2.620
  306SOL    HW2 1818   0.205   1.084   2.591
  307SOL     OW 1819   3.450   3.919   0.537
  307SOL    HW1 1820   3.442   4.014   0.567
  307SOL    HW2 1821   3.456   3.859   0.617
  308SOL     OW 1822   5.971   2.754   4.184
  308SOL    HW1 1823   5.921   2.735   4.268
  308SOL    HW2 1824   6.014   2.670   4.150
  309SOL     OW 1825   1.619   6.321   0.241
  309SOL    HW1 1826   1.704   6.360   0.206
  309SOL    HW2 1827   1.590   6.371   0.322
  310SOL     OW 1828   5.829   6.236   3.898
  310SOL    HW1 1829   5.757   6.287   3.852
  310SOL    HW2 1830   5.911   6.237   3.841
  311SOL     OW 1831   2.423   4.447   2.306
  311SOL    HW1 1832   2.329   4.480   2.313
  311SOL    HW2 1833   2.471   4.461   2.393
  312SOL     OW 1834   4.193   2.326   4.610
  312SOL    HW1 1835   4.168   2.285   4.522
  312SOL    HW2 1836   4.116   2.319   4.674
  313SOL     OW 1837   2.991   3.808   2.734
  313SOL    HW1 1838   3.017   3.902   2.754
  313SOL    HW2 1839   3.073   3.754   2.716
  314SOL     OW 1840   2.109   5.030   5.098
  314SOL    HW1 1841   2.046   5.005   5.024
  314SOL    HW2 1842   2.198   4.988   5.082
  315SOL     OW 1843   0.519   1.891   3.688
  315SOL    HW1 1844   0.456   1.824   3.649
  315SOL    HW2 1845   0.486   1.920   3.778
  316SOL     OW 1846   4.064   1.289   4.577
  316SOL    HW1 1847   4.027   1.345   4.504
  316SOL    HW2 1848   4.162   1.305   4.586
  317SOL     OW 1849   1.149   1.398   1.611
  317SOL    HW1 1850   1.083   1.453   1.561
  317SOL    HW2 1851   1.129   1.402   1.709
  318SOL     OW 1852   5.837   0.572   6.467
  318SOL    HW1 1853   5.876   0.663   6.483
  318SOL    HW2 1854   5.772   0.576   6.391
  319SOL     OW 1855   6.678   2.070   3.347
  319SOL    HW1 1856   6.606   2.137   3.333
  319SOL    HW2 1857   6.690   2.054   3.445
  320SOL     OW 1858   6.241   3.054   0.035
  320SOL    HW1 1859   6.220   3.056   0.133
  320SOL    HW2 1860   6.267   3.145   0.005
  321SOL     OW 1861   4.114   2.352   0.990
  321SOL    HW1 1862   4.197   2.361   1.045
  321SOL    HW2 1863   4.092   2.255   0.978
  322SOL     OW 1864   3.839   2.986   4.302
  322SOL    HW1 1865   3.816   2.960   4.396
  322SOL    HW2 1866   3.870   3.081   4.300
  323SOL     OW 1867   1.328   2.323   4.478
  323SOL    HW1 1868   1.413   2.323   4.530
  323SOL    HW2 1869   1.348   2.337   4.381
  324SOL     OW 1870   2.112   6.842   3.598
  324SOL    HW1 1871   2.072   6.882   3.680
  324SOL    HW2 1872   2.073   6.752   3.582
  325SOL     OW 1873   1.412   3.813   2.478
  325SOL    HW1 1874   1.454   3.860   2.555
  325SOL    HW2 1875   1.341   3.870   2.438
  326SOL     OW 1876   1.163   4.255   5.507
  326SOL    HW1 1877   1.199   4.348   5.514
  326SOL    HW2 1878   1.123   4.242   5.416
  327SOL     OW 1879   2.515   4.501   2.542
  327SOL    HW1 1880   2.548   4.595   2.530
  327SOL    HW2 1881   2.469   4.493   2.630
  328SOL     OW 1882   1.855   4.906   1.335
  328SOL    HW1 1883   1.913   4.877   1.411
  328SOL    HW2 1884   1.771   4.852   1.335
  329SOL     OW 1885   2.447   3.675   5.932
  329SOL    HW1 1886   2.453   3.688   5.833
  329SOL    HW2 1887   2.351   3.682   5.961
  330SOL     OW 1888   3.520   6.308   0.333
  330SOL    HW1 1889   3.509   6.378   0.403
  330SOL    HW2 1890   3.528   6.352   0.243
  331SOL     OW 1891   5.904   5.128   0.978
  331SOL    HW1 1892   5.899   5.144   1.077
  331SOL    HW2 1893   5.838   5.187   0.932
  332SOL     OW 1894   5.755   1.956   3.998
  332SOL    HW1 1895   5.722   1.906   3.918
  332SOL    HW2 1896   5.678   1.974   4.060
  333SOL     OW 1897   4.373   0.906   5.337
  333SOL    HW1 1898   4.360   0.893   5.435
  333SOL    HW2 1899   4.447   0.971   5.321
  334SOL     OW 1900   3.552   2.387   0.855
  334SOL    HW1 1901   3.576   2.430   0.767
  334SOL    HW2 1902   3.624   2.404   0.921
  335SOL     OW 1903   4.353   0.238   6.648
  335SOL    HW1 1904   4.417   0.301   6.692
  335SOL    HW2 1905   4.271   0.288   6.620
  336SOL     OW 1906   3.005   1.262   2.917
  336SOL    HW1 1907   3.048   1.265   3.007
  336SOL    HW2 1908   3.076   1.261   2.846
  337SOL     OW 1909   1.251   2.387   5.985
  337SOL    HW1 1910   1.276   2.483   5.981
  337SOL    HW2 1911   1.176   2.369   5.921
  338SOL     OW 1912   3.457   3.068   1.475
  338SOL    HW1 1913   3.526   3.065   1.547
  338SOL    HW2 1914   3.379   3.012   1.503
  339SOL     OW 1915   4.307   5.466   4.464
  339SOL    HW1 1916   4.247   5.463   4.384
  339SOL    HW2 1917   4.332   5.561   4.483
  340SOL     OW 1918   4.929   3.440   4.978
  340SOL    HW1 1919   4.894   3.519   5.027
  340SOL    HW2 1920   5.023   3.458   4.948
  341SOL     OW 1921   5.459   6.791   4.174
  341SOL    HW1 1922   5.474   6.829   4.082
  341SOL    HW2 1923   5.488   6.695   4.175
  342SOL     OW 1924   4.755   2.966   0.181
  342SOL    HW1 1925   4.745   2.931   0.275
  342SOL    HW2 1926   4.758   3.066   0.184
  343SOL     OW 1927   0.182   6.499   2.588
  343SOL    HW1 1928   0.163   6.534   2.680
  343SOL    HW2 1929   0.244   6.563   2.541
  344SOL     OW 1930   0.994   2.417   1.921
  344SOL    HW1 1931   0.937   2.367   1.856
  344SOL    HW2 1932   0.966   2.393   2.015
  345SOL     OW 1933   6.254   2.097   4.154
  345SOL    HW1 1934   6.163   2.073   4.121
  345SOL    HW2 1935   6.300   2.015   4.188
  346SOL     OW 1936   1.510   0.197   2.670
  346SOL    HW1 1937   1.556   0.214   2.583
  346SOL    HW2 1938   1.576   0.161   2.736
  347SOL     OW 1939   3.044   5.618   0.072
  347SOL    HW1 1940   3.032   5.582   7.001
  347SOL    HW2 1941   3.001   5.556   0.138
  348SOL     OW 1942   4.978   4.934   3.164
  348SOL    HW1 1943   5.029   4.915   3.080
  348SOL    HW2 1944   4.883   4.956   3.142
  349SOL     OW 1945   6.609   4.664   2.051
  349SOL    HW1 1946   6.592   4.566   2.053
  349SOL    HW2 1947   6.674   4.688   2.123
  350SOL     OW 1948   2.853   3.293   0.783
  350SOL    HW1 1949   2.807   3.243   0.856
  350SOL    HW2 1950   2.952   3.295   0.801
  351SOL     OW 1951   2.710   3.244   0.542
  351SOL    HW1 1952   2.743   3.297   0.620
  351SOL    HW2 1953   2.674   3.157   0.575
  352SOL     OW 1954   3.707   6.681   3.311
  352SOL    HW1 1955   3.749   6.592   3.297
  352SOL    HW2 1956   3.615   6.669   3.348
  353SOL     OW 1957   2.942   0.377   6.421
  353SOL    HW1 1958   3.041   0.360   6.429
  353SOL    HW2 1959   2.910   0.344   6.333
  354SOL     OW 1960   4.763   2.388   1.423
  354SOL    HW1 1961   4.818   2.460   1.466
  354SOL    HW2 1962   4.684   2.368   1.480
  355SOL     OW 1963   1.824   3.849   2.478
  355SOL    HW1 1964   1.755   3.888   2.416
  355SOL    HW2 1965   1.808   3.751   2.487
  356SOL     OW 1966   2.424   0.973   5.245
  356SOL    HW1 1967   2.445   1.018   5.158
  356SOL    HW2 1968   2.468   1.023   5.319
  357SOL     OW 1969   6.476   5.877   4.815
  357SOL    HW1 1970   6.420   5.959   4.828
  357SOL    HW2 1971   6.494   5.864   4.718
  358SOL     OW 1972   4.592   6.601   0.584
  358SOL    HW1 1973   4.536   6.679   0.556
  358SOL    HW2 1974   4.688   6.628   0.588
  359SOL     OW 1975   3.084   0.942   2.000
  359SOL    HW1 1976   3.060   0.905   2.090
  359SOL    HW2 1977   3.184   0.942   1.990
  360SOL     OW 1978   1.777   3.650   4.657
  360SOL    HW1 1979   1.700   3.713   4.668
  360SOL    HW2 1980   1.813   3.658   4.565
  361SOL     OW 1981   6.456   5.728   2.860
  361SOL    HW1 1982   6.449   5.819   2.900
  361SOL    HW2 1983   6.474   5.735   2.762
  362SOL     OW 1984   3.325   2.821   1.549
  362SOL    HW1 1985   3.377   2.736   1.553
  362SOL    HW2 1986   3.231   2.801   1.521
  363SOL     OW 1987   5.412   4.629   2.795
  363SOL    HW1 1988   5.330   4.617   2.740
  363SOL    HW2 1989   5.479   4.559   2.771
  364SOL     OW 1990   6.859   5.126   6.967
  364SOL    HW1 1991   6.809   5.089   6.889
  364SOL    HW2 1992   6.878   5.053   0.012
  365SOL     OW 1993   4.318   0.170   1.102
  365SOL    HW1 1994   4.333   0.234   1.026
  365SOL    HW2 1995   4.370   0.201   1.182
  366SOL     OW 1996   6.164   2.329   6.554
  366SOL    HW1 1997   6.101   2.407   6.556
  366SOL    HW2 1998   6.258   2.362   6.546
  367SOL     OW 1999   5.919   2.472   6.290
  367SOL    HW1 2000   5.867   2.392   6.323
  367SOL    HW2 2001   5.860   2.553   6.293
  368SOL     OW 2002   6.971   2.478   5.433
  368SOL    HW1 2003   0.006   2.451   5.511
  368SOL    HW2 2004   7.011   2.559   5.389
  369SOL     OW 2005   5.852   4.791   3.083
  369SOL    HW1 2006   5.830   4.854   3.009
  369SOL    HW2 2007   5.948   4.801   3.108
  370SOL     OW 2008   0.894   2.176   4.081
  370SOL    HW1 2009   0.908   2.145   3.987
  370SOL    HW2 2010   0.970   2.234   4.109
  371SOL     OW 2011   1.706   4.433   6.452
  371SOL    HW1 2012   1.660   4.353   6.490
  371SOL    HW2 2013   1.761   4.406   6.373
  372SOL     OW 2014   2.269   6.669   5.747
  372SOL    HW1 2015   2.218   6.584   5.733
  372SOL    HW2 2016   2.205   6.746   5.750
  373SOL     OW 2017   5.517   6.236   5.583
  373SOL    HW1 2018   5.553   6.143   5.575
  373SOL    HW2 2019   5.571   6.287   5.649
  374SOL     OW 2020   2.687   2.339   3.295
  374SOL    HW1 2021   2.654   2.405   3.363
  374SOL    HW2 2022   2.761   2.285   3.334
  375SOL     OW 2023   0.954   4.441   4.175
  375SOL    HW1 2024   0.873   4.475   4.222
  375SOL    HW2 2025   0.995   4.367   4.228
  376SOL     OW 2026   1.470   1.460   5.318
  376SOL    HW1 2027   1.483   1.555   5.290
  376SOL    HW2 2028   1.469   1.401   5.237
  377SOL     OW 2029   1.684   2.029   6.976
  377SOL    HW1 2030   1.762   2.091   6.988
  377SOL    HW2 2031   1.717   1.937   6.956
  378SOL     OW 2032   4.108   1.641   1.068
  378SOL    HW1 2033   4.154   1.693   0.996
  378SOL    HW2 2034   4.151   1.552   1.078
  379SOL     OW 2035   5.535   2.556   0.009
  379SOL    HW1 2036   5.464   2.553   0.079
  379SOL    HW2 2037   5.574   2.648   0.006
  380SOL     OW 2038   3.231   1.288   1.420
  380SOL    HW1 2039   3.309   1.314   1.477
  380SOL    HW2 2040   3.224   1.189   1.416
  381SOL     OW 2041   1.651   4.084   3.773
  381SOL    HW1 2042   1.594   4.165   3.781
  381SOL    HW2 2043   1.715   4.095   3.697
  382SOL     OW 2044   6.082   1.047   0.182
  382SOL    HW1 2045   5.991   1.031   0.221
  382SOL    HW2 2046   6.149   1.057   0.255
  383SOL     OW 2047   3.769   3.318   0.089
  383SOL    HW1 2048   3.760   3.240   0.026
  383SOL    HW2 2049   3.732   3.400   0.046
  384SOL     OW 2050   7.014   5.378   5.097
  384SOL    HW1 2051   0.021   5.401   5.191
  384SOL    HW2 2052   0.038   5.440   5.033
  385SOL     OW 2053   3.152   5.263   5.361
  385SOL    HW1 2054   3.075   5.199   5.359
  385SOL    HW2 2055   3.238   5.212   5.354
  386SOL     OW 2056   3.081   6.656   4.223
  386SOL    HW1 2057   3.161   6.716   4.216
  386SOL    HW2 2058   3.064   6.635   4.319
  387SOL     OW 2059   0.587   5.259   2.669
  387SOL    HW1 2060   0.611   5.206   2.587
  387SOL    HW2 2061   0.586   5.356   2.646
  388SOL     OW 2062   2.278   2.262   6.544
  388SOL    HW1 2063   2.180   2.271   6.562
  388SOL    HW2 2064   2.292   2.244   6.446
  389SOL     OW 2065   3.636   3.712   2.780
  389SOL    HW1 2066   3.735   3.696   2.769
  389SOL    HW2 2067   3.595   3.634   2.828
  390SOL     OW 2068   2.668   1.099   3.345
  390SOL    HW1 2069   2.613   1.143   3.273
  390SOL    HW2 2070   2.762   1.088   3.312
  391SOL     OW 2071   2.345   2.173   5.937
  391SOL    HW1 2072   2.263   2.224   5.912
  391SOL    HW2 2073   2.425   2.212   5.891
  392SOL     OW 2074   1.511   4.422   0.732
  392SOL    HW1 2075   1.587   4.453   0.790
  392SOL    HW2 2076   1.547   4.368   0.656
  393SOL     OW 2077   0.546   4.722   6.697
  393SOL    HW1 2078   0.562   4.718   6.599
  393SOL    HW2 2079   0.549   4.818   6.727
  394SOL     OW 2080   0.157   1.139   6.840
  394SOL    HW1 2081   0.116   1.076   6.774
  394SOL    HW2 2082   0.108   1.134   6.926
  395SOL     OW 2083   4.964   3.521   3.367
  395SOL    HW1 2084   4.895   3.572   3.315
  395SOL    HW2 2085   4.933   3.510   3.462
  396SOL     OW 2086   4.014   3.868   2.305
  396SOL    HW1 2087   3.959   3.805   2.360
  396SOL    HW2 2088   4.085   3.909   2.363
  397SOL     OW 2089   4.629   2.091   5.498
  397SOL    HW1 2090   4.682   2.175   5.488
  397SOL    HW2 2091   4.540   2.103   5.454
  398SOL     OW 2092   0.838   6.369   2.550
  398SOL    HW1 2093   0.843   6.286   2.606
  398SOL    HW2 2094   0.903   6.436   2.583
  399SOL     OW 2095   5.175   5.960   2.742
  399SOL    HW1 2096   5.229   5.955   2.826
  399SOL    HW2 2097   5.153   6.055   2.721
  400SOL     OW 2098   6.018   6.711   5.709
  400SOL    HW1 2099   6.079   6.790   5.709
  400SOL    HW2 2100   5.923   6.742   5.699
  401SOL     OW 2101   5.057   1.132   5.574
  401SOL    HW1 2102   5.010   1.092   5.652
  401SOL    HW2 2103   5.145   1.087   5.560
  402SOL     OW 2104   5.706   0.416   3.062
  402SOL    HW1 2105   5.673   0.381   2.974
  402SOL    HW2 2106   5.799   0.450   3.051
  403SOL     OW 2107   4.496   1.768   4.371
  403SOL    HW1 2108   4.522   1.860   4.401
  403SOL    HW2 2109   4.551   1.700   4.419
  404SOL     OW 2110   1.398   6.077   3.923
  404SOL    HW1 2111   1.421   6.115   4.013
  404SOL    HW2 2112   1.477   6.026   3.887
  405SOL     OW 2113   1.823   3.567   1.963
  405SOL    HW1 2114   1.738   3.604   2.001
  405SOL    HW2 2115   1.901   3.605   2.011
  406SOL     OW 2116   1.054   4.220   4.316
  406SOL    HW1 2117   1.094   4.154   4.253
  406SOL    HW2 2118   0.960   4.193   4.338
  407SOL     OW 2119   2.150   0.595   3.528
  407SOL    HW1 2120   2.192   0.545   3.453
  407SOL    HW2 2121   2.221   0.627   3.591
  408SOL     OW 2122   0.940   2.238   3.039
  408SOL    HW1 2123   1.010   2.181   3.082
  408SOL    HW2 2124   0.884   2.281   3.110
  409SOL     OW 2125   6.671   2.649   0.886
  409SOL    HW1 2126   6.645   2.706   0.808
  409SOL    HW2 2127   6.598   2.584   0.906
  410SOL     OW 2128   1.356   0.159   0.782
  410SOL    HW1 2129   1.395   0.239   0.738
  410SOL    HW2 2130   1.283   0.121   0.724
  411SOL     OW 2131   5.224   6.846   0.192
  411SOL    HW1 2132   5.224   6.761   0.139
  411SOL    HW2 2133   5.185   6.919   0.136
  412SOL     OW 2134   5.448   6.585   3.913
  412SOL    HW1 2135   5.361   6.596   3.962
  412SOL    HW2 2136   5.437   6.615   3.818
  413SOL     OW 2137   5.640   5.225   2.103
  413SOL    HW1 2138   5.616   5.318   2.133
  413SOL    HW2 2139   5.613   5.159   2.172
  414SOL     OW 2140   3.863   5.337   3.391
  414SOL    HW1 2141   3.923   5.360   3.467
  414SOL    HW2 2142   3.774   5.381   3.404
  415SOL     OW 2143   1.348   5.847   6.599
  415SOL    HW1 2144   1.379   5.831   6.505
  415SOL    HW2 2145   1.269   5.788   6.618
  416SOL     OW 2146   5.097   5.746   3.821
  416SOL    HW1 2147   5.191   5.725   3.846
  416SOL    HW2 2148   5.052   5.794   3.897
  417SOL     OW 2149   2.704   5.145   0.540
  417SOL    HW1 2150   2.605   5.151   0.543
  417SOL    HW2 2151   2.731   5.068   0.481
  418SOL     OW 2152   4.201   5.944   1.127
  418SOL    HW1 2153   4.145   5.924   1.208
  418SOL    HW2 2154   4.296   5.919   1.146
  419SOL     OW 2155   1.344   0.213   1.081
  419SOL    HW1 2156   1.360   0.305   1.117
  419SOL    HW2 2157   1.345   0.216   0.981
  420SOL     OW 2158   6.060   1.738   6.926
  420SOL    HW1 2159   6.031   1.677   7.000
  420SOL    HW2 2160   6.032   1.699   6.838
  421SOL     OW 2161   0.052   4.347   6.376
  421SOL    HW1 2162   0.002   4.263   6.395
  421SOL    HW2 2163   0.017   4.387   6.291
  422SOL     OW 2164   5.438   4.524   0.272
  422SOL    HW1 2165   5.378   4.575   0.210
  422SOL    HW2 2166   5.383   4.480   0.342
  423SOL     OW 2167   0.903   2.618   0.008
  423SOL    HW1 2168   0.988   2.655   6.991
  423SOL    HW2 2169   0.871   2.542   6.972
  424SOL     OW 2170   2.448   3.673   0.587
  424SOL    HW1 2171   2.355   3.669   0.550
  424SOL    HW2 2172   2.453   3.620   0.672
  425SOL     OW 2173   5.498   1.085   2.364
  425SOL    HW1 2174   5.458   1.140   2.437
  425SOL    HW2 2175   5.462   1.115   2.276
  426SOL     OW 2176   4.509   2.295   3.729
  426SOL    HW1 2177   4.595   2.309   3.777
  426SOL    HW2 2178   4.510   2.206   3.684
  427SOL     OW 2179   4.823   5.651   2.970
  427SOL    HW1 2180   4.849   5.560   3.004
  427SOL    HW2 2181   4.743   5.643   2.912
  428SOL     OW 2182   4.219   0.446   4.355
  428SOL    HW1 2183   4.171   0.512   4.414
  428SOL    HW2 2184   4.262   0.376   4.412
  429SOL     OW 2185   1.738   3.415   1.124
  429SOL    HW1 2186   1.836   3.397   1.122
  429SOL    HW2 2187   1.688   3.328   1.125
  430SOL     OW 2188   6.722   0.335   5.292
  430SOL    HW1 2189   6.804   0.287   5.323
  430SOL    HW2 2190   6.665   0.273   5.239
  431SOL     OW 2191   3.194   0.109   0.492
  431SOL    HW1 2192   3.142   0.041   0.544
  431SOL    HW2 2193   3.185   0.089   0.395
  432SOL     OW 2194   6.557   1.936   1.356
  432SOL    HW1 2195   6.556   1.998   1.278
  432SOL    HW2 2196   6.578   1.843   1.324
  433SOL     OW 2197   2.985   6.480   5.007
  433SOL    HW1 2198   3.002   6.408   5.074
  433SOL    HW2 2199   2.896   6.522   5.024
  434SOL     OW 2200   3.201   6.059   2.093
  434SOL    HW1 2201   3.276   6.055   2.028
  434SOL    HW2 2202   3.184   6.154   2.119
  435SOL     OW 2203   5.157   2.447   6.027
  435SOL    HW1 2204   5.198   2.357   6.012
  435SOL    HW2 2205   5.199   2.514   5.966
  436SOL     OW 2206   3.409   6.330   1.010
  436SOL    HW1 2207   3.454   6.402   0.958
  436SOL    HW2 2208   3.311   6.330   0.989
  437SOL     OW 2209   1.105   0.618   6.805
  437SOL    HW1 2210   1.008   0.642   6.803
  437SOL    HW2 2211   1.121   0.537   6.749
  438SOL     OW 2212   2.141   3.751   2.592
  438SOL    HW1 2213   2.176   3.725   2.682
  438SOL    HW2 2214   2.137   3.671   2.533
  439SOL     OW 2215   6.157   4.486   3.273
  439SOL    HW1 2216   6.216   4.464   3.196
  439SOL    HW2 2217   6.105   4.405   3.301
  440SOL     OW 2218   1.972   1.505   5.173
  440SOL    HW1 2219   1.932   1.566   5.241
  440SOL    HW2 2220   1.944   1.411   5.192
  441SOL     OW 2221   0.924   2.818   4.129
  441SOL    HW1 2222   0.891   2.913   4.123
  441SOL    HW2 2223   0.929   2.790   4.224
  442SOL     OW 2224   2.885   4.715   6.362
  442SOL    HW1 2225   2.938   4.790   6.402
  442SOL    HW2 2226   2.947   4.640   6.338
  443SOL     OW 2227   6.081   4.475   4.544
  443SOL    HW1 2228   6.052   4.492   4.638
  443SOL    HW2 2229   6.001   4.448   4.489
  444SOL     OW 2230   5.078   1.627   6.044
  444SOL    HW1 2231   5.166   1.581   6.036
  444SOL    HW2 2232   5.029   1.621   5.957
  445SOL     OW 2233   0.631   5.084   3.036
  445SOL    HW1 2234   0.621   4.986   3.018
  445SOL    HW2 2235   0.679   5.127   2.959
  446SOL     OW 2236   4.092   4.814   3.145
  446SOL    HW1 2237   4.096   4.750   3.068
  446SOL    HW2 2238   3.998   4.849   3.154
  447SOL     OW 2239   0.517   2.917   6.323
  447SOL    HW1 2240   0.427   2.956   6.341
  447SOL    HW2 2241   0.573   2.919   6.406
  448SOL     OW 2242   2.252   0.647   3.793
  448SOL    HW1 2243   2.351   0.658   3.785
  448SOL    HW2 2244   2.228   0.551   3.776
  449SOL     OW 2245   4.086   1.238   4.095
  449SOL    HW1 2246   4.157   1.274   4.156
  449SOL    HW2 2247   4.022   1.183   4.148
  450SOL     OW 2248   1.540   5.964   3.508
  450SOL    HW1 2249   1.538   5.890   3.576
  450SOL    HW2 2250   1.468   6.030   3.529
  451SOL     OW 2251   1.885   1.329   3.703
  451SOL    HW1 2252   1.861   1.364   3.613
  451SOL    HW2 2253   1.919   1.404   3.760
  452SOL     OW 2254   6.099   5.921   0.970
  452SOL    HW1 2255   6.182   5.866   0.965
  452SOL    HW2 2256   6.117   6.007   1.017
  453SOL     OW 2257   4.054   1.000   5.772
  453SOL    HW1 2258   3.959   1.026   5.755
  453SOL    HW2 2259   4.078   1.022   5.867
  454SOL     OW 2260   0.061   4.479   6.787
  454SOL    HW1 2261   7.007   4.481   6.854
  454SOL    HW2 2262   0.123   4.555   6.804
  455SOL     OW 2263   6.199   2.711   3.029
  455SOL    HW1 2264   6.218   2.682   3.123
  455SOL    HW2 2265   6.284   2.710   2.976
  456SOL     OW 2266   5.760   6.570   3.876
  456SOL    HW1 2267   5.689   6.499   3.869
  456SOL    HW2 2268   5.767   6.619   3.789
  457SOL     OW 2269   2.171   2.941   4.014
  457SOL    HW1 2270   2.103   2.996   3.965
  457SOL    HW2 2271   2.185   2.980   4.105
  458SOL     OW 2272   4.407   5.305   3.259
  458SOL    HW1 2273   4.384   5.398   3.285
  458SOL    HW2 2274   4.379   5.289   3.164
  459SOL     OW 2275   1.728   0.046   5.184
  459SOL    HW1 2276   1.814   0.002   5.209
  459SOL    HW2 2277   1.711   0.034   5.087
  460SOL     OW 2278   1.648   0.280   3.310
  460SOL    HW1 2279   1.681   0.361   3.262
  460SOL    HW2 2280   1.575   0.307   3.373
  461SOL     OW 2281   6.705   7.020   6.292
  461SOL    HW1 2282   6.672   0.020   6.384
  461SOL    HW2 2283   6.631   6.982   6.238
  462SOL     OW 2284   3.245   3.198   6.279
  462SOL    HW1 2285   3.178   3.253   6.230
  462SOL    HW2 2286   3.249   3.228   6.374
  463SOL     OW 2287   6.744   5.730   3.244
  463SOL    HW1 2288   6.680   5.792   3.289
  463SOL    HW2 2289   6.821   5.711   3.306
  464SOL     OW 2290   2.411   2.072   5.248
  464SOL    HW1 2291   2.381   2.168   5.244
  464SOL    HW2 2292   2.503   2.065   5.211
  465SOL     OW 2293   0.441   2.415   5.586
  465SOL    HW1 2294   0.377   2.456   5.651
  465SOL    HW2 2295   0.534   2.449   5.605
  466SOL     OW 2296   0.827   5.803   2.741
  466SOL    HW1 2297   0.740   5.834   2.702
  466SOL    HW2 2298   0.843   5.850   2.828
  467SOL     OW 2299   1.511   1.230   0.446
  467SOL    HW1 2300   1.415   1.227   0.475
  467SOL    HW2 2301   1.567   1.178   0.509
  468SOL     OW 2302   3.376   0.193   6.554
  468SOL    HW1 2303   3.464   0.207   6.600
  468SOL    HW2 2304   3.362   0.095   6.539
  469SOL     OW 2305   2.626   3.226   6.543
  469SOL    HW1 2306   2.662   3.290   6.476
  469SOL    HW2 2307   2.553   3.269   6.596
  470SOL     OW 2308   4.127   6.866   2.022
  470SOL    HW1 2309   4.158   6.822   1.937
  470SOL    HW2 2310   4.058   6.935   2.000
  471SOL     OW 2311   2.259   2.398   4.004
  471SOL    HW1 2312   2.218   2.441   4.084
  471SOL    HW2 2313   2.281   2.303   4.025
  472SOL     OW 2314   5.621   3.288   6.546
  472SOL    HW1 2315   5.587   3.349   6.473
  472SOL    HW2 2316   5.638   3.197   6.508
  473SOL     OW 2317   1.089   2.861   3.294
  473SOL    HW1 2318   1.054   2.906   3.376
  473SOL    HW2 2319   1.063   2.914   3.214
  474SOL     OW 2320   5.314   6.093   4.237
  474SOL    HW1 2321   5.352   6.065   4.326
  474SOL    HW2 2322   5.386   6.134   4.181
  475SOL     OW 2323   5.966   0.776   6.216
  475SOL    HW1 2324   5.878   0.824   6.210
  475SOL    HW2 2325   6.040   0.842   6.215
  476SOL     OW 2326   0.184   3.959   3.319
  476SOL    HW1 2327   0.152   3.918   3.234
  476SOL    HW2 2328   0.284   3.958   3.321
  477SOL     OW 2329   1.383   5.141   3.783
  477SOL    HW1 2330   1.359   5.055   3.828
  477SOL    HW2 2331   1.477   5.166   3.808
  478SOL     OW 2332   3.113   6.502   1.946
  478SOL    HW1 2333   3.014   6.516   1.942
  478SOL    HW2 2334   3.159   6.590   1.934
  479SOL     OW 2335   4.125   1.819   5.652
  479SOL    HW1 2336   4.029   1.834   5.677
  479SOL    HW2 2337   4.159   1.899   5.602
  480SOL     OW 2338   2.031   0.997   0.090
  480SOL    HW1 2339   1.940   1.037   0.074
  480SOL    HW2 2340   2.043   0.918   0.031
  481SOL     OW 2341   1.826   6.913   0.172
  481SOL    HW1 2342   1.832   6.937   0.269
  481SOL    HW2 2343   1.755   6.843   0.160
  482SOL     OW 2344   4.488   4.890   2.359
  482SOL    HW1 2345   4.409   4.893   2.299
  482SOL    HW2 2346   4.557   4.955   2.326
  483SOL     OW 2347   6.727   1.655   1.931
  483SOL    HW1 2348   6.641   1.654   1.880
  483SOL    HW2 2349   6.798   1.611   1.878
  484SOL     OW 2350   2.071   3.611   4.782
  484SOL    HW1 2351   2.151   3.569   4.739
  484SOL    HW2 2352   1.989   3.585   4.732
  485SOL     OW 2353   3.187   5.342   2.486
  485SOL    HW1 2354   3.113   5.332   2.420
  485SOL    HW2 2355   3.211   5.252   2.523
  486SOL     OW 2356   6.458   1.335   0.329
  486SOL    HW1 2357   6.466   1.241   0.363
  486SOL    HW2 2358   6.546   1.363   0.290
  487SOL     OW 2359   0.931   0.622   1.268
  487SOL    HW1 2360   0.931   0.715   1.303
  487SOL    HW2 2361   0.841   0.580   1.283
  488SOL     OW 2362   1.043   1.432   2.299
  488SOL    HW1 2363   1.109   1.472   2.235
  488SOL    HW2 2364   0.990   1.506   2.342
  489SOL     OW 2365   3.826   6.144   6.045
  489SOL    HW1 2366   3.801   6.128   5.949
  489SOL    HW2 2367   3.752   6.113   6.104
  490SOL     OW 2368   6.162   5.939   2.939
  490SOL    HW1 2369   6.158   6.033   2.973
  490SOL    HW2 2370   6.149   5.875   3.015
  491SOL     OW 2371   0.761   3.052   2.779
  491SOL    HW1 2372   0.819   3.133   2.780
  491SOL    HW2 2373   0.816   2.971   2.799
  492SOL     OW 2374   1.810   0.530   5.066
  492SOL    HW1 2375   1.757   0.600   5.115
  492SOL    HW2 2376   1.761   0.504   4.983
  493SOL     OW 2377   4.921   5.521   5.455
  493SOL    HW1 2378   4.960   5.611   5.435
  493SOL    HW2 2379   4.846   5.531   5.520
  494SOL     OW 2380   0.196   6.519   6.426
  494SOL    HW1 2381   0.296   6.526   6.427
  494SOL    HW2 2382   0.157   6.604   6.393
  495SOL     OW 2383   4.926   6.064   3.193
  495SOL    HW1 2384   4.904   6.020   3.280
  495SOL    HW2 2385   4.980   6.002   3.137
  496SOL     OW 2386   5.470   4.050   1.853
  496SOL    HW1 2387   5.543   4.115   1.871
  496SOL    HW2 2388   5.405   4.089   1.788
  497SOL     OW 2389   2.893   1.382   4.828
  497SOL    HW1 2390   2.928   1.366   4.920
  497SOL    HW2 2391   2.956   1.442   4.779
  498SOL     OW 2392   1.869   3.986   1.406
  498SOL    HW1 2393   1.904   3.903   1.363
  498SOL    HW2 2394   1.832   3.965   1.496
  499SOL     OW 2395   2.045   6.641   4.862
  499SOL    HW1 2396   2.026   6.739   4.871
  499SOL    HW2 2397   1.992   6.590   4.930
  500SOL     OW 2398   0.647   3.189   4.163
  500SOL    HW1 2399   0.727   3.233   4.205
  500SOL    HW2 2400   0.594   3.258   4.113
  501SOL     OW 2401   3.236   5.599   1.213
  501SOL    HW1 2402   3.266   5.678   1.267
  501SOL    HW2 2403   3.233   5.623   1.116
  502SOL     OW 2404   0.424   4.077   0.317
  502SOL    HW1 2405   0.474   4.146   0.264
  502SOL    HW2 2406   0.430   3.989   0.271
  503SOL     OW 2407   6.927   5.392   6.916
  503SOL    HW1 2408   6.917   5.302   6.959
  503SOL    HW2 2409   6.853   5.407   6.852
  504SOL     OW 2410   1.157   5.313   2.452
  504SOL    HW1 2411   1.172   5.292   2.548
  504SOL    HW2 2412   1.180   5.234   2.396
  505SOL     OW 2413   3.106   5.789   5.243
  505SOL    HW1 2414   3.045   5.846   5.189
  505SOL    HW2 2415   3.094   5.693   5.217
  506SOL     OW 2416   2.338   4.721   3.922
  506SOL    HW1 2417   2.313   4.633   3.880
  506SOL    HW2 2418   2.411   4.706   3.988
  507SOL     OW 2419   3.397   6.459   3.205
  507SOL    HW1 2420   3.322   6.496   3.150
  507SOL    HW2 2421   3.403   6.360   3.192
  508SOL     OW 2422   0.262   3.915   2.373
  508SOL    HW1 2423   0.305   3.839   2.422
  508SOL    HW2 2424   0.194   3.958   2.432
  509SOL     OW 2425   3.400   1.432   1.588
  509SOL    HW1 2426   3.460   1.492   1.641
  509SOL    HW2 2427   3.320   1.409   1.643
  510SOL     OW 2428   6.315   4.829   0.289
  510SOL    HW1 2429   6.230   4.864   0.249
  510SOL    HW2 2430   6.393   4.863   0.237
  511SOL     OW 2431   0.560   1.723   5.367
  511SOL    HW1 2432   0.482   1.697   5.310
  511SOL    HW2 2433   0.643   1.722   5.312
  512SOL     OW 2434   6.935   3.198   0.124
  512SOL    HW1 2435   0.008   3.165   0.124
  512SOL    HW2 2436   6.918   3.252   0.206
  513SOL     OW 2437   6.295   6.644   3.517
  513SOL    HW1 2438   6.350   6.662   3.598
  513SOL    HW2 2439   6.313   6.714   3.448
  514SOL     OW 2440   6.730   2.062   3.854
  514SOL    HW1 2441   6.763   1.978   3.812
  514SOL    HW2 2442   6.641   2.045   3.897
  515SOL     OW 2443   1.112   0.674   6.387
  515SOL    HW1 2444   1.044   0.748   6.379
  515SOL    HW2 2445   1.145   0.670   6.481
  516SOL     OW 2446   2.604   4.648   1.916
  516SOL    HW1 2447   2.575   4.574   1.977
  516SOL    HW2 2448   2.704   4.647   1.908
  517SOL     OW 2449   4.333   5.802   1.694
  517SOL    HW1 2450   4.249   5.755   1.665
  517SOL    HW2 2451   4.352   5.878   1.632
  518SOL     OW 2452   2.905   2.163   3.347
  518SOL    HW1 2453   3.002   2.188   3.346
  518SOL    HW2 2454   2.881   2.126   3.437
  519SOL     OW 2455   0.374   0.319   4.706
  519SOL    HW1 2456   0.459   0.294   4.659
  519SOL    HW2 2457   0.386   0.406   4.753
  520SOL     OW 2458   6.918   3.973   0.977
  520SOL    HW1 2459   6.828   3.986   1.018
  520SOL    HW2 2460   6.918   3.890   0.922
  521SOL     OW 2461   6.501   4.490   4.957
  521SOL    HW1 2462   6.579   4.453   4.906
  521SOL    HW2 2463   6.418   4.481   4.902
  522SOL     OW 2464   3.475   3.193   4.537
  522SOL    HW1 2465   3.453   3.120   4.472
  522SOL    HW2 2466   3.456   3.161   4.630
  523SOL     OW 2467   0.160   5.109   1.600
  523SOL    HW1 2468   0.216   5.069   1.672
  523SOL    HW2 2469   0.198   5.198   1.573
  524SOL     OW 2470   0.513   1.356   1.712
  524SOL    HW1 2471   0.526   1.262   1.680
  524SOL    HW2 2472   0.465   1.354   1.800
  525SOL     OW 2473   2.307   3.229   5.567
  525SOL    HW1 2474   2.355   3.254   5.483
  525SOL    HW2 2475   2.374   3.205   5.638
  526SOL     OW 2476   4.127   6.769   3.902
  526SOL    HW1 2477   4.085   6.859   3.905
  526SOL    HW2 2478   4.093   6.714   3.977
  527SOL     OW 2479   6.341   2.508   0.196
  527SOL    HW1 2480   6.409   2.437   0.177
  527SOL    HW2 2481   6.277   2.514   0.119
  528SOL     OW 2482   0.885   1.593   3.471
  528SOL    HW1 2483   0.826   1.523   3.512
  528SOL    HW2 2484   0.873   1.591   3.371
  529SOL     OW 2485   1.940   6.953   3.786
  529SOL    HW1 2486   1.915   0.027   3.805
  529SOL    HW2 2487   1.917   6.896   3.865
  530SOL     OW 2488   3.208   3.323   4.489
  530SOL    HW1 2489   3.293   3.270   4.492
  530SOL    HW2 2490   3.202   3.381   4.570
  531SOL     OW 2491   0.528   1.275   3.341
  531SOL    HW1 2492   0.607   1.217   3.358
  531SOL    HW2 2493   0.453   1.247   3.401
  532SOL     OW 2494   1.148   2.680   6.881
  532SOL    HW1 2495   1.173   2.614   6.952
  532SOL    HW2 2496   1.219   2.682   6.810
  533SOL     OW 2497   4.612   6.849   3.846
  533SOL    HW1 2498   4.686   6.909   3.875
  533SOL    HW2 2499   4.593   6.783   3.919
  534SOL     OW 2500   5.116   6.523   2.529
  534SOL    HW1 2501   5.176   6.468   2.471
  534SOL    HW2 2502   5.071   6.593   2.473
  535SOL     OW 2503   0.945   3.592   4.407
  535SOL    HW1 2504   0.875   3.603   4.336
  535SOL    HW2 2505   1.034   3.619   4.370
  536SOL     OW 2506   7.020   5.140   1.329
  536SOL    HW1 2507   0.069   5.137   1.400
  536SOL    HW2 2508   0.021   5.074   1.258
  537SOL     OW 2509   3.072   6.573   4.510
  537SOL    HW1 2510   3.018   6.504   4.559
  537SOL    HW2 2511   3.169   6.552   4.520
  538SOL     OW 2512   1.326   4.388   3.061
  538SOL    HW1 2513   1.379   4.456   3.112
  538SOL    HW2 2514   1.238   4.373   3.107
  539SOL     OW 2515   1.611   6.050   1.014
  539SOL    HW1 2516   1.529   6.100   0.986
  539SOL    HW2 2517   1.656   6.013   0.933
  540SOL     OW 2518   0.891   0.178   3.204
  540SOL    HW1 2519   0.978   0.152   3.162
  540SOL    HW2 2520   0.817   0.165   3.138
  541SOL     OW 2521   4.683   5.882   3.992
  541SOL    HW1 2522   4.630   5.914   4.070
  541SOL    HW2 2523   4.623   5.839   3.925
  542SOL     OW 2524   6.632   0.025   6.559
  542SOL    HW1 2525   6.565   0.058   6.625
  542SOL    HW2 2526   6.722   0.062   6.583
  543SOL     OW 2527   1.289   4.035   5.608
  543SOL    HW1 2528   1.237   4.114   5.576
  543SOL    HW2 2529   1.346   4.062   5.686
  544SOL     OW 2530   3.121   3.791   0.519
  544SOL    HW1 2531   3.213   3.781   0.556
  544SOL    HW2 2532   3.113   3.879   0.472
  545SOL     OW 2533   2.789   0.995   2.354
  545SOL    HW1 2534   2.844   1.054   2.413
  545SOL    HW2 2535   2.694   0.995   2.385
  546SOL     OW 2536   2.024   2.777   0.620
  546SOL    HW1 2537   1.984   2.772   0.711
  546SOL    HW2 2538   2.062   2.688   0.595
  547SOL     OW 2539   3.292   1.214   0.067
  547SOL    HW1 2540   3.349   1.132   0.055
  547SOL    HW2 2541   3.349   1.290   0.098
  548SOL     OW 2542   3.868   2.934   2.619
  548SOL    HW1 2543   3.946   2.960   2.562
  548SOL    HW2 2544   3.786   2.929   2.562
  549SOL     OW 2545   4.747   3.110   0.621
  549SOL    HW1 2546   4.718   3.134   0.528
  549SOL    HW2 2547   4.846   3.115   0.626
  550SOL     OW 2548   6.855   4.965   3.572
  550SOL    HW1 2549   6.910   4.988   3.491
  550SOL    HW2 2550   6.768   5.015   3.568
  551SOL     OW 2551   1.131   0.571   2.130
  551SOL    HW1 2552   1.148   0.666   2.104
  551SOL    HW2 2553   1.088   0.522   2.054
  552SOL     OW 2554   4.800   4.076   0.101
  552SOL    HW1 2555   4.703   4.096   0.088
  552SOL    HW2 2556   4.812   3.980   0.127
  553SOL     OW 2557   1.708   6.149   2.085
  553SOL    HW1 2558   1.728   6.235   2.038
  553SOL    HW2 2559   1.629   6.161   2.145
  554SOL     OW 2560   5.510   6.984   5.692
  554SOL    HW1 2561   5.500   6.981   5.791
  554SOL    HW2 2562   5.572   0.037   5.667
  555SOL     OW 2563   1.356   5.225   3.279
  555SOL    HW1 2564   1.372   5.169   3.360
  555SOL    HW2 2565   1.379   5.321   3.299
  556SOL     OW 2566   5.409   2.170   3.887
  556SOL    HW1 2567   5.396   2.146   3.791
  556SOL    HW2 2568   5.440   2.265   3.894
  557SOL     OW 2569   0.672   4.596   0.284
  557SOL    HW1 2570   0.639   4.521   0.342
  557SOL    HW2 2571   0.770   4.586   0.270
  558SOL     OW 2572   2.905   3.422   4.445
  558SOL    HW1 2573   2.882   3.392   4.538
  558SOL    HW2 2574   2.980   3.366   4.410
  559SOL     OW 2575   6.577   5.584   6.977
  559SOL    HW1 2576   6.656   5.645   6.962
  559SOL    HW2 2577   6.516   5.625   0.023
  560SOL     OW 2578   4.499   4.208   6.798
  560SOL    HW1 2579   4.499   4.200   6.898
  560SOL    HW2 2580   4.416   4.255   6.768
  561SOL     OW 2581   6.386   1.686   0.191
  561SOL    HW1 2582   6.375   1.636   0.277
  561SOL    HW2 2583   6.367   1.625   0.114
  562SOL     OW 2584   5.415   0.947   5.978
  562SOL    HW1 2585   5.465   0.862   5.995
  562SOL    HW2 2586   5.463   1.000   5.909
  563SOL     OW 2587   1.988   0.480   3.273
  563SOL    HW1 2588   2.038   0.520   3.196
  563SOL    HW2 2589   2.019   0.521   3.359
  564SOL     OW 2590   2.694   2.468   6.698
  564SOL    HW1 2591   2.698   2.368   6.708
  564SOL    HW2 2592   2.622   2.505   6.756
  565SOL     OW 2593   3.556   2.533   5.845
  565SOL    HW1 2594   3.568   2.623   5.803
  565SOL    HW2 2595   3.477   2.535   5.906
  566SOL     OW 2596   6.331   5.148   4.365
  566SOL    HW1 2597   6.356   5.184   4.455
  566SOL    HW2 2598   6.272   5.067   4.377
  567SOL     OW 2599   3.849   3.478   2.347
  567SOL    HW1 2600   3.808   3.479   2.256
  567SOL    HW2 2601   3.842   3.569   2.387
  568SOL     OW 2602   4.216   1.821   0.202
  568SOL    HW1 2603   4.213   1.775   0.113
  568SOL    HW2 2604   4.153   1.776   0.265
  569SOL     OW 2605   1.096   3.719   6.260
  569SOL    HW1 2606   1.167   3.649   6.270
  569SOL    HW2 2607   1.073   3.755   6.351
  570SOL     OW 2608   3.021   6.208   6.974
  570SOL    HW1 2609   2.957   6.161   6.913
  570SOL    HW2 2610   2.986   6.299   6.995
  571SOL     OW 2611   3.330   0.534   2.401
  571SOL    HW1 2612   3.266   0.546   2.477
  571SOL    HW2 2613   3.360   0.439   2.398
  572SOL     OW 2614   2.715   4.810   5.617
  572SOL    HW1 2615   2.722   4.750   5.697
  572SOL    HW2 2616   2.752   4.762   5.537
  573SOL     OW 2617   5.555   1.369   6.060
  573SOL    HW1 2618   5.504   1.320   6.130
  573SOL    HW2 2619   5.584   1.304   5.989
  574SOL     OW 2620   3.678   2.125   4.479
  574SOL    HW1 2621   3.595   2.086   4.439
  574SOL    HW2 2622   3.724   2.183   4.412
  575SOL     OW 2623   5.768   3.740   0.195
  575SOL    HW1 2624   5.715   3.804   0.139
  575SOL    HW2 2625   5.750   3.756   0.292
  576SOL     OW 2626   1.154   2.383   2.819
  576SOL    HW1 2627   1.069   2.336   2.796
  576SOL    HW2 2628   1.163   2.389   2.919
  577SOL     OW 2629   2.196   1.595   2.677
  577SOL    HW1 2630   2.105   1.623   2.647
  577SOL    HW2 2631   2.198   1.495   2.687
  578SOL     OW 2632   6.064   4.862   3.325
  578SOL    HW1 2633   6.091   4.802   3.250
  578SOL    HW2 2634   6.088   4.957   3.302
  579SOL     OW 2635   1.431   3.161   2.075
  579SOL    HW1 2636   1.483   3.150   1.990
  579SOL    HW2 2637   1.467   3.099   2.145
  580SOL     OW 2638   6.497   4.808   6.792
  580SOL    HW1 2639   6.514   4.798   6.890
  580SOL    HW2 2640   6.404   4.780   6.771
  581SOL     OW 2641   3.025   3.132   2.841
  581SOL    HW1 2642   2.968   3.073   2.784
  581SOL    HW2 2643   2.979   3.219   2.856
  582SOL     OW 2644   5.443   5.700   2.707
  582SOL    HW1 2645   5.432   5.601   2.713
  582SOL    HW2 2646   5.530   5.721   2.663
  583SOL     OW 2647   2.736   5.253   5.822
  583SOL    HW1 2648   2.652   5.287   5.778
  583SOL    HW2 2649   2.740   5.154   5.813
  584SOL     OW 2650   1.869   3.740   6.557
  584SOL    HW1 2651   1.790   3.685   6.528
  584SOL    HW2 2652   1.930   3.684   6.612
  585SOL     OW 2653   5.671   3.079   6.331
  585SOL    HW1 2654   5.766   3.053   6.345
  585SOL    HW2 2655   5.614   2.997   6.323
  586SOL     OW 2656   3.903   1.854   6.518
  586SOL    HW1 2657   3.984   1.866   6.576
  586SOL    HW2 2658   3.847   1.780   6.554
  587SOL     OW 2659   2.961   1.690   5.211
  587SOL    HW1 2660   2.972   1.690   5.112
  587SOL    HW2 2661   3.032   1.747   5.253
  588SOL     OW 2662   2.405   4.686   0.870
  588SOL    HW1 2663   2.430   4.735   0.953
  588SOL    HW2 2664   2.309   4.659   0.875
  589SOL     OW 2665   3.147   5.244   1.519
  589SOL    HW1 2666   3.078   5.285   1.459
  589SOL    HW2 2667   3.230   5.299   1.517
  590SOL     OW 2668   5.336   2.684   2.170
  590SOL    HW1 2669   5.411   2.746   2.194
  590SOL    HW2 2670   5.288   2.720   2.090
  591SOL     OW 2671   3.953   6.099   3.810
  591SOL    HW1 2672   3.925   6.100   3.906
  591SOL    HW2 2673   3.908   6.174   3.761
  592SOL     OW 2674   3.436   0.206   1.488
  592SOL    HW1 2675   3.510   0.262   1.523
  592SOL    HW2 2676   3.406   0.141   1.559
  593SOL     OW 2677   4.472   2.295   3.374
  593SOL    HW1 2678   4.558   2.247   3.388
  593SOL    HW2 2679   4.472   2.381   3.426
  594SOL     OW 2680   5.121   2.084   6.168
  594SOL    HW1 2681   5.165   1.994   6.169
  594SOL    HW2 2682   5.186   2.152   6.204
  595SOL     OW 2683   5.797   0.413   3.704
  595SOL    HW1 2684   5.790   0.498   3.651
  595SOL    HW2 2685   5.893   0.396   3.726
  596SOL     OW 2686   1.508   4.273   2.652
  596SOL    HW1 2687   1.493   4.372   2.651
  596SOL    HW2 2688   1.478   4.235   2.739
  597SOL     OW 2689   3.671   6.990   6.585
  597SOL    HW1 2690   3.723   0.054   6.573
  597SOL    HW2 2691   3.585   6.995   6.535
  598SOL     OW 2692   3.171   4.010   6.492
  598SOL    HW1 2693   3.164   3.946   6.569
  598SOL    HW2 2694   3.157   4.103   6.525
  599SOL     OW 2695   1.855   6.559   2.505
  599SOL    HW1 2696   1.814   6.605   2.584
  599SOL    HW2 2697   1.904   6.478   2.536
  600SOL     OW 2698   0.656   0.452   1.107
  600SOL    HW1 2699   0.641   0.470   1.010
  600SOL    HW2 2700   0.738   0.397   1.118
  601SOL     OW 2701   2.952   6.236   3.806
  601SOL    HW1 2702   2.924   6.140   3.802
  601SOL    HW2 2703   3.052   6.242   3.803
  602SOL     OW 2704   1.873   2.736   6.370
  602SOL    HW1 2705   1.868   2.715   6.273
  602SOL    HW2 2706   1.854   2.833   6.384
  603SOL     OW 2707   4.058   1.806   3.262
  603SOL    HW1 2708   4.036   1.902   3.247
  603SOL    HW2 2709   4.141   1.783   3.212
  604SOL     OW 2710   0.983   3.813   1.667
  604SOL    HW1 2711   1.033   3.842   1.585
  604SOL    HW2 2712   0.888   3.795   1.643
  605SOL     OW 2713   6.389   5.952   2.244
  605SOL    HW1 2714   6.332   5.872   2.264
  605SOL    HW2 2715   6.478   5.942   2.287
  606SOL     OW 2716   4.857   0.655   6.593
  606SOL    HW1 2717   4.930   0.607   6.641
  606SOL    HW2 2718   4.895   0.730   6.540
  607SOL     OW 2719   5.347   1.044   5.543
  607SOL    HW1 2720   5.394   1.038   5.631
  607SOL    HW2 2721   5.367   0.962   5.489
  608SOL     OW 2722   3.826   6.057   6.717
  608SOL    HW1 2723   3.737   6.043   6.673
  608SOL    HW2 2724   3.858   5.970   6.754
  609SOL     OW 2725   3.840   3.218   3.766
  609SOL    HW1 2726   3.938   3.235   3.763
  609SOL    HW2 2727   3.823   3.126   3.801
  610SOL     OW 2728   4.999   2.343   2.360
  610SOL    HW1 2729   4.936   2.417   2.383
  610SOL    HW2 2730   4.948   2.257   2.352
  611SOL     OW 2731   2.316   0.581   6.847
  611SOL    HW1 2732   2.238   0.536   6.805
  611SOL    HW2 2733   2.359   0.642   6.780
  612SOL     OW 2734   3.957   6.582   6.265
  612SOL    HW1 2735   4.042   6.618   6.226
  612SOL    HW2 2736   3.939   6.628   6.352
  613SOL     OW 2737   4.251   6.673   5.876
  613SOL    HW1 2738   4.349   6.692   5.886
  613SOL    HW2 2739   4.218   6.715   5.791
  614SOL     OW 2740   5.616   3.997   1.337
  614SOL    HW1 2741   5.659   4.059   1.273
  614SOL    HW2 2742   5.636   3.902   1.312
  615SOL     OW 2743   0.542   1.795   1.021
  615SOL    HW1 2744   0.582   1.839   0.940
  615SOL    HW2 2745   0.508   1.704   0.996
  616SOL     OW 2746   0.275   2.194   3.634
  616SOL    HW1 2747   0.247   2.262   3.566
  616SOL    HW2 2748   0.279   2.237   3.724
  617SOL     OW 2749   6.970   3.787   6.834
  617SOL    HW1 2750   0.015   3.757   6.903
  617SOL    HW2 2751   7.018   3.829   6.757
  618SOL     OW 2752   0.183   3.331   6.811
  618SOL    HW1 2753   0.272   3.355   6.772
  618SOL    HW2 2754   0.148   3.249   6.766
  619SOL     OW 2755   4.953   0.245   6.523
  619SOL    HW1 2756   4.954   0.145   6.530
  619SOL    HW2 2757   4.899   0.272   6.443
  620SOL     OW 2758   4.957   2.158   1.571
  620SOL    HW1 2759   4.941   2.241   1.518
  620SOL    HW2 2760   4.995   2.183   1.660
  621SOL     OW 2761   2.538   6.865   5.903
  621SOL    HW1 2762   2.532   6.912   5.815
  621SOL    HW2 2763   2.488   6.918   5.972
  622SOL     OW 2764   0.932   1.689   4.729
  622SOL    HW1 2765   0.990   1.644   4.661
  622SOL    HW2 2766   0.938   1.640   4.816
  623SOL     OW 2767   1.300   6.231   5.866
  623SOL    HW1 2768   1.336   6.160   5.926
  623SOL    HW2 2769   1.258   6.303   5.920
  624SOL     OW 2770   6.854   1.008   0.393
  624SOL    HW1 2771   6.826   1.021   0.298
  624SOL    HW2 2772   6.925   1.075   0.416
  625SOL     OW 2773   2.037   2.122   0.962
  625SOL    HW1 2774   2.056   2.132   1.060
  625SOL    HW2 2775   1.967   2.189   0.935
  626SOL     OW 2776   0.379   5.824   3.167
  626SOL    HW1 2777   0.340   5.882   3.096
  626SOL    HW2 2778   0.357   5.862   3.257
  627SOL     OW 2779   6.227   6.228   0.819
  627SOL    HW1 2780   6.293   6.178   0.874
  627SOL    HW2 2781   6.152   6.260   0.877
  628SOL     OW 2782   5.288   5.295   5.530
  628SOL    HW1 2783   5.305   5.240   5.612
  628SOL    HW2 2784   5.374   5.307   5.480
  629SOL     OW 2785   0.631   0.484   6.316
  629SOL    HW1 2786   0.564   0.551   6.285
  629SOL    HW2 2787   0.584   0.404   6.354
  630SOL     OW 2788   0.378   1.708   0.588
  630SOL    HW1 2789   0.367   1.656   0.503
  630SOL    HW2 2790   0.342   1.654   0.664
  631SOL     OW 2791   3.991   1.044   5.389
  631SOL    HW1 2792   3.970   0.957   5.343
  631SOL    HW2 2793   3.940   1.117   5.344
  632SOL     OW 2794   4.909   1.948   1.283
  632SOL    HW1 2795   4.903   2.046   1.301
  632SOL    HW2 2796   4.942   1.901   1.365
  633SOL     OW 2797   3.002   3.885   6.860
  633SOL    HW1 2798   2.912   3.928   6.847
  633SOL    HW2 2799   3.000   3.793   6.821
  634SOL     OW 2800   3.162   4.044   3.098
  634SOL    HW1 2801   3.238   4.108   3.099
  634SOL    HW2 2802   3.156   3.997   3.186
  635SOL     OW 2803   4.715   5.917   0.892
  635SOL    HW1 2804   4.627   5.932   0.937
  635SOL    HW2 2805   4.723   5.978   0.813
  636SOL     OW 2806   2.900   6.759   6.275
  636SOL    HW1 2807   2.922   6.674   6.323
  636SOL    HW2 2808   2.905   6.835   6.340
  637SOL     OW 2809   0.340   2.945   3.394
  637SOL    HW1 2810   0.357   3.018   3.327
  637SOL    HW2 2811   0.427   2.899   3.416
  638SOL     OW 2812   5.728   3.440   3.933
  638SOL    HW1 2813   5.780   3.374   3.988
  638SOL    HW2 2814   5.653   3.477   3.988
  639SOL     OW 2815   4.928   3.236   2.950
  639SOL    HW1 2816   4.879   3.260   2.866
  639SOL    HW2 2817   5.016   3.196   2.926
  640SOL     OW 2818   0.184   5.229   4.092
  640SOL    HW1 2819   0.157   5.321   4.121
  640SOL    HW2 2820   0.157   5.163   4.163
  641SOL     OW 2821   0.398   4.852   4.926
  641SOL    HW1 2822   0.329   4.783   4.948
  641SOL    HW2 2823   0.442   4.884   5.010
  642SOL     OW 2824   0.301   2.966   3.875
  642SOL    HW1 2825   0.291   2.869   3.897
  642SOL    HW2 2826   0.394   2.983   3.840
  643SOL     OW 2827   6.336   0.205   6.297
  643SOL    HW1 2828   6.330   0.303   6.279
  643SOL    HW2 2829   6.309   0.186   6.391
  644SOL     OW 2830   1.557   6.879   4.424
  644SOL    HW1 2831   1.565   6.831   4.511
  644SOL    HW2 2832   1.463   6.908   4.410
  645SOL     OW 2833   4.279   6.973   5.019
  645SOL    HW1 2834   4.377   6.996   5.017
  645SOL    HW2 2835   4.236   7.016   5.097
  646SOL     OW 2836   3.632   1.169   4.712
  646SOL    HW1 2837   3.677   1.223   4.641
  646SOL    HW2 2838   3.618   1.226   4.793
  647SOL     OW 2839   5.013   2.547   4.908
  647SOL    HW1 2840   5.056   2.490   4.839
  647SOL    HW2 2841   4.915   2.557   4.888
  648SOL     OW 2842   0.734   4.044   4.162
  648SOL    HW1 2843   0.736   4.137   4.199
  648SOL    HW2 2844   0.640   4.014   4.152
  649SOL     OW 2845   2.364   3.913   1.102
  649SOL    HW1 2846   2.415   3.859   1.169
  649SOL    HW2 2847   2.337   3.999   1.144
  650SOL     OW 2848   6.772   4.308   1.315
  650SOL    HW1 2849   6.760   4.209   1.321
  650SOL    HW2 2850   6.725   4.343   1.234
  651SOL     OW 2851   1.733   0.070   6.001
  651SOL    HW1 2852   1.693   0.079   5.910
  651SOL    HW2 2853   1.660   0.059   6.069
  652SOL     OW 2854   4.663   0.078   3.072
  652SOL    HW1 2855   4.723   0.130   3.011
  652SOL    HW2 2856   4.655   0.125   3.160
  653SOL     OW 2857   1.328   5.801   6.997
  653SOL    HW1 2858   1.386   5.727   0.011
  653SOL    HW2 2859   1.380   5.886   6.996
  654SOL     OW 2860   0.958   6.172   0.176
  654SOL    HW1 2861   1.001   6.084   0.154
  654SOL    HW2 2862   0.930   6.218   0.092
  655SOL     OW 2863   0.149   5.664   1.325
  655SOL    HW1 2864   0.125   5.573   1.357
  655SOL    HW2 2865   0.068   5.723   1.331
  656SOL     OW 2866   2.906   6.013   0.540
  656SOL    HW1 2867   2.827   6.031   0.598
  656SOL    HW2 2868   2.905   6.076   0.462
  657SOL     OW 2869   3.570   3.754   1.392
  657SOL    HW1 2870   3.513   3.673   1.382
  657SOL    HW2 2871   3.643   3.735   1.458
  658SOL     OW 2872   1.452   3.517   6.133
  658SOL    HW1 2873   1.403   3.525   6.046
  658SOL    HW2 2874   1.538   3.567   6.128
  659SOL     OW 2875   2.754   5.982   4.365
  659SOL    HW1 2876   2.738   5.921   4.287
  659SOL    HW2 2877   2.830   6.043   4.345
  660SOL     OW 2878   5.555   3.744   2.631
  660SOL    HW1 2879   5.471   3.798   2.619
  660SOL    HW2 2880   5.634   3.805   2.622
  661SOL     OW 2881   4.933   3.845   3.976
  661SOL    HW1 2882   4.927   3.800   3.887
  661SOL    HW2 2883   4.974   3.782   4.042
  662SOL     OW 2884   4.167   0.281   5.655
  662SOL    HW1 2885   4.256   0.320   5.678
  662SOL    HW2 2886   4.108   0.283   5.736
  663SOL     OW 2887   1.326   3.844   0.315
  663SOL    HW1 2888   1.420   3.875   0.330
  663SOL    HW2 2889   1.305   3.772   0.381
  664SOL     OW 2890   1.282   5.664   6.053
  664SOL    HW1 2891   1.266   5.566   6.063
  664SOL    HW2 2892   1.285   5.688   5.956
  665SOL     OW 2893   4.625   5.169   1.203
  665SOL    HW1 2894   4.705   5.180   1.144
  665SOL    HW2 2895   4.632   5.230   1.281
  666SOL     OW 2896   4.182   2.307   2.066
  666SOL    HW1 2897   4.190   2.326   2.163
  666SOL    HW2 2898   4.090   2.274   2.046
  667SOL     OW 2899   6.580   3.967   3.690
  667SOL    HW1 2900   6.560   4.047   3.633
  667SOL    HW2 2901   6.629   3.996   3.772
  668SOL     OW 2902   4.959   5.895   0.019
  668SOL    HW1 2903   4.884   5.948   7.001
  668SOL    HW2 2904   4.972   5.812   6.986
  669SOL     OW 2905   2.994   5.873   2.869
  669SOL    HW1 2906   2.895   5.880   2.873
  669SOL    HW2 2907   3.027   5.831   2.954
  670SOL     OW 2908   2.764   3.203   1.732
  670SOL    HW1 2909   2.716   3.125   1.775
  670SOL    HW2 2910   2.783   3.182   1.637
  671SOL     OW 2911   2.416   5.921   6.539
  671SOL    HW1 2912   2.335   5.893   6.487
  671SOL    HW2 2913   2.427   6.020   6.531
  672SOL     OW 2914   0.853   4.824   1.887
  672SOL    HW1 2915   0.933   4.784   1.842
  672SOL    HW2 2916   0.880   4.858   1.977
  673SOL     OW 2917   6.278   0.312   1.375
  673SOL    HW1 2918   6.272   0.344   1.470
  673SOL    HW2 2919   6.186   0.291   1.341
  674SOL     OW 2920   6.329   3.745   4.779
  674SOL    HW1 2921   6.403   3.722   4.843
  674SOL    HW2 2922   6.313   3.667   4.718
  675SOL     OW 2923   6.887   1.370   5.113
  675SOL    HW1 2924   6.959   1.378   5.043
  675SOL    HW2 2925   6.841   1.282   5.104
  676SOL     OW 2926   3.705   5.183   2.559
  676SOL    HW1 2927   3.632   5.180   2.628
  676SOL    HW2 2928   3.793   5.190   2.605
  677SOL     OW 2929   6.460   1.594   6.656
  677SOL    HW1 2930   6.373   1.623   6.617
  677SOL    HW2 2931   6.535   1.629   6.599
  678SOL     OW 2932   0.995   1.661   5.205
  678SOL    HW1 2933   1.094   1.658   5.190
  678SOL    HW2 2934   0.970   1.750   5.245
  679SOL     OW 2935   4.737   0.888   4.092
  679SOL    HW1 2936   4.767   0.917   4.001
  679SOL    HW2 2937   4.641   0.912   4.105
  680SOL     OW 2938   5.188   5.649   5.985
  680SOL    HW1 2939   5.107   5.600   6.017
  680SOL    HW2 2940   5.258   5.583   5.958
  681SOL     OW 2941   5.655   6.694   1.371
  681SOL    HW1 2942   5.698   6.736   1.291
  681SOL    HW2 2943   5.676   6.748   1.453
  682SOL     OW 2944   1.407   0.028   6.938
  682SOL    HW1 2945   1.428   0.065   0.007
  682SOL    HW2 2946   1.476   6.981   6.912
  683SOL     OW 2947   3.568   1.644   6.897
  683SOL    HW1 2948   3.491   1.661   6.835
  683SOL    HW2 2949   3.599   1.731   6.935
  684SOL     OW 2950   5.850   1.365   6.905
  684SOL    HW1 2951   5.797   1.450   6.894
  684SOL    HW2 2952   5.944   1.387   6.928
  685SOL     OW 2953   4.941   0.603   5.058
  685SOL    HW1 2954   4.861   0.662   5.069
  685SOL    HW2 2955   4.951   0.578   4.961
  686SOL     OW 2956   5.974   2.834   3.356
  686SOL    HW1 2957   6.038   2.775   3.306
  686SOL    HW2 2958   5.880   2.808   3.333
  687SOL     OW 2959   6.713   2.446   4.538
  687SOL    HW1 2960   6.672   2.531   4.571
  687SOL    HW2 2961   6.801   2.467   4.495
  688SOL     OW 2962   2.023   3.104   0.187
  688SOL    HW1 2963   1.976   3.186   0.154
  688SOL    HW2 2964   1.971   3.023   0.162
  689SOL     OW 2965   0.342   4.272   5.484
  689SOL    HW1 2966   0.419   4.330   5.510
  689SOL    HW2 2967   0.259   4.327   5.479
  690SOL     OW 2968   0.725   4.006   3.457
  690SOL    HW1 2969   0.776   3.921   3.446
  690SOL    HW2 2970   0.633   3.995   3.419
  691SOL     OW 2971   2.571   1.415   6.599
  691SOL    HW1 2972   2.503   1.360   6.649
  691SOL    HW2 2973   2.565   1.394   6.502
  692SOL     OW 2974   3.827   6.523   2.883
  692SOL    HW1 2975   3.739   6.543   2.926
  692SOL    HW2 2976   3.857   6.431   2.909
  693SOL     OW 2977   6.423   1.606   3.003
  693SOL    HW1 2978   6.331   1.631   3.032
  693SOL    HW2 2979   6.474   1.689   2.977
  694SOL     OW 2980   3.436   6.798   2.798
  694SOL    HW1 2981   3.368   6.740   2.842
  694SOL    HW2 2982   3.487   6.745   2.731
  695SOL     OW 2983   4.442   4.656   5.844
  695SOL    HW1 2984   4.470   4.752   5.837
  695SOL    HW2 2985   4.523   4.598   5.847
  696SOL     OW 2986   2.897   5.379   2.093
  696SOL    HW1 2987   2.806   5.390   2.053
  696SOL    HW2 2988   2.932   5.468   2.121
  697SOL     OW 2989   1.686   2.890   4.586
  697SOL    HW1 2990   1.753   2.965   4.578
  697SOL    HW2 2991   1.644   2.873   4.497
  698SOL     OW 2992   5.390   6.995   6.791
  698SOL    HW1 2993   5.456   6.984   6.717
  698SOL    HW2 2994   5.433   6.974   6.879
  699SOL     OW 2995   1.112   3.767   0.087
  699SOL    HW1 2996   1.045   3.695   0.103
  699SOL    HW2 2997   1.175   3.772   0.164
  700SOL     OW 2998   2.943   1.359   3.973
  700SOL    HW1 2999   2.889   1.310   4.042
  700SOL    HW2 3000   2.950   1.305   3.890
  701SOL     OW 3001   0.077   4.376   5.482
  701SOL    HW1 3002   0.063   4.288   5.437
  701SOL    HW2 3003   0.018   4.382   5.563
  702SOL     OW 3004   6.185   6.100   6.055
  702SOL    HW1 3005   6.266   6.067   6.006
  702SOL    HW2 3006   6.202   6.192   6.090
  703SOL     OW 3007   4.145   3.576   6.470
  703SOL    HW1 3008   4.113   3.482   6.455
  703SOL    HW2 3009   4.150   3.624   6.383
  704SOL     OW 3010   1.855   1.543   6.594
  704SOL    HW1 3011   1.933   1.498   6.551
  704SOL    HW2 3012   1.881   1.578   6.684
  705SOL     OW 3013   5.438   6.994   3.435
  705SOL    HW1 3014   5.403   6.900   3.441
  705SOL    HW2 3015   5.374   0.036   3.479
  706SOL     OW 3016   4.249   2.361   3.822
  706SOL    HW1 3017   4.226   2.286   3.884
  706SOL    HW2 3018   4.331   2.336   3.769
  707SOL     OW 3019   4.713   6.859   2.669
  707SOL    HW1 3020   4.777   6.848   2.594
  707SOL    HW2 3021   4.634   6.800   2.655
  708SOL     OW 3022   4.109   0.592   1.601
  708SOL    HW1 3023   4.049   0.638   1.537
  708SOL    HW2 3024   4.067   0.507   1.633
  709SOL     OW 3025   1.451   5.293   0.218
  709SOL    HW1 3026   1.482   5.270   0.126
  709SOL    HW2 3027   1.382   5.227   0.248
  710SOL     OW 3028   3.717   3.273   1.854
  710SOL    HW1 3029   3.804   3.317   1.829
  710SOL    HW2 3030   3.723   3.239   1.948
  711SOL     OW 3031   0.248   1.687   5.823
  711SOL    HW1 3032   0.247   1.708   5.921
  711SOL    HW2 3033   0.334   1.642   5.800
  712SOL     OW 3034   3.424   3.758   0.773
  712SOL    HW1 3035   3.344   3.699   0.774
  712SOL    HW2 3036   3.495   3.719   0.832
  713SOL     OW 3037   3.403   3.055   6.974
  713SOL    HW1 3038   3.333   3.010   0.009
  713SOL    HW2 3039   3.473   2.990   6.948
  714SOL     OW 3040   6.616   4.865   4.960
  714SOL    HW1 3041   6.597   4.962   4.944
  714SOL    HW2 3042   6.580   4.810   4.885
  715SOL     OW 3043   5.407   6.475   0.555
  715SOL    HW1 3044   5.376   6.553   0.499
  715SOL    HW2 3045   5.458   6.411   0.497
  716SOL     OW 3046   1.088   6.217   0.954
  716SOL    HW1 3047   0.992   6.192   0.970
  716SOL    HW2 3048   1.126   6.160   0.882
  717SOL     OW 3049   5.844   5.102   6.599
  717SOL    HW1 3050   5.875   5.154   6.679
  717SOL    HW2 3051   5.923   5.068   6.548
  718SOL     OW 3052   4.732   2.327   5.691
  718SOL    HW1 3053   4.700   2.274   5.770
  718SOL    HW2 3054   4.697   2.420   5.697
  719SOL     OW 3055   6.618   2.283   0.780
  719SOL    HW1 3056   6.660   2.199   0.814
  719SOL    HW2 3057   6.525   2.291   0.816
  720SOL     OW 3058   3.665   1.025   6.363
  720SOL    HW1 3059   3.596   0.961   6.328
  720SOL    HW2 3060   3.633   1.063   6.450
  721SOL     OW 3061   2.079   0.347   4.338
  721SOL    HW1 3062   2.035   0.264   4.371
  721SOL    HW2 3063   2.171   0.325   4.306
  722SOL     OW 3064   2.182   6.991   5.001
  722SOL    HW1 3065   2.164   0.056   5.048
  722SOL    HW2 3066   2.103   6.965   4.947
  723SOL     OW 3067   1.692   3.608   3.390
  723SOL    HW1 3068   1.633   3.555   3.450
  723SOL    HW2 3069   1.784   3.613   3.429
  724SOL     OW 3070   1.503   2.546   4.786
  724SOL    HW1 3071   1.434   2.490   4.831
  724SOL    HW2 3072   1.471   2.641   4.781
  725SOL     OW 3073   3.537   5.557   0.584
  725SOL    HW1 3074   3.563   5.536   0.490
  725SOL    HW2 3075   3.619   5.578   0.637
  726SOL     OW 3076   3.971   4.786   0.700
  726SOL    HW1 3077   3.897   4.722   0.679
  726SOL    HW2 3078   4.050   4.767   0.642
  727SOL     OW 3079   5.080   5.293   6.159
  727SOL    HW1 3080   4.981   5.294   6.171
  727SOL    HW2 3081   5.125   5.304   6.247
  728SOL     OW 3082   6.825   3.091   4.551
  728SOL    HW1 3083   6.875   3.062   4.633
  728SOL    HW2 3084   6.791   3.184   4.564
  729SOL     OW 3085   1.858   1.855   0.201
  729SOL    HW1 3086   1.876   1.843   0.299
  729SOL    HW2 3087   1.768   1.897   0.189
  730SOL     OW 3088   5.173   1.110   2.899
  730SOL    HW1 3089   5.176   1.018   2.861
  730SOL    HW2 3090   5.177   1.106   2.998
  731SOL     OW 3091   5.990   4.576   6.002
  731SOL    HW1 3092   5.941   4.659   5.978
  731SOL    HW2 3093   5.930   4.516   6.056
  732SOL     OW 3094   0.736   3.098   1.143
  732SOL    HW1 3095   0.668   3.027   1.123
  732SOL    HW2 3096   0.790   3.070   1.223
  733SOL     OW 3097   5.534   5.338   5.373
  733SOL    HW1 3098   5.497   5.407   5.310
  733SOL    HW2 3099   5.583   5.383   5.447
  734SOL     OW 3100   6.447   4.471   2.657
  734SOL    HW1 3101   6.500   4.471   2.572
  734SOL    HW2 3102   6.427   4.565   2.684
  735SOL     OW 3103   4.313   2.894   0.423
  735SOL    HW1 3104   4.345   2.879   0.329
  735SOL    HW2 3105   4.246   2.823   0.446
  736SOL     OW 3106   7.008   0.124   2.791
  736SOL    HW1 3107   0.051   0.196   2.818
  736SOL    HW2 3108   6.986   0.134   2.693
  737SOL     OW 3109   4.694   2.269   6.575
  737SOL    HW1 3110   4.629   2.270   6.651
  737SOL    HW2 3111   4.782   2.306   6.606
  738SOL     OW 3112   2.206   4.111   2.492
  738SOL    HW1 3113   2.267   4.150   2.562
  738SOL    HW2 3114   2.202   4.172   2.414
  739SOL     OW 3115   3.661   0.246   4.833
  739SOL    HW1 3116   3.593   0.213   4.769
  739SOL    HW2 3117   3.630   0.227   4.927
  740SOL     OW 3118   4.437   6.798   0.379
  740SOL    HW1 3119   4.367   6.761   0.318
  740SOL    HW2 3120   4.398   6.813   0.470
  741SOL     OW 3121   2.338   5.812   2.902
  741SOL    HW1 3122   2.342   5.850   2.809
  741SOL    HW2 3123   2.355   5.714   2.898
  742SOL     OW 3124   1.715   6.655   1.348
  742SOL    HW1 3125   1.616   6.646   1.337
  742SOL    HW2 3126   1.734   6.711   1.429
  743SOL     OW 3127   0.597   4.567   4.947
  743SOL    HW1 3128   0.629   4.655   4.915
  743SOL    HW2 3129   0.581   4.571   5.046
  744SOL     OW 3130   5.561   6.998   6.558
  744SOL    HW1 3131   5.519   6.925   6.505
  744SOL    HW2 3132   5.602   0.044   6.495
  745SOL     OW 3133   0.988   5.135   4.274
  745SOL    HW1 3134   0.999   5.234   4.265
  745SOL    HW2 3135   0.982   5.093   4.184
  746SOL     OW 3136   0.810   5.483   6.079
  746SOL    HW1 3137   0.761   5.396   6.076
  746SOL    HW2 3138   0.889   5.478   6.018
  747SOL     OW 3139   4.223   6.684   5.001
  747SOL    HW1 3140   4.128   6.665   4.979
  747SOL    HW2 3141   4.235   6.782   5.016
  748SOL     OW 3142   3.223   4.849   2.128
  748SOL    HW1 3143   3.252   4.753   2.128
  748SOL    HW2 3144   3.302   4.907   2.106
  749SOL     OW 3145   6.511   4.498   5.238
  749SOL    HW1 3146   6.521   4.508   5.139
  749SOL    HW2 3147   6.450   4.422   5.258
  750SOL     OW 3148   2.088   2.580   1.142
  750SOL    HW1 3149   2.007   2.627   1.178
  750SOL    HW2 3150   2.086   2.484   1.172
  751SOL     OW 3151   4.166   2.964   5.921
  751SOL    HW1 3152   4.114   2.964   5.835
  751SOL    HW2 3153   4.133   2.891   5.980
  752SOL     OW 3154   3.599   1.751   2.085
  752SOL    HW1 3155   3.508   1.729   2.051
  752SOL    HW2 3156   3.667   1.733   2.013
  753SOL     OW 3157   1.556   2.802   4.354
  753SOL    HW1 3158   1.503   2.823   4.271
  753SOL    HW2 3159   1.574   2.704   4.358
  754SOL     OW 3160   5.535   2.827   6.276
  754SOL    HW1 3161   5.462   2.892   6.297
  754SOL    HW2 3162   5.538   2.810   6.178
  755SOL     OW 3163   1.600   5.002   5.643
  755SOL    HW1 3164   1.695   5.028   5.630
  755SOL    HW2 3165   1.578   4.924   5.584
  756SOL     OW 3166   3.358   0.477   1.753
  756SOL    HW1 3167   3.261   0.497   1.740
  756SOL    HW2 3168   3.413   0.543   1.701
  757SOL     OW 3169   0.603   6.933   3.453
  757SOL    HW1 3170   0.687   6.938   3.506
  757SOL    HW2 3171   0.527   6.967   3.507
  758SOL     OW 3172   3.936   0.102   1.993
  758SOL    HW1 3173   3.950   0.200   2.005
  758SOL    HW2 3174   3.885   0.066   2.071
  759SOL     OW 3175   0.694   0.866   0.620
  759SOL    HW1 3176   0.685   0.814   0.535
  759SOL    HW2 3177   0.619   0.931   0.628
  760SOL     OW 3178   4.782   0.334   5.806
  760SOL    HW1 3179   4.768   0.417   5.753
  760SOL    HW2 3180   4.878   0.305   5.798
  761SOL     OW 3181   5.495   3.395   5.179
  761SOL    HW1 3182   5.426   3.424   5.113
  761SOL    HW2 3183   5.485   3.297   5.197
  762SOL     OW 3184   2.039   0.399   4.793
  762SOL    HW1 3185   1.939   0.398   4.793
  762SOL    HW2 3186   2.072   0.479   4.743
  763SOL     OW 3187   4.415   4.729   6.740
  763SOL    HW1 3188   4.347   4.656   6.744
  763SOL    HW2 3189   4.500   4.693   6.703
  764SOL     OW 3190   4.384   0.721   4.062
  764SOL    HW1 3191   4.315   0.785   4.029
  764SOL    HW2 3192   4.454   0.771   4.113
  765SOL     OW 3193   1.186   6.098   1.211
  765SOL    HW1 3194   1.221   6.048   1.132
  765SOL    HW2 3195   1.261   6.119   1.274
  766SOL     OW 3196   1.746   3.541   6.941
  766SOL    HW1 3197   1.689   3.530   0.002
  766SOL    HW2 3198   1.693   3.515   6.860
  767SOL     OW 3199   5.844   5.755   2.335
  767SOL    HW1 3200   5.916   5.791   2.394
  767SOL    HW2 3201   5.868   5.662   2.306
  768SOL     OW 3202   1.580   6.356   1.615
  768SOL    HW1 3203   1.646   6.401   1.675
  768SOL    HW2 3204   1.628   6.306   1.542
  769SOL     OW 3205   3.420   0.707   4.426
  769SOL    HW1 3206   3.396   0.641   4.498
  769SOL    HW2 3207   3.411   0.800   4.462
  770SOL     OW 3208   2.130   3.821   3.212
  770SOL    HW1 3209   2.113   3.723   3.215
  770SOL    HW2 3210   2.057   3.866   3.161
  771SOL     OW 3211   2.047   5.421   2.179
  771SOL    HW1 3212   1.965   5.461   2.138
  771SOL    HW2 3213   2.128   5.455   2.131
  772SOL     OW 3214   6.385   5.220   0.692
  772SOL    HW1 3215   6.470   5.267   0.668
  772SOL    HW2 3216   6.335   5.274   0.760
  773SOL     OW 3217   0.345   3.853   3.862
  773SOL    HW1 3218   0.299   3.908   3.791
  773SOL    HW2 3219   0.433   3.894   3.883
  774SOL     OW 3220   1.475   1.972   1.637
  774SOL    HW1 3221   1.510   2.028   1.562
  774SOL    HW2 3222   1.528   1.991   1.720
  775SOL     OW 3223   0.884   2.279   2.777
  775SOL    HW1 3224   0.900   2.265   2.875
  775SOL    HW2 3225   0.838   2.198   2.740
  776SOL     OW 3226   0.647   0.132   5.509
  776SOL    HW1 3227   0.671   0.109   5.603
  776SOL    HW2 3228   0.608   0.052   5.464
  777SOL     OW 3229   2.917   5.008   1.123
  777SOL    HW1 3230   2.926   5.101   1.087
  777SOL    HW2 3231   3.006   4.976   1.156
  778SOL     OW 3232   3.504   1.596   2.860
  778SOL    HW1 3233   3.576   1.598   2.790
  778SOL    HW2 3234   3.449   1.513   2.848
  779SOL     OW 3235   0.277   2.318   3.007
  779SOL    HW1 3236   0.221   2.238   2.984
  779SOL    HW2 3237   0.288   2.324   3.106
  780SOL     OW 3238   5.843   3.924   3.948
  780SOL    HW1 3239   5.932   3.938   3.905
  780SOL    HW2 3240   5.856   3.879   4.036
  781SOL     OW 3241   5.287   1.337   0.300
  781SOL    HW1 3242   5.350   1.404   0.341
  781SOL    HW2 3243   5.250   1.278   0.371
  782SOL     OW 3244   1.605   3.661   6.717
  782SOL    HW1 3245   1.640   3.754   6.707
  782SOL    HW2 3246   1.521   3.651   6.664
  783SOL     OW 3247   4.071   4.925   1.326
  783SOL    HW1 3248   3.981   4.957   1.295
  783SOL    HW2 3249   4.116   4.998   1.377
  784SOL     OW 3250   4.990   6.475   6.980
  784SOL    HW1 3251   4.952   6.464   6.889
  784SOL    HW2 3252   5.008   6.385   7.020
  785SOL     OW 3253   0.401   2.998   2.972
  785SOL    HW1 3254   0.429   2.991   2.876
  785SOL    HW2 3255   0.367   2.909   3.003
  786SOL     OW 3256   0.912   0.617   0.963
  786SOL    HW1 3257   0.968   0.698   0.947
  786SOL    HW2 3258   0.935   0.577   1.052
  787SOL     OW 3259   2.935   0.914   6.518
  787SOL    HW1 3260   2.966   0.985   6.581
  787SOL    HW2 3261   2.898   0.837   6.569
  788SOL     OW 3262   3.353   2.564   6.007
  788SOL    HW1 3263   3.256   2.588   6.002
  788SOL    HW2 3264   3.400   2.627   6.068
  789SOL     OW 3265   5.350   3.686   1.189
  789SOL    HW1 3266   5.381   3.659   1.098
  789SOL    HW2 3267   5.259   3.727   1.183
  790SOL     OW 3268   2.455   0.756   4.184
  790SOL    HW1 3269   2.461   0.659   4.159
  790SOL    HW2 3270   2.539   0.803   4.156
  791SOL     OW 3271   3.928   6.021   3.404
  791SOL    HW1 3272   3.840   6.067   3.392
  791SOL    HW2 3273   3.928   5.971   3.491
  792SOL     OW 3274   0.497   0.616   1.223
  792SOL    HW1 3275   0.564   0.678   1.264
  792SOL    HW2 3276   0.541   0.529   1.202
  793SOL     OW 3277   5.258   5.950   2.987
  793SOL    HW1 3278   5.288   6.032   3.035
  793SOL    HW2 3279   5.186   5.905   3.040
  794SOL     OW 3280   2.824   4.059   5.535
  794SOL    HW1 3281   2.807   3.964   5.559
  794SOL    HW2 3282   2.760   4.118   5.585
  795SOL     OW 3283   3.764   6.858   4.863
  795SOL    HW1 3284   3.823   6.885   4.787
  795SOL    HW2 3285   3.771   6.926   4.936
  796SOL     OW 3286   1.196   1.856   6.497
  796SOL    HW1 3287   1.151   1.943   6.477
  796SOL    HW2 3288   1.183   1.833   6.593
  797SOL     OW 3289   5.100   2.756   1.705
  797SOL    HW1 3290   5.020   2.813   1.689
  797SOL    HW2 3291   5.183   2.811   1.693
  798SOL     OW 3292   5.011   6.810   2.047
  798SOL    HW1 3293   5.074   6.884   2.068
  798SOL    HW2 3294   4.957   6.787   2.128
  799SOL     OW 3295   6.407   1.184   5.241
  799SOL    HW1 3296   6.423   1.163   5.337
  799SOL    HW2 3297   6.423   1.281   5.225
  800SOL     OW 3298   5.106   1.794   2.644
  800SOL    HW1 3299   5.015   1.835   2.657
  800SOL    HW2 3300   5.140   1.761   2.732
  801SOL     OW 3301   2.012   3.243   4.329
  801SOL    HW1 3302   2.035   3.341   4.328
  801SOL    HW2 3303   1.935   3.227   4.268
  802SOL     OW 3304   4.606   0.600   0.529
  802SOL    HW1 3305   4.580   0.529   0.595
  802SOL    HW2 3306   4.525   0.631   0.479
  803SOL     OW 3307   0.097   6.182   5.048
  803SOL    HW1 3308   0.132   6.272   5.075
  803SOL    HW2 3309   0.118   6.115   5.119
  804SOL     OW 3310   5.588   5.936   0.107
  804SOL    HW1 3311   5.683   5.905   0.116
  804SOL    HW2 3312   5.539   5.915   0.192
  805SOL     OW 3313   3.649   1.305   5.722
  805SOL    HW1 3314   3.691   1.299   5.812
  805SOL    HW2 3315   3.549   1.308   5.732
  806SOL     OW 3316   5.047   1.117   3.877
  806SOL    HW1 3317   5.112   1.137   3.804
  806SOL    HW2 3318   4.971   1.063   3.840
  807SOL     OW 3319   0.904   1.996   4.715
  807SOL    HW1 3320   0.943   1.904   4.723
  807SOL    HW2 3321   0.811   1.995   4.752
  808SOL     OW 3322   4.875   2.965   6.079
  808SOL    HW1 3323   4.910   2.954   5.986
  808SOL    HW2 3324   4.876   2.876   6.125
  809SOL     OW 3325   0.641   4.852   1.680
  809SOL    HW1 3326   0.714   4.840   1.748
  809SOL    HW2 3327   0.669   4.809   1.594
  810SOL     OW 3328   3.411   2.891   0.796
  810SOL    HW1 3329   3.446   2.866   0.706
  810SOL    HW2 3330   3.317   2.924   0.787
  811SOL     OW 3331   3.918   5.569   4.214
  811SOL    HW1 3332   3.939   5.665   4.236
  811SOL    HW2 3333   3.996   5.511   4.239
  812SOL     OW 3334   0.353   1.746   1.504
  812SOL    HW1 3335   0.318   1.771   1.414
  812SOL    HW2 3336   0.322   1.814   1.571
  813SOL     OW 3337   3.548   5.601   5.057
  813SOL    HW1 3338   3.491   5.683   5.052
  813SOL    HW2 3339   3.634   5.617   5.008
  814SOL     OW 3340   6.079   6.207   2.660
  814SOL    HW1 3341   6.074   6.307   2.657
  814SOL    HW2 3342   6.018   6.173   2.733
  815SOL     OW 3343   0.532   3.679   2.987
  815SOL    HW1 3344   0.606   3.612   2.977
  815SOL    HW2 3345   0.476   3.679   2.905
  816SOL     OW 3346   6.342   6.792   0.351
  816SOL    HW1 3347   6.399   6.870   0.377
  816SOL    HW2 3348   6.274   6.821   0.283
  817SOL     OW 3349   2.076   3.589   1.552
  817SOL    HW1 3350   2.137   3.630   1.619
  817SOL    HW2 3351   1.983   3.584   1.590
  818SOL     OW 3352   6.686   2.736   1.514
  818SOL    HW1 3353   6.732   2.649   1.529
  818SOL    HW2 3354   6.589   2.727   1.533
  819SOL     OW 3355   5.352   2.890   3.026
  819SOL    HW1 3356   5.392   2.907   2.936
  819SOL    HW2 3357   5.299   2.805   3.024
  820SOL     OW 3358   2.454   3.163   5.777
  820SOL    HW1 3359   2.444   3.068   5.806
  820SOL    HW2 3360   2.551   3.184   5.763
  821SOL     OW 3361   1.838   4.119   6.875
  821SOL    HW1 3362   1.877   4.087   6.789
  821SOL    HW2 3363   1.778   4.049   6.913
  822SOL     OW 3364   1.787   4.260   4.697
  822SOL    HW1 3365   1.817   4.319   4.771
  822SOL    HW2 3366   1.696   4.288   4.665
  823SOL     OW 3367   4.893   4.150   6.105
  823SOL    HW1 3368   4.981   4.196   6.104
  823SOL    HW2 3369   4.907   4.051   6.114
  824SOL     OW 3370   5.333   0.911   5.130
  824SOL    HW1 3371   5.395   0.834   5.145
  824SOL    HW2 3372   5.350   0.982   5.198
  825SOL     OW 3373   1.535   4.153   0.992
  825SOL    HW1 3374   1.524   4.233   1.050
  825SOL    HW2 3375   1.632   4.137   0.976
  826SOL     OW 3376   5.293   3.342   6.168
  826SOL    HW1 3377   5.361   3.394   6.220
  826SOL    HW2 3378   5.312   3.244   6.177
  827SOL     OW 3379   3.281   4.823   6.383
  827SOL    HW1 3380   3.254   4.919   6.371
  827SOL    HW2 3381   3.362   4.804   6.328
  828SOL     OW 3382   5.240   6.133   5.814
  828SOL    HW1 3383   5.195   6.208   5.862
  828SOL    HW2 3384   5.339   6.138   5.829
  829SOL     OW 3385   3.019   3.349   3.584
  829SOL    HW1 3386   3.035   3.331   3.681
  829SOL    HW2 3387   2.988   3.265   3.539
  830SOL     OW 3388   4.672   4.824   6.855
  830SOL    HW1 3389   4.622   4.750   6.811
  830SOL    HW2 3390   4.655   4.910   6.807
  831SOL     OW 3391   5.799   1.200   6.412
  831SOL    HW1 3392   5.724   1.264   6.430
  831SOL    HW2 3393   5.783   1.115   6.462
  832SOL     OW 3394   2.902   0.351   1.557
  832SOL    HW1 3395   2.980   0.290   1.574
  832SOL    HW2 3396   2.918   0.401   1.472
  833SOL     OW 3397   0.518   4.061   6.450
  833SOL    HW1 3398   0.491   4.057   6.353
  833SOL    HW2 3399   0.444   4.100   6.504
  834SOL     OW 3400   2.982   3.731   1.123
  834SOL    HW1 3401   3.033   3.772   1.047
  834SOL    HW2 3402   2.967   3.634   1.105
  835SOL     OW 3403   3.346   0.537   4.619
  835SOL    HW1 3404   3.321   0.459   4.561
  835SOL    HW2 3405   3.325   0.514   4.715
  836SOL     OW 3406   3.661   6.627   6.496
  836SOL    HW1 3407   3.573   6.596   6.530
  836SOL    HW2 3408   3.726   6.550   6.494
  837SOL     OW 3409   5.346   6.262   6.874
  837SOL    HW1 3410   5.339   6.299   6.781
  837SOL    HW2 3411   5.277   6.305   6.932
  838SOL     OW 3412   2.181   0.058   4.038
  838SOL    HW1 3413   2.086   0.085   4.021
  838SOL    HW2 3414   2.189   0.025   4.132
  839SOL     OW 3415   2.395   2.549   2.132
  839SOL    HW1 3416   2.428   2.459   2.158
  839SOL    HW2 3417   2.445   2.581   2.051
  840SOL     OW 3418   5.727   0.048   6.975
  840SOL    HW1 3419   5.806   0.061   0.014
  840SOL    HW2 3420   5.755   0.061   6.880
  841SOL     OW 3421   4.357   5.108   0.578
  841SOL    HW1 3422   4.424   5.179   0.556
  841SOL    HW2 3423   4.271   5.128   0.530
  842SOL     OW 3424   4.430   5.968   4.861
  842SOL    HW1 3425   4.354   5.911   4.891
  842SOL    HW2 3426   4.498   5.912   4.813
  843SOL     OW 3427   2.528   1.791   0.197
  843SOL    HW1 3428   2.542   1.794   0.098
  843SOL    HW2 3429   2.609   1.752   0.240
  844SOL     OW 3430   5.745   0.057   1.253
  844SOL    HW1 3431   5.669   0.092   1.198
  844SOL    HW2 3432   5.759   0.114   1.333
  845SOL     OW 3433   5.806   4.104   5.431
  845SOL    HW1 3434   5.841   4.014   5.456
  845SOL    HW2 3435   5.740   4.094   5.357
  846SOL     OW 3436   2.471   1.474   0.137
  846SOL    HW1 3437   2.484   1.404   0.206
  846SOL    HW2 3438   2.451   1.561   0.181
  847SOL     OW 3439   1.205   4.165   0.546
  847SOL    HW1 3440   1.193   4.167   0.447
  847SOL    HW2 3441   1.223   4.257   0.580
  848SOL     OW 3442   5.956   0.797   6.595
  848SOL    HW1 3443   5.888   0.869   6.605
  848SOL    HW2 3444   5.957   0.740   6.678
  849SOL     OW 3445   0.698   4.602   5.987
  849SOL    HW1 3446   0.779   4.653   6.015
  849SOL    HW2 3447   0.717   4.553   5.902
  850SOL     OW 3448   5.822   0.995   4.110
  850SOL    HW1 3449   5.823   0.900   4.080
  850SOL    HW2 3450   5.882   1.050   4.051
  851SOL     OW 3451   0.561   0.933   1.863
  851SOL    HW1 3452   0.520   0.940   1.954
  851SOL    HW2 3453   0.551   0.840   1.829
  852SOL     OW 3454   1.135   2.344   0.308
  852SOL    HW1 3455   1.220   2.324   0.260
  852SOL    HW2 3456   1.156   2.382   0.398
  853SOL     OW 3457   1.819   4.502   2.516
  853SOL    HW1 3458   1.742   4.529   2.575
  853SOL    HW2 3459   1.784   4.450   2.438
  854SOL     OW 3460   4.381   6.066   1.979
  854SOL    HW1 3461   4.418   5.975   1.962
  854SOL    HW2 3462   4.438   6.113   2.046
  855SOL     OW 3463   6.801   0.277   1.219
  855SOL    HW1 3464   6.748   0.354   1.256
  855SOL    HW2 3465   6.778   0.264   1.123
  856SOL     OW 3466   1.467   2.017   5.076
  856SOL    HW1 3467   1.525   2.080   5.025
  856SOL    HW2 3468   1.414   2.068   5.144
  857SOL     OW 3469   5.967   4.215   2.283
  857SOL    HW1 3470   5.910   4.230   2.364
  857SOL    HW2 3471   5.926   4.145   2.226
  858SOL     OW 3472   2.486   4.247   1.144
  858SOL    HW1 3473   2.530   4.175   1.091
  858SOL    HW2 3474   2.387   4.242   1.132
  859SOL     OW 3475   4.586   5.529   6.686
  859SOL    HW1 3476   4.612   5.624   6.706
  859SOL    HW2 3477   4.654   5.488   6.625
  860SOL     OW 3478   4.071   4.162   0.403
  860SOL    HW1 3479   4.098   4.217   0.324
  860SOL    HW2 3480   4.124   4.192   0.483
  861SOL     OW 3481   2.602   0.615   4.546
  861SOL    HW1 3482   2.634   0.617   4.641
  861SOL    HW2 3483   2.531   0.545   4.537
  862SOL     OW 3484   0.380   4.117   5.828
  862SOL    HW1 3485   0.432   4.078   5.904
  862SOL    HW2 3486   0.423   4.201   5.797
  863SOL     OW 3487   0.454   0.328   0.465
  863SOL    HW1 3488   0.423   0.281   0.383
  863SOL    HW2 3489   0.385   0.320   0.537
  864SOL     OW 3490   5.244   4.656   3.828
  864SOL    HW1 3491   5.152   4.674   3.793
  864SOL    HW2 3492   5.282   4.576   3.781
  865SOL     OW 3493   2.138   6.441   5.635
  865SOL    HW1 3494   2.042   6.459   5.617
  865SOL    HW2 3495   2.155   6.342   5.631
  866SOL     OW 3496   2.061   3.004   2.042
  866SOL    HW1 3497   1.967   2.978   2.066
  866SOL    HW2 3498   2.078   2.980   1.946
  867SOL     OW 3499   3.882   2.819   1.063
  867SOL    HW1 3500   3.793   2.780   1.042
  867SOL    HW2 3501   3.952   2.748   1.059
  868SOL     OW 3502   6.066   6.770   1.362
  868SOL    HW1 3503   6.033   6.680   1.392
  868SOL    HW2 3504   6.013   6.800   1.283
  869SOL     OW 3505   6.656   5.185   3.492
  869SOL    HW1 3506   6.720   5.240   3.437
  869SOL    HW2 3507   6.577   5.241   3.517
  870SOL     OW 3508   5.624   3.795   0.437
  870SOL    HW1 3509   5.654   3.704   0.467
  870SOL    HW2 3510   5.643   3.862   0.508
  871SOL     OW 3511   5.437   3.767   2.986
  871SOL    HW1 3512   5.529   3.794   2.958
  871SOL    HW2 3513   5.378   3.762   2.905
  872SOL     OW 3514   6.072   4.532   4.177
  872SOL    HW1 3515   6.028   4.490   4.257
  872SOL    HW2 3516   6.148   4.589   4.207
  873SOL     OW 3517   5.821   6.895   3.768
  873SOL    HW1 3518   5.802   6.993   3.770
  873SOL    HW2 3519   5.910   6.877   3.810
  874SOL     OW 3520   0.980   4.940   4.864
  874SOL    HW1 3521   0.964   4.908   4.771
  874SOL    HW2 3522   1.073   4.977   4.872
  875SOL     OW 3523   4.116   2.715   0.489
  875SOL    HW1 3524   4.092   2.707   0.585
  875SOL    HW2 3525   4.069   2.645   0.436
  876SOL     OW 3526   0.649   5.993   3.490
  876SOL    HW1 3527   0.603   5.904   3.483
  876SOL    HW2 3528   0.585   6.060   3.529
  877SOL     OW 3529   3.341   4.718   0.861
  877SOL    HW1 3530   3.301   4.809   0.860
  877SOL    HW2 3531   3.441   4.726   0.862
  878SOL     OW 3532   4.580   6.140   5.427
  878SOL    HW1 3533   4.668   6.122   5.470
  878SOL    HW2 3534   4.508   6.139   5.497
  879SOL     OW 3535   3.032   2.083   1.942
  879SOL    HW1 3536   3.042   2.005   2.003
  879SOL    HW2 3537   2.997   2.162   1.993
  880SOL     OW 3538   3.002   4.496   6.577
  880SOL    HW1 3539   2.934   4.525   6.644
  880SOL    HW2 3540   2.959   4.434   6.511
  881SOL     OW 3541   4.567   4.670   5.322
  881SOL    HW1 3542   4.640   4.602   5.331
  881SOL    HW2 3543   4.577   4.718   5.234
  882SOL     OW 3544   1.462   1.620   4.189
  882SOL    HW1 3545   1.496   1.598   4.097
  882SOL    HW2 3546   1.525   1.683   4.233
  883SOL     OW 3547   5.036   5.291   5.874
  883SOL    HW1 3548   5.098   5.252   5.806
  883SOL    HW2 3549   5.075   5.279   5.965
  884SOL     OW 3550   6.894   3.459   0.794
  884SOL    HW1 3551   6.890   3.364   0.763
  884SOL    HW2 3552   6.850   3.517   0.726
  885SOL     OW 3553   4.869   6.238   6.858
  885SOL    HW1 3554   4.822   6.263   6.774
  885SOL    HW2 3555   4.957   6.195   6.835
  886SOL     OW 3556   3.261   0.263   0.904
  886SOL    HW1 3557   3.309   0.311   0.830
  886SOL    HW2 3558   3.280   0.165   0.897
  887SOL     OW 3559   4.342   0.277   4.520
  887SOL    HW1 3560   4.375   0.185   4.545
  887SOL    HW2 3561   4.271   0.305   4.584
  888SOL     OW 3562   6.219   6.705   3.138
  888SOL    HW1 3563   6.212   6.606   3.122
  888SOL    HW2 3564   6.313   6.728   3.163
  889SOL     OW 3565   1.580   6.587   5.275
  889SOL    HW1 3566   1.666   6.616   5.234
  889SOL    HW2 3567   1.504   6.620   5.220
  890SOL     OW 3568   2.825   5.189   2.248
  890SOL    HW1 3569   2.766   5.124   2.202
  890SOL    HW2 3570   2.859   5.257   2.182
  891SOL     OW 3571   5.872   3.900   1.720
  891SOL    HW1 3572   5.833   3.860   1.804
  891SOL    HW2 3573   5.909   3.990   1.741
  892SOL     OW 3574   4.159   3.898   0.166
  892SOL    HW1 3575   4.200   3.895   0.257
  892SOL    HW2 3576   4.082   3.962   0.166
  893SOL     OW 3577   2.152   1.170   2.201
  893SOL    HW1 3578   2.109   1.255   2.231
  893SOL    HW2 3579   2.155   1.166   2.102
  894SOL     OW 3580   1.964   2.874   4.349
  894SOL    HW1 3581   1.886   2.879   4.286
  894SOL    HW2 3582   2.037   2.934   4.316
  895SOL     OW 3583   2.065   5.717   4.570
  895SOL    HW1 3584   1.979   5.717   4.518
  895SOL    HW2 3585   2.119   5.797   4.545
  896SOL     OW 3586   5.259   6.814   2.371
  896SOL    HW1 3587   5.276   6.853   2.461
  896SOL    HW2 3588   5.186   6.866   2.326
  897SOL     OW 3589   5.824   0.517   0.162
  897SOL    HW1 3590   5.730   0.547   0.182
  897SOL    HW2 3591   5.872   0.590   0.113
  898SOL     OW 3592   3.857   5.609   2.898
  898SOL    HW1 3593   3.764   5.614   2.863
  898SOL    HW2 3594   3.917   5.665   2.841
  899SOL     OW 3595   0.291   5.084   0.127
  899SOL    HW1 3596   0.362   5.130   0.074
  899SOL    HW2 3597   0.258   5.146   0.199
  900SOL     OW 3598   5.157   6.503   1.499
  900SOL    HW1 3599   5.212   6.563   1.441
  900SOL    HW2 3600   5.119   6.429   1.443
  901SOL     OW 3601   0.668   1.384   5.250
  901SOL    HW1 3602   0.702   1.372   5.156
  901SOL    HW2 3603   0.738   1.431   5.304
  902SOL     OW 3604   0.143   1.997   6.519
  902SOL    HW1 3605   0.180   1.928   6.457
  902SOL    HW2 3606   0.108   2.074   6.466
  903SOL     OW 3607   6.803   4.093   6.476
  903SOL    HW1 3608   6.725   4.051   6.522
  903SOL    HW2 3609   6.865   4.132   6.544
  904SOL     OW 3610   1.284   1.847   4.122
  904SOL    HW1 3611   1.244   1.926   4.168
  904SOL    HW2 3612   1.323   1.785   4.191
  905SOL     OW 3613   4.388   3.044   6.048
  905SOL    HW1 3614   4.323   2.994   5.992
  905SOL    HW2 3615   4.480   3.006   6.037
  906SOL     OW 3616   0.049   3.828   6.549
  906SOL    HW1 3617   0.097   3.915   6.539
  906SOL    HW2 3618   0.116   3.754   6.562
  907SOL     OW 3619   5.549   3.147   3.581
  907SOL    HW1 3620   5.547   3.194   3.493
  907SOL    HW2 3621   5.644   3.127   3.605
  908SOL     OW 3622   1.837   6.680   3.437
  908SOL    HW1 3623   1.836   6.602   3.499
  908SOL    HW2 3624   1.811   6.763   3.487
  909SOL     OW 3625   2.086   6.721   1.212
  909SOL    HW1 3626   1.998   6.725   1.165
  909SOL    HW2 3627   2.070   6.717   1.311
  910SOL     OW 3628   2.566   0.239   0.617
  910SOL    HW1 3629   2.665   0.222   0.625
  910SOL    HW2 3630   2.538   0.228   0.522
  911SOL     OW 3631   6.937   5.891   1.039
  911SOL    HW1 3632   6.852   5.910   0.991
  911SOL    HW2 3633   6.945   5.793   1.056
  912SOL     OW 3634   6.510   1.257   4.939
  912SOL    HW1 3635   6.479   1.177   4.887
  912SOL    HW2 3636   6.430   1.305   4.976
  913SOL     OW 3637   2.403   0.525   3.097
  913SOL    HW1 3638   2.435   0.599   3.038
  913SOL    HW2 3639   2.425   0.437   3.056
  914SOL     OW 3640   2.882   5.384   5.262
  914SOL    HW1 3641   2.923   5.298   5.229
  914SOL    HW2 3642   2.892   5.455   5.192
  915SOL     OW 3643   1.374   3.137   0.481
  915SOL    HW1 3644   1.382   3.161   0.578
  915SOL    HW2 3645   1.457   3.165   0.433
  916SOL     OW 3646   1.529   2.525   2.492
  916SOL    HW1 3647   1.469   2.473   2.430
  916SOL    HW2 3648   1.615   2.545   2.445
  917SOL     OW 3649   5.252   0.526   1.503
  917SOL    HW1 3650   5.223   0.513   1.408
  917SOL    HW2 3651   5.191   0.475   1.563
  918SOL     OW 3652   2.716   5.826   6.862
  918SOL    HW1 3653   2.764   5.888   6.925
  918SOL    HW2 3654   2.713   5.868   6.771
  919SOL     OW 3655   6.979   5.717   2.656
  919SOL    HW1 3656   0.030   5.786   2.662
  919SOL    HW2 3657   7.009   5.634   2.704
  920SOL     OW 3658   1.485   0.040   3.164
  920SOL    HW1 3659   1.567   0.091   3.188
  920SOL    HW2 3660   1.509   6.985   3.103
  921SOL     OW 3661   5.184   4.542   4.307
  921SOL    HW1 3662   5.235   4.514   4.389
  921SOL    HW2 3663   5.239   4.525   4.226
  922SOL     OW 3664   3.451   3.193   6.708
  922SOL    HW1 3665   3.408   3.139   6.780
  922SOL    HW2 3666   3.527   3.245   6.746
  923SOL     OW 3667   3.070   4.952   6.758
  923SOL    HW1 3668   2.987   4.980   6.807
  923SOL    HW2 3669   3.121   4.886   6.813
  924SOL     OW 3670   6.247   2.716   1.938
  924SOL    HW1 3671   6.147   2.714   1.935
  924SOL    HW2 3672   6.284   2.662   1.863
  925SOL     OW 3673   6.342   1.738   5.413
  925SOL    HW1 3674   6.263   1.708   5.466
  925SOL    HW2 3675   6.403   1.791   5.472
  926SOL     OW 3676   6.030   1.579   0.395
  926SOL    HW1 3677   6.118   1.568   0.443
  926SOL    HW2 3678   5.980   1.493   0.396
  927SOL     OW 3679   5.350   4.394   3.689
  927SOL    HW1 3680   5.281   4.323   3.683
  927SOL    HW2 3681   5.438   4.358   3.659
  928SOL     OW 3682   1.740   0.355   0.685
  928SOL    HW1 3683   1.791   0.345   0.771
  928SOL    HW2 3684   1.762   0.279   0.624
  929SOL     OW 3685   0.304   1.504   0.761
  929SOL    HW1 3686   0.246   1.554   0.825
  929SOL    HW2 3687   0.396   1.495   0.799
  930SOL     OW 3688   5.677   5.712   4.714
  930SOL    HW1 3689   5.776   5.709   4.731
  930SOL    HW2 3690   5.661   5.745   4.620
  931SOL     OW 3691   6.429   3.591   3.423
  931SOL    HW1 3692   6.370   3.602   3.503
  931SOL    HW2 3693   6.522   3.573   3.452
  932SOL     OW 3694   2.050   7.008   1.510
  932SOL    HW1 3695   1.991   0.067   1.519
  932SOL    HW2 3696   2.101   7.013   1.424
  933SOL     OW 3697   0.345   5.828   2.493
  933SOL    HW1 3698   0.385   5.871   2.574
  933SOL    HW2 3699   0.325   5.898   2.424
  934SOL     OW 3700   2.110   0.814   4.455
  934SOL    HW1 3701   2.118   0.731   4.402
  934SOL    HW2 3702   2.022   0.816   4.502
  935SOL     OW 3703   5.147   3.806   4.972
  935SOL    HW1 3704   5.144   3.860   4.888
  935SOL    HW2 3705   5.075   3.837   5.035
  936SOL     OW 3706   1.246   0.880   6.208
  936SOL    HW1 3707   1.298   0.896   6.291
  936SOL    HW2 3708   1.187   0.800   6.220
  937SOL     OW 3709   4.970   1.972   5.190
  937SOL    HW1 3710   4.933   1.885   5.224
  937SOL    HW2 3711   5.062   1.985   5.226
  938SOL     OW 3712   0.133   5.053   6.258
  938SOL    HW1 3713   0.180   5.052   6.346
  938SOL    HW2 3714   0.200   5.067   6.185
  939SOL     OW 3715   5.031   1.660   4.976
  939SOL    HW1 3716   5.021   1.595   4.901
  939SOL    HW2 3717   4.994   1.620   5.060
  940SOL     OW 3718   0.480   2.929   2.705
  940SOL    HW1 3719   0.455   2.949   2.610
  940SOL    HW2 3720   0.580   2.930   2.713
  941SOL     OW 3721   6.349   0.596   4.481
  941SOL    HW1 3722   6.347   0.571   4.384
  941SOL    HW2 3723   6.414   0.537   4.529
  942SOL     OW 3724   5.189   0.869   4.063
  942SOL    HW1 3725   5.162   0.964   4.079
  942SOL    HW2 3726   5.261   0.866   3.993
  943SOL     OW 3727   1.229   3.298   3.620
  943SOL    HW1 3728   1.197   3.371   3.681
  943SOL    HW2 3729   1.319   3.321   3.584
  944SOL     OW 3730   6.022   3.402   6.172
  944SOL    HW1 3731   5.989   3.489   6.135
  944SOL    HW2 3732   6.027   3.334   6.099
  945SOL     OW 3733   6.802   4.173   5.794
  945SOL    HW1 3734   6.744   4.198   5.871
  945SOL    HW2 3735   6.845   4.084   5.812
  946SOL     OW 3736   4.882   2.720   6.176
  946SOL    HW1 3737   4.893   2.675   6.265
  946SOL    HW2 3738   4.879   2.651   6.104
  947SOL     OW 3739   3.164   3.158   4.799
  947SOL    HW1 3740   3.162   3.245   4.849
  947SOL    HW2 3741   3.178   3.083   4.864
  948SOL     OW 3742   4.576   0.805   0.796
  948SOL    HW1 3743   4.510   0.802   0.870
  948SOL    HW2 3744   4.615   0.714   0.781
  949SOL     OW 3745   0.001   6.333   6.441
  949SOL    HW1 3746   0.034   6.285   6.360
  949SOL    HW2 3747   0.058   6.413   6.458
  950SOL     OW 3748   4.184   5.283   2.024
  950SOL    HW1 3749   4.116   5.241   1.964
  950SOL    HW2 3750   4.275   5.274   1.983
  951SOL     OW 3751   1.663   0.616   2.124
  951SOL    HW1 3752   1.572   0.614   2.164
  951SOL    HW2 3753   1.704   0.525   2.128
  952SOL     OW 3754   5.712   1.500   2.174
  952SOL    HW1 3755   5.660   1.508   2.259
  952SOL    HW2 3756   5.794   1.445   2.190
  953SOL     OW 3757   5.263   5.577   5.364
  953SOL    HW1 3758   5.216   5.504   5.315
  953SOL    HW2 3759   5.198   5.626   5.422
  954SOL     OW 3760   5.150   5.759   0.650
  954SOL    HW1 3761   5.138   5.840   0.708
  954SOL    HW2 3762   5.240   5.763   0.606
  955SOL     OW 3763   0.071   4.888   3.194
  955SOL    HW1 3764   0.004   4.920   3.127
  955SOL    HW2 3765   0.101   4.965   3.250
  956SOL     OW 3766   0.895   2.324   2.410
  956SOL    HW1 3767   0.821   2.332   2.478
  956SOL    HW2 3768   0.972   2.380   2.439
  957SOL     OW 3769   1.141   4.797   4.473
  957SOL    HW1 3770   1.181   4.799   4.565
  957SOL    HW2 3771   1.046   4.767   4.478
  958SOL     OW 3772   4.792   2.502   1.762
  958SOL    HW1 3773   4.692   2.507   1.753
  958SOL    HW2 3774   4.835   2.546   1.684
  959SOL     OW 3775   2.708   4.674   2.843
  959SOL    HW1 3776   2.643   4.604   2.812
  959SOL    HW2 3777   2.729   4.736   2.767
  960SOL     OW 3778   0.129   5.847   3.818
  960SOL    HW1 3779   0.031   5.826   3.817
  960SOL    HW2 3780   0.146   5.919   3.885
  961SOL     OW 3781   4.986   0.036   3.274
  961SOL    HW1 3782   5.047   7.007   3.336
  961SOL    HW2 3783   4.943   6.992   3.210
  962SOL     OW 3784   1.769   1.314   4.432
  962SOL    HW1 3785   1.775   1.396   4.375
  962SOL    HW2 3786   1.813   1.331   4.520
  963SOL     OW 3787   6.355   1.090   5.852
  963SOL    HW1 3788   6.342   1.011   5.791
  963SOL    HW2 3789   6.433   1.073   5.912
  964SOL     OW 3790   6.606   3.431   0.375
  964SOL    HW1 3791   6.573   3.514   0.331
  964SOL    HW2 3792   6.577   3.351   0.321
  965SOL     OW 3793   5.590   1.786   1.303
  965SOL    HW1 3794   5.622   1.769   1.396
  965SOL    HW2 3795   5.582   1.885   1.289
  966SOL     OW 3796   5.587   1.513   2.436
  966SOL    HW1 3797   5.534   1.582   2.485
  966SOL    HW2 3798   5.526   1.439   2.407
  967SOL     OW 3799   2.293   5.333   1.699
  967SOL    HW1 3800   2.224   5.330   1.771
  967SOL    HW2 3801   2.367   5.268   1.720
  968SOL     OW 3802   4.736   2.585   2.138
  968SOL    HW1 3803   4.795   2.618   2.065
  968SOL    HW2 3804   4.766   2.625   2.225
  969SOL     OW 3805   4.404   5.874   6.667
  969SOL    HW1 3806   4.364   5.965   6.676
  969SOL    HW2 3807   4.504   5.881   6.663
  970SOL     OW 3808   4.795   1.119   5.104
  970SOL    HW1 3809   4.816   1.205   5.058
  970SOL    HW2 3810   4.873   1.090   5.159
  971SOL     OW 3811   0.391   1.913   3.306
  971SOL    HW1 3812   0.315   1.957   3.354
  971SOL    HW2 3813   0.455   1.983   3.273
  972SOL     OW 3814   6.028   3.890   1.187
  972SOL    HW1 3815   5.949   3.863   1.132
  972SOL    HW2 3816   6.008   3.876   1.284
  973SOL     OW 3817   6.795   4.161   0.382
  973SOL    HW1 3818   6.782   4.086   0.318
  973SOL    HW2 3819   6.711   4.177   0.434
  974SOL     OW 3820   4.443   0.346   2.628
  974SOL    HW1 3821   4.413   0.436   2.598
  974SOL    HW2 3822   4.364   0.288   2.644
  975SOL     OW 3823   2.359   5.751   5.993
  975SOL    HW1 3824   2.333   5.739   5.898
  975SOL    HW2 3825   2.410   5.671   6.025
  976SOL     OW 3826   6.233   3.028   2.449
  976SOL    HW1 3827   6.201   3.066   2.362
  976SOL    HW2 3828   6.313   3.080   2.480
  977SOL     OW 3829   2.193   0.785   4.041
  977SOL    HW1 3830   2.223   0.754   3.951
  977SOL    HW2 3831   2.270   0.779   4.105
  978SOL     OW 3832   4.248   4.237   5.586
  978SOL    HW1 3833   4.261   4.214   5.682
  978SOL    HW2 3834   4.194   4.165   5.541
  979SOL     OW 3835   6.959   1.859   1.564
  979SOL    HW1 3836   6.900   1.930   1.526
  979SOL    HW2 3837   6.906   1.774   1.572
  980SOL     OW 3838   4.682   2.005   4.218
  980SOL    HW1 3839   4.621   1.988   4.140
  980SOL    HW2 3840   4.746   1.929   4.227
  981SOL     OW 3841   1.589   1.402   5.042
  981SOL    HW1 3842   1.592   1.482   4.982
  981SOL    HW2 3843   1.679   1.387   5.083
  982SOL     OW 3844   2.391   1.956   3.434
  982SOL    HW1 3845   2.435   2.044   3.454
  982SOL    HW2 3846   2.414   1.928   3.340
  983SOL     OW 3847   5.702   2.347   3.697
  983SOL    HW1 3848   5.726   2.444   3.687
  983SOL    HW2 3849   5.624   2.325   3.637
  984SOL     OW 3850   3.181   1.446   3.612
  984SOL    HW1 3851   3.166   1.370   3.674
  984SOL    HW2 3852   3.163   1.532   3.659
  985SOL     OW 3853   4.987   4.898   6.742
  985SOL    HW1 3854   4.930   4.876   6.662
  985SOL    HW2 3855   5.083   4.883   6.719
  986SOL     OW 3856   5.268   4.725   0.198
  986SOL    HW1 3857   5.294   4.797   0.134
  986SOL    HW2 3858   5.179   4.688   0.172
  987SOL     OW 3859   4.360   6.278   1.135
  987SOL    HW1 3860   4.270   6.234   1.139
  987SOL    HW2 3861   4.365   6.351   1.203
  988SOL     OW 3862   3.678   2.865   2.179
  988SOL    HW1 3863   3.579   2.866   2.166
  988SOL    HW2 3864   3.715   2.779   2.144
  989SOL     OW 3865   6.435   1.142   5.545
  989SOL    HW1 3866   6.418   1.062   5.602
  989SOL    HW2 3867   6.513   1.194   5.581
  990SOL     OW 3868   4.521   1.052   1.995
  990SOL    HW1 3869   4.513   1.132   1.935
  990SOL    HW2 3870   4.550   1.081   2.086
  991SOL     OW 3871   1.816   2.645   5.476
  991SOL    HW1 3872   1.794   2.587   5.398
  991SOL    HW2 3873   1.845   2.735   5.443
  992SOL     OW 3874   0.876   3.592   0.974
  992SOL    HW1 3875   0.950   3.656   0.952
  992SOL    HW2 3876   0.835   3.617   1.062
  993SOL     OW 3877   1.443   4.708   2.238
  993SOL    HW1 3878   1.492   4.622   2.246
  993SOL    HW2 3879   1.502   4.783   2.268
  994SOL     OW 3880   3.247   3.710   2.679
  994SOL    HW1 3881   3.275   3.739   2.770
  994SOL    HW2 3882   3.298   3.629   2.653
  995SOL     OW 3883   3.080   2.634   6.062
  995SOL    HW1 3884   3.123   2.718   6.094
  995SOL    HW2 3885   3.023   2.653   5.982
  996SOL     OW 3886   2.066   4.577   4.782
  996SOL    HW1 3887   2.112   4.542   4.700
  996SOL    HW2 3888   2.101   4.667   4.804
  997SOL     OW 3889   6.874   0.573   2.288
  997SOL    HW1 3890   6.832   0.663   2.282
  997SOL    HW2 3891   6.934   0.558   2.210
  998SOL     OW 3892   4.675   6.412   4.028
  998SOL    HW1 3893   4.611   6.394   3.953
  998SOL    HW2 3894   4.744   6.339   4.031
  999SOL     OW 3895   5.452   5.154   1.903
  999SOL    HW1 3896   5.499   5.162   1.992
  999SOL    HW2 3897   5.369   5.100   1.913
 1000SOL     OW 3898   1.410   1.049   2.344
 1000SOL    HW1 3899   1.346   1.119   2.376
 1000SOL    HW2 3900   1.431   1.064   2.247
 1001SOL     OW 3901   5.886   6.856   0.624
 1001SOL    HW1 3902   5.939   6.834   0.706
 1001SOL    HW2 3903   5.900   6.785   0.555
 1002SOL     OW 3904   6.040   2.238   6.995
 1002SOL    HW1 3905   6.052   2.169   6.923
 1002SOL    HW2 3906   6.123   2.240   0.030
 1003SOL     OW 3907   1.937   6.304   1.676
 1003SOL    HW1 3908   1.973   6.292   1.583
 1003SOL    HW2 3909   2.013   6.303   1.741
 1004SOL     OW 3910   0.377   0.439   1.434
 1004SOL    HW1 3911   0.412   0.528   1.403
 1004SOL    HW2 3912   0.288   0.451   1.478
 1005SOL     OW 3913   0.560   1.418   2.705
 1005SOL    HW1 3914   0.493   1.411   2.780
 1005SOL    HW2 3915   0.541   1.500   2.651
 1006SOL     OW 3916   1.451   5.530   1.534
 1006SOL    HW1 3917   1.523   5.483   1.585
 1006SOL    HW2 3918   1.454   5.628   1.553
 1007SOL     OW 3919   5.321   0.143   4.247
 1007SOL    HW1 3920   5.362   0.167   4.334
 1007SOL    HW2 3921   5.290   0.048   4.250
 1008SOL     OW 3922   2.400   3.298   5.293
 1008SOL    HW1 3923   2.340   3.353   5.234
 1008SOL    HW2 3924   2.423   3.212   5.247
 1009SOL     OW 3925   0.309   6.391   4.621
 1009SOL    HW1 3926   0.405   6.380   4.597
 1009SOL    HW2 3927   0.271   6.302   4.646
 1010SOL     OW 3928   3.412   2.251   6.413
 1010SOL    HW1 3929   3.360   2.166   6.425
 1010SOL    HW2 3930   3.370   2.306   6.340
 1011SOL     OW 3931   2.241   5.247   2.528
 1011SOL    HW1 3932   2.241   5.160   2.577
 1011SOL    HW2 3933   2.327   5.258   2.478
 1012SOL     OW 3934   6.438   7.008   0.150
 1012SOL    HW1 3935   6.483   0.076   0.160
 1012SOL    HW2 3936   6.492   6.937   0.196
 1013SOL     OW 3937   0.636   1.122   6.181
 1013SOL    HW1 3938   0.591   1.210   6.163
 1013SOL    HW2 3939   0.730   1.125   6.146
 1014SOL     OW 3940   4.902   5.783   6.621
 1014SOL    HW1 3941   4.924   5.708   6.558
 1014SOL    HW2 3942   4.945   5.867   6.588
 1015SOL     OW 3943   2.363   6.639   5.479
 1015SOL    HW1 3944   2.336   6.630   5.575
 1015SOL    HW2 3945   2.366   6.548   5.437
 1016SOL     OW 3946   3.390   3.318   0.374
 1016SOL    HW1 3947   3.425   3.296   0.465
 1016SOL    HW2 3948   3.444   3.268   0.305
 1017SOL     OW 3949   4.565   2.996   1.227
 1017SOL    HW1 3950   4.617   2.986   1.142
 1017SOL    HW2 3951   4.468   2.980   1.208
 1018SOL     OW 3952   1.464   3.282   4.118
 1018SOL    HW1 3953   1.528   3.345   4.074
 1018SOL    HW2 3954   1.443   3.316   4.210
 1019SOL     OW 3955   0.606   0.614   6.700
 1019SOL    HW1 3956   0.673   0.553   6.656
 1019SOL    HW2 3957   0.518   0.568   6.705
 1020SOL     OW 3958   0.865   6.441   1.315
 1020SOL    HW1 3959   0.889   6.492   1.232
 1020SOL    HW2 3960   0.895   6.346   1.304
 1021SOL     OW 3961   5.685   1.357   1.185
 1021SOL    HW1 3962   5.706   1.370   1.282
 1021SOL    HW2 3963   5.757   1.399   1.130
 1022SOL     OW 3964   3.916   4.296   6.241
 1022SOL    HW1 3965   3.823   4.323   6.218
 1022SOL    HW2 3966   3.928   4.303   6.340
 1023SOL     OW 3967   0.296   6.910   1.957
 1023SOL    HW1 3968   0.376   6.854   1.979
 1023SOL    HW2 3969   0.213   6.859   1.979
 1024SOL     OW 3970   5.608   3.769   4.192
 1024SOL    HW1 3971   5.584   3.861   4.160
 1024SOL    HW2 3972   5.543   3.703   4.156
 1025SOL     OW 3973   3.583   3.440   0.517
 1025SOL    HW1 3974   3.512   3.450   0.447
 1025SOL    HW2 3975   3.542   3.405   0.601
 1026SOL     OW 3976   2.023   2.408   1.612
 1026SOL    HW1 3977   1.988   2.372   1.699
 1026SOL    HW2 3978   2.101   2.353   1.582
 1027SOL     OW 3979   2.937   5.870   1.002
 1027SOL    HW1 3980   2.956   5.960   1.043
 1027SOL    HW2 3981   2.952   5.875   0.904
 1028SOL     OW 3982   3.967   5.840   0.128
 1028SOL    HW1 3983   3.959   5.933   0.090
 1028SOL    HW2 3984   4.007   5.845   0.220
 1029SOL     OW 3985   1.322   0.496   6.917
 1029SOL    HW1 3986   1.255   0.558   6.876
 1029SOL    HW2 3987   1.315   0.406   6.874
 1030SOL     OW 3988   3.756   4.018   1.583
 1030SOL    HW1 3989   3.768   4.115   1.607
 1030SOL    HW2 3990   3.659   3.996   1.581
 1031SOL     OW 3991   5.371   5.341   0.991
 1031SOL    HW1 3992   5.339   5.269   0.931
 1031SOL    HW2 3993   5.438   5.304   1.055
 1032SOL     OW 3994   1.754   1.636   4.581
 1032SOL    HW1 3995   1.823   1.704   4.559
 1032SOL    HW2 3996   1.693   1.623   4.502
 1033SOL     OW 3997   1.459   6.490   1.068
 1033SOL    HW1 3998   1.399   6.570   1.058
 1033SOL    HW2 3999   1.529   6.492   0.997
 1034SOL     OW 4000   1.023   5.702   5.090
 1034SOL    HW1 4001   0.980   5.640   5.156
 1034SOL    HW2 4002   1.074   5.773   5.139
 1035SOL     OW 4003   1.607   0.707   3.933
 1035SOL    HW1 4004   1.691   0.737   3.978
 1035SOL    HW2 4005   1.628   0.639   3.862
 1036SOL     OW 4006   2.850   0.691   1.969
 1036SOL    HW1 4007   2.792   0.662   1.893
 1036SOL    HW2 4008   2.879   0.785   1.955
 1037SOL     OW 4009   1.979   0.658   1.462
 1037SOL    HW1 4010   2.035   0.680   1.541
 1037SOL    HW2 4011   2.001   0.566   1.430
 1038SOL     OW 4012   1.048   1.304   5.480
 1038SOL    HW1 4013   1.093   1.246   5.413
 1038SOL    HW2 4014   0.977   1.252   5.528
 1039SOL     OW 4015   3.131   3.190   5.759
 1039SOL    HW1 4016   3.210   3.247   5.781
 1039SOL    HW2 4017   3.141   3.153   5.666
 1040SOL     OW 4018   4.724   2.667   2.494
 1040SOL    HW1 4019   4.716   2.766   2.505
 1040SOL    HW2 4020   4.679   2.621   2.571
 1041SOL     OW 4021   6.474   6.837   4.008
 1041SOL    HW1 4022   6.477   6.815   3.911
 1041SOL    HW2 4023   6.382   6.868   4.033
 1042SOL     OW 4024   3.626   4.970   2.205
 1042SOL    HW1 4025   3.620   4.952   2.303
 1042SOL    HW2 4026   3.631   4.883   2.156
 1043SOL     OW 4027   4.514   1.531   5.219
 1043SOL    HW1 4028   4.424   1.575   5.222
 1043SOL    HW2 4029   4.516   1.455   5.284
 1044SOL     OW 4030   4.771   4.272   1.865
 1044SOL    HW1 4031   4.826   4.326   1.929
 1044SOL    HW2 4032   4.678   4.262   1.901
 1045SOL     OW 4033   2.858   6.159   2.732
 1045SOL    HW1 4034   2.837   6.102   2.653
 1045SOL    HW2 4035   2.956   6.157   2.749
 1046SOL     OW 4036   1.525   6.510   0.424
 1046SOL    HW1 4037   1.570   6.582   0.477
 1046SOL    HW2 4038   1.433   6.540   0.398
 1047SOL     OW 4039   1.013   6.276   2.330
 1047SOL    HW1 4040   1.001   6.330   2.246
 1047SOL    HW2 4041   0.959   6.316   2.403
 1048SOL     OW 4042   4.998   5.926   5.871
 1048SOL    HW1 4043   4.966   6.016   5.842
 1048SOL    HW2 4044   4.919   5.868   5.894
 1049SOL     OW 4045   6.668   4.814   4.433
 1049SOL    HW1 4046   6.745   4.750   4.425
 1049SOL    HW2 4047   6.591   4.768   4.478
 1050SOL     OW 4048   3.223   5.360   0.162
 1050SOL    HW1 4049   3.131   5.376   0.199
 1050SOL    HW2 4050   3.235   5.262   0.147
 1051SOL     OW 4051   2.944   5.277   1.072
 1051SOL    HW1 4052   3.039   5.272   1.040
 1051SOL    HW2 4053   2.897   5.352   1.026
 1052SOL     OW 4054   4.019   0.139   4.373
 1052SOL    HW1 4055   4.028   0.222   4.319
 1052SOL    HW2 4056   3.971   0.159   4.458
 1053SOL     OW 4057   5.282   5.285   3.167
 1053SOL    HW1 4058   5.229   5.302   3.250
 1053SOL    HW2 4059   5.223   5.248   3.096
 1054SOL     OW 4060   2.488   4.023   5.977
 1054SOL    HW1 4061   2.545   4.071   5.910
 1054SOL    HW2 4062   2.398   4.006   5.938
 1055SOL     OW 4063   6.120   6.596   4.153
 1055SOL    HW1 4064   6.027   6.629   4.138
 1055SOL    HW2 4065   6.131   6.507   4.110
 1056SOL     OW 4066   1.592   5.310   5.905
 1056SOL    HW1 4067   1.569   5.213   5.912
 1056SOL    HW2 4068   1.663   5.323   5.837
 1057SOL     OW 4069   3.680   3.145   2.735
 1057SOL    HW1 4070   3.726   3.066   2.776
 1057SOL    HW2 4071   3.713   3.158   2.642
 1058SOL     OW 4072   5.095   1.251   2.013
 1058SOL    HW1 4073   5.123   1.207   1.927
 1058SOL    HW2 4074   5.084   1.349   1.998
 1059SOL     OW 4075   2.198   0.201   0.656
 1059SOL    HW1 4076   2.261   0.204   0.734
 1059SOL    HW2 4077   2.225   0.268   0.588
 1060SOL     OW 4078   0.208   3.327   4.335
 1060SOL    HW1 4079   0.172   3.264   4.266
 1060SOL    HW2 4080   0.299   3.296   4.364
 1061SOL     OW 4081   4.996   3.909   1.742
 1061SOL    HW1 4082   4.979   3.993   1.692
 1061SOL    HW2 4083   4.935   3.903   1.821
 1062SOL     OW 4084   6.092   5.120   5.744
 1062SOL    HW1 4085   5.998   5.122   5.709
 1062SOL    HW2 4086   6.156   5.115   5.668
 1063SOL     OW 4087   1.227   4.720   1.505
 1063SOL    HW1 4088   1.273   4.808   1.516
 1063SOL    HW2 4089   1.142   4.733   1.454
 1064SOL     OW 4090   1.595   4.134   2.066
 1064SOL    HW1 4091   1.533   4.163   2.138
 1064SOL    HW2 4092   1.580   4.189   1.984
 1065SOL     OW 4093   4.409   0.595   4.575
 1065SOL    HW1 4094   4.361   0.679   4.550
 1065SOL    HW2 4095   4.491   0.585   4.518
 1066SOL     OW 4096   5.061   0.644   4.212
 1066SOL    HW1 4097   5.110   0.718   4.166
 1066SOL    HW2 4098   4.969   0.635   4.174
 1067SOL     OW 4099   1.365   3.082   6.791
 1067SOL    HW1 4100   1.313   3.112   6.871
 1067SOL    HW2 4101   1.397   2.989   6.806
 1068SOL     OW 4102   4.831   4.571   2.360
 1068SOL    HW1 4103   4.852   4.494   2.420
 1068SOL    HW2 4104   4.732   4.582   2.353
 1069SOL     OW 4105   5.045   4.771   1.180
 1069SOL    HW1 4106   5.058   4.682   1.224
 1069SOL    HW2 4107   5.074   4.844   1.243
 1070SOL     OW 4108   1.304   0.991   1.107
 1070SOL    HW1 4109   1.318   1.054   1.184
 1070SOL    HW2 4110   1.338   1.034   1.024
 1071SOL     OW 4111   3.105   6.583   3.877
 1071SOL    HW1 4112   3.131   6.548   3.787
 1071SOL    HW2 4113   3.017   6.543   3.904
 1072SOL     OW 4114   1.838   6.274   0.839
 1072SOL    HW1 4115   1.834   6.234   0.747
 1072SOL    HW2 4116   1.822   6.203   0.907
 1073SOL     OW 4117   3.322   6.532   2.809
 1073SOL    HW1 4118   3.285   6.444   2.839
 1073SOL    HW2 4119   3.366   6.520   2.720
 1074SOL     OW 4120   2.325   5.205   0.713
 1074SOL    HW1 4121   2.355   5.111   0.731
 1074SOL    HW2 4122   2.230   5.216   0.743
 1075SOL     OW 4123   4.598   6.059   3.695
 1075SOL    HW1 4124   4.612   6.012   3.783
 1075SOL    HW2 4125   4.685   6.060   3.644
 1076SOL     OW 4126   0.127   4.946   5.307
 1076SOL    HW1 4127   0.116   4.852   5.274
 1076SOL    HW2 4128   0.209   4.986   5.265
 1077SOL     OW 4129   5.825   0.292   0.615
 1077SOL    HW1 4130   5.738   0.340   0.603
 1077SOL    HW2 4131   5.885   0.310   0.537
 1078SOL     OW 4132   1.531   1.011   3.012
 1078SOL    HW1 4133   1.487   0.973   2.931
 1078SOL    HW2 4134   1.570   1.100   2.990
 1079SOL     OW 4135   1.610   5.749   2.385
 1079SOL    HW1 4136   1.631   5.652   2.394
 1079SOL    HW2 4137   1.687   5.796   2.342
 1080SOL     OW 4138   1.933   4.980   3.607
 1080SOL    HW1 4139   2.021   4.938   3.586
 1080SOL    HW2 4140   1.936   5.077   3.581
 1081SOL     OW 4141   0.414   6.662   5.955
 1081SOL    HW1 4142   0.470   6.646   5.873
 1081SOL    HW2 4143   0.325   6.699   5.928
 1082SOL     OW 4144   3.109   1.014   6.112
 1082SOL    HW1 4145   3.183   1.055   6.059
 1082SOL    HW2 4146   3.039   1.083   6.132
 1083SOL     OW 4147   4.060   3.948   1.164
 1083SOL    HW1 4148   4.029   4.013   1.233
 1083SOL    HW2 4149   4.000   3.868   1.165
 1084SOL     OW 4150   6.508   6.287   0.436
 1084SOL    HW1 4151   6.539   6.365   0.382
 1084SOL    HW2 4152   6.429   6.314   0.491
 1085SOL     OW 4153   1.507   4.339   3.586
 1085SOL    HW1 4154   1.570   4.344   3.509
 1085SOL    HW2 4155   1.443   4.416   3.583
 1086SOL     OW 4156   6.911   5.739   2.339
 1086SOL    HW1 4157   6.821   5.759   2.379
 1086SOL    HW2 4158   6.954   5.824   2.309
 1087SOL     OW 4159   6.152   2.660   5.797
 1087SOL    HW1 4160   6.140   2.605   5.714
 1087SOL    HW2 4161   6.095   2.623   5.870
 1088SOL     OW 4162   5.887   4.706   3.476
 1088SOL    HW1 4163   5.832   4.649   3.415
 1088SOL    HW2 4164   5.940   4.771   3.421
 1089SOL     OW 4165   1.228   0.452   4.454
 1089SOL    HW1 4166   1.203   0.427   4.361
 1089SOL    HW2 4167   1.277   0.376   4.497
 1090SOL     OW 4168   2.436   1.792   3.169
 1090SOL    HW1 4169   2.466   1.723   3.234
 1090SOL    HW2 4170   2.458   1.763   3.076
 1091SOL     OW 4171   1.917   3.020   4.962
 1091SOL    HW1 4172   1.995   3.031   5.023
 1091SOL    HW2 4173   1.938   2.953   4.891
 1092SOL     OW 4174   1.907   3.402   0.799
 1092SOL    HW1 4175   1.967   3.457   0.857
 1092SOL    HW2 4176   1.817   3.444   0.794
 1093SOL     OW 4177   1.902   1.938   2.423
 1093SOL    HW1 4178   1.857   2.019   2.461
 1093SOL    HW2 4179   2.001   1.945   2.440
 1094SOL     OW 4180   1.075   6.191   3.100
 1094SOL    HW1 4181   1.072   6.131   3.180
 1094SOL    HW2 4182   1.090   6.285   3.130
 1095SOL     OW 4183   0.074   2.359   5.623
 1095SOL    HW1 4184   0.096   2.375   5.720
 1095SOL    HW2 4185   0.128   2.283   5.588
 1096SOL     OW 4186   3.469   4.504   1.655
 1096SOL    HW1 4187   3.501   4.555   1.735
 1096SOL    HW2 4188   3.424   4.420   1.685
 1097SOL     OW 4189   1.382   4.427   4.083
 1097SOL    HW1 4190   1.414   4.393   3.995
 1097SOL    HW2 4191   1.424   4.516   4.102
 1098SOL     OW 4192   5.432   3.259   0.689
 1098SOL    HW1 4193   5.502   3.265   0.760
 1098SOL    HW2 4194   5.391   3.168   0.690
 1099SOL     OW 4195   4.038   1.408   4.883
 1099SOL    HW1 4196   4.028   1.500   4.845
 1099SOL    HW2 4197   3.971   1.394   4.956
 1100SOL     OW 4198   2.839   1.914   0.048
 1100SOL    HW1 4199   2.780   1.979   0.096
 1100SOL    HW2 4200   2.896   1.865   0.114
 1101SOL     OW 4201   5.863   2.543   0.772
 1101SOL    HW1 4202   5.937   2.549   0.839
 1101SOL    HW2 4203   5.890   2.590   0.688
 1102SOL     OW 4204   1.107   5.570   3.496
 1102SOL    HW1 4205   1.166   5.588   3.417
 1102SOL    HW2 4206   1.080   5.473   3.495
 1103SOL     OW 4207   3.021   1.544   0.856
 1103SOL    HW1 4208   3.102   1.568   0.803
 1103SOL    HW2 4209   3.000   1.448   0.843
 1104SOL     OW 4210   2.307   3.139   6.113
 1104SOL    HW1 4211   2.337   3.206   6.045
 1104SOL    HW2 4212   2.293   3.185   6.201
 1105SOL     OW 4213   5.493   3.816   4.625
 1105SOL    HW1 4214   5.460   3.861   4.708
 1105SOL    HW2 4215   5.593   3.820   4.623
 1106SOL     OW 4216   0.587   1.831   0.207
 1106SOL    HW1 4217   0.577   1.742   0.251
 1106SOL    HW2 4218   0.604   1.901   0.276
 1107SOL     OW 4219   0.821   0.456   6.119
 1107SOL    HW1 4220   0.796   0.403   6.038
 1107SOL    HW2 4221   0.745   0.457   6.184
 1108SOL     OW 4222   2.474   0.605   6.038
 1108SOL    HW1 4223   2.411   0.566   5.970
 1108SOL    HW2 4224   2.426   0.674   6.091
 1109SOL     OW 4225   4.546   6.199   4.917
 1109SOL    HW1 4226   4.505   6.115   4.882
 1109SOL    HW2 4227   4.496   6.228   4.999
 1110SOL     OW 4228   2.965   1.386   2.565
 1110SOL    HW1 4229   3.063   1.368   2.560
 1110SOL    HW2 4230   2.927   1.390   2.473
 1111SOL     OW 4231   5.352   5.612   0.230
 1111SOL    HW1 4232   5.314   5.704   0.221
 1111SOL    HW2 4233   5.425   5.599   0.163
 1112SOL     OW 4234   5.728   1.402   2.669
 1112SOL    HW1 4235   5.649   1.425   2.612
 1112SOL    HW2 4236   5.786   1.482   2.679
 1113SOL     OW 4237   6.877   3.517   2.596
 1113SOL    HW1 4238   6.961   3.541   2.643
 1113SOL    HW2 4239   6.853   3.590   2.531
 1114SOL     OW 4240   4.271   0.811   6.750
 1114SOL    HW1 4241   4.298   0.849   6.838
 1114SOL    HW2 4242   4.233   0.883   6.692
 1115SOL     OW 4243   4.304   3.051   0.037
 1115SOL    HW1 4244   4.338   2.990   0.109
 1115SOL    HW2 4245   4.220   3.013   7.020
 1116SOL     OW 4246   5.558   5.666   5.078
 1116SOL    HW1 4247   5.634   5.730   5.064
 1116SOL    HW2 4248   5.473   5.718   5.088
 1117SOL     OW 4249   1.936   3.243   1.322
 1117SOL    HW1 4250   1.950   3.150   1.355
 1117SOL    HW2 4251   2.009   3.266   1.257
 1118SOL     OW 4252   2.227   4.481   1.733
 1118SOL    HW1 4253   2.252   4.388   1.762
 1118SOL    HW2 4254   2.132   4.480   1.701
 1119SOL     OW 4255   4.081   4.193   1.588
 1119SOL    HW1 4256   4.025   4.133   1.531
 1119SOL    HW2 4257   4.040   4.284   1.591
 1120SOL     OW 4258   5.241   6.548   5.168
 1120SOL    HW1 4259   5.143   6.528   5.178
 1120SOL    HW2 4260   5.257   6.645   5.185
 1121SOL     OW 4261   5.167   4.246   2.280
 1121SOL    HW1 4262   5.114   4.163   2.301
 1121SOL    HW2 4263   5.178   4.300   2.363
 1122SOL     OW 4264   4.833   3.440   6.024
 1122SOL    HW1 4265   4.835   3.360   6.084
 1122SOL    HW2 4266   4.745   3.487   6.035
 1123SOL     OW 4267   5.524   1.592   2.858
 1123SOL    HW1 4268   5.447   1.609   2.797
 1123SOL    HW2 4269   5.495   1.534   2.934
 1124SOL     OW 4270   6.122   4.525   5.511
 1124SOL    HW1 4271   6.078   4.514   5.422
 1124SOL    HW2 4272   6.131   4.435   5.555
 1125SOL     OW 4273   2.888   1.726   4.664
 1125SOL    HW1 4274   2.816   1.705   4.730
 1125SOL    HW2 4275   2.969   1.758   4.713
 1126SOL     OW 4276   5.659   6.512   0.651
 1126SOL    HW1 4277   5.678   6.568   0.571
 1126SOL    HW2 4278   5.560   6.496   0.657
 1127SOL     OW 4279   4.683   5.726   5.149
 1127SOL    HW1 4280   4.773   5.716   5.106
 1127SOL    HW2 4281   4.613   5.687   5.089
 1128SOL     OW 4282   5.217   2.200   5.257
 1128SOL    HW1 4283   5.254   2.231   5.169
 1128SOL    HW2 4284   5.131   2.248   5.276
 1129SOL     OW 4285   3.612   0.264   6.652
 1129SOL    HW1 4286   3.705   0.282   6.622
 1129SOL    HW2 4287   3.613   0.220   6.742
 1130SOL     OW 4288   1.518   4.363   1.185
 1130SOL    HW1 4289   1.553   4.432   1.122
 1130SOL    HW2 4290   1.495   4.407   1.273
 1131SOL     OW 4291   0.685   6.221   5.933
 1131SOL    HW1 4292   0.597   6.267   5.930
 1131SOL    HW2 4293   0.674   6.129   5.970
 1132SOL     OW 4294   5.170   0.279   0.205
 1132SOL    HW1 4295   5.254   0.329   0.186
 1132SOL    HW2 4296   5.094   0.344   0.211
 1133SOL     OW 4297   0.464   1.080   0.696
 1133SOL    HW1 4298   0.401   1.009   0.726
 1133SOL    HW2 4299   0.419   1.138   0.627
 1134SOL     OW 4300   5.019   1.896   1.030
 1134SOL    HW1 4301   4.934   1.942   1.004
 1134SOL    HW2 4302   5.024   1.890   1.129
 1135SOL     OW 4303   2.824   1.377   2.323
 1135SOL    HW1 4304   2.742   1.332   2.289
 1135SOL    HW2 4305   2.905   1.329   2.291
 1136SOL     OW 4306   3.416   5.083   4.756
 1136SOL    HW1 4307   3.423   5.183   4.756
 1136SOL    HW2 4308   3.454   5.046   4.840
 1137SOL     OW 4309   1.111   2.246   6.794
 1137SOL    HW1 4310   1.133   2.149   6.804
 1137SOL    HW2 4311   1.158   2.283   6.715
 1138SOL     OW 4312   0.444   1.017   6.486
 1138SOL    HW1 4313   0.514   0.957   6.447
 1138SOL    HW2 4314   0.488   1.090   6.538
 1139SOL     OW 4315   2.875   5.811   1.399
 1139SOL    HW1 4316   2.962   5.857   1.418
 1139SOL    HW2 4317   2.888   5.745   1.325
 1140SOL     OW 4318   3.358   0.940   2.028
 1140SOL    HW1 4319   3.395   0.999   1.957
 1140SOL    HW2 4320   3.387   0.846   2.012
 1141SOL     OW 4321   6.367   6.469   6.342
 1141SOL    HW1 4322   6.432   6.494   6.271
 1141SOL    HW2 4323   6.383   6.525   6.423
 1142SOL     OW 4324   4.335   0.860   4.524
 1142SOL    HW1 4325   4.265   0.869   4.596
 1142SOL    HW2 4326   4.315   0.925   4.451
 1143SOL     OW 4327   2.222   2.912   2.729
 1143SOL    HW1 4328   2.293   2.841   2.721
 1143SOL    HW2 4329   2.220   2.946   2.822
 1144SOL     OW 4330   6.261   4.748   5.497
 1144SOL    HW1 4331   6.293   4.761   5.403
 1144SOL    HW2 4332   6.209   4.662   5.503
 1145SOL     OW 4333   0.247   4.843   2.624
 1145SOL    HW1 4334   0.334   4.889   2.604
 1145SOL    HW2 4335   0.219   4.863   2.717
 1146SOL     OW 4336   5.074   0.824   1.276
 1146SOL    HW1 4337   5.131   0.901   1.247
 1146SOL    HW2 4338   5.089   0.747   1.213
 1147SOL     OW 4339   1.747   4.614   0.790
 1147SOL    HW1 4340   1.838   4.585   0.820
 1147SOL    HW2 4341   1.738   4.713   0.799
 1148SOL     OW 4342   4.225   6.843   6.912
 1148SOL    HW1 4343   4.178   6.802   6.990
 1148SOL    HW2 4344   4.304   6.787   6.887
 1149SOL     OW 4345   5.936   3.852   3.398
 1149SOL    HW1 4346   6.033   3.840   3.375
 1149SOL    HW2 4347   5.916   3.804   3.483
 1150SOL     OW 4348   1.963   4.333   0.873
 1150SOL    HW1 4349   1.933   4.258   0.932
 1150SOL    HW2 4350   2.000   4.296   0.788
 1151SOL     OW 4351   4.647   5.433   0.064
 1151SOL    HW1 4352   4.637   5.346   0.113
 1151SOL    HW2 4353   4.557   5.470   0.042
 1152SOL     OW 4354   0.830   5.890   5.824
 1152SOL    HW1 4355   0.834   5.981   5.782
 1152SOL    HW2 4356   0.824   5.900   5.924
 1153SOL     OW 4357   1.994   0.188   1.799
 1153SOL    HW1 4358   1.949   0.238   1.873
 1153SOL    HW2 4359   2.080   0.234   1.776
 1154SOL     OW 4360   0.691   4.082   1.705
 1154SOL    HW1 4361   0.626   4.158   1.718
 1154SOL    HW2 4362   0.668   4.008   1.767
 1155SOL     OW 4363   2.732   4.602   0.081
 1155SOL    HW1 4364   2.808   4.543   0.052
 1155SOL    HW2 4365   2.766   4.693   0.102
 1156SOL     OW 4366   1.882   0.725   4.587
 1156SOL    HW1 4367   1.850   0.678   4.505
 1156SOL    HW2 4368   1.806   0.778   4.627
 1157SOL     OW 4369   6.370   0.855   4.928
 1157SOL    HW1 4370   6.328   0.902   5.006
 1157SOL    HW2 4371   6.383   0.921   4.854
 1158SOL     OW 4372   0.408   5.200   5.790
 1158SOL    HW1 4373   0.471   5.142   5.739
 1158SOL    HW2 4374   0.349   5.143   5.847
 1159SOL     OW 4375   5.414   0.164   3.182
 1159SOL    HW1 4376   5.350   0.118   3.121
 1159SOL    HW2 4377   5.449   0.099   3.250
 1160SOL     OW 4378   4.034   3.995   1.791
 1160SOL    HW1 4379   4.071   4.040   1.710
 1160SOL    HW2 4380   3.939   4.023   1.804
 1161SOL     OW 4381   5.108   0.418   6.145
 1161SOL    HW1 4382   5.074   0.325   6.162
 1161SOL    HW2 4383   5.156   0.420   6.056
 1162SOL     OW 4384   3.503   2.414   0.416
 1162SOL    HW1 4385   3.508   2.513   0.404
 1162SOL    HW2 4386   3.574   2.384   0.479
 1163SOL     OW 4387   6.037   3.554   1.929
 1163SOL    HW1 4388   6.060   3.465   1.889
 1163SOL    HW2 4389   5.938   3.565   1.932
 1164SOL     OW 4390   5.351   2.581   4.398
 1164SOL    HW1 4391   5.384   2.522   4.324
 1164SOL    HW2 4392   5.305   2.660   4.360
 1165SOL     OW 4393   1.813   4.501   4.258
 1165SOL    HW1 4394   1.878   4.547   4.318
 1165SOL    HW2 4395   1.843   4.407   4.242
 1166SOL     OW 4396   3.905   1.061   0.088
 1166SOL    HW1 4397   3.888   0.976   0.039
 1166SOL    HW2 4398   3.955   1.042   0.172
 1167SOL     OW 4399   3.311   6.946   6.566
 1167SOL    HW1 4400   3.322   6.941   6.665
 1167SOL    HW2 4401   3.378   6.887   6.522
 1168SOL     OW 4402   6.933   1.290   3.155
 1168SOL    HW1 4403   6.893   1.324   3.240
 1168SOL    HW2 4404   7.000   1.219   3.176
 1169SOL     OW 4405   6.154   3.137   6.722
 1169SOL    HW1 4406   6.183   3.098   6.635
 1169SOL    HW2 4407   6.234   3.162   6.777
 1170SOL     OW 4408   4.727   0.858   1.897
 1170SOL    HW1 4409   4.659   0.926   1.923
 1170SOL    HW2 4410   4.815   0.880   1.938
 1171SOL     OW 4411   2.411   6.389   6.895
 1171SOL    HW1 4412   2.318   6.415   6.871
 1171SOL    HW2 4413   2.475   6.459   6.865
 1172SOL     OW 4414   3.791   3.993   2.960
 1172SOL    HW1 4415   3.706   3.968   2.913
 1172SOL    HW2 4416   3.770   4.037   3.047
 1173SOL     OW 4417   3.166   6.999   5.689
 1173SOL    HW1 4418   3.093   6.949   5.736
 1173SOL    HW2 4419   3.168   0.072   5.723
 1174SOL     OW 4420   3.277   4.162   0.755
 1174SOL    HW1 4421   3.178   4.171   0.760
 1174SOL    HW2 4422   3.317   4.176   0.845
 1175SOL     OW 4423   4.421   3.455   6.375
 1175SOL    HW1 4424   4.351   3.394   6.339
 1175SOL    HW2 4425   4.440   3.432   6.471
 1176SOL     OW 4426   5.837   4.448   0.704
 1176SOL    HW1 4427   5.829   4.506   0.785
 1176SOL    HW2 4428   5.889   4.366   0.727
 1177SOL     OW 4429   0.093   1.384   5.635
 1177SOL    HW1 4430   0.191   1.385   5.616
 1177SOL    HW2 4431   0.042   1.386   5.549
 1178SOL     OW 4432   3.641   2.977   1.265
 1178SOL    HW1 4433   3.587   3.012   1.341
 1178SOL    HW2 4434   3.712   2.916   1.299
 1179SOL     OW 4435   2.834   5.140   0.132
 1179SOL    HW1 4436   2.783   5.221   0.102
 1179SOL    HW2 4437   2.899   5.166   0.203
 1180SOL     OW 4438   3.079   6.860   3.887
 1180SOL    HW1 4439   2.983   6.852   3.860
 1180SOL    HW2 4440   3.116   6.770   3.906
 1181SOL     OW 4441   6.980   2.930   4.709
 1181SOL    HW1 4442   6.936   2.843   4.686
 1181SOL    HW2 4443   0.051   2.932   4.669
 1182SOL     OW 4444   1.730   5.568   3.231
 1182SOL    HW1 4445   1.746   5.649   3.174
 1182SOL    HW2 4446   1.662   5.510   3.187
 1183SOL     OW 4447   3.425   6.026   1.635
 1183SOL    HW1 4448   3.397   5.946   1.582
 1183SOL    HW2 4449   3.451   5.996   1.727
 1184SOL     OW 4450   4.207   1.123   5.535
 1184SOL    HW1 4451   4.180   1.081   5.622
 1184SOL    HW2 4452   4.135   1.106   5.468
 1185SOL     OW 4453   1.652   0.294   0.326
 1185SOL    HW1 4454   1.578   0.341   0.277
 1185SOL    HW2 4455   1.740   0.323   0.287
 1186SOL     OW 4456   6.168   6.725   6.102
 1186SOL    HW1 4457   6.197   6.731   6.198
 1186SOL    HW2 4458   6.226   6.659   6.055
 1187SOL     OW 4459   5.041   5.754   5.422
 1187SOL    HW1 4460   5.069   5.783   5.514
 1187SOL    HW2 4461   5.030   5.835   5.364
 1188SOL     OW 4462   3.301   6.112   6.546
 1188SOL    HW1 4463   3.217   6.112   6.492
 1188SOL    HW2 4464   3.283   6.149   6.637
 1189SOL     OW 4465   5.500   0.337   1.998
 1189SOL    HW1 4466   5.505   0.393   1.916
 1189SOL    HW2 4467   5.562   0.374   2.067
 1190SOL     OW 4468   3.823   4.889   4.387
 1190SOL    HW1 4469   3.852   4.879   4.482
 1190SOL    HW2 4470   3.874   4.826   4.329
 1191SOL     OW 4471   4.411   6.248   5.146
 1191SOL    HW1 4472   4.453   6.208   5.227
 1191SOL    HW2 4473   4.406   6.347   5.157
 1192SOL     OW 4474   5.211   5.253   2.776
 1192SOL    HW1 4475   5.163   5.240   2.862
 1192SOL    HW2 4476   5.275   5.177   2.762
 1193SOL     OW 4477   7.011   0.281   4.945
 1193SOL    HW1 4478   6.943   0.251   4.878
 1193SOL    HW2 4479   0.034   0.365   4.913
 1194SOL     OW 4480   7.006   1.417   0.993
 1194SOL    HW1 4481   0.046   1.491   0.962
 1194SOL    HW2 4482   6.969   1.440   1.083
 1195SOL     OW 4483   6.134   3.007   1.612
 1195SOL    HW1 4484   6.043   2.965   1.614
 1195SOL    HW2 4485   6.190   2.968   1.686
 1196SOL     OW 4486   0.401   4.206   1.714
 1196SOL    HW1 4487   0.382   4.281   1.652
 1196SOL    HW2 4488   0.385   4.119   1.667
 1197SOL     OW 4489   4.246   6.733   4.704
 1197SOL    HW1 4490   4.232   6.739   4.803
 1197SOL    HW2 4491   4.320   6.668   4.685
 1198SOL     OW 4492   1.865   3.021   2.863
 1198SOL    HW1 4493   1.766   3.020   2.879
 1198SOL    HW2 4494   1.913   2.999   2.948
 1199SOL     OW 4495   3.319   2.961   3.430
 1199SOL    HW1 4496   3.373   2.880   3.410
 1199SOL    HW2 4497   3.379   3.040   3.440
 1200SOL     OW 4498   3.658   4.132   4.665
 1200SOL    HW1 4499   3.750   4.153   4.700
 1200SOL    HW2 4500   3.666   4.076   4.583
 1201SOL     OW 4501   0.402   1.531   4.073
 1201SOL    HW1 4502   0.328   1.593   4.102
 1201SOL    HW2 4503   0.374   1.437   4.090
 1202SOL     OW 4504   5.946   1.163   6.152
 1202SOL    HW1 4505   5.994   1.251   6.147
 1202SOL    HW2 4506   5.872   1.170   6.218
 1203SOL     OW 4507   6.361   6.479   1.420
 1203SOL    HW1 4508   6.275   6.490   1.469
 1203SOL    HW2 4509   6.397   6.568   1.392
 1204SOL     OW 4510   4.062   1.580   1.444
 1204SOL    HW1 4511   4.013   1.499   1.411
 1204SOL    HW2 4512   4.121   1.615   1.371
 1205SOL     OW 4513   4.245   3.210   6.239
 1205SOL    HW1 4514   4.302   3.143   6.191
 1205SOL    HW2 4515   4.211   3.277   6.174
 1206SOL     OW 4516   1.138   2.441   4.627
 1206SOL    HW1 4517   1.202   2.410   4.557
 1206SOL    HW2 4518   1.126   2.369   4.695
 1207SOL     OW 4519   0.407   6.623   0.042
 1207SOL    HW1 4520   0.340   6.698   0.046
 1207SOL    HW2 4521   0.437   6.600   0.134
 1208SOL     OW 4522   3.392   4.111   2.622
 1208SOL    HW1 4523   3.350   4.038   2.568
 1208SOL    HW2 4524   3.345   4.198   2.603
 1209SOL     OW 4525   5.620   6.722   4.976
 1209SOL    HW1 4526   5.701   6.755   4.926
 1209SOL    HW2 4527   5.560   6.672   4.913
 1210SOL     OW 4528   4.598   6.719   3.600
 1210SOL    HW1 4529   4.513   6.682   3.564
 1210SOL    HW2 4530   4.592   6.730   3.699
 1211SOL     OW 4531   1.556   3.058   3.440
 1211SOL    HW1 4532   1.583   3.053   3.344
 1211SOL    HW2 4533   1.530   3.152   3.463
 1212SOL     OW 4534   6.918   1.148   5.712
 1212SOL    HW1 4535   6.990   1.216   5.704
 1212SOL    HW2 4536   6.956   1.057   5.694
 1213SOL     OW 4537   5.585   3.021   4.238
 1213SOL    HW1 4538   5.609   2.963   4.161
 1213SOL    HW2 4539   5.665   3.035   4.296
 1214SOL     OW 4540   1.246   2.775   5.224
 1214SOL    HW1 4541   1.249   2.862   5.274
 1214SOL    HW2 4542   1.332   2.762   5.174
 1215SOL     OW 4543   1.905   5.420   2.412
 1215SOL    HW1 4544   1.953   5.428   2.325
 1215SOL    HW2 4545   1.964   5.376   2.479
 1216SOL     OW 4546   0.039   0.540   0.739
 1216SOL    HW1 4547   0.074   0.559   0.647
 1216SOL    HW2 4548   0.027   0.626   0.789
 1217SOL     OW 4549   3.090   5.726   1.613
 1217SOL    HW1 4550   3.168   5.669   1.640
 1217SOL    HW2 4551   3.016   5.667   1.581
 1218SOL     OW 4552   0.569   3.640   5.134
 1218SOL    HW1 4553   0.589   3.597   5.223
 1218SOL    HW2 4554   0.652   3.682   5.098
 1219SOL     OW 4555   4.686   5.342   1.908
 1219SOL    HW1 4556   4.765   5.295   1.947
 1219SOL    HW2 4557   4.657   5.415   1.969
 1220SOL     OW 4558   5.969   4.014   3.174
 1220SOL    HW1 4559   5.939   3.983   3.084
 1220SOL    HW2 4560   5.937   3.950   3.243
 1221SOL     OW 4561   6.072   3.943   6.069
 1221SOL    HW1 4562   6.019   3.967   6.150
 1221SOL    HW2 4563   6.013   3.944   5.989
 1222SOL     OW 4564   0.087   0.657   0.063
 1222SOL    HW1 4565   0.078   0.732   7.018
 1222SOL    HW2 4566   0.037   0.681   0.146
 1223SOL     OW 4567   4.385   1.077   0.496
 1223SOL    HW1 4568   4.470   1.041   0.536
 1223SOL    HW2 4569   4.371   1.170   0.528
 1224SOL     OW 4570   3.075   5.570   6.823
 1224SOL    HW1 4571   2.992   5.566   6.767
 1224SOL    HW2 4572   3.114   5.479   6.832
 1225SOL     OW 4573   3.844   2.480   1.259
 1225SOL    HW1 4574   3.837   2.444   1.165
 1225SOL    HW2 4575   3.755   2.472   1.304
 1226SOL     OW 4576   4.949   6.267   0.783
 1226SOL    HW1 4577   4.856   6.239   0.757
 1226SOL    HW2 4578   5.002   6.186   0.808
 1227SOL     OW 4579   5.536   5.093   6.482
 1227SOL    HW1 4580   5.634   5.095   6.504
 1227SOL    HW2 4581   5.483   5.088   6.567
 1228SOL     OW 4582   3.994   2.645   0.744
 1228SOL    HW1 4583   3.896   2.654   0.723
 1228SOL    HW2 4584   4.014   2.690   0.831
 1229SOL     OW 4585   2.064   6.044   1.082
 1229SOL    HW1 4586   2.057   5.959   1.134
 1229SOL    HW2 4587   2.125   6.107   1.130
 1230SOL     OW 4588   5.382   5.632   2.356
 1230SOL    HW1 4589   5.292   5.674   2.368
 1230SOL    HW2 4590   5.376   5.534   2.378
 1231SOL     OW 4591   1.438   2.062   5.825
 1231SOL    HW1 4592   1.346   2.025   5.837
 1231SOL    HW2 4593   1.451   2.139   5.887
 1232SOL     OW 4594   5.701   1.094   5.537
 1232SOL    HW1 4595   5.787   1.115   5.584
 1232SOL    HW2 4596   5.711   1.114   5.440
 1233SOL     OW 4597   1.068   5.769   3.691
 1233SOL    HW1 4598   0.972   5.757   3.716
 1233SOL    HW2 4599   1.099   5.691   3.637
 1234SOL     OW 4600   6.331   2.780   5.651
 1234SOL    HW1 4601   6.412   2.721   5.647
 1234SOL    HW2 4602   6.260   2.736   5.705
 1235SOL     OW 4603   6.296   4.126   1.115
 1235SOL    HW1 4604   6.353   4.070   1.056
 1235SOL    HW2 4605   6.353   4.181   1.176
 1236SOL     OW 4606   4.233   1.414   1.962
 1236SOL    HW1 4607   4.233   1.413   2.062
 1236SOL    HW2 4608   4.321   1.382   1.928
 1237SOL     OW 4609   1.515   5.748   4.788
 1237SOL    HW1 4610   1.516   5.848   4.785
 1237SOL    HW2 4611   1.459   5.713   4.713
 1238SOL     OW 4612   0.671   0.352   4.869
 1238SOL    HW1 4613   0.675   0.439   4.819
 1238SOL    HW2 4614   0.763   0.318   4.884
 1239SOL     OW 4615   6.757   6.528   5.760
 1239SOL    HW1 4616   6.740   6.440   5.715
 1239SOL    HW2 4617   6.802   6.590   5.695
 1240SOL     OW 4618   6.175   5.421   2.169
 1240SOL    HW1 4619   6.179   5.389   2.074
 1240SOL    HW2 4620   6.242   5.371   2.224
 1241SOL     OW 4621   6.507   4.797   5.238
 1241SOL    HW1 4622   6.542   4.816   5.146
 1241SOL    HW2 4623   6.502   4.699   5.252
 1242SOL     OW 4624   2.056   3.319   0.574
 1242SOL    HW1 4625   1.996   3.348   0.648
 1242SOL    HW2 4626   2.151   3.335   0.600
 1243SOL     OW 4627   0.170   1.314   4.285
 1243SOL    HW1 4628   0.075   1.335   4.307
 1243SOL    HW2 4629   0.175   1.222   4.246
 1244SOL     OW 4630   5.237   6.826   5.340
 1244SOL    HW1 4631   5.140   6.805   5.352
 1244SOL    HW2 4632   5.250   6.877   5.255
 1245SOL     OW 4633   5.744   5.354   0.502
 1245SOL    HW1 4634   5.658   5.336   0.455
 1245SOL    HW2 4635   5.744   5.306   0.590
 1246SOL     OW 4636   3.397   1.096   2.278
 1246SOL    HW1 4637   3.389   1.003   2.242
 1246SOL    HW2 4638   3.352   1.160   2.215
 1247SOL     OW 4639   5.592   6.881   5.199
 1247SOL    HW1 4640   5.544   6.964   5.172
 1247SOL    HW2 4641   5.593   6.816   5.122
 1248SOL     OW 4642   1.181   6.541   3.584
 1248SOL    HW1 4643   1.172   6.600   3.504
 1248SOL    HW2 4644   1.107   6.473   3.584
 1249SOL     OW 4645   0.445   3.544   1.760
 1249SOL    HW1 4646   0.416   3.610   1.691
 1249SOL    HW2 4647   0.544   3.550   1.773
 1250SOL     OW 4648   6.229   4.113   4.012
 1250SOL    HW1 4649   6.167   4.191   4.000
 1250SOL    HW2 4650   6.206   4.042   3.946
 1251SOL     OW 4651   2.602   0.876   2.632
 1251SOL    HW1 4652   2.671   0.923   2.687
 1251SOL    HW2 4653   2.562   0.940   2.567
 1252SOL     OW 4654   4.069   4.690   6.666
 1252SOL    HW1 4655   4.145   4.644   6.621
 1252SOL    HW2 4656   4.078   4.789   6.652
 1253SOL     OW 4657   2.407   0.225   1.911
 1253SOL    HW1 4658   2.368   0.275   1.834
 1253SOL    HW2 4659   2.507   0.238   1.912
 1254SOL     OW 4660   6.921   3.028   3.071
 1254SOL    HW1 4661   6.822   3.033   3.083
 1254SOL    HW2 4662   6.942   3.026   2.973
 1255SOL     OW 4663   5.930   2.561   5.985
 1255SOL    HW1 4664   5.844   2.513   6.001
 1255SOL    HW2 4665   5.927   2.650   6.030
 1256SOL     OW 4666   0.362   6.520   3.837
 1256SOL    HW1 4667   0.421   6.600   3.848
 1256SOL    HW2 4668   0.308   6.529   3.753
 1257SOL     OW 4669   0.160   5.086   4.318
 1257SOL    HW1 4670   0.165   5.002   4.371
 1257SOL    HW2 4671   0.091   5.147   4.357
 1258SOL     OW 4672   2.205   4.969   2.591
 1258SOL    HW1 4673   2.137   5.000   2.658
 1258SOL    HW2 4674   2.158   4.937   2.509
 1259SOL     OW 4675   3.503   6.269   5.348
 1259SOL    HW1 4676   3.545   6.180   5.370
 1259SOL    HW2 4677   3.410   6.254   5.313
 1260SOL     OW 4678   2.979   1.365   1.436
 1260SOL    HW1 4679   2.960   1.417   1.353
 1260SOL    HW2 4680   3.074   1.336   1.437
 1261SOL     OW 4681   0.154   4.356   0.263
 1261SOL    HW1 4682   0.219   4.417   0.217
 1261SOL    HW2 4683   0.095   4.313   0.195
 1262SOL     OW 4684   5.112   5.823   1.754
 1262SOL    HW1 4685   5.113   5.868   1.665
 1262SOL    HW2 4686   5.075   5.730   1.744
 1263SOL     OW 4687   6.485   1.196   1.266
 1263SOL    HW1 4688   6.411   1.133   1.292
 1263SOL    HW2 4689   6.566   1.143   1.240
 1264SOL     OW 4690   0.597   3.789   1.388
 1264SOL    HW1 4691   0.628   3.737   1.467
 1264SOL    HW2 4692   0.635   3.881   1.392
 1265SOL     OW 4693   6.478   5.287   3.900
 1265SOL    HW1 4694   6.536   5.281   3.981
 1265SOL    HW2 4695   6.451   5.195   3.871
 1266SOL     OW 4696   1.820   1.137   3.880
 1266SOL    HW1 4697   1.747   1.160   3.945
 1266SOL    HW2 4698   1.837   1.216   3.820
 1267SOL     OW 4699   5.801   6.351   0.854
 1267SOL    HW1 4700   5.734   6.354   0.928
 1267SOL    HW2 4701   5.784   6.426   0.790
 1268SOL     OW 4702   4.661   2.130   0.249
 1268SOL    HW1 4703   4.704   2.040   0.257
 1268SOL    HW2 4704   4.677   2.182   0.332
 1269SOL     OW 4705   6.533   5.892   5.654
 1269SOL    HW1 4706   6.627   5.895   5.687
 1269SOL    HW2 4707   6.528   5.938   5.565
 1270SOL     OW 4708   2.187   3.098   4.665
 1270SOL    HW1 4709   2.249   3.039   4.613
 1270SOL    HW2 4710   2.092   3.072   4.647
 1271SOL     OW 4711   3.407   1.776   3.694
 1271SOL    HW1 4712   3.498   1.759   3.731
 1271SOL    HW2 4713   3.338   1.726   3.747
 1272SOL     OW 4714   6.128   5.491   0.645
 1272SOL    HW1 4715   6.210   5.539   0.678
 1272SOL    HW2 4716   6.146   5.453   0.554
 1273SOL     OW 4717   1.195   4.453   0.318
 1273SOL    HW1 4718   1.294   4.468   0.325
 1273SOL    HW2 4719   1.175   4.406   0.232
 1274SOL     OW 4720   6.275   2.899   1.398
 1274SOL    HW1 4721   6.290   2.954   1.315
 1274SOL    HW2 4722   6.231   2.955   1.468
 1275SOL     OW 4723   3.768   0.120   4.123
 1275SOL    HW1 4724   3.782   0.079   4.033
 1275SOL    HW2 4725   3.841   0.185   4.143
 1276SOL     OW 4726   0.162   0.979   4.401
 1276SOL    HW1 4727   0.227   0.938   4.337
 1276SOL    HW2 4728   0.071   0.978   4.360
 1277SOL     OW 4729   1.245   0.073   5.533
 1277SOL    HW1 4730   1.228   0.061   5.631
 1277SOL    HW2 4731   1.314   0.007   5.503
 1278SOL     OW 4732   1.212   0.684   4.864
 1278SOL    HW1 4733   1.252   0.740   4.937
 1278SOL    HW2 4734   1.128   0.642   4.898
 1279SOL     OW 4735   3.497   5.129   6.858
 1279SOL    HW1 4736   3.571   5.188   6.892
 1279SOL    HW2 4737   3.535   5.041   6.830
 1280SOL     OW 4738   3.823   5.800   3.968
 1280SOL    HW1 4739   3.756   5.872   3.951
 1280SOL    HW2 4740   3.776   5.713   3.979
 1281SOL     OW 4741   0.851   5.531   2.675
 1281SOL    HW1 4742   0.835   5.525   2.577
 1281SOL    HW2 4743   0.834   5.624   2.707
 1282SOL     OW 4744   0.077   0.869   6.473
 1282SOL    HW1 4745   0.138   0.941   6.439
 1282SOL    HW2 4746   0.039   0.818   6.396
 1283SOL     OW 4747   5.417   3.142   5.064
 1283SOL    HW1 4748   5.509   3.119   5.097
 1283SOL    HW2 4749   5.359   3.061   5.069
 1284SOL     OW 4750   4.361   2.440   1.912
 1284SOL    HW1 4751   4.433   2.484   1.967
 1284SOL    HW2 4752   4.300   2.389   1.973
 1285SOL     OW 4753   5.220   3.282   5.897
 1285SOL    HW1 4754   5.273   3.298   5.814
 1285SOL    HW2 4755   5.265   3.326   5.975
 1286SOL     OW 4756   5.129   4.033   2.732
 1286SOL    HW1 4757   5.123   4.044   2.831
 1286SOL    HW2 4758   5.214   3.985   2.709
 1287SOL     OW 4759   4.578   3.945   5.477
 1287SOL    HW1 4760   4.631   3.898   5.406
 1287SOL    HW2 4761   4.492   3.978   5.438
 1288SOL     OW 4762   6.160   3.397   0.361
 1288SOL    HW1 4763   6.104   3.377   0.281
 1288SOL    HW2 4764   6.116   3.359   0.443
 1289SOL     OW 4765   0.177   5.934   1.057
 1289SOL    HW1 4766   0.080   5.909   1.058
 1289SOL    HW2 4767   0.197   5.991   1.137
 1290SOL     OW 4768   1.074   0.271   6.868
 1290SOL    HW1 4769   1.086   0.310   6.959
 1290SOL    HW2 4770   1.153   0.214   6.845
 1291SOL     OW 4771   0.083   3.329   5.819
 1291SOL    HW1 4772   0.113   3.351   5.912
 1291SOL    HW2 4773   7.006   3.308   5.820
 1292SOL     OW 4774   6.073   5.807   2.705
 1292SOL    HW1 4775   6.151   5.837   2.761
 1292SOL    HW2 4776   6.095   5.822   2.609
 1293SOL     OW 4777   1.232   1.468   6.455
 1293SOL    HW1 4778   1.206   1.544   6.396
 1293SOL    HW2 4779   1.278   1.398   6.400
 1294SOL     OW 4780   1.587   3.527   0.135
 1294SOL    HW1 4781   1.494   3.502   0.110
 1294SOL    HW2 4782   1.589   3.624   0.162
 1295SOL     OW 4783   6.855   3.925   2.619
 1295SOL    HW1 4784   6.799   4.008   2.616
 1295SOL    HW2 4785   6.822   3.860   2.550
 1296SOL     OW 4786   3.563   0.014   6.089
 1296SOL    HW1 4787   3.511   0.046   6.168
 1296SOL    HW2 4788   3.633   0.081   6.066
 1297SOL     OW 4789   5.908   0.658   6.833
 1297SOL    HW1 4790   6.000   0.622   6.847
 1297SOL    HW2 4791   5.841   0.586   6.849
 1298SOL     OW 4792   6.680   4.547   3.373
 1298SOL    HW1 4793   6.676   4.588   3.464
 1298SOL    HW2 4794   6.694   4.619   3.305
 1299SOL     OW 4795   0.260   4.124   2.870
 1299SOL    HW1 4796   0.268   4.179   2.787
 1299SOL    HW2 4797   0.262   4.184   2.950
 1300SOL     OW 4798   3.540   4.152   1.996
 1300SOL    HW1 4799   3.469   4.085   2.018
 1300SOL    HW2 4800   3.614   4.144   2.062
 1301SOL     OW 4801   0.264   5.560   1.944
 1301SOL    HW1 4802   0.262   5.600   2.036
 1301SOL    HW2 4803   0.325   5.480   1.944
 1302SOL     OW 4804   3.378   0.012   5.366
 1302SOL    HW1 4805   3.298   0.066   5.391
 1302SOL    HW2 4806   3.380   7.019   5.267
 1303SOL     OW 4807   4.569   1.638   1.395
 1303SOL    HW1 4808   4.658   1.602   1.368
 1303SOL    HW2 4809   4.530   1.580   1.467
 1304SOL     OW 4810   1.039   1.252   6.648
 1304SOL    HW1 4811   1.082   1.280   6.734
 1304SOL    HW2 4812   1.060   1.319   6.577
 1305SOL     OW 4813   4.777   3.504   6.873
 1305SOL    HW1 4814   4.811   3.585   6.824
 1305SOL    HW2 4815   4.712   3.534   6.944
 1306SOL     OW 4816   0.842   3.873   5.780
 1306SOL    HW1 4817   0.804   3.943   5.719
 1306SOL    HW2 4818   0.939   3.892   5.794
 1307SOL     OW 4819   1.639   3.099   4.947
 1307SOL    HW1 4820   1.737   3.086   4.956
 1307SOL    HW2 4821   1.621   3.186   4.900
 1308SOL     OW 4822   4.140   5.520   4.782
 1308SOL    HW1 4823   4.089   5.467   4.849
 1308SOL    HW2 4824   4.217   5.465   4.748
 1309SOL     OW 4825   5.292   3.014   5.712
 1309SOL    HW1 4826   5.332   3.104   5.731
 1309SOL    HW2 4827   5.315   2.986   5.619
 1310SOL     OW 4828   0.317   4.018   4.922
 1310SOL    HW1 4829   0.387   4.035   4.853
 1310SOL    HW2 4830   0.326   3.924   4.956
 1311SOL     OW 4831   6.832   0.555   3.833
 1311SOL    HW1 4832   6.858   0.629   3.772
 1311SOL    HW2 4833   6.904   0.485   3.833
 1312SOL     OW 4834   0.950   0.071   6.401
 1312SOL    HW1 4835   0.945   0.080   6.301
 1312SOL    HW2 4836   0.905   0.149   6.444
 1313SOL     OW 4837   1.642   4.914   4.337
 1313SOL    HW1 4838   1.626   4.955   4.247
 1313SOL    HW2 4839   1.685   4.981   4.398
 1314SOL     OW 4840   3.390   1.615   5.782
 1314SOL    HW1 4841   3.450   1.650   5.710
 1314SOL    HW2 4842   3.371   1.518   5.766
 1315SOL     OW 4843   0.396   0.934   0.420
 1315SOL    HW1 4844   0.454   1.002   0.375
 1315SOL    HW2 4845   0.448   0.849   0.432
 1316SOL     OW 4846   2.834   6.414   4.587
 1316SOL    HW1 4847   2.771   6.447   4.517
 1316SOL    HW2 4848   2.836   6.314   4.585
 1317SOL     OW 4849   1.143   4.005   4.169
 1317SOL    HW1 4850   1.071   3.976   4.106
 1317SOL    HW2 4851   1.166   3.930   4.231
 1318SOL     OW 4852   0.309   1.215   0.510
 1318SOL    HW1 4853   0.299   1.289   0.443
 1318SOL    HW2 4854   0.329   1.129   0.462
 1319SOL     OW 4855   7.001   0.743   0.292
 1319SOL    HW1 4856   6.907   0.711   0.301
 1319SOL    HW2 4857   7.009   0.835   0.333
 1320SOL     OW 4858   5.732   4.217   0.397
 1320SOL    HW1 4859   5.738   4.310   0.432
 1320SOL    HW2 4860   5.789   4.209   0.315
 1321SOL     OW 4861   4.490   2.203   6.380
 1321SOL    HW1 4862   4.502   2.103   6.378
 1321SOL    HW2 4863   4.533   2.239   6.463
 1322SOL     OW 4864   4.352   0.333   3.785
 1322SOL    HW1 4865   4.432   0.316   3.728
 1322SOL    HW2 4866   4.381   0.370   3.874
 1323SOL     OW 4867   5.350   2.012   4.822
 1323SOL    HW1 4868   5.422   2.018   4.753
 1323SOL    HW2 4869   5.370   2.075   4.897
 1324SOL     OW 4870   0.860   2.713   0.658
 1324SOL    HW1 4871   0.802   2.648   0.707
 1324SOL    HW2 4872   0.863   2.800   0.708
 1325SOL     OW 4873   1.668   6.804   2.259
 1325SOL    HW1 4874   1.667   6.880   2.324
 1325SOL    HW2 4875   1.697   6.838   2.170
 1326SOL     OW 4876   4.751   2.937   4.963
 1326SOL    HW1 4877   4.705   3.018   4.929
 1326SOL    HW2 4878   4.807   2.897   4.890
 1327SOL     OW 4879   2.395   4.789   2.121
 1327SOL    HW1 4880   2.482   4.740   2.110
 1327SOL    HW2 4881   2.325   4.743   2.067
 1328SOL     OW 4882   1.511   2.434   0.921
 1328SOL    HW1 4883   1.583   2.491   0.960
 1328SOL    HW2 4884   1.552   2.351   0.883
 1329SOL     OW 4885   0.900   2.284   0.534
 1329SOL    HW1 4886   0.809   2.307   0.567
 1329SOL    HW2 4887   0.893   2.238   0.445
 1330SOL     OW 4888   6.738   1.281   1.699
 1330SOL    HW1 4889   6.667   1.230   1.748
 1330SOL    HW2 4890   6.700   1.320   1.616
 1331SOL     OW 4891   5.227   2.288   3.370
 1331SOL    HW1 4892   5.210   2.233   3.453
 1331SOL    HW2 4893   5.161   2.262   3.299
 1332SOL     OW 4894   3.075   0.254   0.193
 1332SOL    HW1 4895   3.011   0.190   0.235
 1332SOL    HW2 4896   3.072   0.243   0.093
 1333SOL     OW 4897   3.185   3.526   6.389
 1333SOL    HW1 4898   3.204   3.620   6.360
 1333SOL    HW2 4899   3.129   3.480   6.320
 1334SOL     OW 4900   0.098   2.355   4.825
 1334SOL    HW1 4901   0.043   2.432   4.792
 1334SOL    HW2 4902   0.182   2.348   4.771
 1335SOL     OW 4903   2.787   0.644   3.158
 1335SOL    HW1 4904   2.859   0.594   3.110
 1335SOL    HW2 4905   2.775   0.733   3.114
 1336SOL     OW 4906   1.685   1.146   6.794
 1336SOL    HW1 4907   1.675   1.059   6.842
 1336SOL    HW2 4908   1.692   1.220   6.861
 1337SOL     OW 4909   1.508   1.121   4.873
 1337SOL    HW1 4910   1.486   1.190   4.942
 1337SOL    HW2 4911   1.432   1.114   4.808
 1338SOL     OW 4912   5.136   2.591   6.268
 1338SOL    HW1 4913   5.235   2.600   6.282
 1338SOL    HW2 4914   5.120   2.531   6.189
 1339SOL     OW 4915   0.291   0.207   0.054
 1339SOL    HW1 4916   0.303   0.299   0.015
 1339SOL    HW2 4917   0.235   0.152   7.013
 1340SOL     OW 4918   0.449   1.726   1.895
 1340SOL    HW1 4919   0.439   1.715   1.994
 1340SOL    HW2 4920   0.358   1.736   1.854
 1341SOL     OW 4921   4.734   0.942   5.777
 1341SOL    HW1 4922   4.670   0.929   5.701
 1341SOL    HW2 4923   4.772   0.854   5.804
 1342SOL     OW 4924   1.451   4.777   6.054
 1342SOL    HW1 4925   1.365   4.828   6.058
 1342SOL    HW2 4926   1.437   4.685   6.092
 1343SOL     OW 4927   4.101   5.967   2.508
 1343SOL    HW1 4928   4.040   5.895   2.541
 1343SOL    HW2 4929   4.120   6.031   2.582
 1344SOL     OW 4930   6.778   4.321   3.888
 1344SOL    HW1 4931   6.813   4.243   3.939
 1344SOL    HW2 4932   6.741   4.291   3.800
 1345SOL     OW 4933   1.959   1.774   3.426
 1345SOL    HW1 4934   1.940   1.860   3.473
 1345SOL    HW2 4935   2.029   1.789   3.356
 1346SOL     OW 4936   1.161   6.962   3.242
 1346SOL    HW1 4937   1.222   0.003   3.292
 1346SOL    HW2 4938   1.172   6.975   3.144
 1347SOL     OW 4939   6.252   6.261   4.527
 1347SOL    HW1 4940   6.202   6.256   4.441
 1347SOL    HW2 4941   6.187   6.268   4.603
 1348SOL     OW 4942   5.234   4.946   3.275
 1348SOL    HW1 4943   5.142   4.957   3.237
 1348SOL    HW2 4944   5.299   5.000   3.221
 1349SOL     OW 4945   4.950   2.097   6.400
 1349SOL    HW1 4946   5.003   2.065   6.322
 1349SOL    HW2 4947   5.006   2.159   6.455
 1350SOL     OW 4948   4.335   4.029   6.151
 1350SOL    HW1 4949   4.366   4.124   6.143
 1350SOL    HW2 4950   4.245   4.020   6.108
 1351SOL     OW 4951   6.972   2.313   3.124
 1351SOL    HW1 4952   6.890   2.371   3.118
 1351SOL    HW2 4953   6.975   2.267   3.212
 1352SOL     OW 4954   0.008   0.379   3.472
 1352SOL    HW1 4955   6.968   0.305   3.446
 1352SOL    HW2 4956   0.102   0.345   3.478
 1353SOL     OW 4957   6.170   4.502   5.786
 1353SOL    HW1 4958   6.102   4.518   5.858
 1353SOL    HW2 4959   6.139   4.545   5.701
 1354SOL     OW 4960   0.687   1.579   0.355
 1354SOL    HW1 4961   0.712   1.663   0.403
 1354SOL    HW2 4962   0.637   1.519   0.417
 1355SOL     OW 4963   5.998   2.358   5.389
 1355SOL    HW1 4964   5.899   2.350   5.374
 1355SOL    HW2 4965   6.046   2.337   5.304
 1356SOL     OW 4966   3.104   3.054   3.729
 1356SOL    HW1 4967   3.080   3.018   3.639
 1356SOL    HW2 4968   3.198   3.086   3.729
 1357SOL     OW 4969   1.886   4.708   5.512
 1357SOL    HW1 4970   1.979   4.686   5.482
 1357SOL    HW2 4971   1.889   4.748   5.603
 1358SOL     OW 4972   4.112   1.373   5.623
 1358SOL    HW1 4973   4.162   1.288   5.607
 1358SOL    HW2 4974   4.018   1.364   5.589
 1359SOL     OW 4975   0.391   4.665   1.394
 1359SOL    HW1 4976   0.479   4.678   1.349
 1359SOL    HW2 4977   0.358   4.753   1.428
 1360SOL     OW 4978   4.107   3.830   2.076
 1360SOL    HW1 4979   4.195   3.791   2.103
 1360SOL    HW2 4980   4.050   3.843   2.158
 1361SOL     OW 4981   0.556   5.838   5.626
 1361SOL    HW1 4982   0.586   5.794   5.711
 1361SOL    HW2 4983   0.533   5.768   5.558
 1362SOL     OW 4984   3.204   4.005   3.934
 1362SOL    HW1 4985   3.248   4.004   4.024
 1362SOL    HW2 4986   3.110   3.971   3.942
 1363SOL     OW 4987   6.118   5.889   3.514
 1363SOL    HW1 4988   6.074   5.939   3.439
 1363SOL    HW2 4989   6.103   5.791   3.503
 1364SOL     OW 4990   0.167   2.281   0.273
 1364SOL    HW1 4991   0.080   2.233   0.276
 1364SOL    HW2 4992   0.172   2.337   0.190
 1365SOL     OW 4993   0.894   3.047   5.454
 1365SOL    HW1 4994   0.819   3.064   5.390
 1365SOL    HW2 4995   0.882   3.103   5.536
 1366SOL     OW 4996   1.192   4.273   0.086
 1366SOL    HW1 4997   1.182   4.306   7.013
 1366SOL    HW2 4998   1.287   4.248   0.102
 1367SOL     OW 4999   1.375   5.494   2.452
 1367SOL    HW1 5000   1.461   5.455   2.483
 1367SOL    HW2 5001   1.302   5.426   2.462
 1368SOL     OW 5002   6.897   7.006   3.261
 1368SOL    HW1 5003   6.901   0.012   3.165
 1368SOL    HW2 5004   6.844   6.921   3.270
 1369SOL     OW 5005   1.855   0.345   2.325
 1369SOL    HW1 5006   1.904   0.410   2.383
 1369SOL    HW2 5007   1.758   0.347   2.348
 1370SOL     OW 5008   5.131   1.456   3.926
 1370SOL    HW1 5009   5.057   1.395   3.897
 1370SOL    HW2 5010   5.122   1.475   4.024
 1371SOL     OW 5011   5.633   1.447   4.749
 1371SOL    HW1 5012   5.647   1.531   4.696
 1371SOL    HW2 5013   5.655   1.368   4.692
 1372SOL     OW 5014   0.988   2.006   0.652
 1372SOL    HW1 5015   1.039   2.051   0.578
 1372SOL    HW2 5016   1.049   1.945   0.702
 1373SOL     OW 5017   4.363   2.101   0.571
 1373SOL    HW1 5018   4.376   2.016   0.520
 1373SOL    HW2 5019   4.316   2.081   0.657
 1374SOL     OW 5020   4.361   2.387   1.099
 1374SOL    HW1 5021   4.353   2.478   1.140
 1374SOL    HW2 5022   4.457   2.369   1.077
 1375SOL     OW 5023   6.934   6.895   6.306
 1375SOL    HW1 5024   7.004   6.938   6.248
 1375SOL    HW2 5025   6.847   6.945   6.295
 1376SOL     OW 5026   4.255   4.784   4.971
 1376SOL    HW1 5027   4.164   4.804   5.007
 1376SOL    HW2 5028   4.284   4.693   5.003
 1377SOL     OW 5029   0.995   3.843   3.558
 1377SOL    HW1 5030   1.028   3.929   3.595
 1377SOL    HW2 5031   1.069   3.796   3.509
 1378SOL     OW 5032   6.006   2.394   4.805
 1378SOL    HW1 5033   5.906   2.386   4.797
 1378SOL    HW2 5034   6.047   2.303   4.808
 1379SOL     OW 5035   4.469   6.195   3.245
 1379SOL    HW1 5036   4.445   6.159   3.335
 1379SOL    HW2 5037   4.387   6.199   3.188
 1380SOL     OW 5038   0.592   6.435   3.545
 1380SOL    HW1 5039   0.544   6.366   3.599
 1380SOL    HW2 5040   0.637   6.392   3.467
 1381SOL     OW 5041   5.709   1.646   0.292
 1381SOL    HW1 5042   5.632   1.663   0.231
 1381SOL    HW2 5043   5.750   1.733   0.319
 1382SOL     OW 5044   5.755   3.355   1.448
 1382SOL    HW1 5045   5.765   3.369   1.350
 1382SOL    HW2 5046   5.671   3.398   1.480
 1383SOL     OW 5047   1.045   0.588   1.648
 1383SOL    HW1 5048   1.099   0.584   1.563
 1383SOL    HW2 5049   0.948   0.601   1.625
 1384SOL     OW 5050   4.341   0.845   1.936
 1384SOL    HW1 5051   4.402   0.786   1.882
 1384SOL    HW2 5052   4.391   0.927   1.963
 1385SOL     OW 5053   2.704   5.056   3.666
 1385SOL    HW1 5054   2.724   5.010   3.752
 1385SOL    HW2 5055   2.787   5.101   3.632
 1386SOL     OW 5056   3.104   1.213   4.410
 1386SOL    HW1 5057   3.035   1.141   4.412
 1386SOL    HW2 5058   3.094   1.267   4.327
 1387SOL     OW 5059   3.977   5.250   2.585
 1387SOL    HW1 5060   3.995   5.308   2.664
 1387SOL    HW2 5061   4.032   5.166   2.592
 1388SOL     OW 5062   6.637   0.446   3.016
 1388SOL    HW1 5063   6.579   0.526   2.998
 1388SOL    HW2 5064   6.634   0.385   2.937
 1389SOL     OW 5065   6.429   0.930   4.068
 1389SOL    HW1 5066   6.453   0.978   4.152
 1389SOL    HW2 5067   6.478   0.843   4.063
 1390SOL     OW 5068   6.993   3.055   6.514
 1390SOL    HW1 5069   6.990   3.087   6.420
 1390SOL    HW2 5070   6.911   3.085   6.563
 1391SOL     OW 5071   6.063   6.506   4.932
 1391SOL    HW1 5072   6.144   6.447   4.927
 1391SOL    HW2 5073   6.020   6.510   4.842
 1392SOL     OW 5074   5.677   6.386   5.732
 1392SOL    HW1 5075   5.757   6.339   5.767
 1392SOL    HW2 5076   5.702   6.480   5.707
 1393SOL     OW 5077   6.716   4.237   6.047
 1393SOL    HW1 5078   6.774   4.172   6.095
 1393SOL    HW2 5079   6.646   4.271   6.109
 1394SOL     OW 5080   3.575   5.287   5.506
 1394SOL    HW1 5081   3.575   5.366   5.568
 1394SOL    HW2 5082   3.669   5.256   5.491
 1395SOL     OW 5083   2.285   4.784   5.025
 1395SOL    HW1 5084   2.379   4.796   4.993
 1395SOL    HW2 5085   2.248   4.699   4.989
 1396SOL     OW 5086   0.532   1.639   5.011
 1396SOL    HW1 5087   0.453   1.635   5.073
 1396SOL    HW2 5088   0.505   1.604   4.921
 1397SOL     OW 5089   0.640   6.920   4.581
 1397SOL    HW1 5090   0.588   6.850   4.532
 1397SOL    HW2 5091   0.713   6.877   4.633
 1398SOL     OW 5092   3.016   1.069   6.727
 1398SOL    HW1 5093   2.921   1.098   6.736
 1398SOL    HW2 5094   3.076   1.136   6.771
 1399SOL     OW 5095   4.000   5.219   1.104
 1399SOL    HW1 5096   4.057   5.299   1.085
 1399SOL    HW2 5097   4.018   5.148   1.036
 1400SOL     OW 5098   6.948   1.722   4.052
 1400SOL    HW1 5099   6.942   1.752   3.956
 1400SOL    HW2 5100   6.893   1.783   4.109
 1401SOL     OW 5101   6.509   0.437   4.668
 1401SOL    HW1 5102   6.547   0.345   4.677
 1401SOL    HW2 5103   6.466   0.463   4.754
 1402SOL     OW 5104   6.025   3.875   6.470
 1402SOL    HW1 5105   6.104   3.933   6.450
 1402SOL    HW2 5106   6.028   3.794   6.412
 1403SOL     OW 5107   2.146   2.013   1.446
 1403SOL    HW1 5108   2.100   1.979   1.364
 1403SOL    HW2 5109   2.121   1.955   1.524
 1404SOL     OW 5110   6.414   6.974   6.907
 1404SOL    HW1 5111   6.354   0.016   6.858
 1404SOL    HW2 5112   6.427   7.008   7.000
 1405SOL     OW 5113   2.484   3.526   0.826
 1405SOL    HW1 5114   2.569   3.570   0.852
 1405SOL    HW2 5115   2.469   3.445   0.884
 1406SOL     OW 5116   0.664   5.503   0.687
 1406SOL    HW1 5117   0.669   5.577   0.754
 1406SOL    HW2 5118   0.570   5.494   0.654
 1407SOL     OW 5119   0.415   3.724   2.738
 1407SOL    HW1 5120   0.336   3.765   2.784
 1407SOL    HW2 5121   0.478   3.797   2.710
 1408SOL     OW 5122   5.609   1.109   5.823
 1408SOL    HW1 5123   5.630   1.102   5.726
 1408SOL    HW2 5124   5.691   1.091   5.877
 1409SOL     OW 5125   6.817   0.539   4.803
 1409SOL    HW1 5126   6.779   0.458   4.759
 1409SOL    HW2 5127   6.787   0.543   4.898
 1410SOL     OW 5128   1.705   4.126   5.914
 1410SOL    HW1 5129   1.711   4.083   5.823
 1410SOL    HW2 5130   1.642   4.075   5.971
 1411SOL     OW 5131   3.859   6.958   0.476
 1411SOL    HW1 5132   3.912   6.886   0.520
 1411SOL    HW2 5133   3.835   6.929   0.383
 1412SOL     OW 5134   1.520   2.159   0.807
 1412SOL    HW1 5135   1.431   2.147   0.764
 1412SOL    HW2 5136   1.533   2.090   0.878
 1413SOL     OW 5137   1.970   2.028   5.111
 1413SOL    HW1 5138   1.881   1.997   5.143
 1413SOL    HW2 5139   2.042   1.980   5.161
 1414SOL     OW 5140   2.863   1.417   1.694
 1414SOL    HW1 5141   2.799   1.340   1.702
 1414SOL    HW2 5142   2.934   1.395   1.627
 1415SOL     OW 5143   2.090   1.147   4.508
 1415SOL    HW1 5144   2.045   1.127   4.421
 1415SOL    HW2 5145   2.092   1.246   4.522
 1416SOL     OW 5146   4.610   4.998   3.976
 1416SOL    HW1 5147   4.647   4.949   3.897
 1416SOL    HW2 5148   4.606   4.937   4.055
 1417SOL     OW 5149   3.329   2.191   0.524
 1417SOL    HW1 5150   3.232   2.214   0.529
 1417SOL    HW2 5151   3.382   2.273   0.503
 1418SOL     OW 5152   3.460   4.111   3.019
 1418SOL    HW1 5153   3.523   4.127   3.095
 1418SOL    HW2 5154   3.499   4.043   2.957
 1419SOL     OW 5155   2.855   5.482   3.374
 1419SOL    HW1 5156   2.785   5.463   3.306
 1419SOL    HW2 5157   2.925   5.541   3.334
 1420SOL     OW 5158   1.767   6.478   1.757
 1420SOL    HW1 5159   1.769   6.571   1.721
 1420SOL    HW2 5160   1.847   6.428   1.725
 1421SOL     OW 5161   2.379   5.003   3.205
 1421SOL    HW1 5162   2.409   4.935   3.139
 1421SOL    HW2 5163   2.435   5.085   3.197
 1422SOL     OW 5164   1.057   4.002   6.955
 1422SOL    HW1 5165   1.136   3.983   6.897
 1422SOL    HW2 5166   1.050   3.931   0.004
 1423SOL     OW 5167   5.200   6.658   3.968
 1423SOL    HW1 5168   5.154   6.656   4.057
 1423SOL    HW2 5169   5.141   6.705   3.902
 1424SOL     OW 5170   6.812   4.471   6.879
 1424SOL    HW1 5171   6.733   4.411   6.885
 1424SOL    HW2 5172   6.798   4.539   6.808
 1425SOL     OW 5173   2.098   5.721   5.284
 1425SOL    HW1 5174   2.102   5.703   5.186
 1425SOL    HW2 5175   2.110   5.636   5.334
 1426SOL     OW 5176   2.476   3.377   6.729
 1426SOL    HW1 5177   2.502   3.409   6.820
 1426SOL    HW2 5178   2.409   3.303   6.737
 1427SOL     OW 5179   0.028   0.124   3.683
 1427SOL    HW1 5180   0.025   0.206   3.741
 1427SOL    HW2 5181   6.998   0.140   3.599
 1428SOL     OW 5182   0.583   2.340   6.814
 1428SOL    HW1 5183   0.565   2.413   6.747
 1428SOL    HW2 5184   0.677   2.348   6.848
 1429SOL     OW 5185   4.550   1.490   0.176
 1429SOL    HW1 5186   4.504   1.438   0.104
 1429SOL    HW2 5187   4.606   1.562   0.135
 1430SOL     OW 5188   1.645   5.245   4.263
 1430SOL    HW1 5189   1.671   5.321   4.322
 1430SOL    HW2 5190   1.546   5.245   4.249
 1431SOL     OW 5191   3.215   2.168   0.019
 1431SOL    HW1 5192   3.227   2.213   6.952
 1431SOL    HW2 5193   3.273   2.211   0.087
 1432SOL     OW 5194   2.669   1.761   1.886
 1432SOL    HW1 5195   2.713   1.845   1.856
 1432SOL    HW2 5196   2.574   1.760   1.854
 1433SOL     OW 5197   4.774   0.045   5.537
 1433SOL    HW1 5198   4.858   0.049   5.590
 1433SOL    HW2 5199   4.712   6.998   5.578
 1434SOL     OW 5200   1.174   0.220   6.032
 1434SOL    HW1 5201   1.113   0.296   6.011
 1434SOL    HW2 5202   1.129   0.158   6.096
 1435SOL     OW 5203   0.052   6.886   3.453
 1435SOL    HW1 5204   0.143   6.900   3.415
 1435SOL    HW2 5205   7.008   6.948   3.408
 1436SOL     OW 5206   5.325   4.007   6.240
 1436SOL    HW1 5207   5.250   3.980   6.300
 1436SOL    HW2 5208   5.408   4.020   6.295
 1437SOL     OW 5209   2.928   2.163   5.165
 1437SOL    HW1 5210   3.004   2.202   5.113
 1437SOL    HW2 5211   2.948   2.169   5.263
 1438SOL     OW 5212   2.278   6.559   1.638
 1438SOL    HW1 5213   2.299   6.655   1.658
 1438SOL    HW2 5214   2.202   6.555   1.572
 1439SOL     OW 5215   6.600   5.301   0.918
 1439SOL    HW1 5216   6.688   5.308   0.966
 1439SOL    HW2 5217   6.548   5.225   0.957
 1440SOL     OW 5218   3.548   3.403   6.332
 1440SOL    HW1 5219   3.580   3.470   6.266
 1440SOL    HW2 5220   3.448   3.410   6.341
 1441SOL     OW 5221   6.390   1.069   3.551
 1441SOL    HW1 5222   6.339   1.104   3.629
 1441SOL    HW2 5223   6.455   1.000   3.582
 1442SOL     OW 5224   6.850   5.966   6.851
 1442SOL    HW1 5225   6.773   6.027   6.870
 1442SOL    HW2 5226   6.933   6.005   6.890
 1443SOL     OW 5227   0.737   3.017   3.969
 1443SOL    HW1 5228   0.717   3.083   4.041
 1443SOL    HW2 5229   0.666   2.946   3.968
 1444SOL     OW 5230   5.163   5.540   1.185
 1444SOL    HW1 5231   5.190   5.595   1.264
 1444SOL    HW2 5232   5.064   5.535   1.180
 1445SOL     OW 5233   0.686   3.195   2.520
 1445SOL    HW1 5234   0.638   3.283   2.526
 1445SOL    HW2 5235   0.706   3.162   2.613
 1446SOL     OW 5236   5.346   2.279   0.252
 1446SOL    HW1 5237   5.331   2.374   0.223
 1446SOL    HW2 5238   5.257   2.237   0.271
 1447SOL     OW 5239   5.785   0.014   4.996
 1447SOL    HW1 5240   5.696   0.018   5.040
 1447SOL    HW2 5241   5.854   0.053   5.057
 1448SOL     OW 5242   0.004   2.276   5.256
 1448SOL    HW1 5243   0.012   2.348   5.326
 1448SOL    HW2 5244   7.004   2.189   5.301
 1449SOL     OW 5245   1.049   1.341   6.942
 1449SOL    HW1 5246   0.996   1.425   6.952
 1449SOL    HW2 5247   0.993   1.262   6.966
 1450SOL     OW 5248   0.971   2.484   1.519
 1450SOL    HW1 5249   0.963   2.541   1.437
 1450SOL    HW2 5250   0.953   2.388   1.495
 1451SOL     OW 5251   1.348   6.978   1.844
 1451SOL    HW1 5252   1.408   6.917   1.896
 1451SOL    HW2 5253   1.275   6.925   1.801
 1452SOL     OW 5254   4.334   1.360   4.573
 1452SOL    HW1 5255   4.328   1.355   4.672
 1452SOL    HW2 5256   4.298   1.448   4.541
 1453SOL     OW 5257   6.920   3.375   5.404
 1453SOL    HW1 5258   6.889   3.430   5.481
 1453SOL    HW2 5259   6.963   3.435   5.336
 1454SOL     OW 5260   0.305   2.923   2.160
 1454SOL    HW1 5261   0.301   3.022   2.142
 1454SOL    HW2 5262   0.348   2.877   2.082
 1455SOL     OW 5263   1.348   0.761   1.336
 1455SOL    HW1 5264   1.380   0.763   1.241
 1455SOL    HW2 5265   1.300   0.675   1.353
 1456SOL     OW 5266   6.845   6.264   5.379
 1456SOL    HW1 5267   6.843   6.200   5.302
 1456SOL    HW2 5268   6.867   6.355   5.345
 1457SOL     OW 5269   1.109   6.849   1.770
 1457SOL    HW1 5270   1.122   6.871   1.673
 1457SOL    HW2 5271   1.063   6.761   1.780
 1458SOL     OW 5272   5.567   5.676   3.687
 1458SOL    HW1 5273   5.525   5.598   3.640
 1458SOL    HW2 5274   5.631   5.642   3.756
 1459SOL     OW 5275   3.196   5.892   5.622
 1459SOL    HW1 5276   3.247   5.812   5.591
 1459SOL    HW2 5277   3.098   5.873   5.615
 1460SOL     OW 5278   0.711   6.380   5.312
 1460SOL    HW1 5279   0.708   6.389   5.212
 1460SOL    HW2 5280   0.634   6.324   5.343
 1461SOL     OW 5281   6.146   4.820   3.070
 1461SOL    HW1 5282   6.146   4.914   3.038
 1461SOL    HW2 5283   6.227   4.772   3.035
 1462SOL     OW 5284   1.342   0.263   6.791
 1462SOL    HW1 5285   1.402   0.247   6.712
 1462SOL    HW2 5286   1.356   0.191   6.858
 1463SOL     OW 5287   7.010   5.603   6.683
 1463SOL    HW1 5288   0.064   5.614   6.749
 1463SOL    HW2 5289   7.010   5.509   6.648
 1464SOL     OW 5290   0.210   6.259   1.428
 1464SOL    HW1 5291   0.201   6.196   1.505
 1464SOL    HW2 5292   0.231   6.351   1.462
 1465SOL     OW 5293   1.534   0.682   3.368
 1465SOL    HW1 5294   1.603   0.659   3.436
 1465SOL    HW2 5295   1.579   0.711   3.284
 1466SOL     OW 5296   1.701   2.314   2.332
 1466SOL    HW1 5297   1.637   2.243   2.303
 1466SOL    HW2 5298   1.700   2.389   2.266
 1467SOL     OW 5299   1.744   1.311   2.399
 1467SOL    HW1 5300   1.802   1.354   2.469
 1467SOL    HW2 5301   1.675   1.376   2.368
 1468SOL     OW 5302   3.488   6.122   2.264
 1468SOL    HW1 5303   3.399   6.078   2.251
 1468SOL    HW2 5304   3.475   6.221   2.270
 1469SOL     OW 5305   0.629   1.600   1.729
 1469SOL    HW1 5306   0.592   1.509   1.712
 1469SOL    HW2 5307   0.562   1.655   1.779
 1470SOL     OW 5308   1.316   2.192   2.548
 1470SOL    HW1 5309   1.346   2.100   2.570
 1470SOL    HW2 5310   1.340   2.254   2.622
 1471SOL     OW 5311   0.404   0.126   0.959
 1471SOL    HW1 5312   0.481   0.104   1.019
 1471SOL    HW2 5313   0.436   0.139   0.866
 1472SOL     OW 5314   3.028   4.956   5.450
 1472SOL    HW1 5315   2.989   4.900   5.377
 1472SOL    HW2 5316   3.060   4.897   5.524
 1473SOL     OW 5317   4.003   5.723   5.073
 1473SOL    HW1 5318   3.922   5.691   5.023
 1473SOL    HW2 5319   3.974   5.778   5.152
 1474SOL     OW 5320   5.647   5.336   2.459
 1474SOL    HW1 5321   5.728   5.381   2.497
 1474SOL    HW2 5322   5.675   5.261   2.399
 1475SOL     OW 5323   6.170   0.417   1.912
 1475SOL    HW1 5324   6.096   0.466   1.958
 1475SOL    HW2 5325   6.182   0.327   1.954
 1476SOL     OW 5326   3.176   0.695   0.977
 1476SOL    HW1 5327   3.161   0.618   1.040
 1476SOL    HW2 5328   3.089   0.741   0.960
 1477SOL     OW 5329   3.165   6.849   6.054
 1477SOL    HW1 5330   3.136   6.764   6.096
 1477SOL    HW2 5331   3.106   6.870   5.976
 1478SOL     OW 5332   5.723   5.574   6.236
 1478SOL    HW1 5333   5.762   5.500   6.292
 1478SOL    HW2 5334   5.630   5.593   6.268
 1479SOL     OW 5335   1.305   2.155   0.625
 1479SOL    HW1 5336   1.289   2.119   0.533
 1479SOL    HW2 5337   1.264   2.245   0.634
 1480SOL     OW 5338   3.202   1.197   4.905
 1480SOL    HW1 5339   3.199   1.294   4.881
 1480SOL    HW2 5340   3.198   1.142   4.822
 1481SOL     OW 5341   6.199   3.347   6.423
 1481SOL    HW1 5342   6.184   3.384   6.331
 1481SOL    HW2 5343   6.142   3.267   6.437
 1482SOL     OW 5344   4.592   1.270   1.442
 1482SOL    HW1 5345   4.558   1.178   1.462
 1482SOL    HW2 5346   4.532   1.338   1.484
 1483SOL     OW 5347   5.068   2.209   6.717
 1483SOL    HW1 5348   5.105   2.299   6.695
 1483SOL    HW2 5349   4.968   2.215   6.725
 1484SOL     OW 5350   5.697   4.147   5.105
 1484SOL    HW1 5351   5.769   4.078   5.105
 1484SOL    HW2 5352   5.610   4.105   5.129
 1485SOL     OW 5353   3.680   1.545   3.621
 1485SOL    HW1 5354   3.717   1.570   3.531
 1485SOL    HW2 5355   3.604   1.481   3.609
 1486SOL     OW 5356   5.146   1.628   2.387
 1486SOL    HW1 5357   5.151   1.692   2.464
 1486SOL    HW2 5358   5.082   1.554   2.408
 1487SOL     OW 5359   6.869   2.061   6.230
 1487SOL    HW1 5360   6.925   2.024   6.156
 1487SOL    HW2 5361   6.824   2.145   6.199
 1488SOL     OW 5362   5.181   0.840   3.364
 1488SOL    HW1 5363   5.147   0.883   3.447
 1488SOL    HW2 5364   5.106   0.789   3.320
 1489SOL     OW 5365   4.292   4.800   5.261
 1489SOL    HW1 5366   4.325   4.799   5.355
 1489SOL    HW2 5367   4.314   4.889   5.219
 1490SOL     OW 5368   0.907   3.130   2.086
 1490SOL    HW1 5369   0.928   3.185   2.005
 1490SOL    HW2 5370   0.817   3.156   2.121
 1491SOL     OW 5371   6.561   4.091   2.469
 1491SOL    HW1 5372   6.483   4.050   2.516
 1491SOL    HW2 5373   6.610   4.151   2.532
 1492SOL     OW 5374   6.032   1.121   2.494
 1492SOL    HW1 5375   6.042   1.022   2.492
 1492SOL    HW2 5376   5.940   1.145   2.523
 1493SOL     OW 5377   3.544   6.842   5.457
 1493SOL    HW1 5378   3.496   6.921   5.419
 1493SOL    HW2 5379   3.607   6.806   5.389
 1494SOL     OW 5380   4.917   1.714   6.987
 1494SOL    HW1 5381   4.940   1.638   6.926
 1494SOL    HW2 5382   4.944   1.800   6.946
 1495SOL     OW 5383   6.516   3.276   5.417
 1495SOL    HW1 5384   6.570   3.243   5.494
 1495SOL    HW2 5385   6.576   3.315   5.347
 1496SOL     OW 5386   0.199   1.763   1.813
 1496SOL    HW1 5387   0.158   1.810   1.892
 1496SOL    HW2 5388   0.178   1.814   1.730
 1497SOL     OW 5389   5.912   3.761   2.828
 1497SOL    HW1 5390   5.906   3.661   2.818
 1497SOL    HW2 5391   6.003   3.792   2.801
 1498SOL     OW 5392   2.567   4.918   6.888
 1498SOL    HW1 5393   2.504   4.976   6.837
 1498SOL    HW2 5394   2.537   4.912   6.984
 1499SOL     OW 5395   0.370   2.757   5.946
 1499SOL    HW1 5396   0.325   2.728   5.862
 1499SOL    HW2 5397   0.322   2.719   6.025
 1500SOL     OW 5398   6.757   6.971   0.079
 1500SOL    HW1 5399   6.797   6.978   0.171
 1500SOL    HW2 5400   6.817   7.017   0.013
 1501SOL     OW 5401   5.605   2.158   6.624
 1501SOL    HW1 5402   5.591   2.255   6.646
 1501SOL    HW2 5403   5.685   2.124   6.673
 1502SOL     OW 5404   4.367   0.115   0.157
 1502SOL    HW1 5405   4.345   0.167   0.075
 1502SOL    HW2 5406   4.285   0.103   0.213
 1503SOL     OW 5407   0.708   3.715   1.635
 1503SOL    HW1 5408   0.673   3.776   1.707
 1503SOL    HW2 5409   0.725   3.625   1.674
 1504SOL     OW 5410   0.507   0.193   5.061
 1504SOL    HW1 5411   0.545   0.196   4.969
 1504SOL    HW2 5412   0.562   0.250   5.122
 1505SOL     OW 5413   5.015   0.153   4.921
 1505SOL    HW1 5414   4.970   0.203   4.995
 1505SOL    HW2 5415   5.096   0.204   4.891
 1506SOL     OW 5416   0.580   5.925   0.461
 1506SOL    HW1 5417   0.652   5.993   0.448
 1506SOL    HW2 5418   0.517   5.956   0.532
 1507SOL     OW 5419   0.861   2.036   5.803
 1507SOL    HW1 5420   0.762   2.034   5.790
 1507SOL    HW2 5421   0.884   2.098   5.879
 1508SOL     OW 5422   6.912   1.793   2.113
 1508SOL    HW1 5423   6.837   1.751   2.062
 1508SOL    HW2 5424   6.879   1.826   2.201
 1509SOL     OW 5425   3.812   1.603   5.800
 1509SOL    HW1 5426   3.786   1.603   5.897
 1509SOL    HW2 5427   3.805   1.510   5.764
 1510SOL     OW 5428   4.926   1.904   4.926
 1510SOL    HW1 5429   4.951   1.809   4.946
 1510SOL    HW2 5430   4.937   1.960   5.008
 1511SOL     OW 5431   3.835   3.005   3.138
 1511SOL    HW1 5432   3.844   2.959   3.226
 1511SOL    HW2 5433   3.889   3.088   3.138
 1512SOL     OW 5434   0.348   5.046   1.199
 1512SOL    HW1 5435   0.360   5.046   1.100
 1512SOL    HW2 5436   0.433   5.074   1.243
 1513SOL     OW 5437   3.851   0.741   4.674
 1513SOL    HW1 5438   3.801   0.661   4.705
 1513SOL    HW2 5439   3.806   0.780   4.594
 1514SOL     OW 5440   4.017   2.237   5.654
 1514SOL    HW1 5441   3.992   2.284   5.739
 1514SOL    HW2 5442   4.116   2.227   5.650
 1515SOL     OW 5443   6.168   1.904   2.970
 1515SOL    HW1 5444   6.204   1.865   2.885
 1515SOL    HW2 5445   6.074   1.933   2.955
 1516SOL     OW 5446   6.831   6.273   6.977
 1516SOL    HW1 5447   6.759   6.226   6.927
 1516SOL    HW2 5448   6.907   6.292   6.916
 1517SOL     OW 5449   4.699   6.151   3.069
 1517SOL    HW1 5450   4.776   6.109   3.117
 1517SOL    HW2 5451   4.626   6.169   3.134
 1518SOL     OW 5452   1.181   2.457   0.015
 1518SOL    HW1 5453   1.255   2.455   0.082
 1518SOL    HW2 5454   1.111   2.389   0.040
 1519SOL     OW 5455   6.892   5.439   1.251
 1519SOL    HW1 5456   6.801   5.454   1.290
 1519SOL    HW2 5457   6.961   5.458   1.320
 1520SOL     OW 5458   0.424   4.210   1.997
 1520SOL    HW1 5459   0.393   4.204   1.902
 1520SOL    HW2 5460   0.410   4.121   2.041
 1521SOL     OW 5461   1.581   3.940   6.080
 1521SOL    HW1 5462   1.609   3.844   6.078
 1521SOL    HW2 5463   1.609   3.981   6.167
 1522SOL     OW 5464   5.638   6.088   5.221
 1522SOL    HW1 5465   5.541   6.092   5.246
 1522SOL    HW2 5466   5.687   6.164   5.265
 1523SOL     OW 5467   5.094   6.037   0.857
 1523SOL    HW1 5468   5.192   6.018   0.863
 1523SOL    HW2 5469   5.051   6.020   0.945
 1524SOL     OW 5470   2.586   2.304   2.151
 1524SOL    HW1 5471   2.587   2.209   2.119
 1524SOL    HW2 5472   2.665   2.320   2.211
 1525SOL     OW 5473   0.041   2.599   0.603
 1525SOL    HW1 5474   6.977   2.547   0.594
 1525SOL    HW2 5475   0.113   2.556   0.547
 1526SOL     OW 5476   6.487   0.226   6.734
 1526SOL    HW1 5477   6.573   0.272   6.710
 1526SOL    HW2 5478   6.410   0.278   6.697
 1527SOL     OW 5479   4.443   0.567   5.364
 1527SOL    HW1 5480   4.435   0.619   5.279
 1527SOL    HW2 5481   4.370   0.594   5.426
 1528SOL     OW 5482   4.608   5.277   2.444
 1528SOL    HW1 5483   4.679   5.265   2.514
 1528SOL    HW2 5484   4.607   5.372   2.414
 1529SOL     OW 5485   3.869   0.837   6.930
 1529SOL    HW1 5486   3.891   0.744   6.900
 1529SOL    HW2 5487   3.857   0.896   6.851
 1530SOL     OW 5488   3.314   2.139   1.862
 1530SOL    HW1 5489   3.368   2.073   1.915
 1530SOL    HW2 5490   3.219   2.134   1.890
 1531SOL     OW 5491   4.412   0.365   5.730
 1531SOL    HW1 5492   4.460   0.453   5.730
 1531SOL    HW2 5493   4.477   0.292   5.710
 1532SOL     OW 5494   3.257   3.323   6.544
 1532SOL    HW1 5495   3.326   3.308   6.614
 1532SOL    HW2 5496   3.246   3.421   6.528
 1533SOL     OW 5497   5.553   4.091   6.671
 1533SOL    HW1 5498   5.609   4.173   6.682
 1533SOL    HW2 5499   5.460   4.110   6.704
 1534SOL     OW 5500   2.177   4.602   6.728
 1534SOL    HW1 5501   2.105   4.593   6.660
 1534SOL    HW2 5502   2.184   4.517   6.781
 1535SOL     OW 5503   5.023   6.688   4.248
 1535SOL    HW1 5504   4.933   6.666   4.210
 1535SOL    HW2 5505   5.042   6.627   4.325
 1536SOL     OW 5506   3.857   4.699   5.335
 1536SOL    HW1 5507   3.850   4.765   5.409
 1536SOL    HW2 5508   3.795   4.622   5.351
 1537SOL     OW 5509   5.003   6.333   3.287
 1537SOL    HW1 5510   4.999   6.236   3.264
 1537SOL    HW2 5511   4.914   6.376   3.268
 1538SOL     OW 5512   4.198   5.504   6.330
 1538SOL    HW1 5513   4.223   5.449   6.410
 1538SOL    HW2 5514   4.250   5.590   6.331
 1539SOL     OW 5515   4.863   4.035   1.365
 1539SOL    HW1 5516   4.919   3.963   1.406
 1539SOL    HW2 5517   4.921   4.110   1.335
 1540SOL     OW 5518   1.515   6.327   6.154
 1540SOL    HW1 5519   1.475   6.237   6.134
 1540SOL    HW2 5520   1.566   6.359   6.074
 1541SOL     OW 5521   3.752   2.958   3.423
 1541SOL    HW1 5522   3.708   2.914   3.501
 1541SOL    HW2 5523   3.834   3.006   3.453
 1542SOL     OW 5524   5.263   6.337   2.403
 1542SOL    HW1 5525   5.359   6.318   2.384
 1542SOL    HW2 5526   5.205   6.291   2.335
 1543SOL     OW 5527   3.486   4.885   5.468
 1543SOL    HW1 5528   3.528   4.824   5.535
 1543SOL    HW2 5529   3.552   4.908   5.397
 1544SOL     OW 5530   3.201   3.412   2.981
 1544SOL    HW1 5531   3.263   3.335   2.997
 1544SOL    HW2 5532   3.238   3.470   2.909
 1545SOL     OW 5533   4.833   0.634   3.814
 1545SOL    HW1 5534   4.874   0.577   3.886
 1545SOL    HW2 5535   4.737   0.648   3.835
 1546SOL     OW 5536   4.096   6.445   5.839
 1546SOL    HW1 5537   4.141   6.528   5.874
 1546SOL    HW2 5538   4.026   6.471   5.773
 1547SOL     OW 5539   1.860   3.383   2.810
 1547SOL    HW1 5540   1.772   3.359   2.770
 1547SOL    HW2 5541   1.933   3.331   2.765
 1548SOL     OW 5542   5.525   3.944   5.528
 1548SOL    HW1 5543   5.499   3.913   5.436
 1548SOL    HW2 5544   5.508   4.042   5.537
 1549SOL     OW 5545   4.825   1.445   2.424
 1549SOL    HW1 5546   4.824   1.350   2.454
 1549SOL    HW2 5547   4.816   1.506   2.503
 1550SOL     OW 5548   3.329   3.484   0.081
 1550SOL    HW1 5549   3.273   3.566   0.081
 1550SOL    HW2 5550   3.358   3.462   0.174
 1551SOL     OW 5551   2.029   4.656   5.962
 1551SOL    HW1 5552   1.991   4.582   5.908
 1551SOL    HW2 5553   2.127   4.641   5.974
 1552SOL     OW 5554   0.331   5.368   6.790
 1552SOL    HW1 5555   0.241   5.413   6.800
 1552SOL    HW2 5556   0.386   5.420   6.725
 1553SOL     OW 5557   0.111   1.738   5.336
 1553SOL    HW1 5558   0.019   1.703   5.356
 1553SOL    HW2 5559   0.157   1.762   5.422
 1554SOL     OW 5560   4.069   2.071   3.201
 1554SOL    HW1 5561   3.992   2.106   3.148
 1554SOL    HW2 5562   4.154   2.113   3.167
 1555SOL     OW 5563   5.414   2.161   6.941
 1555SOL    HW1 5564   5.445   2.240   6.889
 1555SOL    HW2 5565   5.492   2.103   6.964
 1556SOL     OW 5566   3.548   0.808   0.680
 1556SOL    HW1 5567   3.608   0.802   0.601
 1556SOL    HW2 5568   3.529   0.904   0.701
 1557SOL     OW 5569   2.443   1.379   6.342
 1557SOL    HW1 5570   2.465   1.474   6.321
 1557SOL    HW2 5571   2.367   1.349   6.284
 1558SOL     OW 5572   5.049   0.636   4.487
 1558SOL    HW1 5573   5.066   0.641   4.389
 1558SOL    HW2 5574   5.055   0.541   4.518
 1559SOL     OW 5575   0.551   2.738   0.123
 1559SOL    HW1 5576   0.528   2.717   0.028
 1559SOL    HW2 5577   0.581   2.655   0.169
 1560SOL     OW 5578   1.443   1.236   5.752
 1560SOL    HW1 5579   1.491   1.259   5.667
 1560SOL    HW2 5580   1.405   1.319   5.793
 1561SOL     OW 5581   6.048   6.347   4.072
 1561SOL    HW1 5582   5.982   6.384   4.137
 1561SOL    HW2 5583   6.000   6.290   4.005
 1562SOL     OW 5584   3.774   6.399   2.599
 1562SOL    HW1 5585   3.811   6.459   2.669
 1562SOL    HW2 5586   3.790   6.439   2.509
 1563SOL     OW 5587   1.788   0.831   6.147
 1563SOL    HW1 5588   1.782   0.908   6.083
 1563SOL    HW2 5589   1.876   0.786   6.137
 1564SOL     OW 5590   1.006   2.996   3.087
 1564SOL    HW1 5591   1.017   3.095   3.087
 1564SOL    HW2 5592   0.990   2.964   2.994
 1565SOL     OW 5593   4.424   4.870   4.784
 1565SOL    HW1 5594   4.395   4.948   4.730
 1565SOL    HW2 5595   4.352   4.847   4.850
 1566SOL     OW 5596   4.994   4.714   3.701
 1566SOL    HW1 5597   5.011   4.719   3.603
 1566SOL    HW2 5598   4.973   4.805   3.736
 1567SOL     OW 5599   5.500   5.263   0.396
 1567SOL    HW1 5600   5.554   5.193   0.442
 1567SOL    HW2 5601   5.492   5.241   0.298
 1568SOL     OW 5602   1.646   6.065   1.288
 1568SOL    HW1 5603   1.658   6.037   1.193
 1568SOL    HW2 5604   1.623   6.163   1.291
 1569SOL     OW 5605   4.197   6.539   3.702
 1569SOL    HW1 5606   4.260   6.474   3.744
 1569SOL    HW2 5607   4.199   6.625   3.753
 1570SOL     OW 5608   1.852   6.888   0.439
 1570SOL    HW1 5609   1.781   6.821   0.463
 1570SOL    HW2 5610   1.942   6.847   0.452
 1571SOL     OW 5611   5.474   1.608   1.794
 1571SOL    HW1 5612   5.417   1.526   1.797
 1571SOL    HW2 5613   5.491   1.641   1.887
 1572SOL     OW 5614   0.647   6.817   0.556
 1572SOL    HW1 5615   0.680   6.725   0.533
 1572SOL    HW2 5616   0.644   6.873   0.473
 1573SOL     OW 5617   5.743   3.792   1.955
 1573SOL    HW1 5618   5.672   3.725   1.932
 1573SOL    HW2 5619   5.737   3.814   2.052
 1574SOL     OW 5620   0.069   0.919   2.519
 1574SOL    HW1 5621   0.076   0.918   2.420
 1574SOL    HW2 5622   0.033   1.007   2.550
 1575SOL     OW 5623   3.348   1.527   0.708
 1575SOL    HW1 5624   3.349   1.522   0.609
 1575SOL    HW2 5625   3.295   1.606   0.738
 1576SOL     OW 5626   1.471   0.520   3.041
 1576SOL    HW1 5627   1.398   0.483   3.098
 1576SOL    HW2 5628   1.555   0.469   3.057
 1577SOL     OW 5629   2.866   0.816   5.179
 1577SOL    HW1 5630   2.871   0.851   5.085
 1577SOL    HW2 5631   2.958   0.800   5.214
 1578SOL     OW 5632   6.244   3.000   5.508
 1578SOL    HW1 5633   6.264   2.911   5.549
 1578SOL    HW2 5634   6.303   3.014   5.429
 1579SOL     OW 5635   0.590   1.469   2.273
 1579SOL    HW1 5636   0.653   1.434   2.342
 1579SOL    HW2 5637   0.637   1.534   2.214
 1580SOL     OW 5638   2.933   3.742   4.598
 1580SOL    HW1 5639   2.906   3.720   4.505
 1580SOL    HW2 5640   2.932   3.659   4.654
 1581SOL     OW 5641   0.517   3.661   4.386
 1581SOL    HW1 5642   0.566   3.747   4.399
 1581SOL    HW2 5643   0.490   3.623   4.475
 1582SOL     OW 5644   1.696   0.235   4.004
 1582SOL    HW1 5645   1.791   0.245   3.975
 1582SOL    HW2 5646   1.669   0.315   4.058
 1583SOL     OW 5647   1.120   4.677   3.483
 1583SOL    HW1 5648   1.197   4.732   3.452
 1583SOL    HW2 5649   1.054   4.667   3.409
 1584SOL     OW 5650   1.260   6.756   5.619
 1584SOL    HW1 5651   1.303   6.797   5.699
 1584SOL    HW2 5652   1.186   6.695   5.648
 1585SOL     OW 5653   6.000   1.244   3.623
 1585SOL    HW1 5654   5.900   1.244   3.633
 1585SOL    HW2 5655   6.024   1.270   3.530
 1586SOL     OW 5656   3.440   5.000   1.986
 1586SOL    HW1 5657   3.481   5.058   1.916
 1586SOL    HW2 5658   3.506   4.930   2.013
 1587SOL     OW 5659   3.358   5.263   6.024
 1587SOL    HW1 5660   3.425   5.233   6.092
 1587SOL    HW2 5661   3.267   5.234   6.052
 1588SOL     OW 5662   4.575   1.442   3.101
 1588SOL    HW1 5663   4.516   1.383   3.157
 1588SOL    HW2 5664   4.528   1.464   3.016
 1589SOL     OW 5665   5.933   3.509   1.590
 1589SOL    HW1 5666   5.866   3.459   1.534
 1589SOL    HW2 5667   6.017   3.455   1.597
 1590SOL     OW 5668   3.465   5.743   6.075
 1590SOL    HW1 5669   3.424   5.679   6.010
 1590SOL    HW2 5670   3.401   5.817   6.094
 1591SOL     OW 5671   6.160   5.084   2.694
 1591SOL    HW1 5672   6.171   4.985   2.682
 1591SOL    HW2 5673   6.239   5.120   2.744
 1592SOL     OW 5674   1.911   4.556   6.599
 1592SOL    HW1 5675   1.820   4.543   6.561
 1592SOL    HW2 5676   1.975   4.492   6.557
 1593SOL     OW 5677   1.554   6.428   4.443
 1593SOL    HW1 5678   1.510   6.487   4.376
 1593SOL    HW2 5679   1.594   6.349   4.396
 1594SOL     OW 5680   0.197   6.322   2.259
 1594SOL    HW1 5681   0.139   6.325   2.341
 1594SOL    HW2 5682   0.159   6.383   2.190
 1595SOL     OW 5683   1.477   5.527   0.358
 1595SOL    HW1 5684   1.500   5.503   0.452
 1595SOL    HW2 5685   1.442   5.447   0.310
 1596SOL     OW 5686   0.576   2.435   3.566
 1596SOL    HW1 5687   0.645   2.362   3.572
 1596SOL    HW2 5688   0.622   2.522   3.549
 1597SOL     OW 5689   1.630   6.904   6.855
 1597SOL    HW1 5690   1.638   6.903   6.755
 1597SOL    HW2 5691   1.661   6.816   6.892
 1598SOL     OW 5692   1.078   4.083   6.540
 1598SOL    HW1 5693   1.149   4.089   6.469
 1598SOL    HW2 5694   0.997   4.134   6.511
 1599SOL     OW 5695   4.680   4.516   5.903
 1599SOL    HW1 5696   4.751   4.547   5.840
 1599SOL    HW2 5697   4.686   4.416   5.913
 1600SOL     OW 5698   4.773   1.552   4.254
 1600SOL    HW1 5699   4.777   1.473   4.192
 1600SOL    HW2 5700   4.701   1.538   4.321
 1601SOL     OW 5701   0.457   4.213   4.743
 1601SOL    HW1 5702   0.468   4.189   4.647
 1601SOL    HW2 5703   0.547   4.225   4.785
 1602SOL     OW 5704   2.878   5.202   3.500
 1602SOL    HW1 5705   2.868   5.146   3.418
 1602SOL    HW2 5706   2.891   5.298   3.474
 1603SOL     OW 5707   0.219   6.088   2.437
 1603SOL    HW1 5708   0.266   6.166   2.478
 1603SOL    HW2 5709   0.268   6.059   2.355
 1604SOL     OW 5710   6.188   5.026   1.537
 1604SOL    HW1 5711   6.131   4.949   1.565
 1604SOL    HW2 5712   6.226   5.070   1.618
 1605SOL     OW 5713   6.830   6.107   1.417
 1605SOL    HW1 5714   6.747   6.052   1.413
 1605SOL    HW2 5715   6.885   6.077   1.495
 1606SOL     OW 5716   3.441   1.154   5.051
 1606SOL    HW1 5717   3.514   1.211   5.013
 1606SOL    HW2 5718   3.354   1.178   5.007
 1607SOL     OW 5719   4.257   1.260   1.337
 1607SOL    HW1 5720   4.295   1.273   1.429
 1607SOL    HW2 5721   4.163   1.227   1.345
 1608SOL     OW 5722   0.929   0.281   3.997
 1608SOL    HW1 5723   0.904   0.220   4.072
 1608SOL    HW2 5724   0.911   0.235   3.910
 1609SOL     OW 5725   3.567   0.322   0.884
 1609SOL    HW1 5726   3.603   0.241   0.839
 1609SOL    HW2 5727   3.512   0.375   0.820
 1610SOL     OW 5728   5.529   4.502   6.702
 1610SOL    HW1 5729   5.565   4.409   6.698
 1610SOL    HW2 5730   5.583   4.561   6.642
 1611SOL     OW 5731   2.468   3.783   1.316
 1611SOL    HW1 5732   2.461   3.758   1.412
 1611SOL    HW2 5733   2.536   3.726   1.270
 1612SOL     OW 5734   2.661   0.790   5.351
 1612SOL    HW1 5735   2.739   0.801   5.290
 1612SOL    HW2 5736   2.586   0.849   5.321
 1613SOL     OW 5737   1.796   5.068   1.914
 1613SOL    HW1 5738   1.796   5.107   1.822
 1613SOL    HW2 5739   1.703   5.064   1.949
 1614SOL     OW 5740   6.319   3.309   6.984
 1614SOL    HW1 5741   6.278   3.395   6.954
 1614SOL    HW2 5742   6.372   3.324   0.047
 1615SOL     OW 5743   6.527   4.735   1.181
 1615SOL    HW1 5744   6.565   4.778   1.099
 1615SOL    HW2 5745   6.450   4.791   1.215
 1616SOL     OW 5746   3.708   1.760   4.948
 1616SOL    HW1 5747   3.722   1.851   4.908
 1616SOL    HW2 5748   3.764   1.694   4.898
 1617SOL     OW 5749   6.036   0.511   2.525
 1617SOL    HW1 5750   6.091   0.461   2.592
 1617SOL    HW2 5751   6.039   0.609   2.547
 1618SOL     OW 5752   2.006   4.180   1.817
 1618SOL    HW1 5753   1.928   4.243   1.825
 1618SOL    HW2 5754   1.982   4.093   1.860
 1619SOL     OW 5755   1.087   2.903   2.298
 1619SOL    HW1 5756   1.156   2.873   2.363
 1619SOL    HW2 5757   1.123   2.980   2.244
 1620SOL     OW 5758   2.742   5.041   1.768
 1620SOL    HW1 5759   2.647   5.023   1.791
 1620SOL    HW2 5760   2.755   5.036   1.669
 1621SOL     OW 5761   0.692   1.209   0.118
 1621SOL    HW1 5762   0.744   1.173   0.041
 1621SOL    HW2 5763   0.749   1.207   0.200
 1622SOL     OW 5764   0.594   2.661   4.643
 1622SOL    HW1 5765   0.566   2.667   4.739
 1622SOL    HW2 5766   0.679   2.609   4.636
 1623SOL     OW 5767   2.205   3.474   5.681
 1623SOL    HW1 5768   2.156   3.538   5.621
 1623SOL    HW2 5769   2.206   3.383   5.640
 1624SOL     OW 5770   2.820   0.933   4.932
 1624SOL    HW1 5771   2.738   0.931   4.875
 1624SOL    HW2 5772   2.899   0.905   4.877
 1625SOL     OW 5773   1.178   5.615   1.665
 1625SOL    HW1 5774   1.243   5.635   1.739
 1625SOL    HW2 5775   1.196   5.523   1.629
 1626SOL     OW 5776   3.820   1.989   6.278
 1626SOL    HW1 5777   3.859   1.926   6.344
 1626SOL    HW2 5778   3.750   2.045   6.322
 1627SOL     OW 5779   6.878   3.106   3.832
 1627SOL    HW1 5780   6.872   3.077   3.736
 1627SOL    HW2 5781   6.969   3.144   3.849
 1628SOL     OW 5782   4.473   4.851   0.567
 1628SOL    HW1 5783   4.432   4.942   0.573
 1628SOL    HW2 5784   4.460   4.803   0.655
 1629SOL     OW 5785   2.973   1.217   3.744
 1629SOL    HW1 5786   3.039   1.190   3.674
 1629SOL    HW2 5787   2.886   1.241   3.701
 1630SOL     OW 5788   1.648   6.083   5.928
 1630SOL    HW1 5789   1.632   5.991   5.963
 1630SOL    HW2 5790   1.561   6.128   5.911
 1631SOL     OW 5791   0.273   2.467   6.427
 1631SOL    HW1 5792   0.262   2.489   6.524
 1631SOL    HW2 5793   0.367   2.436   6.411
 1632SOL     OW 5794   6.811   1.945   6.869
 1632SOL    HW1 5795   6.880   1.889   6.824
 1632SOL    HW2 5796   6.724   1.895   6.874
 1633SOL     OW 5797   5.119   3.011   4.480
 1633SOL    HW1 5798   5.216   2.991   4.494
 1633SOL    HW2 5799   5.093   3.089   4.536
 1634SOL     OW 5800   4.181   4.777   6.398
 1634SOL    HW1 5801   4.140   4.695   6.359
 1634SOL    HW2 5802   4.135   4.858   6.363
 1635SOL     OW 5803   0.178   5.924   5.915
 1635SOL    HW1 5804   0.228   5.837   5.908
 1635SOL    HW2 5805   0.161   5.944   6.012
 1636SOL     OW 5806   2.911   4.158   1.729
 1636SOL    HW1 5807   2.878   4.188   1.639
 1636SOL    HW2 5808   2.925   4.237   1.788
 1637SOL     OW 5809   0.661   0.196   3.000
 1637SOL    HW1 5810   0.633   0.292   2.987
 1637SOL    HW2 5811   0.695   0.160   2.913
 1638SOL     OW 5812   0.198   4.379   3.493
 1638SOL    HW1 5813   0.155   4.307   3.547
 1638SOL    HW2 5814   0.141   4.400   3.413
 1639SOL     OW 5815   4.953   6.506   2.863
 1639SOL    HW1 5816   5.052   6.518   2.874
 1639SOL    HW2 5817   4.929   6.410   2.880
 1640SOL     OW 5818   5.958   1.282   0.579
 1640SOL    HW1 5819   5.930   1.303   0.485
 1640SOL    HW2 5820   5.938   1.360   0.637
 1641SOL     OW 5821   4.994   2.619   4.259
 1641SOL    HW1 5822   4.931   2.543   4.277
 1641SOL    HW2 5823   5.017   2.665   4.344
 1642SOL     OW 5824   5.907   3.849   6.715
 1642SOL    HW1 5825   5.896   3.938   6.759
 1642SOL    HW2 5826   5.942   3.862   6.622
 1643SOL     OW 5827   2.511   5.133   4.098
 1643SOL    HW1 5828   2.571   5.207   4.066
 1643SOL    HW2 5829   2.497   5.142   4.196
 1644SOL     OW 5830   0.359   2.927   1.404
 1644SOL    HW1 5831   0.382   2.831   1.421
 1644SOL    HW2 5832   0.410   2.960   1.325
 1645SOL     OW 5833   3.287   5.884   5.898
 1645SOL    HW1 5834   3.201   5.892   5.847
 1645SOL    HW2 5835   3.360   5.854   5.836
 1646SOL     OW 5836   3.147   5.857   0.565
 1646SOL    HW1 5837   3.118   5.762   0.561
 1646SOL    HW2 5838   3.079   5.915   0.518
 1647SOL     OW 5839   6.387   2.777   4.752
 1647SOL    HW1 5840   6.309   2.730   4.794
 1647SOL    HW2 5841   6.387   2.873   4.781
 1648SOL     OW 5842   6.193   5.339   0.862
 1648SOL    HW1 5843   6.135   5.382   0.931
 1648SOL    HW2 5844   6.166   5.373   0.771
 1649SOL     OW 5845   3.630   0.080   4.400
 1649SOL    HW1 5846   3.703   0.021   4.364
 1649SOL    HW2 5847   3.661   0.175   4.398
 1650SOL     OW 5848   2.057   6.190   5.275
 1650SOL    HW1 5849   1.992   6.226   5.342
 1650SOL    HW2 5850   2.097   6.105   5.310
 1651SOL     OW 5851   0.505   1.462   1.220
 1651SOL    HW1 5852   0.456   1.472   1.306
 1651SOL    HW2 5853   0.512   1.365   1.196
 1652SOL     OW 5854   1.001   3.394   2.198
 1652SOL    HW1 5855   1.070   3.463   2.222
 1652SOL    HW2 5856   0.986   3.334   2.276
 1653SOL     OW 5857   0.946   6.956   1.310
 1653SOL    HW1 5858   0.951   6.998   1.220
 1653SOL    HW2 5859   0.887   7.010   1.369
 1654SOL     OW 5860   6.637   3.512   1.584
 1654SOL    HW1 5861   6.638   3.471   1.675
 1654SOL    HW2 5862   6.641   3.612   1.591
 1655SOL     OW 5863   6.770   2.495   5.113
 1655SOL    HW1 5864   6.675   2.485   5.143
 1655SOL    HW2 5865   6.785   2.441   5.030
 1656SOL     OW 5866   2.388   5.040   2.241
 1656SOL    HW1 5867   2.295   5.074   2.236
 1656SOL    HW2 5868   2.396   4.955   2.188
 1657SOL     OW 5869   6.537   0.670   4.142
 1657SOL    HW1 5870   6.571   0.732   4.213
 1657SOL    HW2 5871   6.609   0.604   4.120
 1658SOL     OW 5872   1.052   0.058   1.064
 1658SOL    HW1 5873   1.049   6.979   1.067
 1658SOL    HW2 5874   1.138   0.088   1.023
 1659SOL     OW 5875   3.661   0.787   6.107
 1659SOL    HW1 5876   3.678   0.710   6.046
 1659SOL    HW2 5877   3.711   0.868   6.076
 1660SOL     OW 5878   1.000   4.985   4.046
 1660SOL    HW1 5879   0.944   5.026   3.974
 1660SOL    HW2 5880   1.087   4.953   4.006
 1661SOL     OW 5881   3.005   1.136   1.830
 1661SOL    HW1 5882   3.066   1.066   1.867
 1661SOL    HW2 5883   2.921   1.094   1.796
 1662SOL     OW 5884   6.718   6.941   3.715
 1662SOL    HW1 5885   6.640   6.996   3.686
 1662SOL    HW2 5886   6.778   6.995   3.774
 1663SOL     OW 5887   4.206   6.939   2.998
 1663SOL    HW1 5888   4.117   6.895   2.986
 1663SOL    HW2 5889   4.256   6.893   3.071
 1664SOL     OW 5890   2.471   6.303   4.616
 1664SOL    HW1 5891   2.497   6.293   4.712
 1664SOL    HW2 5892   2.483   6.398   4.588
 1665SOL     OW 5893   0.592   1.476   3.174
 1665SOL    HW1 5894   0.654   1.451   3.100
 1665SOL    HW2 5895   0.585   1.399   3.239
 1666SOL     OW 5896   5.405   3.206   0.321
 1666SOL    HW1 5897   5.397   3.305   0.335
 1666SOL    HW2 5898   5.316   3.163   0.333
 1667SOL     OW 5899   6.590   6.686   1.269
 1667SOL    HW1 5900   6.648   6.697   1.349
 1667SOL    HW2 5901   6.498   6.720   1.289
 1668SOL     OW 5902   5.383   5.974   5.583
 1668SOL    HW1 5903   5.360   5.905   5.652
 1668SOL    HW2 5904   5.333   6.058   5.602
 1669SOL     OW 5905   0.237   5.763   6.251
 1669SOL    HW1 5906   0.324   5.796   6.212
 1669SOL    HW2 5907   0.176   5.841   6.266
 1670SOL     OW 5908   0.115   4.081   6.141
 1670SOL    HW1 5909   0.215   4.081   6.145
 1670SOL    HW2 5910   0.086   4.083   6.045
 1671SOL     OW 5911   4.997   2.627   0.976
 1671SOL    HW1 5912   4.916   2.615   0.919
 1671SOL    HW2 5913   4.971   2.627   1.073
 1672SOL     OW 5914   1.537   2.920   1.148
 1672SOL    HW1 5915   1.574   2.865   1.073
 1672SOL    HW2 5916   1.443   2.890   1.167
 1673SOL     OW 5917   0.037   2.409   3.741
 1673SOL    HW1 5918   0.037   2.468   3.661
 1673SOL    HW2 5919   6.969   2.366   3.751
 1674SOL     OW 5920   0.372   4.201   2.558
 1674SOL    HW1 5921   0.438   4.231   2.489
 1674SOL    HW2 5922   0.302   4.144   2.515
 1675SOL     OW 5923   4.128   0.996   6.059
 1675SOL    HW1 5924   4.189   1.075   6.047
 1675SOL    HW2 5925   4.182   0.912   6.053
 1676SOL     OW 5926   1.800   1.606   2.194
 1676SOL    HW1 5927   1.817   1.549   2.114
 1676SOL    HW2 5928   1.754   1.553   2.264
 1677SOL     OW 5929   3.791   3.213   5.528
 1677SOL    HW1 5930   3.754   3.268   5.603
 1677SOL    HW2 5931   3.778   3.261   5.441
 1678SOL     OW 5932   4.550   4.870   5.094
 1678SOL    HW1 5933   4.475   4.844   5.033
 1678SOL    HW2 5934   4.561   4.969   5.093
 1679SOL     OW 5935   2.171   2.861   5.176
 1679SOL    HW1 5936   2.212   2.887   5.263
 1679SOL    HW2 5937   2.213   2.915   5.102
 1680SOL     OW 5938   0.762   3.032   4.502
 1680SOL    HW1 5939   0.749   3.131   4.507
 1680SOL    HW2 5940   0.856   3.013   4.471
 1681SOL     OW 5941   6.374   5.661   0.110
 1681SOL    HW1 5942   6.328   5.748   0.094
 1681SOL    HW2 5943   6.360   5.632   0.204
 1682SOL     OW 5944   0.265   1.872   4.947
 1682SOL    HW1 5945   0.180   1.827   4.921
 1682SOL    HW2 5946   0.330   1.866   4.871
 1683SOL     OW 5947   4.234   5.703   0.954
 1683SOL    HW1 5948   4.183   5.752   1.025
 1683SOL    HW2 5949   4.188   5.717   0.865
 1684SOL     OW 5950   1.496   6.349   2.643
 1684SOL    HW1 5951   1.535   6.363   2.553
 1684SOL    HW2 5952   1.423   6.281   2.637
 1685SOL     OW 5953   2.163   1.280   5.788
 1685SOL    HW1 5954   2.099   1.211   5.753
 1685SOL    HW2 5955   2.170   1.355   5.723
 1686SOL     OW 5956   2.595   5.101   4.964
 1686SOL    HW1 5957   2.651   5.019   4.958
 1686SOL    HW2 5958   2.566   5.115   5.059
 1687SOL     OW 5959   2.372   3.290   0.960
 1687SOL    HW1 5960   2.372   3.308   1.059
 1687SOL    HW2 5961   2.337   3.198   0.943
 1688SOL     OW 5962   1.684   2.420   4.064
 1688SOL    HW1 5963   1.744   2.371   4.001
 1688SOL    HW2 5964   1.594   2.431   4.023
 1689SOL     OW 5965   5.089   0.674   2.119
 1689SOL    HW1 5966   5.169   0.676   2.180
 1689SOL    HW2 5967   5.014   0.724   2.162
 1690SOL     OW 5968   1.396   2.337   3.590
 1690SOL    HW1 5969   1.477   2.357   3.534
 1690SOL    HW2 5970   1.387   2.238   3.602
 1691SOL     OW 5971   5.784   4.309   3.145
 1691SOL    HW1 5972   5.806   4.292   3.241
 1691SOL    HW2 5973   5.867   4.300   3.090
 1692SOL     OW 5974   5.697   0.691   1.703
 1692SOL    HW1 5975   5.684   0.671   1.800
 1692SOL    HW2 5976   5.743   0.779   1.693
 1693SOL     OW 5977   0.424   2.214   2.347
 1693SOL    HW1 5978   0.474   2.230   2.262
 1693SOL    HW2 5979   0.362   2.291   2.365
 1694SOL     OW 5980   5.419   0.499   3.684
 1694SOL    HW1 5981   5.414   0.553   3.768
 1694SOL    HW2 5982   5.456   0.554   3.610
 1695SOL     OW 5983   3.113   1.519   6.350
 1695SOL    HW1 5984   3.052   1.496   6.425
 1695SOL    HW2 5985   3.178   1.444   6.335
 1696SOL     OW 5986   5.066   4.483   0.313
 1696SOL    HW1 5987   5.082   4.395   0.268
 1696SOL    HW2 5988   5.027   4.547   0.246
 1697SOL     OW 5989   5.169   6.463   1.778
 1697SOL    HW1 5990   5.269   6.453   1.779
 1697SOL    HW2 5991   5.137   6.469   1.684
 1698SOL     OW 5992   4.637   0.618   0.120
 1698SOL    HW1 5993   4.580   0.547   0.161
 1698SOL    HW2 5994   4.733   0.592   0.127
 1699SOL     OW 5995   3.005   1.274   0.848
 1699SOL    HW1 5996   2.972   1.226   0.766
 1699SOL    HW2 5997   2.957   1.239   0.928
 1700SOL     OW 5998   5.500   2.112   3.370
 1700SOL    HW1 5999   5.579   2.050   3.371
 1700SOL    HW2 6000   5.440   2.089   3.293
 1701SOL     OW 6001   5.694   4.546   5.280
 1701SOL    HW1 6002   5.630   4.469   5.286
 1701SOL    HW2 6003   5.713   4.581   5.372
 1702SOL     OW 6004   6.925   2.828   0.487
 1702SOL    HW1 6005   6.978   2.870   0.413
 1702SOL    HW2 6006   6.965   2.739   0.511
 1703SOL     OW 6007   3.699   3.133   2.132
 1703SOL    HW1 6008   3.609   3.162   2.162
 1703SOL    HW2 6009   3.704   3.033   2.132
 1704SOL     OW 6010   0.742   2.078   1.891
 1704SOL    HW1 6011   0.787   1.990   1.907
 1704SOL    HW2 6012   0.646   2.061   1.866
 1705SOL     OW 6013   3.505   2.022   1.370
 1705SOL    HW1 6014   3.485   2.023   1.468
 1705SOL    HW2 6015   3.600   1.995   1.356
 1706SOL     OW 6016   4.912   0.701   1.475
 1706SOL    HW1 6017   4.850   0.769   1.514
 1706SOL    HW2 6018   4.982   0.748   1.420
 1707SOL     OW 6019   4.808   1.651   2.623
 1707SOL    HW1 6020   4.822   1.747   2.646
 1707SOL    HW2 6021   4.720   1.640   2.577
 1708SOL     OW 6022   4.828   4.951   2.432
 1708SOL    HW1 6023   4.923   4.943   2.401
 1708SOL    HW2 6024   4.776   5.004   2.365
 1709SOL     OW 6025   2.703   5.490   1.373
 1709SOL    HW1 6026   2.656   5.493   1.461
 1709SOL    HW2 6027   2.748   5.577   1.356
 1710SOL     OW 6028   5.465   5.000   3.989
 1710SOL    HW1 6029   5.388   4.937   4.004
 1710SOL    HW2 6030   5.478   5.012   3.890
 1711SOL     OW 6031   1.235   5.061   4.394
 1711SOL    HW1 6032   1.229   4.966   4.423
 1711SOL    HW2 6033   1.145   5.093   4.364
 1712SOL     OW 6034   0.154   3.354   6.201
 1712SOL    HW1 6035   0.192   3.381   6.289
 1712SOL    HW2 6036   0.148   3.434   6.141
 1713SOL     OW 6037   3.950   2.143   1.437
 1713SOL    HW1 6038   4.020   2.196   1.388
 1713SOL    HW2 6039   3.892   2.206   1.489
 1714SOL     OW 6040   4.149   1.920   5.314
 1714SOL    HW1 6041   4.052   1.900   5.331
 1714SOL    HW2 6042   4.193   1.947   5.400
 1715SOL     OW 6043   0.071   4.301   2.636
 1715SOL    HW1 6044   0.091   4.338   2.546
 1715SOL    HW2 6045   0.134   4.340   2.703
 1716SOL     OW 6046   4.809   6.909   2.937
 1716SOL    HW1 6047   4.727   6.952   2.975
 1716SOL    HW2 6048   4.800   6.901   2.838
 1717SOL     OW 6049   2.449   6.188   6.174
 1717SOL    HW1 6050   2.514   6.117   6.148
 1717SOL    HW2 6051   2.494   6.278   6.169
 1718SOL     OW 6052   1.869   2.174   2.117
 1718SOL    HW1 6053   1.812   2.095   2.140
 1718SOL    HW2 6054   1.924   2.199   2.197
 1719SOL     OW 6055   1.863   4.420   1.115
 1719SOL    HW1 6056   1.827   4.337   1.159
 1719SOL    HW2 6057   1.908   4.395   1.030
 1720SOL     OW 6058   0.622   2.498   0.241
 1720SOL    HW1 6059   0.592   2.423   0.182
 1720SOL    HW2 6060   0.721   2.494   0.254
 1721SOL     OW 6061   1.313   6.738   2.032
 1721SOL    HW1 6062   1.304   6.684   1.949
 1721SOL    HW2 6063   1.222   6.762   2.066
 1722SOL     OW 6064   4.630   2.243   4.492
 1722SOL    HW1 6065   4.638   2.212   4.587
 1722SOL    HW2 6066   4.584   2.332   4.491
 1723SOL     OW 6067   0.150   2.802   2.424
 1723SOL    HW1 6068   0.180   2.794   2.328
 1723SOL    HW2 6069   0.051   2.806   2.427
 1724SOL     OW 6070   6.336   2.275   0.860
 1724SOL    HW1 6071   6.272   2.292   0.786
 1724SOL    HW2 6072   6.379   2.360   0.889
 1725SOL     OW 6073   2.272   4.881   6.664
 1725SOL    HW1 6074   2.209   4.959   6.660
 1725SOL    HW2 6075   2.232   4.810   6.722
 1726SOL     OW 6076   5.056   4.807   5.930
 1726SOL    HW1 6077   5.010   4.771   5.849
 1726SOL    HW2 6078   5.136   4.750   5.951
 1727SOL     OW 6079   3.714   3.315   4.465
 1727SOL    HW1 6080   3.718   3.398   4.408
 1727SOL    HW2 6081   3.619   3.285   4.473
 1728SOL     OW 6082   5.429   4.929   5.691
 1728SOL    HW1 6083   5.397   4.835   5.677
 1728SOL    HW2 6084   5.435   4.975   5.602
 1729SOL     OW 6085   1.835   3.899   3.556
 1729SOL    HW1 6086   1.796   3.969   3.495
 1729SOL    HW2 6087   1.761   3.843   3.593
 1730SOL     OW 6088   0.151   0.129   5.523
 1730SOL    HW1 6089   0.234   0.176   5.553
 1730SOL    HW2 6090   0.175   0.041   5.483
 1731SOL     OW 6091   6.895   4.741   2.140
 1731SOL    HW1 6092   6.887   4.679   2.218
 1731SOL    HW2 6093   6.955   4.817   2.164
 1732SOL     OW 6094   2.515   4.525   5.619
 1732SOL    HW1 6095   2.612   4.536   5.597
 1732SOL    HW2 6096   2.468   4.613   5.609
 1733SOL     OW 6097   1.309   4.322   2.225
 1733SOL    HW1 6098   1.253   4.243   2.197
 1733SOL    HW2 6099   1.252   4.404   2.223
 1734SOL     OW 6100   4.701   3.243   1.697
 1734SOL    HW1 6101   4.639   3.210   1.626
 1734SOL    HW2 6102   4.714   3.171   1.765
 1735SOL     OW 6103   5.465   5.875   1.529
 1735SOL    HW1 6104   5.406   5.952   1.553
 1735SOL    HW2 6105   5.545   5.873   1.589
 1736SOL     OW 6106   4.046   2.995   1.236
 1736SOL    HW1 6107   3.993   2.928   1.185
 1736SOL    HW2 6108   4.011   3.002   1.329
 1737SOL     OW 6109   2.446   1.160   4.062
 1737SOL    HW1 6110   2.507   1.190   4.136
 1737SOL    HW2 6111   2.363   1.119   4.102
 1738SOL     OW 6112   2.031   1.690   4.079
 1738SOL    HW1 6113   2.081   1.762   4.031
 1738SOL    HW2 6114   2.087   1.655   4.154
 1739SOL     OW 6115   5.731   2.289   5.344
 1739SOL    HW1 6116   5.636   2.258   5.347
 1739SOL    HW2 6117   5.752   2.324   5.252
 1740SOL     OW 6118   6.804   1.572   5.952
 1740SOL    HW1 6119   6.710   1.543   5.933
 1740SOL    HW2 6120   6.810   1.603   6.047
 1741SOL     OW 6121   1.922   0.605   3.854
 1741SOL    HW1 6122   1.926   0.671   3.779
 1741SOL    HW2 6123   1.996   0.539   3.843
 1742SOL     OW 6124   4.988   0.009   5.893
 1742SOL    HW1 6125   5.025   0.095   5.858
 1742SOL    HW2 6126   5.047   6.954   5.864
 1743SOL     OW 6127   1.540   2.490   2.126
 1743SOL    HW1 6128   1.466   2.493   2.193
 1743SOL    HW2 6129   1.539   2.575   2.072
 1744SOL     OW 6130   0.815   0.616   1.973
 1744SOL    HW1 6131   0.828   0.708   1.935
 1744SOL    HW2 6132   0.894   0.560   1.949
 1745SOL     OW 6133   6.239   0.718   3.748
 1745SOL    HW1 6134   6.279   0.677   3.665
 1745SOL    HW2 6135   6.236   0.818   3.737
 1746SOL     OW 6136   2.551   4.836   5.257
 1746SOL    HW1 6137   2.578   4.783   5.177
 1746SOL    HW2 6138   2.556   4.934   5.236
 1747SOL     OW 6139   6.085   1.543   2.787
 1747SOL    HW1 6140   6.001   1.517   2.833
 1747SOL    HW2 6141   6.110   1.473   2.720
 1748SOL     OW 6142   0.766   0.768   4.066
 1748SOL    HW1 6143   0.814   0.820   4.138
 1748SOL    HW2 6144   0.686   0.723   4.106
 1749SOL     OW 6145   2.616   0.041   4.741
 1749SOL    HW1 6146   2.696   0.092   4.710
 1749SOL    HW2 6147   2.578   0.085   4.822
 1750SOL     OW 6148   6.539   0.104   4.136
 1750SOL    HW1 6149   6.521   0.141   4.227
 1750SOL    HW2 6150   6.590   0.018   4.145
 1751SOL     OW 6151   4.032   6.099   4.840
 1751SOL    HW1 6152   3.996   6.191   4.830
 1751SOL    HW2 6153   4.090   6.094   4.921
 1752SOL     OW 6154   0.131   2.350   1.919
 1752SOL    HW1 6155   0.107   2.272   1.860
 1752SOL    HW2 6156   0.230   2.358   1.924
 1753SOL     OW 6157   0.570   2.282   0.614
 1753SOL    HW1 6158   0.521   2.363   0.582
 1753SOL    HW2 6159   0.524   2.245   0.695
 1754SOL     OW 6160   2.897   3.556   0.848
 1754SOL    HW1 6161   2.822   3.599   0.898
 1754SOL    HW2 6162   2.871   3.463   0.822
 1755SOL     OW 6163   6.152   6.029   1.763
 1755SOL    HW1 6164   6.105   5.996   1.681
 1755SOL    HW2 6165   6.225   6.091   1.736
 1756SOL     OW 6166   3.892   4.406   5.855
 1756SOL    HW1 6167   3.949   4.424   5.774
 1756SOL    HW2 6168   3.946   4.356   5.923
 1757SOL     OW 6169   2.406   4.899   4.785
 1757SOL    HW1 6170   2.420   4.993   4.756
 1757SOL    HW2 6171   2.479   4.842   4.749
 1758SOL     OW 6172   2.359   0.278   3.995
 1758SOL    HW1 6173   2.441   0.238   3.955
 1758SOL    HW2 6174   2.290   0.207   4.009
 1759SOL     OW 6175   2.018   5.199   6.413
 1759SOL    HW1 6176   2.097   5.200   6.351
 1759SOL    HW2 6177   2.046   5.161   6.502
 1760SOL     OW 6178   5.815   1.802   2.316
 1760SOL    HW1 6179   5.839   1.738   2.388
 1760SOL    HW2 6180   5.719   1.789   2.290
 1761SOL     OW 6181   0.378   0.067   0.284
 1761SOL    HW1 6182   0.309   0.078   0.356
 1761SOL    HW2 6183   0.350   0.118   0.203
 1762SOL     OW 6184   0.170   2.069   4.657
 1762SOL    HW1 6185   0.239   2.128   4.698
 1762SOL    HW2 6186   0.079   2.094   4.690
 1763SOL     OW 6187   1.682   3.773   3.752
 1763SOL    HW1 6188   1.629   3.843   3.799
 1763SOL    HW2 6189   1.772   3.765   3.795
 1764SOL     OW 6190   2.055   3.627   2.143
 1764SOL    HW1 6191   2.092   3.720   2.138
 1764SOL    HW2 6192   2.113   3.565   2.091
 1765SOL     OW 6193   4.283   1.709   0.880
 1765SOL    HW1 6194   4.281   1.678   0.785
 1765SOL    HW2 6195   4.356   1.661   0.928
 1766SOL     OW 6196   4.791   2.901   2.925
 1766SOL    HW1 6197   4.748   2.989   2.905
 1766SOL    HW2 6198   4.730   2.827   2.897
 1767SOL     OW 6199   6.999   3.736   2.789
 1767SOL    HW1 6200   0.064   3.783   2.812
 1767SOL    HW2 6201   6.927   3.804   2.776
 1768SOL     OW 6202   3.961   1.598   5.286
 1768SOL    HW1 6203   3.914   1.565   5.367
 1768SOL    HW2 6204   3.966   1.698   5.288
 1769SOL     OW 6205   4.282   2.915   5.590
 1769SOL    HW1 6206   4.183   2.904   5.603
 1769SOL    HW2 6207   4.306   3.011   5.601
 1770SOL     OW 6208   0.061   5.336   4.704
 1770SOL    HW1 6209   0.081   5.238   4.707
 1770SOL    HW2 6210   0.102   5.381   4.783
 1771SOL     OW 6211   2.498   5.263   6.933
 1771SOL    HW1 6212   2.455   5.294   6.848
 1771SOL    HW2 6213   2.581   5.316   6.949
 1772SOL     OW 6214   3.579   6.607   2.980
 1772SOL    HW1 6215   3.527   6.569   2.904
 1772SOL    HW2 6216   3.525   6.599   3.064
 1773SOL     OW 6217   3.177   4.248   6.613
 1773SOL    HW1 6218   3.172   4.345   6.588
 1773SOL    HW2 6219   3.224   4.238   6.700
 1774SOL     OW 6220   4.382   6.961   1.628
 1774SOL    HW1 6221   4.304   7.010   1.590
 1774SOL    HW2 6222   4.396   6.877   1.576
 1775SOL     OW 6223   1.298   5.410   4.222
 1775SOL    HW1 6224   1.311   5.312   4.210
 1775SOL    HW2 6225   1.203   5.429   4.247
 1776SOL     OW 6226   3.317   0.776   5.759
 1776SOL    HW1 6227   3.389   0.846   5.764
 1776SOL    HW2 6228   3.256   0.785   5.837
 1777SOL     OW 6229   3.148   5.277   5.647
 1777SOL    HW1 6230   3.158   5.280   5.548
 1777SOL    HW2 6231   3.238   5.267   5.690
 1778SOL     OW 6232   4.645   2.310   5.003
 1778SOL    HW1 6233   4.717   2.268   5.058
 1778SOL    HW2 6234   4.592   2.373   5.060
 1779SOL     OW 6235   5.279   1.557   4.765
 1779SOL    HW1 6236   5.298   1.640   4.819
 1779SOL    HW2 6237   5.314   1.569   4.673
 1780SOL     OW 6238   2.345   4.592   6.022
 1780SOL    HW1 6239   2.375   4.618   6.114
 1780SOL    HW2 6240   2.391   4.507   5.995
 1781SOL     OW 6241   4.172   5.206   3.797
 1781SOL    HW1 6242   4.257   5.195   3.849
 1781SOL    HW2 6243   4.160   5.127   3.737
 1782SOL     OW 6244   3.040   1.601   2.811
 1782SOL    HW1 6245   3.045   1.646   2.900
 1782SOL    HW2 6246   3.130   1.562   2.789
 1783SOL     OW 6247   1.904   3.182   6.535
 1783SOL    HW1 6248   1.920   3.194   6.437
 1783SOL    HW2 6249   1.840   3.106   6.549
 1784SOL     OW 6250   3.061   0.899   4.213
 1784SOL    HW1 6251   3.085   0.822   4.155
 1784SOL    HW2 6252   3.027   0.974   4.157
 1785SOL     OW 6253   5.324   6.319   3.820
 1785SOL    HW1 6254   5.284   6.373   3.746
 1785SOL    HW2 6255   5.402   6.369   3.858
 1786SOL     OW 6256   1.123   2.990   0.983
 1786SOL    HW1 6257   1.222   3.006   0.975
 1786SOL    HW2 6258   1.077   3.076   1.006
 1787SOL     OW 6259   2.262   1.019   4.208
 1787SOL    HW1 6260   2.178   0.982   4.170
 1787SOL    HW2 6261   2.337   0.955   4.192
 1788SOL     OW 6262   3.567   3.015   0.388
 1788SOL    HW1 6263   3.580   3.095   0.331
 1788SOL    HW2 6264   3.478   3.021   0.435
 1789SOL     OW 6265   6.445   2.326   2.215
 1789SOL    HW1 6266   6.473   2.230   2.208
 1789SOL    HW2 6267   6.518   2.385   2.181
 1790SOL     OW 6268   4.112   6.685   4.447
 1790SOL    HW1 6269   4.163   6.689   4.533
 1790SOL    HW2 6270   4.133   6.766   4.392
 1791SOL     OW 6271   0.468   1.748   4.379
 1791SOL    HW1 6272   0.409   1.827   4.364
 1791SOL    HW2 6273   0.564   1.776   4.371
 1792SOL     OW 6274   0.536   2.391   4.039
 1792SOL    HW1 6275   0.529   2.443   3.954
 1792SOL    HW2 6276   0.608   2.430   4.096
 1793SOL     OW 6277   6.620   0.339   3.579
 1793SOL    HW1 6278   6.621   0.423   3.524
 1793SOL    HW2 6279   6.569   0.268   3.530
 1794SOL     OW 6280   5.053   5.995   6.495
 1794SOL    HW1 6281   4.990   6.034   6.428
 1794SOL    HW2 6282   5.146   6.021   6.471
 1795SOL     OW 6283   0.580   3.712   2.146
 1795SOL    HW1 6284   0.628   3.659   2.217
 1795SOL    HW2 6285   0.494   3.666   2.123
 1796SOL     OW 6286   2.153   1.427   4.543
 1796SOL    HW1 6287   2.083   1.491   4.511
 1796SOL    HW2 6288   2.187   1.456   4.633
 1797SOL     OW 6289   1.131   1.114   6.160
 1797SOL    HW1 6290   1.168   1.028   6.196
 1797SOL    HW2 6291   1.043   1.095   6.116
 1798SOL     OW 6292   4.981   2.679   5.191
 1798SOL    HW1 6293   5.011   2.653   5.099
 1798SOL    HW2 6294   4.912   2.751   5.184
 1799SOL     OW 6295   6.759   1.592   6.524
 1799SOL    HW1 6296   6.777   1.687   6.500
 1799SOL    HW2 6297   6.766   1.580   6.623
 1800SOL     OW 6298   4.667   5.215   3.296
 1800SOL    HW1 6299   4.582   5.265   3.281
 1800SOL    HW2 6300   4.702   5.236   3.387
 1801SOL     OW 6301   1.023   1.151   2.066
 1801SOL    HW1 6302   0.941   1.181   2.115
 1801SOL    HW2 6303   1.022   1.191   1.974
 1802SOL     OW 6304   5.227   5.240   2.314
 1802SOL    HW1 6305   5.279   5.166   2.271
 1802SOL    HW2 6306   5.284   5.284   2.384
 1803SOL     OW 6307   6.695   5.794   0.800
 1803SOL    HW1 6308   6.647   5.846   0.729
 1803SOL    HW2 6309   6.793   5.793   0.780
 1804SOL     OW 6310   2.024   3.247   6.283
 1804SOL    HW1 6311   2.020   3.153   6.248
 1804SOL    HW2 6312   2.114   3.264   6.322
 1805SOL     OW 6313   0.340   3.764   5.501
 1805SOL    HW1 6314   0.355   3.854   5.540
 1805SOL    HW2 6315   0.261   3.767   5.440
 1806SOL     OW 6316   1.083   1.379   0.929
 1806SOL    HW1 6317   1.109   1.386   0.833
 1806SOL    HW2 6318   1.106   1.464   0.976
 1807SOL     OW 6319   5.327   2.218   5.955
 1807SOL    HW1 6320   5.413   2.230   6.006
 1807SOL    HW2 6321   5.344   2.162   5.874
 1808SOL     OW 6322   6.280   3.446   5.449
 1808SOL    HW1 6323   6.331   3.363   5.427
 1808SOL    HW2 6324   6.324   3.492   5.526
 1809SOL     OW 6325   2.217   3.029   4.315
 1809SOL    HW1 6326   2.281   3.000   4.387
 1809SOL    HW2 6327   2.148   3.090   4.354
 1810SOL     OW 6328   2.452   0.679   5.609
 1810SOL    HW1 6329   2.494   0.768   5.632
 1810SOL    HW2 6330   2.494   0.643   5.526
 1811SOL     OW 6331   4.341   4.883   3.258
 1811SOL    HW1 6332   4.252   4.855   3.221
 1811SOL    HW2 6333   4.333   4.976   3.295
 1812SOL     OW 6334   4.455   7.016   6.087
 1812SOL    HW1 6335   4.363   6.979   6.100
 1812SOL    HW2 6336   4.448   0.089   6.055
 1813SOL     OW 6337   4.117   4.668   1.418
 1813SOL    HW1 6338   4.075   4.740   1.362
 1813SOL    HW2 6339   4.137   4.589   1.360
 1814SOL     OW 6340   6.521   0.439   0.206
 1814SOL    HW1 6341   6.536   0.430   0.304
 1814SOL    HW2 6342   6.528   0.535   0.180
 1815SOL     OW 6343   6.544   2.089   1.583
 1815SOL    HW1 6344   6.487   2.054   1.658
 1815SOL    HW2 6345   6.534   2.031   1.503
 1816SOL     OW 6346   1.724   4.162   1.235
 1816SOL    HW1 6347   1.639   4.203   1.267
 1816SOL    HW2 6348   1.761   4.101   1.305
 1817SOL     OW 6349   3.104   6.298   3.182
 1817SOL    HW1 6350   3.080   6.396   3.184
 1817SOL    HW2 6351   3.112   6.264   3.276
 1818SOL     OW 6352   1.978   6.295   2.452
 1818SOL    HW1 6353   1.988   6.289   2.353
 1818SOL    HW2 6354   1.923   6.217   2.484
 1819SOL     OW 6355   0.609   5.613   1.514
 1819SOL    HW1 6356   0.704   5.585   1.529
 1819SOL    HW2 6357   0.597   5.708   1.541
 1820SOL     OW 6358   3.272   0.923   2.622
 1820SOL    HW1 6359   3.283   0.876   2.534
 1820SOL    HW2 6360   3.319   0.872   2.693
 1821SOL     OW 6361   2.665   0.668   1.745
 1821SOL    HW1 6362   2.578   0.667   1.795
 1821SOL    HW2 6363   2.654   0.718   1.660
 1822SOL     OW 6364   1.986   2.987   1.222
 1822SOL    HW1 6365   1.939   2.906   1.258
 1822SOL    HW2 6366   1.965   2.997   1.125
 1823SOL     OW 6367   2.688   5.890   2.925
 1823SOL    HW1 6368   2.701   5.988   2.940
 1823SOL    HW2 6369   2.656   5.847   3.009
 1824SOL     OW 6370   3.375   4.228   1.766
 1824SOL    HW1 6371   3.368   4.205   1.669
 1824SOL    HW2 6372   3.442   4.168   1.810
 1825SOL     OW 6373   1.018   2.654   3.762
 1825SOL    HW1 6374   1.034   2.562   3.727
 1825SOL    HW2 6375   0.941   2.653   3.825
 1826SOL     OW 6376   2.941   0.558   1.115
 1826SOL    HW1 6377   2.920   0.632   1.179
 1826SOL    HW2 6378   2.935   0.470   1.162
 1827SOL     OW 6379   0.360   5.792   1.773
 1827SOL    HW1 6380   0.312   5.726   1.831
 1827SOL    HW2 6381   0.321   5.791   1.681
 1828SOL     OW 6382   1.154   2.408   0.601
 1828SOL    HW1 6383   1.143   2.478   0.672
 1828SOL    HW2 6384   1.065   2.377   0.569
 1829SOL     OW 6385   3.021   0.898   3.045
 1829SOL    HW1 6386   3.119   0.887   3.030
 1829SOL    HW2 6387   3.002   0.993   3.071
 1830SOL     OW 6388   6.400   6.256   3.926
 1830SOL    HW1 6389   6.469   6.254   3.998
 1830SOL    HW2 6390   6.389   6.164   3.888
 1831SOL     OW 6391   6.225   0.333   2.598
 1831SOL    HW1 6392   6.314   0.351   2.640
 1831SOL    HW2 6393   6.230   0.251   2.542
 1832SOL     OW 6394   4.408   1.009   1.201
 1832SOL    HW1 6395   4.372   1.101   1.215
 1832SOL    HW2 6396   4.333   0.946   1.184
 1833SOL     OW 6397   5.599   0.631   0.273
 1833SOL    HW1 6398   5.527   0.566   0.297
 1833SOL    HW2 6399   5.656   0.650   0.353
 1834SOL     OW 6400   3.399   3.507   1.003
 1834SOL    HW1 6401   3.427   3.591   1.050
 1834SOL    HW2 6402   3.334   3.457   1.061
 1835SOL     OW 6403   0.162   4.477   2.421
 1835SOL    HW1 6404   0.151   4.576   2.425
 1835SOL    HW2 6405   0.156   4.447   2.326
 1836SOL     OW 6406   4.963   1.868   1.543
 1836SOL    HW1 6407   4.940   1.963   1.565
 1836SOL    HW2 6408   5.057   1.849   1.572
 1837SOL     OW 6409   0.993   0.545   4.971
 1837SOL    HW1 6410   0.963   0.511   5.060
 1837SOL    HW2 6411   0.969   0.478   4.900
 1838SOL     OW 6412   7.010   1.393   4.861
 1838SOL    HW1 6413   6.942   1.404   4.789
 1838SOL    HW2 6414   0.081   1.390   4.819
 1839SOL     OW 6415   6.072   2.452   5.100
 1839SOL    HW1 6416   6.044   2.502   5.018
 1839SOL    HW2 6417   6.092   2.357   5.076
 1840SOL     OW 6418   3.625   6.888   1.731
 1840SOL    HW1 6419   3.599   6.985   1.740
 1840SOL    HW2 6420   3.687   6.864   1.806
 1841SOL     OW 6421   2.705   0.874   3.033
 1841SOL    HW1 6422   2.605   0.875   3.035
 1841SOL    HW2 6423   2.738   0.954   2.983
 1842SOL     OW 6424   2.024   5.946   0.368
 1842SOL    HW1 6425   1.988   5.855   0.389
 1842SOL    HW2 6426   2.022   6.003   0.450
 1843SOL     OW 6427   6.149   2.200   3.485
 1843SOL    HW1 6428   6.084   2.275   3.494
 1843SOL    HW2 6429   6.137   2.135   3.560
 1844SOL     OW 6430   3.232   6.749   5.600
 1844SOL    HW1 6431   3.254   6.844   5.620
 1844SOL    HW2 6432   3.134   6.734   5.613
 1845SOL     OW 6433   2.296   0.264   4.725
 1845SOL    HW1 6434   2.206   0.301   4.747
 1845SOL    HW2 6435   2.346   0.329   4.668
 1846SOL     OW 6436   3.681   1.732   1.335
 1846SOL    HW1 6437   3.724   1.676   1.265
 1846SOL    HW2 6438   3.587   1.702   1.350
 1847SOL     OW 6439   1.392   0.989   6.773
 1847SOL    HW1 6440   1.426   0.956   6.861
 1847SOL    HW2 6441   1.469   1.026   6.721
 1848SOL     OW 6442   1.395   6.001   3.222
 1848SOL    HW1 6443   1.409   5.966   3.315
 1848SOL    HW2 6444   1.315   5.958   3.181
 1849SOL     OW 6445   4.061   2.615   1.042
 1849SOL    HW1 6446   4.070   2.595   1.139
 1849SOL    HW2 6447   4.088   2.535   0.989
 1850SOL     OW 6448   0.757   2.701   1.514
 1850SOL    HW1 6449   0.730   2.658   1.600
 1850SOL    HW2 6450   0.855   2.685   1.498
 1851SOL     OW 6451   0.247   2.512   0.366
 1851SOL    HW1 6452   0.228   2.417   0.342
 1851SOL    HW2 6453   0.199   2.573   0.303
 1852SOL     OW 6454   6.191   4.501   2.430
 1852SOL    HW1 6455   6.129   4.425   2.409
 1852SOL    HW2 6456   6.282   4.465   2.450
 1853SOL     OW 6457   0.038   2.195   2.881
 1853SOL    HW1 6458   0.009   2.244   2.963
 1853SOL    HW2 6459   0.018   2.250   2.800
 1854SOL     OW 6460   2.304   5.514   2.988
 1854SOL    HW1 6461   2.315   5.442   2.919
 1854SOL    HW2 6462   2.380   5.510   3.052
 1855SOL     OW 6463   5.219   2.782   5.299
 1855SOL    HW1 6464   5.130   2.739   5.284
 1855SOL    HW2 6465   5.208   2.859   5.362
 1856SOL     OW 6466   6.400   4.047   5.979
 1856SOL    HW1 6467   6.410   4.128   5.922
 1856SOL    HW2 6468   6.440   3.968   5.932
 1857SOL     OW 6469   4.833   1.901   5.886
 1857SOL    HW1 6470   4.746   1.927   5.845
 1857SOL    HW2 6471   4.885   1.983   5.908
 1858SOL     OW 6472   5.738   4.178   3.964
 1858SOL    HW1 6473   5.799   4.100   3.973
 1858SOL    HW2 6474   5.791   4.262   3.965
 1859SOL     OW 6475   5.587   2.365   3.414
 1859SOL    HW1 6476   5.578   2.429   3.338
 1859SOL    HW2 6477   5.570   2.272   3.381
 1860SOL     OW 6478   6.823   0.714   5.557
 1860SOL    HW1 6479   6.765   0.795   5.546
 1860SOL    HW2 6480   6.819   0.659   5.473
 1861SOL     OW 6481   6.385   6.627   2.307
 1861SOL    HW1 6482   6.310   6.684   2.275
 1861SOL    HW2 6483   6.395   6.636   2.406
 1862SOL     OW 6484   2.363   7.005   6.145
 1862SOL    HW1 6485   2.454   6.987   6.184
 1862SOL    HW2 6486   2.334   0.076   6.171
 1863SOL     OW 6487   0.678   2.648   3.458
 1863SOL    HW1 6488   0.775   2.633   3.441
 1863SOL    HW2 6489   0.651   2.738   3.423
 1864SOL     OW 6490   1.966   6.909   4.870
 1864SOL    HW1 6491   1.965   7.002   4.832
 1864SOL    HW2 6492   1.900   6.853   4.821
 1865SOL     OW 6493   3.343   6.559   6.583
 1865SOL    HW1 6494   3.316   6.495   6.654
 1865SOL    HW2 6495   3.369   6.646   6.625
 1866SOL     OW 6496   4.935   4.596   2.931
 1866SOL    HW1 6497   4.838   4.591   2.954
 1866SOL    HW2 6498   4.971   4.685   2.958
 1867SOL     OW 6499   0.735   3.877   0.584
 1867SOL    HW1 6500   0.651   3.881   0.529
 1867SOL    HW2 6501   0.713   3.892   0.680
 1868SOL     OW 6502   5.325   3.004   6.347
 1868SOL    HW1 6503   5.230   3.005   6.317
 1868SOL    HW2 6504   5.336   3.065   6.425
 1869SOL     OW 6505   5.800   3.558   5.752
 1869SOL    HW1 6506   5.822   3.651   5.780
 1869SOL    HW2 6507   5.883   3.512   5.720
 1870SOL     OW 6508   1.091   2.974   4.925
 1870SOL    HW1 6509   1.055   2.884   4.950
 1870SOL    HW2 6510   1.177   2.990   4.975
 1871SOL     OW 6511   0.935   0.309   6.628
 1871SOL    HW1 6512   0.933   0.269   6.720
 1871SOL    HW2 6513   1.023   0.354   6.614
 1872SOL     OW 6514   4.031   1.605   6.706
 1872SOL    HW1 6515   4.084   1.677   6.662
 1872SOL    HW2 6516   4.086   1.521   6.711
 1873SOL     OW 6517   4.978   0.889   6.521
 1873SOL    HW1 6518   5.027   0.824   6.579
 1873SOL    HW2 6519   5.014   0.981   6.536
 1874SOL     OW 6520   2.839   1.133   0.672
 1874SOL    HW1 6521   2.741   1.129   0.654
 1874SOL    HW2 6522   2.890   1.128   0.586
 1875SOL     OW 6523   6.897   0.828   6.981
 1875SOL    HW1 6524   6.831   0.774   6.930
 1875SOL    HW2 6525   6.849   0.887   0.025
 1876SOL     OW 6526   3.571   6.099   6.572
 1876SOL    HW1 6527   3.617   6.170   6.518
 1876SOL    HW2 6528   3.472   6.107   6.559
 1877SOL     OW 6529   1.157   1.290   3.271
 1877SOL    HW1 6530   1.198   1.258   3.186
 1877SOL    HW2 6531   1.218   1.268   3.347
 1878SOL     OW 6532   6.872   3.367   4.218
 1878SOL    HW1 6533   6.903   3.461   4.226
 1878SOL    HW2 6534   6.778   3.360   4.250
 1879SOL     OW 6535   1.806   5.580   3.512
 1879SOL    HW1 6536   1.750   5.583   3.429
 1879SOL    HW2 6537   1.829   5.486   3.533
 1880SOL     OW 6538   6.678   0.804   4.346
 1880SOL    HW1 6539   6.650   0.890   4.389
 1880SOL    HW2 6540   6.682   0.731   4.415
 1881SOL     OW 6541   6.695   3.220   2.858
 1881SOL    HW1 6542   6.777   3.199   2.805
 1881SOL    HW2 6543   6.671   3.141   2.915
 1882SOL     OW 6544   1.195   3.708   6.760
 1882SOL    HW1 6545   1.268   3.726   6.826
 1882SOL    HW2 6546   1.107   3.703   6.809
 1883SOL     OW 6547   1.336   2.069   3.582
 1883SOL    HW1 6548   1.337   2.027   3.491
 1883SOL    HW2 6549   1.242   2.067   3.618
 1884SOL     OW 6550   6.264   3.093   0.310
 1884SOL    HW1 6551   6.288   3.005   0.350
 1884SOL    HW2 6552   6.226   3.153   0.380
 1885SOL     OW 6553   1.020   1.856   6.093
 1885SOL    HW1 6554   1.046   1.775   6.147
 1885SOL    HW2 6555   1.101   1.910   6.073
 1886SOL     OW 6556   2.721   0.123   1.329
 1886SOL    HW1 6557   2.660   0.046   1.350
 1886SOL    HW2 6558   2.762   0.157   1.414
 1887SOL     OW 6559   1.451   5.936   5.309
 1887SOL    HW1 6560   1.482   5.953   5.402
 1887SOL    HW2 6561   1.523   5.960   5.244
 1888SOL     OW 6562   3.268   2.578   6.903
 1888SOL    HW1 6563   3.304   2.498   6.855
 1888SOL    HW2 6564   3.253   2.653   6.838
 1889SOL     OW 6565   6.988   3.149   6.248
 1889SOL    HW1 6566   0.001   3.243   6.238
 1889SOL    HW2 6567   7.003   3.098   6.164
 1890SOL     OW 6568   1.732   6.433   3.941
 1890SOL    HW1 6569   1.643   6.397   3.968
 1890SOL    HW2 6570   1.775   6.478   4.019
 1891SOL     OW 6571   5.757   2.180   2.797
 1891SOL    HW1 6572   5.725   2.204   2.889
 1891SOL    HW2 6573   5.811   2.096   2.801
 1892SOL     OW 6574   2.689   1.308   1.227
 1892SOL    HW1 6575   2.734   1.367   1.295
 1892SOL    HW2 6576   2.614   1.357   1.184
 1893SOL     OW 6577   3.950   2.760   6.873
 1893SOL    HW1 6578   3.942   2.821   6.795
 1893SOL    HW2 6579   4.045   2.734   6.887
 1894SOL     OW 6580   3.926   3.571   3.478
 1894SOL    HW1 6581   3.876   3.576   3.564
 1894SOL    HW2 6582   3.966   3.660   3.457
 1895SOL     OW 6583   5.408   0.772   1.874
 1895SOL    HW1 6584   5.496   0.728   1.892
 1895SOL    HW2 6585   5.334   0.716   1.912
 1896SOL     OW 6586   6.299   0.410   1.650
 1896SOL    HW1 6587   6.399   0.416   1.653
 1896SOL    HW2 6588   6.265   0.392   1.743
 1897SOL     OW 6589   1.484   4.408   1.888
 1897SOL    HW1 6590   1.461   4.485   1.829
 1897SOL    HW2 6591   1.431   4.328   1.860
 1898SOL     OW 6592   2.505   4.841   2.529
 1898SOL    HW1 6593   2.470   4.922   2.482
 1898SOL    HW2 6594   2.436   4.806   2.591
 1899SOL     OW 6595   1.066   1.058   2.470
 1899SOL    HW1 6596   1.090   1.155   2.462
 1899SOL    HW2 6597   0.984   1.040   2.415
 1900SOL     OW 6598   1.078   0.465   6.204
 1900SOL    HW1 6599   0.989   0.464   6.158
 1900SOL    HW2 6600   1.087   0.549   6.258
 1901SOL     OW 6601   1.897   2.462   0.648
 1901SOL    HW1 6602   1.814   2.518   0.642
 1901SOL    HW2 6603   1.961   2.490   0.577
 1902SOL     OW 6604   2.524   2.010   4.876
 1902SOL    HW1 6605   2.459   2.086   4.886
 1902SOL    HW2 6606   2.530   1.960   4.963
 1903SOL     OW 6607   6.857   3.233   2.616
 1903SOL    HW1 6608   6.865   3.323   2.573
 1903SOL    HW2 6609   6.818   3.168   2.550
 1904SOL     OW 6610   6.083   6.248   3.764
 1904SOL    HW1 6611   6.128   6.163   3.790
 1904SOL    HW2 6612   6.054   6.243   3.668
 1905SOL     OW 6613   1.832   0.737   4.105
 1905SOL    HW1 6614   1.878   0.694   4.182
 1905SOL    HW2 6615   1.854   0.687   4.021
 1906SOL     OW 6616   2.115   0.191   5.124
 1906SOL    HW1 6617   2.188   0.259   5.114
 1906SOL    HW2 6618   2.028   0.231   5.095
 1907SOL     OW 6619   3.310   0.326   2.758
 1907SOL    HW1 6620   3.336   0.231   2.776
 1907SOL    HW2 6621   3.278   0.369   2.842
 1908SOL     OW 6622   3.694   0.074   5.150
 1908SOL    HW1 6623   3.602   0.046   5.123
 1908SOL    HW2 6624   3.701   0.076   5.250
 1909SOL     OW 6625   0.675   3.925   2.408
 1909SOL    HW1 6626   0.602   3.890   2.466
 1909SOL    HW2 6627   0.637   3.988   2.341
 1910SOL     OW 6628   7.000   2.759   6.473
 1910SOL    HW1 6629   6.943   2.767   6.391
 1910SOL    HW2 6630   7.015   2.850   6.512
 1911SOL     OW 6631   5.765   3.451   5.136
 1911SOL    HW1 6632   5.804   3.449   5.044
 1911SOL    HW2 6633   5.667   3.430   5.131
 1912SOL     OW 6634   3.793   5.912   0.517
 1912SOL    HW1 6635   3.809   5.977   0.590
 1912SOL    HW2 6636   3.697   5.917   0.488
 1913SOL     OW 6637   2.240   6.182   4.510
 1913SOL    HW1 6638   2.215   6.218   4.420
 1913SOL    HW2 6639   2.330   6.218   4.536
 1914SOL     OW 6640   3.700   2.696   6.371
 1914SOL    HW1 6641   3.765   2.630   6.335
 1914SOL    HW2 6642   3.681   2.676   6.467
 1915SOL     OW 6643   4.322   2.223   5.369
 1915SOL    HW1 6644   4.315   2.210   5.271
 1915SOL    HW2 6645   4.285   2.313   5.394
 1916SOL     OW 6646   3.975   5.694   1.388
 1916SOL    HW1 6647   3.978   5.794   1.382
 1916SOL    HW2 6648   3.888   5.661   1.351
 1917SOL     OW 6649   3.161   3.150   5.483
 1917SOL    HW1 6650   3.081   3.162   5.424
 1917SOL    HW2 6651   3.238   3.117   5.428
 1918SOL     OW 6652   0.917   1.117   5.223
 1918SOL    HW1 6653   1.000   1.147   5.272
 1918SOL    HW2 6654   0.886   1.191   5.163
 1919SOL     OW 6655   2.075   0.483   1.719
 1919SOL    HW1 6656   2.006   0.490   1.647
 1919SOL    HW2 6657   2.047   0.538   1.798
 1920SOL     OW 6658   1.293   4.061   2.502
 1920SOL    HW1 6659   1.352   4.120   2.447
 1920SOL    HW2 6660   1.307   4.081   2.599
 1921SOL     OW 6661   1.326   4.328   6.246
 1921SOL    HW1 6662   1.241   4.366   6.283
 1921SOL    HW2 6663   1.385   4.402   6.215
 1922SOL     OW 6664   1.982   3.834   0.806
 1922SOL    HW1 6665   1.887   3.821   0.779
 1922SOL    HW2 6666   1.992   3.817   0.905
 1923SOL     OW 6667   3.276   0.720   5.486
 1923SOL    HW1 6668   3.329   0.742   5.568
 1923SOL    HW2 6669   3.333   0.667   5.423
 1924SOL     OW 6670   4.905   5.686   1.193
 1924SOL    HW1 6671   4.893   5.719   1.287
 1924SOL    HW2 6672   4.836   5.618   1.172
 1925SOL     OW 6673   1.903   5.242   0.672
 1925SOL    HW1 6674   1.975   5.193   0.721
 1925SOL    HW2 6675   1.816   5.231   0.721
 1926SOL     OW 6676   2.475   6.734   3.231
 1926SOL    HW1 6677   2.436   6.825   3.225
 1926SOL    HW2 6678   2.542   6.721   3.157
 1927SOL     OW 6679   2.466   4.310   6.944
 1927SOL    HW1 6680   2.542   4.262   6.987
 1927SOL    HW2 6681   2.499   4.359   6.863
 1928SOL     OW 6682   6.905   4.390   5.676
 1928SOL    HW1 6683   6.867   4.302   5.703
 1928SOL    HW2 6684   6.830   4.454   5.657
 1929SOL     OW 6685   1.766   5.917   1.497
 1929SOL    HW1 6686   1.737   5.968   1.416
 1929SOL    HW2 6687   1.695   5.850   1.521
 1930SOL     OW 6688   3.641   4.032   6.177
 1930SOL    HW1 6689   3.657   4.130   6.171
 1930SOL    HW2 6690   3.627   3.994   6.086
 1931SOL     OW 6691   0.861   3.177   1.764
 1931SOL    HW1 6692   0.869   3.080   1.787
 1931SOL    HW2 6693   0.917   3.196   1.683
 1932SOL     OW 6694   4.811   2.746   3.296
 1932SOL    HW1 6695   4.833   2.829   3.244
 1932SOL    HW2 6696   4.763   2.772   3.380
 1933SOL     OW 6697   2.000   3.095   0.927
 1933SOL    HW1 6698   1.986   3.191   0.902
 1933SOL    HW2 6699   1.930   3.039   0.884
 1934SOL     OW 6700   0.401   6.680   5.193
 1934SOL    HW1 6701   0.468   6.622   5.147
 1934SOL    HW2 6702   0.379   6.758   5.135
 1935SOL     OW 6703   4.347   6.377   3.899
 1935SOL    HW1 6704   4.357   6.362   3.998
 1935SOL    HW2 6705   4.437   6.369   3.855
 1936SOL     OW 6706   5.502   3.813   3.574
 1936SOL    HW1 6707   5.525   3.728   3.621
 1936SOL    HW2 6708   5.552   3.818   3.488
 1937SOL     OW 6709   4.151   6.340   1.307
 1937SOL    HW1 6710   4.091   6.290   1.245
 1937SOL    HW2 6711   4.112   6.431   1.325
 1938SOL     OW 6712   2.097   1.622   1.563
 1938SOL    HW1 6713   2.018   1.567   1.535
 1938SOL    HW2 6714   2.098   1.628   1.663
 1939SOL     OW 6715   6.428   6.837   4.536
 1939SOL    HW1 6716   6.396   6.927   4.509
 1939SOL    HW2 6717   6.385   6.767   4.478
 1940SOL     OW 6718   5.950   5.163   0.490
 1940SOL    HW1 6719   5.900   5.248   0.506
 1940SOL    HW2 6720   5.937   5.101   0.567
 1941SOL     OW 6721   1.243   3.596   4.461
 1941SOL    HW1 6722   1.249   3.542   4.377
 1941SOL    HW2 6723   1.233   3.535   4.540
 1942SOL     OW 6724   5.254   2.105   1.320
 1942SOL    HW1 6725   5.298   2.157   1.246
 1942SOL    HW2 6726   5.240   2.011   1.290
 1943SOL     OW 6727   2.518   6.382   3.887
 1943SOL    HW1 6728   2.425   6.376   3.923
 1943SOL    HW2 6729   2.535   6.474   3.852
 1944SOL     OW 6730   6.361   2.777   0.184
 1944SOL    HW1 6731   6.432   2.824   0.132
 1944SOL    HW2 6732   6.383   2.680   0.191
 1945SOL     OW 6733   3.388   5.095   0.722
 1945SOL    HW1 6734   3.345   5.156   0.655
 1945SOL    HW2 6735   3.436   5.150   0.791
 1946SOL     OW 6736   6.240   6.549   0.926
 1946SOL    HW1 6737   6.331   6.568   0.963
 1946SOL    HW2 6738   6.205   6.464   0.967
 1947SOL     OW 6739   5.220   6.287   4.555
 1947SOL    HW1 6740   5.149   6.221   4.530
 1947SOL    HW2 6741   5.273   6.253   4.633
 1948SOL     OW 6742   6.090   5.138   3.947
 1948SOL    HW1 6743   6.061   5.214   3.889
 1948SOL    HW2 6744   6.161   5.086   3.900
 1949SOL     OW 6745   3.380   3.455   6.063
 1949SOL    HW1 6746   3.363   3.545   6.023
 1949SOL    HW2 6747   3.321   3.442   6.142
 1950SOL     OW 6748   4.444   3.126   0.458
 1950SOL    HW1 6749   4.401   3.036   0.463
 1950SOL    HW2 6750   4.377   3.197   0.481
 1951SOL     OW 6751   6.108   4.407   0.064
 1951SOL    HW1 6752   6.146   4.315   0.068
 1951SOL    HW2 6753   6.021   4.406   0.015
 1952SOL     OW 6754   4.457   3.693   1.366
 1952SOL    HW1 6755   4.551   3.659   1.355
 1952SOL    HW2 6756   4.393   3.617   1.360
 1953SOL     OW 6757   6.150   1.709   5.600
 1953SOL    HW1 6758   6.202   1.707   5.686
 1953SOL    HW2 6759   6.100   1.796   5.593
 1954SOL     OW 6760   6.745   0.789   2.196
 1954SOL    HW1 6761   6.652   0.794   2.160
 1954SOL    HW2 6762   6.810   0.809   2.123
 1955SOL     OW 6763   0.870   0.671   3.240
 1955SOL    HW1 6764   0.904   0.763   3.220
 1955SOL    HW2 6765   0.933   0.627   3.304
 1956SOL     OW 6766   4.700   0.117   1.956
 1956SOL    HW1 6767   4.678   0.019   1.952
 1956SOL    HW2 6768   4.624   0.170   1.917
 1957SOL     OW 6769   5.733   4.439   4.132
 1957SOL    HW1 6770   5.713   4.537   4.128
 1957SOL    HW2 6771   5.814   4.424   4.190
 1958SOL     OW 6772   4.849   1.333   1.631
 1958SOL    HW1 6773   4.867   1.428   1.656
 1958SOL    HW2 6774   4.770   1.329   1.569
 1959SOL     OW 6775   1.418   0.230   3.996
 1959SOL    HW1 6776   1.514   0.204   4.003
 1959SOL    HW2 6777   1.411   0.329   3.993
 1960SOL     OW 6778   0.628   4.612   1.986
 1960SOL    HW1 6779   0.557   4.604   1.916
 1960SOL    HW2 6780   0.693   4.684   1.960
 1961SOL     OW 6781   6.096   4.828   4.859
 1961SOL    HW1 6782   6.090   4.907   4.919
 1961SOL    HW2 6783   6.178   4.775   4.881
 1962SOL     OW 6784   1.389   6.064   2.487
 1962SOL    HW1 6785   1.479   6.076   2.528
 1962SOL    HW2 6786   1.358   5.970   2.502
 1963SOL     OW 6787   0.990   1.766   1.378
 1963SOL    HW1 6788   0.907   1.757   1.323
 1963SOL    HW2 6789   0.971   1.823   1.458
 1964SOL     OW 6790   4.457   4.605   1.617
 1964SOL    HW1 6791   4.511   4.660   1.553
 1964SOL    HW2 6792   4.519   4.552   1.675
 1965SOL     OW 6793   1.332   3.008   4.356
 1965SOL    HW1 6794   1.333   2.910   4.372
 1965SOL    HW2 6795   1.380   3.055   4.429
 1966SOL     OW 6796   0.398   6.162   0.146
 1966SOL    HW1 6797   0.360   6.239   0.198
 1966SOL    HW2 6798   0.472   6.121   0.198
 1967SOL     OW 6799   5.711   2.716   4.662
 1967SOL    HW1 6800   5.768   2.686   4.586
 1967SOL    HW2 6801   5.750   2.682   4.748
 1968SOL     OW 6802   1.406   6.899   5.442
 1968SOL    HW1 6803   1.371   6.828   5.504
 1968SOL    HW2 6804   1.505   6.887   5.430
 1969SOL     OW 6805   2.120   1.799   0.747
 1969SOL    HW1 6806   2.071   1.842   0.823
 1969SOL    HW2 6807   2.206   1.847   0.730
 1970SOL     OW 6808   3.042   6.139   6.392
 1970SOL    HW1 6809   3.011   6.054   6.350
 1970SOL    HW2 6810   3.073   6.202   6.321
 1971SOL     OW 6811   0.449   0.491   5.109
 1971SOL    HW1 6812   0.466   0.395   5.085
 1971SOL    HW2 6813   0.426   0.541   5.025
 1972SOL     OW 6814   4.768   1.981   1.780
 1972SOL    HW1 6815   4.678   2.012   1.749
 1972SOL    HW2 6816   4.759   1.935   1.868
 1973SOL     OW 6817   3.794   2.981   0.627
 1973SOL    HW1 6818   3.712   3.016   0.672
 1973SOL    HW2 6819   3.778   2.977   0.528
 1974SOL     OW 6820   5.666   6.940   4.680
 1974SOL    HW1 6821   5.619   6.886   4.610
 1974SOL    HW2 6822   5.742   6.887   4.717
 1975SOL     OW 6823   2.070   1.875   4.380
 1975SOL    HW1 6824   1.993   1.929   4.346
 1975SOL    HW2 6825   2.047   1.837   4.469
 1976SOL     OW 6826   6.328   0.190   0.454
 1976SOL    HW1 6827   6.409   0.132   0.451
 1976SOL    HW2 6828   6.249   0.136   0.482
 1977SOL     OW 6829   2.181   3.204   4.995
 1977SOL    HW1 6830   2.158   3.227   4.901
 1977SOL    HW2 6831   2.249   3.130   4.996
 1978SOL     OW 6832   2.395   6.273   3.154
 1978SOL    HW1 6833   2.377   6.183   3.193
 1978SOL    HW2 6834   2.384   6.343   3.224
 1979SOL     OW 6835   5.670   4.664   0.163
 1979SOL    HW1 6836   5.651   4.678   0.066
 1979SOL    HW2 6837   5.591   4.621   0.207
 1980SOL     OW 6838   2.944   0.145   4.067
 1980SOL    HW1 6839   3.014   0.150   3.996
 1980SOL    HW2 6840   2.879   0.072   4.045
 1981SOL     OW 6841   6.638   3.201   2.005
 1981SOL    HW1 6842   6.709   3.136   2.032
 1981SOL    HW2 6843   6.549   3.159   2.015
 1982SOL     OW 6844   0.644   3.898   4.399
 1982SOL    HW1 6845   0.621   3.995   4.411
 1982SOL    HW2 6846   0.728   3.890   4.346
 1983SOL     OW 6847   1.310   0.755   1.785
 1983SOL    HW1 6848   1.245   0.830   1.769
 1983SOL    HW2 6849   1.387   0.764   1.722
 1984SOL     OW 6850   5.184   2.729   4.732
 1984SOL    HW1 6851   5.283   2.741   4.730
 1984SOL    HW2 6852   5.160   2.665   4.804
 1985SOL     OW 6853   0.865   6.736   2.390
 1985SOL    HW1 6854   0.873   6.835   2.400
 1985SOL    HW2 6855   0.834   6.696   2.476
 1986SOL     OW 6856   2.759   1.145   6.749
 1986SOL    HW1 6857   2.695   1.099   6.810
 1986SOL    HW2 6858   2.709   1.181   6.669
 1987SOL     OW 6859   2.079   1.698   3.022
 1987SOL    HW1 6860   2.134   1.736   2.948
 1987SOL    HW2 6861   2.107   1.740   3.109
 1988SOL     OW 6862   6.646   3.810   0.619
 1988SOL    HW1 6863   6.580   3.816   0.544
 1988SOL    HW2 6864   6.597   3.790   0.704
 1989SOL     OW 6865   2.161   5.669   5.003
 1989SOL    HW1 6866   2.245   5.650   5.054
 1989SOL    HW2 6867   2.147   5.767   4.996
 1990SOL     OW 6868   3.727   5.580   0.860
 1990SOL    HW1 6869   3.784   5.584   0.778
 1990SOL    HW2 6870   3.781   5.608   0.939
 1991SOL     OW 6871   3.148   4.663   6.918
 1991SOL    HW1 6872   3.205   4.699   6.845
 1991SOL    HW2 6873   3.177   4.570   6.942
 1992SOL     OW 6874   0.335   0.649   0.207
 1992SOL    HW1 6875   0.250   0.691   0.176
 1992SOL    HW2 6876   0.316   0.557   0.241
 1993SOL     OW 6877   3.757   2.487   6.028
 1993SOL    HW1 6878   3.676   2.507   5.974
 1993SOL    HW2 6879   3.774   2.562   6.092
 1994SOL     OW 6880   0.394   1.632   0.314
 1994SOL    HW1 6881   0.323   1.576   0.272
 1994SOL    HW2 6882   0.479   1.580   0.319
 1995SOL     OW 6883   5.279   2.463   3.729
 1995SOL    HW1 6884   5.193   2.514   3.741
 1995SOL    HW2 6885   5.326   2.496   3.647
 1996SOL     OW 6886   2.598   2.250   0.540
 1996SOL    HW1 6887   2.626   2.300   0.458
 1996SOL    HW2 6888   2.614   2.306   0.621
 1997SOL     OW 6889   3.430   2.126   4.908
 1997SOL    HW1 6890   3.392   2.217   4.891
 1997SOL    HW2 6891   3.372   2.057   4.865
 1998SOL     OW 6892   2.478   3.940   0.452
 1998SOL    HW1 6893   2.473   3.923   0.354
 1998SOL    HW2 6894   2.498   3.854   0.500
 1999SOL     OW 6895   2.039   6.911   6.452
 1999SOL    HW1 6896   2.106   6.932   6.380
 1999SOL    HW2 6897   1.985   6.832   6.425
 2000SOL     OW 6898   4.082   2.835   5.340
 2000SOL    HW1 6899   4.080   2.744   5.299
 2000SOL    HW2 6900   4.170   2.849   5.386
 2001SOL     OW 6901   2.291   0.082   1.552
 2001SOL    HW1 6902   2.191   0.075   1.550
 2001SOL    HW2 6903   2.327   0.065   1.460
 2002SOL     OW 6904   0.652   4.325   0.396
 2002SOL    HW1 6905   0.750   4.318   0.416
 2002SOL    HW2 6906   0.632   4.281   0.309
 2003SOL     OW 6907   6.179   5.171   2.428
 2003SOL    HW1 6908   6.139   5.105   2.363
 2003SOL    HW2 6909   6.175   5.133   2.520
 2004SOL     OW 6910   5.500   0.986   4.387
 2004SOL    HW1 6911   5.517   0.939   4.474
 2004SOL    HW2 6912   5.408   0.964   4.355
 2005SOL     OW 6913   0.260   4.435   0.523
 2005SOL    HW1 6914   0.230   4.528   0.547
 2005SOL    HW2 6915   0.228   4.412   0.431
 2006SOL     OW 6916   5.845   0.085   2.707
 2006SOL    HW1 6917   5.783   0.118   2.636
 2006SOL    HW2 6918   5.792   0.041   2.779
 2007SOL     OW 6919   4.727   4.247   0.528
 2007SOL    HW1 6920   4.739   4.149   0.542
 2007SOL    HW2 6921   4.779   4.298   0.597
 2008SOL     OW 6922   1.884   4.160   4.105
 2008SOL    HW1 6923   1.818   4.173   4.032
 2008SOL    HW2 6924   1.972   4.132   4.066
 2009SOL     OW 6925   5.391   0.457   2.770
 2009SOL    HW1 6926   5.326   0.431   2.841
 2009SOL    HW2 6927   5.483   0.428   2.796
 2010SOL     OW 6928   3.137   1.668   1.894
 2010SOL    HW1 6929   3.108   1.576   1.918
 2010SOL    HW2 6930   3.064   1.715   1.844
 2011SOL     OW 6931   0.050   0.824   4.644
 2011SOL    HW1 6932   0.066   0.888   4.569
 2011SOL    HW2 6933   0.106   0.743   4.631
 2012SOL     OW 6934   0.988   4.192   2.496
 2012SOL    HW1 6935   0.917   4.172   2.564
 2012SOL    HW2 6936   1.068   4.134   2.513
 2013SOL     OW 6937   5.944   2.570   3.127
 2013SOL    HW1 6938   5.993   2.486   3.149
 2013SOL    HW2 6939   6.007   2.634   3.083
 2014SOL     OW 6940   3.018   6.583   3.483
 2014SOL    HW1 6941   2.972   6.494   3.486
 2014SOL    HW2 6942   2.950   6.655   3.494
 2015SOL     OW 6943   2.120   0.356   0.311
 2015SOL    HW1 6944   2.184   0.299   0.362
 2015SOL    HW2 6945   2.137   0.453   0.332
 2016SOL     OW 6946   2.023   6.185   5.630
 2016SOL    HW1 6947   1.952   6.181   5.700
 2016SOL    HW2 6948   1.991   6.143   5.546
 2017SOL     OW 6949   3.842   0.152   3.466
 2017SOL    HW1 6950   3.898   0.216   3.519
 2017SOL    HW2 6951   3.896   0.071   3.444
 2018SOL     OW 6952   5.445   2.450   4.181
 2018SOL    HW1 6953   5.475   2.414   4.093
 2018SOL    HW2 6954   5.522   2.494   4.228
 2019SOL     OW 6955   5.461   3.632   6.022
 2019SOL    HW1 6956   5.545   3.618   6.074
 2019SOL    HW2 6957   5.384   3.643   6.085
 2020SOL     OW 6958   2.100   0.114   5.427
 2020SOL    HW1 6959   2.193   0.081   5.413
 2020SOL    HW2 6960   2.036   0.056   5.376
 2021SOL     OW 6961   6.686   6.904   5.226
 2021SOL    HW1 6962   6.702   6.911   5.325
 2021SOL    HW2 6963   6.628   6.824   5.208
 2022SOL     OW 6964   1.379   5.049   3.499
 2022SOL    HW1 6965   1.472   5.032   3.531
 2022SOL    HW2 6966   1.325   5.089   3.574
 2023SOL     OW 6967   0.171   0.476   6.505
 2023SOL    HW1 6968   0.210   0.398   6.455
 2023SOL    HW2 6969   0.183   0.559   6.451
 2024SOL     OW 6970   0.210   5.938   3.398
 2024SOL    HW1 6971   0.113   5.936   3.419
 2024SOL    HW2 6972   0.229   6.012   3.333
 2025SOL     OW 6973   3.874   0.907   3.549
 2025SOL    HW1 6974   3.921   0.856   3.477
 2025SOL    HW2 6975   3.828   0.844   3.611
 2026SOL     OW 6976   6.146   3.176   5.680
 2026SOL    HW1 6977   6.164   3.106   5.610
 2026SOL    HW2 6978   6.229   3.189   5.735
 2027SOL     OW 6979   1.074   0.019   0.071
 2027SOL    HW1 6980   1.139   6.984   0.019
 2027SOL    HW2 6981   1.124   0.091   0.120
 2028SOL     OW 6982   3.069   5.422   4.272
 2028SOL    HW1 6983   3.110   5.354   4.333
 2028SOL    HW2 6984   2.991   5.382   4.224
 2029SOL     OW 6985   6.233   1.904   0.100
 2029SOL    HW1 6986   6.248   1.890   0.002
 2029SOL    HW2 6987   6.290   1.841   0.152
 2030SOL     OW 6988   3.288   0.895   3.808
 2030SOL    HW1 6989   3.386   0.873   3.816
 2030SOL    HW2 6990   3.238   0.815   3.777
 2031SOL     OW 6991   6.886   5.766   1.656
 2031SOL    HW1 6992   6.915   5.858   1.681
 2031SOL    HW2 6993   6.954   5.700   1.686
 2032SOL     OW 6994   4.168   0.730   2.179
 2032SOL    HW1 6995   4.196   0.779   2.096
 2032SOL    HW2 6996   4.162   0.795   2.255
 2033SOL     OW 6997   2.938   2.906   6.976
 2033SOL    HW1 6998   2.944   2.808   6.994
 2033SOL    HW2 6999   2.841   2.933   6.973
 2034SOL     OW 7000   2.529   5.106   5.248
 2034SOL    HW1 7001   2.469   5.186   5.248
 2034SOL    HW2 7002   2.571   5.096   5.339
 2035SOL     OW 7003   6.257   6.277   3.462
 2035SOL    HW1 7004   6.294   6.333   3.537
 2035SOL    HW2 7005   6.158   6.289   3.457
 2036SOL     OW 7006   0.907   3.295   2.797
 2036SOL    HW1 7007   0.918   3.345   2.883
 2036SOL    HW2 7008   0.984   3.316   2.737
 2037SOL     OW 7009   6.278   2.919   6.147
 2037SOL    HW1 7010   6.339   2.840   6.144
 2037SOL    HW2 7011   6.333   3.003   6.151
 2038SOL     OW 7012   1.825   1.459   0.530
 2038SOL    HW1 7013   1.818   1.418   0.621
 2038SOL    HW2 7014   1.917   1.441   0.493
 2039SOL     OW 7015   6.928   5.674   3.464
 2039SOL    HW1 7016   6.910   5.618   3.545
 2039SOL    HW2 7017   7.020   5.656   3.430
 2040SOL     OW 7018   1.660   2.729   6.652
 2040SOL    HW1 7019   1.732   2.723   6.722
 2040SOL    HW2 7020   1.669   2.652   6.589
 2041SOL     OW 7021   0.992   6.228   5.194
 2041SOL    HW1 7022   0.915   6.213   5.256
 2041SOL    HW2 7023   0.984   6.167   5.115
 2042SOL     OW 7024   4.435   6.229   6.946
 2042SOL    HW1 7025   4.372   6.206   6.871
 2042SOL    HW2 7026   4.447   6.149   7.004
 2043SOL     OW 7027   6.299   3.693   3.657
 2043SOL    HW1 7028   6.264   3.600   3.649
 2043SOL    HW2 7029   6.397   3.690   3.678
 2044SOL     OW 7030   6.672   0.969   1.456
 2044SOL    HW1 7031   6.603   1.040   1.442
 2044SOL    HW2 7032   6.748   0.982   1.392
 2045SOL     OW 7033   1.759   5.606   4.656
 2045SOL    HW1 7034   1.846   5.618   4.702
 2045SOL    HW2 7035   1.690   5.665   4.698
 2046SOL     OW 7036   6.841   2.136   4.088
 2046SOL    HW1 7037   6.779   2.211   4.113
 2046SOL    HW2 7038   6.824   2.110   3.993
 2047SOL     OW 7039   6.543   2.909   0.020
 2047SOL    HW1 7040   6.574   2.956   0.102
 2047SOL    HW2 7041   6.457   2.951   7.009
 2048SOL     OW 7042   0.817   6.634   5.697
 2048SOL    HW1 7043   0.880   6.650   5.773
 2048SOL    HW2 7044   0.861   6.662   5.611
 2049SOL     OW 7045   5.995   1.441   4.128
 2049SOL    HW1 7046   5.924   1.434   4.198
 2049SOL    HW2 7047   6.085   1.436   4.171
 2050SOL     OW 7048   5.764   3.009   3.745
 2050SOL    HW1 7049   5.779   3.095   3.793
 2050SOL    HW2 7050   5.704   2.950   3.799
 2051SOL     OW 7051   1.723   5.912   6.493
 2051SOL    HW1 7052   1.751   5.850   6.420
 2051SOL    HW2 7053   1.803   5.961   6.529
 2052SOL     OW 7054   1.801   2.772   1.231
 2052SOL    HW1 7055   1.744   2.700   1.270
 2052SOL    HW2 7056   1.785   2.777   1.133
 2053SOL     OW 7057   6.663   6.078   4.420
 2053SOL    HW1 7058   6.576   6.067   4.466
 2053SOL    HW2 7059   6.738   6.054   4.482
 2054SOL     OW 7060   3.534   4.085   3.403
 2054SOL    HW1 7061   3.550   3.986   3.408
 2054SOL    HW2 7062   3.455   4.109   3.459
 2055SOL     OW 7063   5.816   3.592   4.277
 2055SOL    HW1 7064   5.731   3.612   4.228
 2055SOL    HW2 7065   5.803   3.610   4.374
 2056SOL     OW 7066   4.349   5.218   1.087
 2056SOL    HW1 7067   4.447   5.230   1.098
 2056SOL    HW2 7068   4.322   5.127   1.120
 2057SOL     OW 7069   5.158   4.157   6.034
 2057SOL    HW1 7070   5.225   4.105   6.086
 2057SOL    HW2 7071   5.203   4.234   5.989
 2058SOL     OW 7072   0.175   6.638   2.848
 2058SOL    HW1 7073   0.266   6.620   2.886
 2058SOL    HW2 7074   0.172   6.731   2.812
 2059SOL     OW 7075   2.045   5.977   6.094
 2059SOL    HW1 7076   1.971   5.920   6.129
 2059SOL    HW2 7077   2.132   5.945   6.131
 2060SOL     OW 7078   0.429   4.077   1.290
 2060SOL    HW1 7079   0.355   4.017   1.319
 2060SOL    HW2 7080   0.510   4.059   1.347
 2061SOL     OW 7081   1.606   1.764   2.005
 2061SOL    HW1 7082   1.652   1.676   1.996
 2061SOL    HW2 7083   1.652   1.832   1.949
 2062SOL     OW 7084   0.073   5.413   5.349
 2062SOL    HW1 7085   0.152   5.374   5.396
 2062SOL    HW2 7086   7.014   5.411   5.409
 2063SOL     OW 7087   1.370   6.607   5.103
 2063SOL    HW1 7088   1.288   6.665   5.106
 2063SOL    HW2 7089   1.343   6.511   5.105
 2064SOL     OW 7090   0.353   2.314   4.723
 2064SOL    HW1 7091   0.452   2.325   4.735
 2064SOL    HW2 7092   0.333   2.298   4.626
 2065SOL     OW 7093   5.998   2.858   6.119
 2065SOL    HW1 7094   6.097   2.845   6.120
 2065SOL    HW2 7095   5.974   2.936   6.178
 2066SOL     OW 7096   0.079   3.872   5.296
 2066SOL    HW1 7097   0.091   3.934   5.218
 2066SOL    HW2 7098   0.037   3.921   5.372
 2067SOL     OW 7099   6.981   4.871   0.757
 2067SOL    HW1 7100   6.900   4.930   0.762
 2067SOL    HW2 7101   6.990   4.833   0.665
 2068SOL     OW 7102   2.717   0.228   3.629
 2068SOL    HW1 7103   2.810   0.263   3.640
 2068SOL    HW2 7104   2.719   0.147   3.571
 2069SOL     OW 7105   6.090   2.483   4.128
 2069SOL    HW1 7106   6.143   2.418   4.183
 2069SOL    HW2 7107   6.152   2.545   4.081
 2070SOL     OW 7108   1.337   1.757   0.903
 2070SOL    HW1 7109   1.397   1.772   0.824
 2070SOL    HW2 7110   1.393   1.756   0.987
 2071SOL     OW 7111   5.974   0.617   5.700
 2071SOL    HW1 7112   5.937   0.612   5.793
 2071SOL    HW2 7113   5.901   0.599   5.634
 2072SOL     OW 7114   4.543   5.240   4.375
 2072SOL    HW1 7115   4.610   5.305   4.338
 2072SOL    HW2 7116   4.454   5.285   4.384
 2073SOL     OW 7117   4.385   6.517   5.136
 2073SOL    HW1 7118   4.309   6.580   5.116
 2073SOL    HW2 7119   4.467   6.570   5.156
 2074SOL     OW 7120   2.410   2.650   6.213
 2074SOL    HW1 7121   2.418   2.569   6.271
 2074SOL    HW2 7122   2.339   2.711   6.249
 2075SOL     OW 7123   6.770   2.494   3.182
 2075SOL    HW1 7124   6.805   2.545   3.261
 2075SOL    HW2 7125   6.670   2.495   3.183
 2076SOL     OW 7126   4.954   6.659   6.257
 2076SOL    HW1 7127   4.895   6.673   6.336
 2076SOL    HW2 7128   4.939   6.568   6.220
 2077SOL     OW 7129   6.691   2.063   2.013
 2077SOL    HW1 7130   6.744   2.064   2.097
 2077SOL    HW2 7131   6.751   2.042   1.935
 2078SOL     OW 7132   2.136   5.435   6.153
 2078SOL    HW1 7133   2.135   5.442   6.253
 2078SOL    HW2 7134   2.061   5.489   6.115
 2079SOL     OW 7135   0.102   1.367   2.813
 2079SOL    HW1 7136   0.083   1.427   2.891
 2079SOL    HW2 7137   0.102   1.271   2.844
 2080SOL     OW 7138   2.490   0.648   5.132
 2080SOL    HW1 7139   2.580   0.619   5.166
 2080SOL    HW2 7140   2.441   0.696   5.204
 2081SOL     OW 7141   1.200   6.574   4.574
 2081SOL    HW1 7142   1.239   6.537   4.489
 2081SOL    HW2 7143   1.101   6.559   4.575
 2082SOL     OW 7144   0.692   6.396   3.284
 2082SOL    HW1 7145   0.678   6.321   3.219
 2082SOL    HW2 7146   0.733   6.474   3.237
 2083SOL     OW 7147   1.440   5.580   5.257
 2083SOL    HW1 7148   1.423   5.677   5.242
 2083SOL    HW2 7149   1.433   5.560   5.355
 2084SOL     OW 7150   0.762   3.549   2.682
 2084SOL    HW1 7151   0.854   3.565   2.647
 2084SOL    HW2 7152   0.763   3.473   2.746
 2085SOL     OW 7153   5.010   0.318   0.945
 2085SOL    HW1 7154   4.937   0.316   1.014
 2085SOL    HW2 7155   5.000   0.238   0.885
 2086SOL     OW 7156   3.680   6.261   6.878
 2086SOL    HW1 7157   3.588   6.222   6.884
 2086SOL    HW2 7158   3.733   6.213   6.808
 2087SOL     OW 7159   4.919   1.501   1.933
 2087SOL    HW1 7160   4.869   1.423   1.971
 2087SOL    HW2 7161   4.862   1.548   1.866
 2088SOL     OW 7162   1.355   6.121   6.697
 2088SOL    HW1 7163   1.338   6.026   6.670
 2088SOL    HW2 7164   1.451   6.143   6.682
 2089SOL     OW 7165   4.795   2.629   5.811
 2089SOL    HW1 7166   4.813   2.543   5.860
 2089SOL    HW2 7167   4.880   2.680   5.801
 2090SOL     OW 7168   4.499   3.278   5.761
 2090SOL    HW1 7169   4.513   3.374   5.785
 2090SOL    HW2 7170   4.552   3.220   5.822
 2091SOL     OW 7171   0.030   5.058   0.979
 2091SOL    HW1 7172   0.021   4.991   1.052
 2091SOL    HW2 7173   0.051   5.012   0.893
 2092SOL     OW 7174   5.438   3.553   0.677
 2092SOL    HW1 7175   5.514   3.517   0.624
 2092SOL    HW2 7176   5.360   3.490   0.671
 2093SOL     OW 7177   2.974   2.279   1.628
 2093SOL    HW1 7178   2.910   2.204   1.613
 2093SOL    HW2 7179   2.975   2.304   1.725
 2094SOL     OW 7180   5.166   1.166   1.452
 2094SOL    HW1 7181   5.177   1.254   1.498
 2094SOL    HW2 7182   5.116   1.103   1.512
 2095SOL     OW 7183   6.009   6.236   4.621
 2095SOL    HW1 7184   5.985   6.320   4.669
 2095SOL    HW2 7185   5.955   6.228   4.538
 2096SOL     OW 7186   5.093   5.705   3.308
 2096SOL    HW1 7187   5.087   5.716   3.407
 2096SOL    HW2 7188   5.174   5.651   3.285
 2097SOL     OW 7189   2.913   3.227   0.231
 2097SOL    HW1 7190   2.890   3.167   0.308
 2097SOL    HW2 7191   3.012   3.225   0.216
 2098SOL     OW 7192   4.328   5.982   2.352
 2098SOL    HW1 7193   4.251   5.970   2.414
 2098SOL    HW2 7194   4.335   5.903   2.291
 2099SOL     OW 7195   3.687   1.755   0.329
 2099SOL    HW1 7196   3.690   1.782   0.425
 2099SOL    HW2 7197   3.592   1.754   0.298
 2100SOL     OW 7198   5.472   1.426   0.720
 2100SOL    HW1 7199   5.520   1.513   0.724
 2100SOL    HW2 7200   5.517   1.366   0.654
 2101SOL     OW 7201   6.905   6.670   1.164
 2101SOL    HW1 7202   6.905   6.700   1.069
 2101SOL    HW2 7203   6.835   6.599   1.176
 2102SOL     OW 7204   5.141   3.885   2.110
 2102SOL    HW1 7205   5.093   3.895   2.022
 2102SOL    HW2 7206   5.238   3.868   2.092
 2103SOL     OW 7207   3.720   3.574   6.971
 2103SOL    HW1 7208   3.746   3.626   0.032
 2103SOL    HW2 7209   3.748   3.625   6.889
 2104SOL     OW 7210   1.556   4.428   2.181
 2104SOL    HW1 7211   1.468   4.392   2.148
 2104SOL    HW2 7212   1.625   4.416   2.110
 2105SOL     OW 7213   4.845   5.162   6.584
 2105SOL    HW1 7214   4.903   5.109   6.523
 2105SOL    HW2 7215   4.891   5.173   6.672
 2106SOL     OW 7216   4.770   3.710   1.678
 2106SOL    HW1 7217   4.819   3.766   1.611
 2106SOL    HW2 7218   4.719   3.770   1.740
 2107SOL     OW 7219   6.096   2.561   5.541
 2107SOL    HW1 7220   6.013   2.616   5.536
 2107SOL    HW2 7221   6.082   2.475   5.492
 2108SOL     OW 7222   6.521   5.873   5.234
 2108SOL    HW1 7223   6.560   5.806   5.297
 2108SOL    HW2 7224   6.477   5.826   5.158
 2109SOL     OW 7225   3.470   6.066   2.660
 2109SOL    HW1 7226   3.394   6.041   2.599
 2109SOL    HW2 7227   3.544   5.999   2.650
 2110SOL     OW 7228   3.165   0.801   6.843
 2110SOL    HW1 7229   3.174   0.760   6.752
 2110SOL    HW2 7230   3.121   0.890   6.836
 2111SOL     OW 7231   2.195   3.568   6.052
 2111SOL    HW1 7232   2.247   3.489   6.019
 2111SOL    HW2 7233   2.107   3.573   6.004
 2112SOL     OW 7234   4.834   2.131   0.609
 2112SOL    HW1 7235   4.762   2.061   0.604
 2112SOL    HW2 7236   4.804   2.213   0.561
 2113SOL     OW 7237   2.362   0.832   4.982
 2113SOL    HW1 7238   2.273   0.833   5.028
 2113SOL    HW2 7239   2.417   0.757   5.018
 2114SOL     OW 7240   2.929   2.260   6.559
 2114SOL    HW1 7241   2.841   2.237   6.601
 2114SOL    HW2 7242   2.988   2.301   6.628
 2115SOL     OW 7243   0.901   4.221   2.022
 2115SOL    HW1 7244   0.812   4.262   2.040
 2115SOL    HW2 7245   0.902   4.184   1.929
 2116SOL     OW 7246   1.189   3.155   2.194
 2116SOL    HW1 7247   1.255   3.175   2.121
 2116SOL    HW2 7248   1.098   3.188   2.167
 2117SOL     OW 7249   5.706   3.761   1.277
 2117SOL    HW1 7250   5.772   3.743   1.350
 2117SOL    HW2 7251   5.632   3.694   1.282
 2118SOL     OW 7252   6.874   3.517   3.322
 2118SOL    HW1 7253   6.795   3.499   3.380
 2118SOL    HW2 7254   6.885   3.441   3.257
 2119SOL     OW 7255   1.741   0.977   0.988
 2119SOL    HW1 7256   1.721   0.884   1.020
 2119SOL    HW2 7257   1.681   1.042   1.034
 2120SOL     OW 7258   0.408   3.688   2.453
 2120SOL    HW1 7259   0.399   3.695   2.552
 2120SOL    HW2 7260   0.467   3.611   2.430
 2121SOL     OW 7261   1.586   2.813   5.835
 2121SOL    HW1 7262   1.604   2.716   5.848
 2121SOL    HW2 7263   1.665   2.866   5.863
 2122SOL     OW 7264   5.365   5.984   6.550
 2122SOL    HW1 7265   5.319   5.919   6.611
 2122SOL    HW2 7266   5.449   6.018   6.594
 2123SOL     OW 7267   6.639   5.940   1.351
 2123SOL    HW1 7268   6.607   5.983   1.267
 2123SOL    HW2 7269   6.615   5.843   1.350
 2124SOL     OW 7270   2.545   1.476   6.911
 2124SOL    HW1 7271   2.518   1.478   7.008
 2124SOL    HW2 7272   2.477   1.424   6.859
 2125SOL     OW 7273   0.976   5.760   2.006
 2125SOL    HW1 7274   0.969   5.739   2.103
 2125SOL    HW2 7275   1.021   5.849   1.994
 2126SOL     OW 7276   3.342   2.714   6.485
 2126SOL    HW1 7277   3.379   2.804   6.463
 2126SOL    HW2 7278   3.298   2.717   6.575
 2127SOL     OW 7279   0.468   1.883   5.568
 2127SOL    HW1 7280   0.511   1.814   5.510
 2127SOL    HW2 7281   0.528   1.904   5.645
 2128SOL     OW 7282   5.952   2.286   2.420
 2128SOL    HW1 7283   6.001   2.199   2.424
 2128SOL    HW2 7284   5.997   2.346   2.354
 2129SOL     OW 7285   4.500   4.612   4.815
 2129SOL    HW1 7286   4.451   4.573   4.893
 2129SOL    HW2 7287   4.484   4.711   4.811
 2130SOL     OW 7288   2.679   0.727   2.187
 2130SOL    HW1 7289   2.738   0.719   2.106
 2130SOL    HW2 7290   2.736   0.733   2.269
 2131SOL     OW 7291   5.270   0.959   0.772
 2131SOL    HW1 7292   5.359   0.936   0.733
 2131SOL    HW2 7293   5.204   0.973   0.698
 2132SOL     OW 7294   3.081   1.785   6.862
 2132SOL    HW1 7295   2.983   1.780   6.884
 2132SOL    HW2 7296   3.094   1.761   6.766
 2133SOL     OW 7297   3.208   2.271   1.220
 2133SOL    HW1 7298   3.261   2.248   1.301
 2133SOL    HW2 7299   3.111   2.279   1.245
 2134SOL     OW 7300   1.057   0.995   4.995
 2134SOL    HW1 7301   1.014   1.066   5.051
 2134SOL    HW2 7302   1.092   1.035   4.911
 2135SOL     OW 7303   0.697   1.769   4.644
 2135SOL    HW1 7304   0.710   1.820   4.558
 2135SOL    HW2 7305   0.787   1.744   4.681
 2136SOL     OW 7306   1.305   4.030   4.794
 2136SOL    HW1 7307   1.207   4.046   4.787
 2136SOL    HW2 7308   1.343   4.082   4.871
 2137SOL     OW 7309   0.171   6.777   4.582
 2137SOL    HW1 7310   0.210   6.796   4.492
 2137SOL    HW2 7311   0.238   6.799   4.653
 2138SOL     OW 7312   6.468   2.051   2.146
 2138SOL    HW1 7313   6.552   2.049   2.091
 2138SOL    HW2 7314   6.395   2.004   2.096
 2139SOL     OW 7315   4.205   0.813   2.578
 2139SOL    HW1 7316   4.127   0.842   2.522
 2139SOL    HW2 7317   4.193   0.845   2.672
 2140SOL     OW 7318   3.164   6.030   3.129
 2140SOL    HW1 7319   3.146   6.128   3.140
 2140SOL    HW2 7320   3.078   5.982   3.117
 2141SOL     OW 7321   0.266   3.356   1.387
 2141SOL    HW1 7322   0.348   3.316   1.346
 2141SOL    HW2 7323   0.279   3.454   1.398
 2142SOL     OW 7324   1.385   2.258   3.020
 2142SOL    HW1 7325   1.372   2.357   3.018
 2142SOL    HW2 7326   1.307   2.213   2.977
 2143SOL     OW 7327   2.988   4.838   0.790
 2143SOL    HW1 7328   3.046   4.757   0.784
 2143SOL    HW2 7329   2.924   4.828   0.866
 2144SOL     OW 7330   1.143   0.155   2.803
 2144SOL    HW1 7331   1.215   0.219   2.831
 2144SOL    HW2 7332   1.055   0.202   2.804
 2145SOL     OW 7333   4.123   5.661   3.625
 2145SOL    HW1 7334   4.160   5.656   3.718
 2145SOL    HW2 7335   4.043   5.721   3.625
 2146SOL     OW 7336   2.853   3.528   2.053
 2146SOL    HW1 7337   2.908   3.486   1.981
 2146SOL    HW2 7338   2.761   3.489   2.051
 2147SOL     OW 7339   6.741   0.683   6.825
 2147SOL    HW1 7340   6.661   0.736   6.853
 2147SOL    HW2 7341   6.743   0.597   6.874
 2148SOL     OW 7342   4.835   3.091   4.429
 2148SOL    HW1 7343   4.765   3.021   4.420
 2148SOL    HW2 7344   4.925   3.048   4.430
 2149SOL     OW 7345   3.786   1.035   1.392
 2149SOL    HW1 7346   3.718   1.097   1.352
 2149SOL    HW2 7347   3.753   0.941   1.387
 2150SOL     OW 7348   2.423   2.662   2.639
 2150SOL    HW1 7349   2.430   2.636   2.543
 2150SOL    HW2 7350   2.510   2.642   2.685
 2151SOL     OW 7351   2.036   1.350   4.100
 2151SOL    HW1 7352   1.953   1.389   4.060
 2151SOL    HW2 7353   2.011   1.284   4.170
 2152SOL     OW 7354   3.820   5.896   0.931
 2152SOL    HW1 7355   3.884   5.822   0.950
 2152SOL    HW2 7356   3.780   5.929   1.017
 2153SOL     OW 7357   3.508   0.391   3.323
 2153SOL    HW1 7358   3.436   0.379   3.392
 2153SOL    HW2 7359   3.572   0.461   3.355
 2154SOL     OW 7360   4.181   0.028   4.789
 2154SOL    HW1 7361   4.213   7.003   4.872
 2154SOL    HW2 7362   4.259   0.046   4.729
 2155SOL     OW 7363   1.592   5.449   6.934
 2155SOL    HW1 7364   1.541   5.363   6.935
 2155SOL    HW2 7365   1.572   5.498   6.849
 2156SOL     OW 7366   2.610   0.458   2.245
 2156SOL    HW1 7367   2.611   0.548   2.287
 2156SOL    HW2 7368   2.682   0.453   2.175
 2157SOL     OW 7369   6.231   1.330   3.025
 2157SOL    HW1 7370   6.327   1.304   3.015
 2157SOL    HW2 7371   6.223   1.430   3.020
 2158SOL     OW 7372   4.111   6.284   0.550
 2158SOL    HW1 7373   4.183   6.223   0.583
 2158SOL    HW2 7374   4.066   6.243   0.471
 2159SOL     OW 7375   1.915   6.173   5.920
 2159SOL    HW1 7376   1.815   6.169   5.925
 2159SOL    HW2 7377   1.954   6.101   5.977
 2160SOL     OW 7378   4.521   3.171   1.465
 2160SOL    HW1 7379   4.566   3.247   1.419
 2160SOL    HW2 7380   4.509   3.095   1.401
 2161SOL     OW 7381   5.389   2.534   3.495
 2161SOL    HW1 7382   5.363   2.569   3.405
 2161SOL    HW2 7383   5.441   2.449   3.484
 2162SOL     OW 7384   2.925   0.451   6.807
 2162SOL    HW1 7385   2.899   0.409   6.894
 2162SOL    HW2 7386   3.021   0.430   6.787
 2163SOL     OW 7387   0.129   5.492   6.123
 2163SOL    HW1 7388   0.136   5.589   6.149
 2163SOL    HW2 7389   0.186   5.476   6.042
 2164SOL     OW 7390   1.500   2.117   0.134
 2164SOL    HW1 7391   1.417   2.062   0.127
 2164SOL    HW2 7392   1.566   2.086   0.065
 2165SOL     OW 7393   0.837   1.401   2.751
 2165SOL    HW1 7394   0.839   1.501   2.759
 2165SOL    HW2 7395   0.744   1.371   2.733
 2166SOL     OW 7396   2.166   2.399   5.523
 2166SOL    HW1 7397   2.183   2.489   5.564
 2166SOL    HW2 7398   2.135   2.336   5.594
 2167SOL     OW 7399   2.110   0.816   3.318
 2167SOL    HW1 7400   2.111   0.767   3.230
 2167SOL    HW2 7401   2.037   0.885   3.317
 2168SOL     OW 7402   6.806   2.292   3.733
 2168SOL    HW1 7403   6.773   2.322   3.644
 2168SOL    HW2 7404   6.749   2.217   3.766
 2169SOL     OW 7405   5.602   2.388   5.849
 2169SOL    HW1 7406   5.654   2.458   5.799
 2169SOL    HW2 7407   5.513   2.375   5.806
 2170SOL     OW 7408   6.075   4.997   5.967
 2170SOL    HW1 7409   5.998   4.935   5.954
 2170SOL    HW2 7410   6.095   5.043   5.880
 2171SOL     OW 7411   5.707   3.323   0.627
 2171SOL    HW1 7412   5.728   3.277   0.713
 2171SOL    HW2 7413   5.641   3.269   0.576
 2172SOL     OW 7414   2.364   1.950   0.670
 2172SOL    HW1 7415   2.448   1.938   0.722
 2172SOL    HW2 7416   2.385   1.984   0.578
 2173SOL     OW 7417   3.705   0.100   5.432
 2173SOL    HW1 7418   3.751   0.012   5.446
 2173SOL    HW2 7419   3.647   0.120   5.511
 2174SOL     OW 7420   5.962   5.050   6.222
 2174SOL    HW1 7421   5.911   5.132   6.195
 2174SOL    HW2 7422   6.005   5.009   6.141
 2175SOL     OW 7423   3.220   2.055   3.384
 2175SOL    HW1 7424   3.159   1.982   3.414
 2175SOL    HW2 7425   3.275   2.086   3.462
 2176SOL     OW 7426   1.171   2.281   1.245
 2176SOL    HW1 7427   1.093   2.291   1.307
 2176SOL    HW2 7428   1.180   2.185   1.218
 2177SOL     OW 7429   6.095   0.833   2.538
 2177SOL    HW1 7430   6.170   0.870   2.482
 2177SOL    HW2 7431   6.100   0.872   2.629
 2178SOL     OW 7432   1.767   4.352   0.475
 2178SOL    HW1 7433   1.842   4.340   0.411
 2178SOL    HW2 7434   1.752   4.449   0.493
 2179SOL     OW 7435   2.306   5.276   4.568
 2179SOL    HW1 7436   2.224   5.323   4.599
 2179SOL    HW2 7437   2.349   5.229   4.645
 2180SOL     OW 7438   3.055   3.065   1.871
 2180SOL    HW1 7439   2.970   3.021   1.842
 2180SOL    HW2 7440   3.072   3.146   1.816
 2181SOL     OW 7441   5.250   4.424   5.687
 2181SOL    HW1 7442   5.211   4.387   5.771
 2181SOL    HW2 7443   5.231   4.362   5.611
 2182SOL     OW 7444   6.438   3.331   4.941
 2182SOL    HW1 7445   6.343   3.354   4.963
 2182SOL    HW2 7446   6.494   3.414   4.946
 2183SOL     OW 7447   4.030   3.718   6.691
 2183SOL    HW1 7448   4.035   3.643   6.625
 2183SOL    HW2 7449   3.936   3.730   6.721
 2184SOL     OW 7450   3.637   1.341   4.941
 2184SOL    HW1 7451   3.724   1.366   4.983
 2184SOL    HW2 7452   3.577   1.422   4.939
 2185SOL     OW 7453   1.920   2.108   0.541
 2185SOL    HW1 7454   1.992   2.144   0.600
 2185SOL    HW2 7455   1.956   2.093   0.449
 2186SOL     OW 7456   6.678   4.910   2.302
 2186SOL    HW1 7457   6.683   4.998   2.255
 2186SOL    HW2 7458   6.596   4.906   2.358
 2187SOL     OW 7459   0.791   1.808   1.857
 2187SOL    HW1 7460   0.787   1.740   1.930
 2187SOL    HW2 7461   0.724   1.785   1.786
 2188SOL     OW 7462   5.551   5.964   3.686
 2188SOL    HW1 7463   5.556   5.864   3.692
 2188SOL    HW2 7464   5.457   5.991   3.665
 2189SOL     OW 7465   1.879   6.069   6.647
 2189SOL    HW1 7466   1.966   6.066   6.599
 2189SOL    HW2 7467   1.893   6.046   6.743
 2190SOL     OW 7468   6.948   2.285   2.101
 2190SOL    HW1 7469   6.869   2.344   2.090
 2190SOL    HW2 7470   7.018   2.309   2.034
 2191SOL     OW 7471   3.116   1.798   6.217
 2191SOL    HW1 7472   3.127   1.717   6.275
 2191SOL    HW2 7473   3.161   1.782   6.129
 2192SOL     OW 7474   3.589   0.360   4.054
 2192SOL    HW1 7475   3.623   0.269   4.074
 2192SOL    HW2 7476   3.665   0.418   4.025
 2193SOL     OW 7477   6.655   5.893   6.064
 2193SOL    HW1 7478   6.706   5.965   6.111
 2193SOL    HW2 7479   6.686   5.888   5.969
 2194SOL     OW 7480   2.205   4.409   6.914
 2194SOL    HW1 7481   2.186   4.456   7.000
 2194SOL    HW2 7482   2.296   4.367   6.919
 2195SOL     OW 7483   0.353   6.718   2.481
 2195SOL    HW1 7484   0.412   6.663   2.422
 2195SOL    HW2 7485   0.408   6.788   2.527
 2196SOL     OW 7486   2.650   0.462   6.198
 2196SOL    HW1 7487   2.741   0.424   6.179
 2196SOL    HW2 7488   2.611   0.498   6.114
 2197SOL     OW 7489   4.988   3.823   1.466
 2197SOL    HW1 7490   4.958   3.737   1.426
 2197SOL    HW2 7491   5.014   3.809   1.562
 2198SOL     OW 7492   6.741   1.858   0.348
 2198SOL    HW1 7493   6.739   1.910   0.434
 2198SOL    HW2 7494   6.827   1.809   0.340
 2199SOL     OW 7495   5.411   0.725   1.421
 2199SOL    HW1 7496   5.336   0.662   1.444
 2199SOL    HW2 7497   5.488   0.672   1.386
 2200SOL     OW 7498   4.099   0.670   5.000
 2200SOL    HW1 7499   4.153   0.628   4.927
 2200SOL    HW2 7500   4.148   0.748   5.038
 2201SOL     OW 7501   6.459   3.049   2.197
 2201SOL    HW1 7502   6.384   3.105   2.162
 2201SOL    HW2 7503   6.434   2.952   2.190
 2202SOL     OW 7504   3.324   4.893   4.366
 2202SOL    HW1 7505   3.396   4.889   4.298
 2202SOL    HW2 7506   3.269   4.809   4.361
 2203SOL     OW 7507   2.286   2.183   2.197
 2203SOL    HW1 7508   2.347   2.211   2.272
 2203SOL    HW2 7509   2.329   2.108   2.145
 2204SOL     OW 7510   3.095   1.302   6.900
 2204SOL    HW1 7511   3.162   1.282   6.972
 2204SOL    HW2 7512   3.031   1.372   6.932
 2205SOL     OW 7513   1.531   0.164   6.628
 2205SOL    HW1 7514   1.548   0.199   6.536
 2205SOL    HW2 7515   1.543   0.065   6.629
 2206SOL     OW 7516   3.073   4.368   5.325
 2206SOL    HW1 7517   3.001   4.419   5.277
 2206SOL    HW2 7518   3.050   4.271   5.325
 2207SOL     OW 7519   2.042   3.845   6.328
 2207SOL    HW1 7520   1.996   3.806   6.408
 2207SOL    HW2 7521   2.110   3.781   6.294
 2208SOL     OW 7522   1.856   4.488   2.096
 2208SOL    HW1 7523   1.811   4.577   2.100
 2208SOL    HW2 7524   1.936   4.488   2.156
 2209SOL     OW 7525   1.539   6.049   5.567
 2209SOL    HW1 7526   1.530   6.147   5.587
 2209SOL    HW2 7527   1.456   6.001   5.598
 2210SOL     OW 7528   0.254   4.993   3.616
 2210SOL    HW1 7529   0.262   4.898   3.585
 2210SOL    HW2 7530   0.280   4.999   3.712
 2211SOL     OW 7531   5.732   1.557   6.588
 2211SOL    HW1 7532   5.688   1.477   6.547
 2211SOL    HW2 7533   5.670   1.635   6.583
 2212SOL     OW 7534   1.674   6.136   0.604
 2212SOL    HW1 7535   1.637   6.083   0.528
 2212SOL    HW2 7536   1.607   6.205   0.633
 2213SOL     OW 7537   4.421   2.750   5.364
 2213SOL    HW1 7538   4.383   2.804   5.439
 2213SOL    HW2 7539   4.473   2.809   5.303
 2214SOL     OW 7540   4.687   1.251   5.529
 2214SOL    HW1 7541   4.639   1.240   5.616
 2214SOL    HW2 7542   4.624   1.233   5.454
 2215SOL     OW 7543   0.035   1.414   5.910
 2215SOL    HW1 7544   0.057   1.394   5.814
 2215SOL    HW2 7545   6.962   1.449   5.915
 2216SOL     OW 7546   1.806   0.658   0.007
 2216SOL    HW1 7547   1.732   0.703   6.977
 2216SOL    HW2 7548   1.774   0.570   0.042
 2217SOL     OW 7549   3.211   0.347   1.491
 2217SOL    HW1 7550   3.201   0.377   1.586
 2217SOL    HW2 7551   3.292   0.290   1.482
 2218SOL     OW 7552   1.478   6.320   0.611
 2218SOL    HW1 7553   1.381   6.299   0.605
 2218SOL    HW2 7554   1.498   6.400   0.555
 2219SOL     OW 7555   1.151   4.284   3.246
 2219SOL    HW1 7556   1.148   4.327   3.337
 2219SOL    HW2 7557   1.166   4.185   3.257
 2220SOL     OW 7558   0.673   1.215   4.431
 2220SOL    HW1 7559   0.727   1.290   4.468
 2220SOL    HW2 7560   0.618   1.174   4.503
 2221SOL     OW 7561   6.538   0.879   6.889
 2221SOL    HW1 7562   6.518   0.846   6.981
 2221SOL    HW2 7563   6.498   0.970   6.878
 2222SOL     OW 7564   3.716   0.709   0.889
 2222SOL    HW1 7565   3.790   0.653   0.852
 2222SOL    HW2 7566   3.671   0.759   0.814
 2223SOL     OW 7567   5.614   6.347   3.735
 2223SOL    HW1 7568   5.539   6.305   3.684
 2223SOL    HW2 7569   5.673   6.396   3.671
 2224SOL     OW 7570   2.497   4.859   1.787
 2224SOL    HW1 7571   2.551   4.805   1.852
 2224SOL    HW2 7572   2.493   4.810   1.699
 2225SOL     OW 7573   6.283   5.597   3.275
 2225SOL    HW1 7574   6.350   5.606   3.349
 2225SOL    HW2 7575   6.330   5.583   3.188
 2226SOL     OW 7576   4.239   3.324   0.480
 2226SOL    HW1 7577   4.143   3.299   0.494
 2226SOL    HW2 7578   4.244   3.395   0.410
 2227SOL     OW 7579   6.006   4.294   0.336
 2227SOL    HW1 7580   6.090   4.306   0.389
 2227SOL    HW2 7581   5.948   4.374   0.347
 2228SOL     OW 7582   3.488   5.833   0.590
 2228SOL    HW1 7583   3.458   5.739   0.576
 2228SOL    HW2 7584   3.458   5.889   0.513
 2229SOL     OW 7585   4.281   1.314   4.292
 2229SOL    HW1 7586   4.249   1.378   4.362
 2229SOL    HW2 7587   4.366   1.349   4.252
 2230SOL     OW 7588   0.712   6.267   4.344
 2230SOL    HW1 7589   0.684   6.201   4.274
 2230SOL    HW2 7590   0.710   6.359   4.306
 2231SOL     OW 7591   1.863   1.849   1.914
 2231SOL    HW1 7592   1.927   1.779   1.884
 2231SOL    HW2 7593   1.884   1.875   2.009
 2232SOL     OW 7594   0.940   3.106   3.805
 2232SOL    HW1 7595   0.992   3.029   3.767
 2232SOL    HW2 7596   0.869   3.070   3.866
 2233SOL     OW 7597   2.805   4.935   0.389
 2233SOL    HW1 7598   2.867   4.936   0.467
 2233SOL    HW2 7599   2.857   4.924   0.305
 2234SOL     OW 7600   4.537   2.286   1.498
 2234SOL    HW1 7601   4.474   2.276   1.575
 2234SOL    HW2 7602   4.515   2.218   1.428
 2235SOL     OW 7603   1.289   0.281   0.372
 2235SOL    HW1 7604   1.217   0.249   0.433
 2235SOL    HW2 7605   1.353   0.339   0.423
 2236SOL     OW 7606   1.118   4.862   0.476
 2236SOL    HW1 7607   1.030   4.888   0.517
 2236SOL    HW2 7608   1.103   4.790   0.409
 2237SOL     OW 7609   6.001   3.694   4.788
 2237SOL    HW1 7610   6.025   3.785   4.823
 2237SOL    HW2 7611   6.006   3.695   4.688
 2238SOL     OW 7612   6.467   5.364   2.679
 2238SOL    HW1 7613   6.386   5.421   2.664
 2238SOL    HW2 7614   6.547   5.410   2.640
 2239SOL     OW 7615   4.003   5.110   3.368
 2239SOL    HW1 7616   3.955   5.197   3.355
 2239SOL    HW2 7617   4.079   5.124   3.432
 2240SOL     OW 7618   5.486   5.381   4.001
 2240SOL    HW1 7619   5.491   5.325   4.083
 2240SOL    HW2 7620   5.531   5.334   3.925
 2241SOL     OW 7621   0.368   6.298   2.617
 2241SOL    HW1 7622   0.460   6.334   2.604
 2241SOL    HW2 7623   0.302   6.373   2.610
 2242SOL     OW 7624   5.345   1.848   3.523
 2242SOL    HW1 7625   5.442   1.873   3.525
 2242SOL    HW2 7626   5.314   1.830   3.617
 2243SOL     OW 7627   2.970   6.301   5.258
 2243SOL    HW1 7628   2.898   6.333   5.320
 2243SOL    HW2 7629   2.955   6.204   5.237
 2244SOL     OW 7630   3.645   0.271   2.940
 2244SOL    HW1 7631   3.671   0.175   2.924
 2244SOL    HW2 7632   3.725   0.323   2.969
 2245SOL     OW 7633   0.410   2.253   1.969
 2245SOL    HW1 7634   0.405   2.211   1.878
 2245SOL    HW2 7635   0.487   2.317   1.972
 2246SOL     OW 7636   1.518   1.724   5.289
 2246SOL    HW1 7637   1.542   1.752   5.382
 2246SOL    HW2 7638   1.579   1.769   5.224
 2247SOL     OW 7639   2.262   2.556   6.636
 2247SOL    HW1 7640   2.306   2.630   6.584
 2247SOL    HW2 7641   2.282   2.469   6.592
 2248SOL     OW 7642   4.947   3.853   5.706
 2248SOL    HW1 7643   4.980   3.779   5.764
 2248SOL    HW2 7644   4.973   3.835   5.611
 2249SOL     OW 7645   6.003   6.697   2.757
 2249SOL    HW1 7646   5.953   6.745   2.828
 2249SOL    HW2 7647   5.939   6.652   2.695
 2250SOL     OW 7648   5.036   4.215   1.185
 2250SOL    HW1 7649   5.073   4.172   1.102
 2250SOL    HW2 7650   5.048   4.314   1.179
 2251SOL     OW 7651   5.838   1.407   0.349
 2251SOL    HW1 7652   5.813   1.347   0.273
 2251SOL    HW2 7653   5.782   1.490   0.346
 2252SOL     OW 7654   6.620   2.682   4.682
 2252SOL    HW1 7655   6.532   2.721   4.708
 2252SOL    HW2 7656   6.673   2.661   4.764
 2253SOL     OW 7657   1.222   3.117   6.565
 2253SOL    HW1 7658   1.286   3.096   6.639
 2253SOL    HW2 7659   1.128   3.117   6.601
 2254SOL     OW 7660   2.621   2.824   6.204
 2254SOL    HW1 7661   2.548   2.758   6.189
 2254SOL    HW2 7662   2.655   2.857   6.115
 2255SOL     OW 7663   6.437   2.522   0.925
 2255SOL    HW1 7664   6.390   2.579   0.858
 2255SOL    HW2 7665   6.415   2.553   1.017
 2256SOL     OW 7666   4.062   5.760   1.646
 2256SOL    HW1 7667   4.038   5.724   1.556
 2256SOL    HW2 7668   4.033   5.695   1.717
 2257SOL     OW 7669   0.912   2.719   4.425
 2257SOL    HW1 7670   0.939   2.814   4.436
 2257SOL    HW2 7671   0.898   2.677   4.515
 2258SOL     OW 7672   1.225   5.869   4.793
 2258SOL    HW1 7673   1.221   5.786   4.849
 2258SOL    HW2 7674   1.190   5.849   4.702
 2259SOL     OW 7675   5.013   3.621   5.836
 2259SOL    HW1 7676   5.007   3.555   5.911
 2259SOL    HW2 7677   5.105   3.660   5.833
 2260SOL     OW 7678   4.550   4.379   3.065
 2260SOL    HW1 7679   4.619   4.308   3.054
 2260SOL    HW2 7680   4.554   4.416   3.158
 2261SOL     OW 7681   6.051   6.754   0.858
 2261SOL    HW1 7682   6.110   6.676   0.879
 2261SOL    HW2 7683   5.981   6.762   0.930
 2262SOL     OW 7684   5.766   2.374   2.609
 2262SOL    HW1 7685   5.837   2.337   2.549
 2262SOL    HW2 7686   5.743   2.307   2.679
 2263SOL     OW 7687   2.730   5.814   6.092
 2263SOL    HW1 7688   2.786   5.782   6.169
 2263SOL    HW2 7689   2.724   5.742   6.023
 2264SOL     OW 7690   3.547   3.967   2.807
 2264SOL    HW1 7691   3.497   4.003   2.728
 2264SOL    HW2 7692   3.543   3.867   2.807
 2265SOL     OW 7693   0.236   0.700   3.532
 2265SOL    HW1 7694   0.252   0.794   3.502
 2265SOL    HW2 7695   0.249   0.638   3.455
 2266SOL     OW 7696   6.790   1.515   1.339
 2266SOL    HW1 7697   6.761   1.564   1.257
 2266SOL    HW2 7698   6.761   1.564   1.420
 2267SOL     OW 7699   5.361   2.473   4.657
 2267SOL    HW1 7700   5.355   2.543   4.585
 2267SOL    HW2 7701   5.426   2.502   4.727
 2268SOL     OW 7702   6.919   5.025   0.427
 2268SOL    HW1 7703   6.896   4.935   0.464
 2268SOL    HW2 7704   6.989   5.068   0.485
 2269SOL     OW 7705   6.368   5.740   5.065
 2269SOL    HW1 7706   6.296   5.769   5.128
 2269SOL    HW2 7707   6.363   5.796   4.982
 2270SOL     OW 7708   3.915   4.005   0.535
 2270SOL    HW1 7709   3.904   4.036   0.630
 2270SOL    HW2 7710   3.980   4.065   0.488
 2271SOL     OW 7711   6.230   3.894   1.580
 2271SOL    HW1 7712   6.161   3.955   1.544
 2271SOL    HW2 7713   6.321   3.931   1.561
 2272SOL     OW 7714   6.493   1.920   4.755
 2272SOL    HW1 7715   6.444   2.006   4.742
 2272SOL    HW2 7716   6.428   1.845   4.770
 2273SOL     OW 7717   1.334   1.752   2.101
 2273SOL    HW1 7718   1.427   1.741   2.066
 2273SOL    HW2 7719   1.309   1.849   2.099
 2274SOL     OW 7720   0.943   3.402   5.598
 2274SOL    HW1 7721   0.995   3.486   5.611
 2274SOL    HW2 7722   0.992   3.325   5.638
 2275SOL     OW 7723   4.766   6.871   5.077
 2275SOL    HW1 7724   4.779   6.966   5.105
 2275SOL    HW2 7725   4.781   6.862   4.979
 2276SOL     OW 7726   3.430   4.826   1.330
 2276SOL    HW1 7727   3.451   4.877   1.414
 2276SOL    HW2 7728   3.389   4.738   1.353
 2277SOL     OW 7729   2.918   3.499   4.740
 2277SOL    HW1 7730   2.944   3.402   4.742
 2277SOL    HW2 7731   2.895   3.530   4.832
 2278SOL     OW 7732   5.027   6.664   3.517
 2278SOL    HW1 7733   5.085   6.584   3.501
 2278SOL    HW2 7734   4.938   6.650   3.474
 2279SOL     OW 7735   5.886   4.945   4.330
 2279SOL    HW1 7736   5.986   4.948   4.330
 2279SOL    HW2 7737   5.853   4.982   4.243
 2280SOL     OW 7738   5.753   5.881   5.040
 2280SOL    HW1 7739   5.727   5.956   5.101
 2280SOL    HW2 7740   5.851   5.886   5.022
 2281SOL     OW 7741   3.564   1.299   1.968
 2281SOL    HW1 7742   3.634   1.355   1.925
 2281SOL    HW2 7743   3.498   1.268   1.899
 2282SOL     OW 7744   5.400   6.027   5.317
 2282SOL    HW1 7745   5.410   6.018   5.417
 2282SOL    HW2 7746   5.304   6.041   5.295
 2283SOL     OW 7747   7.012   4.100   1.744
 2283SOL    HW1 7748   0.043   4.050   1.813
 2283SOL    HW2 7749   0.033   4.189   1.728
 2284SOL     OW 7750   1.999   1.879   1.255
 2284SOL    HW1 7751   1.937   1.801   1.268
 2284SOL    HW2 7752   1.952   1.951   1.205
 2285SOL     OW 7753   2.184   3.378   6.961
 2285SOL    HW1 7754   2.129   3.452   6.999
 2285SOL    HW2 7755   2.126   3.319   6.904
 2286SOL     OW 7756   6.266   6.322   4.844
 2286SOL    HW1 7757   6.301   6.375   4.767
 2286SOL    HW2 7758   6.338   6.310   4.912
 2287SOL     OW 7759   2.391   2.814   1.864
 2287SOL    HW1 7760   2.323   2.774   1.802
 2287SOL    HW2 7761   2.346   2.844   1.948
 2288SOL     OW 7762   0.052   5.852   4.477
 2288SOL    HW1 7763   0.016   5.863   4.385
 2288SOL    HW2 7764   0.041   5.756   4.506
 2289SOL     OW 7765   5.939   3.568   2.508
 2289SOL    HW1 7766   5.917   3.526   2.596
 2289SOL    HW2 7767   5.883   3.526   2.436
 2290SOL     OW 7768   2.357   3.884   1.702
 2290SOL    HW1 7769   2.309   3.964   1.738
 2290SOL    HW2 7770   2.442   3.913   1.659
 2291SOL     OW 7771   2.173   2.123   0.729
 2291SOL    HW1 7772   2.236   2.046   0.716
 2291SOL    HW2 7773   2.119   2.108   0.811
 2292SOL     OW 7774   5.150   3.022   3.849
 2292SOL    HW1 7775   5.207   3.075   3.786
 2292SOL    HW2 7776   5.197   2.937   3.872
 2293SOL     OW 7777   6.254   1.050   0.735
 2293SOL    HW1 7778   6.184   1.013   0.796
 2293SOL    HW2 7779   6.339   1.064   0.786
 2294SOL     OW 7780   3.246   2.075   6.208
 2294SOL    HW1 7781   3.270   2.162   6.164
 2294SOL    HW2 7782   3.169   2.033   6.158
 2295SOL     OW 7783   6.832   1.077   2.785
 2295SOL    HW1 7784   6.822   1.162   2.837
 2295SOL    HW2 7785   6.905   1.022   2.824
 2296SOL     OW 7786   2.679   5.056   2.836
 2296SOL    HW1 7787   2.715   4.975   2.789
 2296SOL    HW2 7788   2.745   5.130   2.831
 2297SOL     OW 7789   4.726   4.773   6.127
 2297SOL    HW1 7790   4.718   4.840   6.054
 2297SOL    HW2 7791   4.718   4.818   6.216
 2298SOL     OW 7792   3.362   3.726   3.196
 2298SOL    HW1 7793   3.419   3.675   3.132
 2298SOL    HW2 7794   3.267   3.697   3.186
 2299SOL     OW 7795   4.638   4.273   5.266
 2299SOL    HW1 7796   4.629   4.334   5.188
 2299SOL    HW2 7797   4.550   4.230   5.286
 2300SOL     OW 7798   3.390   0.069   3.641
 2300SOL    HW1 7799   3.479   0.022   3.638
 2300SOL    HW2 7800   3.344   0.047   3.727
 2301SOL     OW 7801   3.478   2.918   3.895
 2301SOL    HW1 7802   3.401   2.926   3.959
 2301SOL    HW2 7803   3.563   2.909   3.946
 2302SOL     OW 7804   3.679   0.329   1.562
 2302SOL    HW1 7805   3.677   0.276   1.647
 2302SOL    HW2 7806   3.771   0.365   1.547
 2303SOL     OW 7807   2.368   2.914   1.408
 2303SOL    HW1 7808   2.410   2.843   1.351
 2303SOL    HW2 7809   2.290   2.954   1.359
 2304SOL     OW 7810   5.482   5.682   4.092
 2304SOL    HW1 7811   5.540   5.631   4.156
 2304SOL    HW2 7812   5.388   5.652   4.103
 2305SOL     OW 7813   2.200   0.398   3.800
 2305SOL    HW1 7814   2.232   0.366   3.890
 2305SOL    HW2 7815   2.240   0.341   3.728
 2306SOL     OW 7816   1.427   5.159   2.299
 2306SOL    HW1 7817   1.515   5.127   2.332
 2306SOL    HW2 7818   1.356   5.094   2.326
 2307SOL     OW 7819   0.631   3.091   5.327
 2307SOL    HW1 7820   0.613   3.176   5.376
 2307SOL    HW2 7821   0.595   3.098   5.233
 2308SOL     OW 7822   2.597   4.354   0.797
 2308SOL    HW1 7823   2.509   4.379   0.756
 2308SOL    HW2 7824   2.670   4.366   0.730
 2309SOL     OW 7825   1.414   0.752   4.244
 2309SOL    HW1 7826   1.494   0.810   4.229
 2309SOL    HW2 7827   1.353   0.796   4.310
 2310SOL     OW 7828   6.041   6.148   2.396
 2310SOL    HW1 7829   6.059   6.158   2.494
 2310SOL    HW2 7830   6.071   6.230   2.348
 2311SOL     OW 7831   2.658   5.636   0.051
 2311SOL    HW1 7832   2.569   5.600   0.023
 2311SOL    HW2 7833   2.690   5.702   7.005
 2312SOL     OW 7834   4.275   5.532   3.330
 2312SOL    HW1 7835   4.334   5.613   3.320
 2312SOL    HW2 7836   4.190   5.559   3.376
 2313SOL     OW 7837   4.980   5.316   1.939
 2313SOL    HW1 7838   5.006   5.403   1.983
 2313SOL    HW2 7839   5.041   5.300   1.861
 2314SOL     OW 7840   3.682   0.008   2.911
 2314SOL    HW1 7841   3.680   6.965   2.988
 2314SOL    HW2 7842   3.650   6.982   2.828
 2315SOL     OW 7843   5.570   3.602   5.307
 2315SOL    HW1 7844   5.553   3.524   5.248
 2315SOL    HW2 7845   5.645   3.581   5.370
 2316SOL     OW 7846   5.159   2.087   3.570
 2316SOL    HW1 7847   5.140   1.989   3.571
 2316SOL    HW2 7848   5.085   2.136   3.616
 2317SOL     OW 7849   0.116   5.076   3.372
 2317SOL    HW1 7850   0.130   5.172   3.348
 2317SOL    HW2 7851   0.162   5.056   3.459
 2318SOL     OW 7852   0.458   2.524   3.810
 2318SOL    HW1 7853   0.461   2.468   3.727
 2318SOL    HW2 7854   0.517   2.604   3.799
 2319SOL     OW 7855   1.130   4.426   4.536
 2319SOL    HW1 7856   1.225   4.457   4.524
 2319SOL    HW2 7857   1.115   4.345   4.479
 2320SOL     OW 7858   0.276   2.684   4.218
 2320SOL    HW1 7859   0.330   2.679   4.301
 2320SOL    HW2 7860   0.187   2.727   4.237
 2321SOL     OW 7861   3.506   0.610   5.380
 2321SOL    HW1 7862   3.581   0.600   5.446
 2321SOL    HW2 7863   3.538   0.585   5.289
 2322SOL     OW 7864   2.093   2.178   5.375
 2322SOL    HW1 7865   2.120   2.198   5.281
 2322SOL    HW2 7866   2.125   2.251   5.435
 2323SOL     OW 7867   3.002   4.803   2.613
 2323SOL    HW1 7868   3.068   4.788   2.539
 2323SOL    HW2 7869   3.031   4.751   2.694
 2324SOL     OW 7870   0.186   5.934   2.920
 2324SOL    HW1 7871   0.145   5.944   2.829
 2324SOL    HW2 7872   0.132   5.870   2.974
 2325SOL     OW 7873   1.233   3.658   2.127
 2325SOL    HW1 7874   1.262   3.641   2.033
 2325SOL    HW2 7875   1.137   3.686   2.128
 2326SOL     OW 7876   2.646   3.623   6.112
 2326SOL    HW1 7877   2.567   3.662   6.066
 2326SOL    HW2 7878   2.617   3.546   6.170
 2327SOL     OW 7879   4.832   2.791   4.750
 2327SOL    HW1 7880   4.785   2.703   4.755
 2327SOL    HW2 7881   4.886   2.796   4.666
 2328SOL     OW 7882   4.865   0.947   3.753
 2328SOL    HW1 7883   4.835   0.852   3.764
 2328SOL    HW2 7884   4.785   1.006   3.739
 2329SOL     OW 7885   1.264   5.770   4.519
 2329SOL    HW1 7886   1.172   5.731   4.507
 2329SOL    HW2 7887   1.331   5.696   4.521
 2330SOL     OW 7888   0.077   4.736   2.403
 2330SOL    HW1 7889   0.021   4.813   2.370
 2330SOL    HW2 7890   0.147   4.771   2.466
 2331SOL     OW 7891   6.154   4.811   6.816
 2331SOL    HW1 7892   6.207   4.895   6.826
 2331SOL    HW2 7893   6.128   4.799   6.720
 2332SOL     OW 7894   5.106   2.022   5.430
 2332SOL    HW1 7895   5.037   2.063   5.489
 2332SOL    HW2 7896   5.168   2.093   5.397
 2333SOL     OW 7897   6.913   5.082   2.538
 2333SOL    HW1 7898   6.860   5.001   2.563
 2333SOL    HW2 7899   6.995   5.087   2.594
 2334SOL     OW 7900   2.946   6.646   0.106
 2334SOL    HW1 7901   2.916   6.726   0.054
 2334SOL    HW2 7902   2.940   6.666   0.204
 2335SOL     OW 7903   6.356   1.259   3.336
 2335SOL    HW1 7904   6.310   1.187   3.285
 2335SOL    HW2 7905   6.393   1.223   3.421
 2336SOL     OW 7906   4.910   1.388   5.482
 2336SOL    HW1 7907   4.824   1.338   5.494
 2336SOL    HW2 7908   4.891   1.486   5.487
 2337SOL     OW 7909   4.614   0.467   4.067
 2337SOL    HW1 7910   4.659   0.381   4.042
 2337SOL    HW2 7911   4.577   0.511   3.985
 2338SOL     OW 7912   0.845   6.709   6.630
 2338SOL    HW1 7913   0.891   6.779   6.684
 2338SOL    HW2 7914   0.746   6.715   6.645
 2339SOL     OW 7915   3.387   3.646   5.465
 2339SOL    HW1 7916   3.386   3.705   5.546
 2339SOL    HW2 7917   3.333   3.689   5.392
 2340SOL     OW 7918   4.142   6.787   5.641
 2340SOL    HW1 7919   4.146   6.884   5.619
 2340SOL    HW2 7920   4.082   6.740   5.576
 2341SOL     OW 7921   5.093   3.841   0.132
 2341SOL    HW1 7922   5.006   3.839   0.182
 2341SOL    HW2 7923   5.083   3.897   0.050
 2342SOL     OW 7924   0.537   6.283   4.995
 2342SOL    HW1 7925   0.532   6.237   5.083
 2342SOL    HW2 7926   0.459   6.256   4.938
 2343SOL     OW 7927   1.451   6.952   0.920
 2343SOL    HW1 7928   1.502   6.988   0.998
 2343SOL    HW2 7929   1.414   0.007   0.866
 2344SOL     OW 7930   2.438   1.994   2.084
 2344SOL    HW1 7931   2.488   1.918   2.126
 2344SOL    HW2 7932   2.464   2.002   1.988
 2345SOL     OW 7933   1.669   6.874   5.401
 2345SOL    HW1 7934   1.636   6.940   5.334
 2345SOL    HW2 7935   1.732   6.810   5.357
 2346SOL     OW 7936   4.708   2.997   5.372
 2346SOL    HW1 7937   4.806   3.012   5.359
 2346SOL    HW2 7938   4.690   2.977   5.469
 2347SOL     OW 7939   1.960   4.122   2.123
 2347SOL    HW1 7940   1.967   4.034   2.077
 2347SOL    HW2 7941   1.903   4.184   2.069
 2348SOL     OW 7942   2.051   6.343   3.587
 2348SOL    HW1 7943   2.132   6.294   3.617
 2348SOL    HW2 7944   1.984   6.278   3.552
 2349SOL     OW 7945   0.998   6.250   6.461
 2349SOL    HW1 7946   1.064   6.297   6.519
 2349SOL    HW2 7947   1.035   6.162   6.432
 2350SOL     OW 7948   3.450   0.050   5.832
 2350SOL    HW1 7949   3.366   0.101   5.849
 2350SOL    HW2 7950   3.494   0.027   5.919
 2351SOL     OW 7951   3.609   5.147   3.500
 2351SOL    HW1 7952   3.586   5.172   3.406
 2351SOL    HW2 7953   3.626   5.230   3.553
 2352SOL     OW 7954   6.995   4.011   3.473
 2352SOL    HW1 7955   6.938   4.065   3.411
 2352SOL    HW2 7956   0.058   3.984   3.426
 2353SOL     OW 7957   2.196   4.241   4.897
 2353SOL    HW1 7958   2.231   4.161   4.945
 2353SOL    HW2 7959   2.259   4.267   4.824
 2354SOL     OW 7960   3.884   2.332   6.735
 2354SOL    HW1 7961   3.932   2.256   6.691
 2354SOL    HW2 7962   3.899   2.415   6.682
 2355SOL     OW 7963   0.522   6.275   0.415
 2355SOL    HW1 7964   0.546   6.370   0.435
 2355SOL    HW2 7965   0.424   6.262   0.428
 2356SOL     OW 7966   2.398   4.238   1.797
 2356SOL    HW1 7967   2.420   4.305   1.868
 2356SOL    HW2 7968   2.462   4.248   1.721
 2357SOL     OW 7969   4.941   5.094   4.177
 2357SOL    HW1 7970   4.976   5.167   4.234
 2357SOL    HW2 7971   4.863   5.050   4.222
 2358SOL     OW 7972   3.342   6.630   4.096
 2358SOL    HW1 7973   3.328   6.629   4.195
 2358SOL    HW2 7974   3.255   6.613   4.049
 2359SOL     OW 7975   2.545   1.326   6.028
 2359SOL    HW1 7976   2.623   1.383   6.054
 2359SOL    HW2 7977   2.469   1.386   6.001
 2360SOL     OW 7978   4.351   5.170   6.930
 2360SOL    HW1 7979   4.293   5.235   6.980
 2360SOL    HW2 7980   4.438   5.213   6.910
 2361SOL     OW 7981   2.756   7.017   3.967
 2361SOL    HW1 7982   2.692   0.058   3.921
 2361SOL    HW2 7983   2.715   6.926   3.973
 2362SOL     OW 7984   4.731   6.329   5.282
 2362SOL    HW1 7985   4.680   6.256   5.328
 2362SOL    HW2 7986   4.736   6.309   5.184
 2363SOL     OW 7987   4.846   2.316   5.456
 2363SOL    HW1 7988   4.814   2.375   5.530
 2363SOL    HW2 7989   4.934   2.351   5.421
 2364SOL     OW 7990   5.276   1.473   1.535
 2364SOL    HW1 7991   5.237   1.555   1.576
 2364SOL    HW2 7992   5.325   1.497   1.451
 2365SOL     OW 7993   5.907   4.795   5.579
 2365SOL    HW1 7994   6.004   4.809   5.597
 2365SOL    HW2 7995   5.854   4.864   5.629
 2366SOL     OW 7996   0.831   3.861   6.040
 2366SOL    HW1 7997   0.808   3.869   5.943
 2366SOL    HW2 7998   0.810   3.768   6.071
 2367SOL     OW 7999   0.555   2.929   6.039
 2367SOL    HW1 8000   0.540   2.921   6.138
 2367SOL    HW2 8001   0.491   2.869   5.991
 2368SOL     OW 8002   4.441   1.285   5.375
 2368SOL    HW1 8003   4.481   1.237   5.297
 2368SOL    HW2 8004   4.361   1.235   5.409
 2369SOL     OW 8005   2.605   1.757   3.674
 2369SOL    HW1 8006   2.541   1.736   3.600
 2369SOL    HW2 8007   2.574   1.838   3.723
 2370SOL     OW 8008   4.587   2.886   0.688
 2370SOL    HW1 8009   4.656   2.957   0.699
 2370SOL    HW2 8010   4.496   2.925   0.703
 2371SOL     OW 8011   0.913   6.094   2.633
 2371SOL    HW1 8012   0.995   6.117   2.685
 2371SOL    HW2 8013   0.937   6.039   2.554
 2372SOL     OW 8014   6.773   0.894   6.627
 2372SOL    HW1 8015   6.787   0.813   6.683
 2372SOL    HW2 8016   6.691   0.882   6.571
 2373SOL     OW 8017   6.341   0.727   5.982
 2373SOL    HW1 8018   6.295   0.684   5.904
 2373SOL    HW2 8019   6.419   0.780   5.950
 2374SOL     OW 8020   5.928   5.615   3.084
 2374SOL    HW1 8021   5.830   5.624   3.104
 2374SOL    HW2 8022   5.977   5.693   3.123
 2375SOL     OW 8023   0.519   0.667   4.134
 2375SOL    HW1 8024   0.475   0.612   4.204
 2375SOL    HW2 8025   0.504   0.626   4.044
 2376SOL     OW 8026   6.188   2.662   3.288
 2376SOL    HW1 8027   6.203   2.581   3.345
 2376SOL    HW2 8028   6.239   2.739   3.326
 2377SOL     OW 8029   3.425   3.804   5.030
 2377SOL    HW1 8030   3.339   3.848   5.004
 2377SOL    HW2 8031   3.474   3.777   4.947
 2378SOL     OW 8032   5.799   1.900   0.349
 2378SOL    HW1 8033   5.896   1.886   0.330
 2378SOL    HW2 8034   5.764   1.973   0.291
 2379SOL     OW 8035   6.483   4.079   0.339
 2379SOL    HW1 8036   6.554   4.076   0.268
 2379SOL    HW2 8037   6.424   3.999   0.331
 2380SOL     OW 8038   5.876   1.273   5.367
 2380SOL    HW1 8039   5.923   1.301   5.451
 2380SOL    HW2 8040   5.888   1.344   5.298
 2381SOL     OW 8041   1.380   4.955   4.963
 2381SOL    HW1 8042   1.361   4.860   4.987
 2381SOL    HW2 8043   1.305   4.990   4.906
 2382SOL     OW 8044   2.288   5.805   2.564
 2382SOL    HW1 8045   2.288   5.713   2.525
 2382SOL    HW2 8046   2.373   5.851   2.539
 2383SOL     OW 8047   5.261   5.708   6.459
 2383SOL    HW1 8048   5.346   5.736   6.502
 2383SOL    HW2 8049   5.237   5.772   6.386
 2384SOL     OW 8050   1.214   2.395   0.970
 2384SOL    HW1 8051   1.312   2.390   0.950
 2384SOL    HW2 8052   1.197   2.357   1.061
 2385SOL     OW 8053   1.039   1.143   0.145
 2385SOL    HW1 8054   1.083   1.095   0.069
 2385SOL    HW2 8055   0.981   1.079   0.195
 2386SOL     OW 8056   3.554   5.120   4.485
 2386SOL    HW1 8057   3.571   5.062   4.405
 2386SOL    HW2 8058   3.466   5.095   4.526
 2387SOL     OW 8059   6.711   3.663   4.373
 2387SOL    HW1 8060   6.698   3.719   4.455
 2387SOL    HW2 8061   6.807   3.668   4.345
 2388SOL     OW 8062   0.531   1.599   5.749
 2388SOL    HW1 8063   0.555   1.589   5.846
 2388SOL    HW2 8064   0.612   1.624   5.697
 2389SOL     OW 8065   4.859   4.477   3.669
 2389SOL    HW1 8066   4.802   4.473   3.751
 2389SOL    HW2 8067   4.912   4.561   3.668
 2390SOL     OW 8068   3.693   3.873   4.821
 2390SOL    HW1 8069   3.719   3.810   4.748
 2390SOL    HW2 8070   3.654   3.956   4.782
 2391SOL     OW 8071   3.559   4.033   5.892
 2391SOL    HW1 8072   3.622   3.976   5.839
 2391SOL    HW2 8073   3.470   4.035   5.847
 2392SOL     OW 8074   2.904   4.084   6.316
 2392SOL    HW1 8075   2.828   4.142   6.345
 2392SOL    HW2 8076   2.910   4.004   6.375
 2393SOL     OW 8077   3.940   5.273   1.531
 2393SOL    HW1 8078   4.027   5.228   1.512
 2393SOL    HW2 8079   3.889   5.285   1.446
 2394SOL     OW 8080   0.361   3.604   4.049
 2394SOL    HW1 8081   0.309   3.627   4.131
 2394SOL    HW2 8082   0.381   3.687   3.997
 2395SOL     OW 8083   0.181   3.106   0.144
 2395SOL    HW1 8084   0.249   3.166   0.103
 2395SOL    HW2 8085   0.222   3.056   0.220
 2396SOL     OW 8086   5.903   6.439   0.333
 2396SOL    HW1 8087   5.928   6.346   0.306
 2396SOL    HW2 8088   5.807   6.456   0.308
 2397SOL     OW 8089   6.867   4.544   0.593
 2397SOL    HW1 8090   6.959   4.531   0.632
 2397SOL    HW2 8091   6.860   4.490   0.509
 2398SOL     OW 8092   2.809   4.913   5.026
 2398SOL    HW1 8093   2.881   4.953   4.969
 2398SOL    HW2 8094   2.823   4.814   5.034
 2399SOL     OW 8095   3.343   2.070   3.664
 2399SOL    HW1 8096   3.297   2.128   3.731
 2399SOL    HW2 8097   3.349   1.977   3.699
 2400SOL     OW 8098   2.098   3.884   0.000
 2400SOL    HW1 8099   2.123   3.979   7.003
 2400SOL    HW2 8100   2.166   3.823   6.980
 2401SOL     OW 8101   3.444   0.452   4.316
 2401SOL    HW1 8102   3.394   0.538   4.332
 2401SOL    HW2 8103   3.453   0.437   4.217
 2402SOL     OW 8104   6.834   1.435   3.779
 2402SOL    HW1 8105   6.896   1.456   3.703
 2402SOL    HW2 8106   6.883   1.445   3.866
 2403SOL     OW 8107   3.575   3.110   0.775
 2403SOL    HW1 8108   3.520   3.028   0.791
 2403SOL    HW2 8109   3.633   3.128   0.854
 2404SOL     OW 8110   5.741   1.655   1.786
 2404SOL    HW1 8111   5.711   1.745   1.816
 2404SOL    HW2 8112   5.663   1.594   1.778
 2405SOL     OW 8113   3.073   4.508   5.713
 2405SOL    HW1 8114   3.141   4.444   5.676
 2405SOL    HW2 8115   3.116   4.565   5.783
 2406SOL     OW 8116   2.568   6.733   4.291
 2406SOL    HW1 8117   2.508   6.722   4.370
 2406SOL    HW2 8118   2.621   6.818   4.301
 2407SOL     OW 8119   4.463   2.302   2.992
 2407SOL    HW1 8120   4.546   2.250   2.973
 2407SOL    HW2 8121   4.484   2.379   3.052
 2408SOL     OW 8122   2.496   4.858   2.984
 2408SOL    HW1 8123   2.550   4.778   3.010
 2408SOL    HW2 8124   2.521   4.886   2.891
 2409SOL     OW 8125   2.724   3.103   0.949
 2409SOL    HW1 8126   2.696   3.068   0.860
 2409SOL    HW2 8127   2.677   3.052   1.021
 2410SOL     OW 8128   5.978   3.296   5.894
 2410SOL    HW1 8129   6.017   3.385   5.872
 2410SOL    HW2 8130   6.013   3.228   5.829
 2411SOL     OW 8131   3.050   3.563   5.908
 2411SOL    HW1 8132   3.053   3.635   5.838
 2411SOL    HW2 8133   3.011   3.600   5.992
 2412SOL     OW 8134   3.113   2.836   0.547
 2412SOL    HW1 8135   3.083   2.792   0.632
 2412SOL    HW2 8136   3.098   2.773   0.471
 2413SOL     OW 8137   5.664   3.585   6.191
 2413SOL    HW1 8138   5.618   3.496   6.187
 2413SOL    HW2 8139   5.685   3.607   6.287
 2414SOL     OW 8140   5.678   3.408   3.650
 2414SOL    HW1 8141   5.661   3.469   3.727
 2414SOL    HW2 8142   5.609   3.421   3.580
 2415SOL     OW 8143   1.649   7.014   1.119
 2415SOL    HW1 8144   1.707   7.018   1.038
 2415SOL    HW2 8145   1.701   0.023   1.199
 2416SOL     OW 8146   1.415   2.458   4.241
 2416SOL    HW1 8147   1.490   2.513   4.278
 2416SOL    HW2 8148   1.425   2.450   4.142
 2417SOL     OW 8149   5.062   2.400   0.255
 2417SOL    HW1 8150   5.063   2.440   0.346
 2417SOL    HW2 8151   5.068   2.300   0.263
 2418SOL     OW 8152   3.295   3.523   4.679
 2418SOL    HW1 8153   3.262   3.484   4.765
 2418SOL    HW2 8154   3.271   3.620   4.674
 2419SOL     OW 8155   1.751   0.043   4.350
 2419SOL    HW1 8156   1.693   6.988   4.377
 2419SOL    HW2 8157   1.817   0.013   4.280
 2420SOL     OW 8158   3.718   5.738   1.611
 2420SOL    HW1 8159   3.653   5.778   1.676
 2420SOL    HW2 8160   3.769   5.665   1.657
 2421SOL     OW 8161   3.785   6.591   3.774
 2421SOL    HW1 8162   3.701   6.564   3.726
 2421SOL    HW2 8163   3.818   6.514   3.830
 2422SOL     OW 8164   4.227   6.981   0.939
 2422SOL    HW1 8165   4.136   6.962   0.902
 2422SOL    HW2 8166   4.225   0.046   0.990
 2423SOL     OW 8167   1.743   5.200   1.419
 2423SOL    HW1 8168   1.808   5.277   1.423
 2423SOL    HW2 8169   1.783   5.126   1.365
 2424SOL     OW 8170   5.213   6.284   6.389
 2424SOL    HW1 8171   5.287   6.270   6.455
 2424SOL    HW2 8172   5.230   6.369   6.338
 2425SOL     OW 8173   5.641   6.749   5.639
 2425SOL    HW1 8174   5.617   6.841   5.669
 2425SOL    HW2 8175   5.662   6.750   5.541
 2426SOL     OW 8176   1.277   5.738   3.870
 2426SOL    HW1 8177   1.261   5.640   3.883
 2426SOL    HW2 8178   1.190   5.784   3.853
 2427SOL     OW 8179   4.872   5.805   0.498
 2427SOL    HW1 8180   4.839   5.783   0.406
 2427SOL    HW2 8181   4.969   5.782   0.505
 2428SOL     OW 8182   0.494   0.534   3.225
 2428SOL    HW1 8183   0.575   0.489   3.189
 2428SOL    HW2 8184   0.519   0.622   3.265
 2429SOL     OW 8185   5.457   4.960   3.068
 2429SOL    HW1 8186   5.533   5.018   3.038
 2429SOL    HW2 8187   5.482   4.913   3.153
 2430SOL     OW 8188   5.411   2.885   0.424
 2430SOL    HW1 8189   5.311   2.883   0.420
 2430SOL    HW2 8190   5.449   2.860   0.335
 2431SOL     OW 8191   4.866   0.901   0.904
 2431SOL    HW1 8192   4.806   0.965   0.952
 2431SOL    HW2 8193   4.893   0.827   0.966
 2432SOL     OW 8194   2.863   6.558   1.878
 2432SOL    HW1 8195   2.782   6.501   1.864
 2432SOL    HW2 8196   2.857   6.638   1.818
 2433SOL     OW 8197   1.444   0.121   0.162
 2433SOL    HW1 8198   1.382   0.136   0.239
 2433SOL    HW2 8199   1.534   0.158   0.184
 2434SOL     OW 8200   5.740   2.035   3.227
 2434SOL    HW1 8201   5.810   2.098   3.261
 2434SOL    HW2 8202   5.778   1.943   3.221
 2435SOL     OW 8203   5.384   5.240   0.138
 2435SOL    HW1 8204   5.304   5.300   0.140
 2435SOL    HW2 8205   5.395   5.201   0.047
 2436SOL     OW 8206   1.620   0.534   1.230
 2436SOL    HW1 8207   1.697   0.482   1.265
 2436SOL    HW2 8208   1.653   0.601   1.163
 2437SOL     OW 8209   5.042   6.651   1.223
 2437SOL    HW1 8210   5.100   6.573   1.200
 2437SOL    HW2 8211   4.956   6.619   1.264
 2438SOL     OW 8212   3.937   1.383   4.368
 2438SOL    HW1 8213   3.943   1.482   4.351
 2438SOL    HW2 8214   3.910   1.337   4.283
 2439SOL     OW 8215   0.923   4.705   0.641
 2439SOL    HW1 8216   0.854   4.773   0.618
 2439SOL    HW2 8217   0.973   4.735   0.722
 2440SOL     OW 8218   3.985   6.980   6.239
 2440SOL    HW1 8219   3.997   6.949   6.145
 2440SOL    HW2 8220   3.926   6.917   6.289
 2441SOL     OW 8221   5.982   1.549   0.113
 2441SOL    HW1 8222   6.029   1.460   0.113
 2441SOL    HW2 8223   5.981   1.584   0.207
 2442SOL     OW 8224   5.323   4.969   2.833
 2442SOL    HW1 8225   5.356   4.977   2.927
 2442SOL    HW2 8226   5.400   4.981   2.770
 2443SOL     OW 8227   3.026   7.021   6.890
 2443SOL    HW1 8228   3.074   6.935   6.872
 2443SOL    HW2 8229   3.093   0.072   6.911
 2444SOL     OW 8230   3.930   3.722   0.552
 2444SOL    HW1 8231   4.027   3.700   0.548
 2444SOL    HW2 8232   3.918   3.822   0.547
 2445SOL     OW 8233   5.975   1.614   1.939
 2445SOL    HW1 8234   5.956   1.546   2.010
 2445SOL    HW2 8235   5.899   1.616   1.874
 2446SOL     OW 8236   1.307   2.823   4.661
 2446SOL    HW1 8237   1.267   2.914   4.646
 2446SOL    HW2 8238   1.375   2.828   4.734
 2447SOL     OW 8239   2.363   0.576   1.067
 2447SOL    HW1 8240   2.429   0.645   1.039
 2447SOL    HW2 8241   2.296   0.562   0.994
 2448SOL     OW 8242   6.098   0.863   4.218
 2448SOL    HW1 8243   6.099   0.794   4.146
 2448SOL    HW2 8244   6.066   0.950   4.180
 2449SOL     OW 8245   1.451   3.898   1.593
 2449SOL    HW1 8246   1.506   3.827   1.549
 2449SOL    HW2 8247   1.437   3.874   1.689
 2450SOL     OW 8248   3.377   4.259   6.117
 2450SOL    HW1 8249   3.350   4.190   6.051
 2450SOL    HW2 8250   3.298   4.284   6.173
 2451SOL     OW 8251   1.224   0.195   3.591
 2451SOL    HW1 8252   1.288   0.153   3.527
 2451SOL    HW2 8253   1.131   0.164   3.572
 2452SOL     OW 8254   2.949   2.026   4.223
 2452SOL    HW1 8255   2.892   2.060   4.297
 2452SOL    HW2 8256   2.915   1.936   4.193
 2453SOL     OW 8257   0.648   3.235   0.540
 2453SOL    HW1 8258   0.630   3.328   0.509
 2453SOL    HW2 8259   0.742   3.210   0.517
 2454SOL     OW 8260   2.836   6.868   0.010
 2454SOL    HW1 8261   2.775   6.821   6.968
 2454SOL    HW2 8262   2.894   6.932   6.980
 2455SOL     OW 8263   3.829   0.728   0.201
 2455SOL    HW1 8264   3.837   0.822   0.167
 2455SOL    HW2 8265   3.882   0.719   0.285
 2456SOL     OW 8266   6.909   2.398   0.009
 2456SOL    HW1 8267   6.874   2.348   0.088
 2456SOL    HW2 8268   6.932   2.334   6.957
 2457SOL     OW 8269   6.776   0.615   6.339
 2457SOL    HW1 8270   6.868   0.607   6.301
 2457SOL    HW2 8271   6.740   0.524   6.359
 2458SOL     OW 8272   1.552   6.600   3.580
 2458SOL    HW1 8273   1.510   6.510   3.566
 2458SOL    HW2 8274   1.644   6.589   3.618
 2459SOL     OW 8275   2.879   6.673   5.329
 2459SOL    HW1 8276   2.832   6.591   5.361
 2459SOL    HW2 8277   2.964   6.647   5.282
 2460SOL     OW 8278   1.335   1.113   0.866
 2460SOL    HW1 8279   1.256   1.167   0.835
 2460SOL    HW2 8280   1.417   1.170   0.862
 2461SOL     OW 8281   5.244   0.461   4.065
 2461SOL    HW1 8282   5.291   0.386   4.113
 2461SOL    HW2 8283   5.173   0.499   4.124
 2462SOL     OW 8284   2.152   5.246   6.881
 2462SOL    HW1 8285   2.174   5.326   6.936
 2462SOL    HW2 8286   2.139   5.167   6.941
 2463SOL     OW 8287   6.173   2.243   6.280
 2463SOL    HW1 8288   6.117   2.160   6.280
 2463SOL    HW2 8289   6.172   2.284   6.371
 2464SOL     OW 8290   2.155   3.779   2.893
 2464SOL    HW1 8291   2.225   3.800   2.961
 2464SOL    HW2 8292   2.084   3.721   2.934
 2465SOL     OW 8293   1.174   6.339   6.724
 2465SOL    HW1 8294   1.161   6.380   6.814
 2465SOL    HW2 8295   1.246   6.269   6.729
 2466SOL     OW 8296   2.188   2.021   2.587
 2466SOL    HW1 8297   2.286   2.031   2.576
 2466SOL    HW2 8298   2.151   2.101   2.635
 2467SOL     OW 8299   5.117   1.893   4.701
 2467SOL    HW1 8300   5.056   1.892   4.780
 2467SOL    HW2 8301   5.201   1.942   4.725
 2468SOL     OW 8302   3.935   7.016   0.879
 2468SOL    HW1 8303   3.858   6.960   0.912
 2468SOL    HW2 8304   3.933   0.084   0.924
 2469SOL     OW 8305   4.081   3.785   4.873
 2469SOL    HW1 8306   4.077   3.685   4.865
 2469SOL    HW2 8307   4.159   3.810   4.931
 2470SOL     OW 8308   4.131   4.331   5.981
 2470SOL    HW1 8309   4.202   4.268   5.949
 2470SOL    HW2 8310   4.123   4.325   6.080
 2471SOL     OW 8311   3.279   5.951   0.052
 2471SOL    HW1 8312   3.186   5.925   0.026
 2471SOL    HW2 8313   3.307   5.899   0.132
 2472SOL     OW 8314   4.639   2.049   3.400
 2472SOL    HW1 8315   4.704   2.045   3.475
 2472SOL    HW2 8316   4.590   1.962   3.393
 2473SOL     OW 8317   1.403   3.768   4.809
 2473SOL    HW1 8318   1.456   3.756   4.894
 2473SOL    HW2 8319   1.346   3.850   4.817
 2474SOL     OW 8320   0.277   6.020   1.539
 2474SOL    HW1 8321   0.314   5.930   1.517
 2474SOL    HW2 8322   0.317   6.053   1.624
 2475SOL     OW 8323   3.924   0.431   2.541
 2475SOL    HW1 8324   3.876   0.495   2.482
 2475SOL    HW2 8325   3.871   0.347   2.551
 2476SOL     OW 8326   6.490   1.415   2.763
 2476SOL    HW1 8327   6.588   1.429   2.745
 2476SOL    HW2 8328   6.456   1.491   2.819
 2477SOL     OW 8329   3.974   1.336   2.653
 2477SOL    HW1 8330   3.950   1.388   2.571
 2477SOL    HW2 8331   3.900   1.343   2.720
 2478SOL     OW 8332   5.858   1.357   1.591
 2478SOL    HW1 8333   5.769   1.333   1.555
 2478SOL    HW2 8334   5.868   1.319   1.683
 2479SOL     OW 8335   0.646   2.937   2.044
 2479SOL    HW1 8336   0.679   2.855   2.090
 2479SOL    HW2 8337   0.719   2.978   1.990
 2480SOL     OW 8338   4.894   3.818   0.331
 2480SOL    HW1 8339   4.968   3.752   0.337
 2480SOL    HW2 8340   4.809   3.772   0.306
 2481SOL     OW 8341   3.606   6.437   0.073
 2481SOL    HW1 8342   3.610   6.531   0.038
 2481SOL    HW2 8343   3.631   6.373   0.000
 2482SOL     OW 8344   5.667   3.858   5.752
 2482SOL    HW1 8345   5.606   3.898   5.821
 2482SOL    HW2 8346   5.639   3.887   5.661
 2483SOL     OW 8347   1.825   1.239   0.342
 2483SOL    HW1 8348   1.794   1.325   0.381
 2483SOL    HW2 8349   1.816   1.166   0.410
 2484SOL     OW 8350   3.490   1.010   6.843
 2484SOL    HW1 8351   3.547   1.067   6.902
 2484SOL    HW2 8352   3.448   0.937   6.897
 2485SOL     OW 8353   6.377   3.426   1.507
 2485SOL    HW1 8354   6.473   3.448   1.524
 2485SOL    HW2 8355   6.330   3.506   1.470
 2486SOL     OW 8356   2.346   4.751   4.461
 2486SOL    HW1 8357   2.280   4.745   4.387
 2486SOL    HW2 8358   2.307   4.802   4.537
 2487SOL     OW 8359   4.048   5.882   0.382
 2487SOL    HW1 8360   3.959   5.877   0.428
 2487SOL    HW2 8361   4.120   5.890   0.451
 2488SOL     OW 8362   1.672   4.285   2.404
 2488SOL    HW1 8363   1.631   4.349   2.339
 2488SOL    HW2 8364   1.613   4.276   2.484
 2489SOL     OW 8365   1.420   6.534   3.153
 2489SOL    HW1 8366   1.458   6.610   3.206
 2489SOL    HW2 8367   1.440   6.548   3.055
 2490SOL     OW 8368   0.051   4.902   1.200
 2490SOL    HW1 8369   0.135   4.848   1.190
 2490SOL    HW2 8370   7.007   4.853   1.257
 2491SOL     OW 8371   2.276   5.118   0.465
 2491SOL    HW1 8372   2.201   5.175   0.431
 2491SOL    HW2 8373   2.306   5.153   0.554
 2492SOL     OW 8374   4.704   2.978   0.948
 2492SOL    HW1 8375   4.665   3.057   0.901
 2492SOL    HW2 8376   4.636   2.904   0.951
 2493SOL     OW 8377   5.680   0.608   1.965
 2493SOL    HW1 8378   5.776   0.578   1.963
 2493SOL    HW2 8379   5.642   0.591   2.056
 2494SOL     OW 8380   5.205   4.359   2.893
 2494SOL    HW1 8381   5.108   4.349   2.869
 2494SOL    HW2 8382   5.238   4.273   2.933
 2495SOL     OW 8383   5.255   6.819   4.713
 2495SOL    HW1 8384   5.177   6.839   4.654
 2495SOL    HW2 8385   5.285   6.725   4.698
 2496SOL     OW 8386   6.650   3.318   6.005
 2496SOL    HW1 8387   6.554   3.338   5.990
 2496SOL    HW2 8388   6.705   3.399   5.981
 2497SOL     OW 8389   0.243   0.283   0.702
 2497SOL    HW1 8390   0.306   0.339   0.756
 2497SOL    HW2 8391   0.152   0.289   0.741
 2498SOL     OW 8392   2.922   1.562   4.451
 2498SOL    HW1 8393   2.906   1.635   4.518
 2498SOL    HW2 8394   3.019   1.537   4.453
 2499SOL     OW 8395   6.212   2.466   1.817
 2499SOL    HW1 8396   6.216   2.421   1.906
 2499SOL    HW2 8397   6.197   2.397   1.746
 2500SOL     OW 8398   4.516   3.340   6.607
 2500SOL    HW1 8399   4.458   3.325   6.687
 2500SOL    HW2 8400   4.608   3.306   6.627
 2501SOL     OW 8401   6.100   4.942   0.974
 2501SOL    HW1 8402   6.044   5.025   0.978
 2501SOL    HW2 8403   6.150   4.940   0.887
 2502SOL     OW 8404   1.258   6.417   2.889
 2502SOL    HW1 8405   1.339   6.474   2.906
 2502SOL    HW2 8406   1.286   6.330   2.848
 2503SOL     OW 8407   2.531   5.955   4.069
 2503SOL    HW1 8408   2.609   5.898   4.096
 2503SOL    HW2 8409   2.564   6.029   4.010
 2504SOL     OW 8410   3.568   5.374   4.529
 2504SOL    HW1 8411   3.608   5.408   4.443
 2504SOL    HW2 8412   3.576   5.275   4.532
 2505SOL     OW 8413   1.047   6.504   2.749
 2505SOL    HW1 8414   1.080   6.529   2.658
 2505SOL    HW2 8415   1.123   6.471   2.805
 2506SOL     OW 8416   6.140   4.257   5.544
 2506SOL    HW1 8417   6.198   4.176   5.547
 2506SOL    HW2 8418   6.046   4.232   5.569
 2507SOL     OW 8419   0.964   4.321   0.412
 2507SOL    HW1 8420   0.955   4.333   0.511
 2507SOL    HW2 8421   1.053   4.355   0.382
 2508SOL     OW 8422   2.199   1.439   2.962
 2508SOL    HW1 8423   2.161   1.522   3.003
 2508SOL    HW2 8424   2.178   1.438   2.864
 2509SOL     OW 8425   7.009   2.832   0.926
 2509SOL    HW1 8426   0.024   2.889   0.852
 2509SOL    HW2 8427   6.923   2.870   0.959
 2510SOL     OW 8428   2.591   4.273   1.588
 2510SOL    HW1 8429   2.670   4.334   1.593
 2510SOL    HW2 8430   2.620   4.180   1.610
 2511SOL     OW 8431   3.820   2.141   4.705
 2511SOL    HW1 8432   3.780   2.117   4.617
 2511SOL    HW2 8433   3.920   2.142   4.697
 2512SOL     OW 8434   5.864   4.289   5.626
 2512SOL    HW1 8435   5.839   4.379   5.592
 2512SOL    HW2 8436   5.847   4.221   5.555
 2513SOL     OW 8437   1.365   4.348   5.235
 2513SOL    HW1 8438   1.461   4.374   5.231
 2513SOL    HW2 8439   1.352   4.259   5.189
 2514SOL     OW 8440   6.386   3.075   4.785
 2514SOL    HW1 8441   6.362   3.111   4.695
 2514SOL    HW2 8442   6.411   3.151   4.846
 2515SOL     OW 8443   2.128   6.727   0.448
 2515SOL    HW1 8444   2.218   6.708   0.488
 2515SOL    HW2 8445   2.066   6.650   0.467
 2516SOL     OW 8446   5.777   1.123   2.650
 2516SOL    HW1 8447   5.690   1.089   2.615
 2516SOL    HW2 8448   5.768   1.220   2.672
 2517SOL     OW 8449   1.323   5.892   5.668
 2517SOL    HW1 8450   1.318   5.815   5.732
 2517SOL    HW2 8451   1.242   5.950   5.681
 2518SOL     OW 8452   1.133   4.632   0.033
 2518SOL    HW1 8453   1.136   4.558   6.986
 2518SOL    HW2 8454   1.188   4.607   0.113
 2519SOL     OW 8455   4.380   6.410   3.025
 2519SOL    HW1 8456   4.307   6.373   3.083
 2519SOL    HW2 8457   4.438   6.470   3.080
 2520SOL     OW 8458   2.602   1.845   0.788
 2520SOL    HW1 8459   2.561   1.796   0.865
 2520SOL    HW2 8460   2.701   1.835   0.791
 2521SOL     OW 8461   1.677   0.797   4.932
 2521SOL    HW1 8462   1.771   0.805   4.967
 2521SOL    HW2 8463   1.679   0.796   4.832
 2522SOL     OW 8464   0.361   3.805   5.075
 2522SOL    HW1 8465   0.277   3.824   5.127
 2522SOL    HW2 8466   0.428   3.764   5.136
 2523SOL     OW 8467   0.088   2.989   1.332
 2523SOL    HW1 8468   0.091   3.037   1.244
 2523SOL    HW2 8469   0.178   2.953   1.354
 2524SOL     OW 8470   1.218   6.335   5.079
 2524SOL    HW1 8471   1.193   6.364   4.986
 2524SOL    HW2 8472   1.140   6.293   5.123
 2525SOL     OW 8473   1.168   2.208   5.618
 2525SOL    HW1 8474   1.104   2.187   5.544
 2525SOL    HW2 8475   1.260   2.217   5.581
 2526SOL     OW 8476   1.677   4.096   5.628
 2526SOL    HW1 8477   1.603   4.151   5.589
 2526SOL    HW2 8478   1.672   4.003   5.589
 2527SOL     OW 8479   4.989   5.938   5.233
 2527SOL    HW1 8480   5.053   6.015   5.228
 2527SOL    HW2 8481   4.899   5.972   5.260
 2528SOL     OW 8482   5.605   4.686   0.624
 2528SOL    HW1 8483   5.654   4.693   0.710
 2528SOL    HW2 8484   5.655   4.735   0.553
 2529SOL     OW 8485   6.505   6.846   6.103
 2529SOL    HW1 8486   6.454   6.819   6.185
 2529SOL    HW2 8487   6.486   6.941   6.082
 2530SOL     OW 8488   2.428   0.044   5.687
 2530SOL    HW1 8489   2.432   0.138   5.719
 2530SOL    HW2 8490   2.332   0.017   5.676
 2531SOL     OW 8491   5.025   6.185   4.251
 2531SOL    HW1 8492   5.121   6.172   4.224
 2531SOL    HW2 8493   5.012   6.149   4.343
 2532SOL     OW 8494   0.432   6.675   1.250
 2532SOL    HW1 8495   0.353   6.671   1.189
 2532SOL    HW2 8496   0.475   6.584   1.255
 2533SOL     OW 8497   3.251   6.569   3.632
 2533SOL    HW1 8498   3.320   6.641   3.631
 2533SOL    HW2 8499   3.173   6.598   3.576
 2534SOL     OW 8500   3.370   0.650   3.088
 2534SOL    HW1 8501   3.369   0.563   3.038
 2534SOL    HW2 8502   3.465   0.677   3.105
 2535SOL     OW 8503   3.909   2.066   5.098
 2535SOL    HW1 8504   3.830   2.067   5.037
 2535SOL    HW2 8505   3.993   2.050   5.045
 2536SOL     OW 8506   1.065   2.227   4.784
 2536SOL    HW1 8507   1.040   2.135   4.754
 2536SOL    HW2 8508   1.088   2.225   4.881
 2537SOL     OW 8509   3.959   0.612   6.554
 2537SOL    HW1 8510   3.910   0.533   6.518
 2537SOL    HW2 8511   3.947   0.690   6.493
 2538SOL     OW 8512   1.366   4.882   4.661
 2538SOL    HW1 8513   1.409   4.832   4.586
 2538SOL    HW2 8514   1.431   4.948   4.698
 2539SOL     OW 8515   5.203   1.434   5.695
 2539SOL    HW1 8516   5.129   1.368   5.688
 2539SOL    HW2 8517   5.173   1.522   5.657
 2540SOL     OW 8518   4.180   1.236   2.817
 2540SOL    HW1 8519   4.149   1.168   2.884
 2540SOL    HW2 8520   4.101   1.286   2.781
 2541SOL     OW 8521   2.426   0.061   5.379
 2541SOL    HW1 8522   2.474   0.028   5.460
 2541SOL    HW2 8523   2.449   0.157   5.364
 2542SOL     OW 8524   4.333   1.680   6.283
 2542SOL    HW1 8525   4.366   1.772   6.305
 2542SOL    HW2 8526   4.234   1.677   6.297
 2543SOL     OW 8527   1.282   0.931   3.125
 2543SOL    HW1 8528   1.360   0.982   3.087
 2543SOL    HW2 8529   1.265   0.850   3.068
 2544SOL     OW 8530   0.454   5.842   1.125
 2544SOL    HW1 8531   0.467   5.765   1.188
 2544SOL    HW2 8532   0.364   5.835   1.081
 2545SOL     OW 8533   1.720   0.788   1.398
 2545SOL    HW1 8534   1.724   0.718   1.326
 2545SOL    HW2 8535   1.788   0.766   1.469
 2546SOL     OW 8536   0.394   1.498   1.446
 2546SOL    HW1 8537   0.378   1.597   1.457
 2546SOL    HW2 8538   0.398   1.455   1.536
 2547SOL     OW 8539   5.953   4.928   0.350
 2547SOL    HW1 8540   5.973   5.017   0.390
 2547SOL    HW2 8541   6.005   4.917   0.265
 2548SOL     OW 8542   2.167   6.788   6.203
 2548SOL    HW1 8543   2.232   6.712   6.198
 2548SOL    HW2 8544   2.215   6.873   6.179
 2549SOL     OW 8545   2.210   1.020   1.019
 2549SOL    HW1 8546   2.240   1.106   1.059
 2549SOL    HW2 8547   2.289   0.965   0.993
 2550SOL     OW 8548   0.084   0.023   6.153
 2550SOL    HW1 8549   0.011   0.091   6.142
 2550SOL    HW2 8550   0.133   0.013   6.066
 2551SOL     OW 8551   3.600   4.886   0.642
 2551SOL    HW1 8552   3.649   4.865   0.726
 2551SOL    HW2 8553   3.536   4.961   0.658
 2552SOL     OW 8554   2.366   6.387   5.429
 2552SOL    HW1 8555   2.427   6.309   5.447
 2552SOL    HW2 8556   2.278   6.371   5.473
 2553SOL     OW 8557   4.719   2.901   5.639
 2553SOL    HW1 8558   4.776   2.967   5.687
 2553SOL    HW2 8559   4.753   2.808   5.656
 2554SOL     OW 8560   2.343   6.176   1.095
 2554SOL    HW1 8561   2.307   6.197   1.004
 2554SOL    HW2 8562   2.410   6.102   1.088
 2555SOL     OW 8563   6.036   7.005   6.217
 2555SOL    HW1 8564   6.090   0.002   6.299
 2555SOL    HW2 8565   6.066   6.920   6.174
 2556SOL     OW 8566   4.354   5.676   0.615
 2556SOL    HW1 8567   4.443   5.654   0.655
 2556SOL    HW2 8568   4.351   5.772   0.590
 2557SOL     OW 8569   2.431   3.479   6.457
 2557SOL    HW1 8570   2.429   3.579   6.445
 2557SOL    HW2 8571   2.432   3.458   6.555
 2558SOL     OW 8572   5.180   1.728   5.387
 2558SOL    HW1 8573   5.266   1.703   5.342
 2558SOL    HW2 8574   5.167   1.827   5.381
 2559SOL     OW 8575   6.657   3.724   4.055
 2559SOL    HW1 8576   6.659   3.744   4.153
 2559SOL    HW2 8577   6.646   3.809   4.004
 2560SOL     OW 8578   6.189   3.062   4.360
 2560SOL    HW1 8579   6.188   2.974   4.313
 2560SOL    HW2 8580   6.112   3.118   4.328
 2561SOL     OW 8581   3.105   6.255   4.642
 2561SOL    HW1 8582   3.020   6.228   4.686
 2561SOL    HW2 8583   3.116   6.206   4.556
 2562SOL     OW 8584   1.067   5.215   2.029
 2562SOL    HW1 8585   1.161   5.247   2.039
 2562SOL    HW2 8586   1.064   5.115   2.040
 2563SOL     OW 8587   4.103   2.076   1.063
 2563SOL    HW1 8588   4.138   2.031   1.145
 2563SOL    HW2 8589   4.007   2.053   1.051
 2564SOL     OW 8590   2.231   6.027   5.743
 2564SOL    HW1 8591   2.251   6.094   5.814
 2564SOL    HW2 8592   2.194   6.072   5.662
 2565SOL     OW 8593   0.179   0.060   6.889
 2565SOL    HW1 8594   0.090   0.015   6.881
 2565SOL    HW2 8595   0.230   0.049   6.803
 2566SOL     OW 8596   2.419   0.200   0.377
 2566SOL    HW1 8597   2.350   0.139   0.418
 2566SOL    HW2 8598   2.423   0.184   0.279
 2567SOL     OW 8599   0.668   1.024   1.005
 2567SOL    HW1 8600   0.633   0.931   0.992
 2567SOL    HW2 8601   0.768   1.021   1.006
 2568SOL     OW 8602   3.725   0.344   0.264
 2568SOL    HW1 8603   3.785   0.398   0.205
 2568SOL    HW2 8604   3.629   0.363   0.241
 2569SOL     OW 8605   3.106   1.386   1.913
 2569SOL    HW1 8606   3.052   1.306   1.889
 2569SOL    HW2 8607   3.201   1.372   1.885
 2570SOL     OW 8608   5.596   0.291   6.009
 2570SOL    HW1 8609   5.678   0.306   6.065
 2570SOL    HW2 8610   5.568   0.195   6.016
 2571SOL     OW 8611   2.428   4.442   5.119
 2571SOL    HW1 8612   2.446   4.394   5.205
 2571SOL    HW2 8613   2.493   4.518   5.109
 2572SOL     OW 8614   2.153   5.741   0.034
 2572SOL    HW1 8615   2.147   5.824   7.000
 2572SOL    HW2 8616   2.063   5.717   0.069
 2573SOL     OW 8617   6.557   2.388   1.570
 2573SOL    HW1 8618   6.532   2.294   1.546
 2573SOL    HW2 8619   6.652   2.405   1.545
 2574SOL     OW 8620   6.075   3.731   6.918
 2574SOL    HW1 8621   6.042   3.774   7.002
 2574SOL    HW2 8622   6.034   3.777   6.839
 2575SOL     OW 8623   5.486   5.114   0.767
 2575SOL    HW1 8624   5.502   5.076   0.676
 2575SOL    HW2 8625   5.430   5.050   0.820
 2576SOL     OW 8626   3.739   6.797   4.306
 2576SOL    HW1 8627   3.670   6.770   4.239
 2576SOL    HW2 8628   3.698   6.797   4.398
 2577SOL     OW 8629   3.350   0.177   1.860
 2577SOL    HW1 8630   3.334   0.273   1.885
 2577SOL    HW2 8631   3.305   0.118   1.927
 2578SOL     OW 8632   4.855   1.340   3.778
 2578SOL    HW1 8633   4.820   1.254   3.740
 2578SOL    HW2 8634   4.813   1.416   3.729
 2579SOL     OW 8635   1.172   6.059   2.317
 2579SOL    HW1 8636   1.109   6.134   2.299
 2579SOL    HW2 8637   1.226   6.079   2.399
 2580SOL     OW 8638   2.358   2.956   6.466
 2580SOL    HW1 8639   2.402   2.868   6.485
 2580SOL    HW2 8640   2.411   3.006   6.398
 2581SOL     OW 8641   0.925   5.229   0.981
 2581SOL    HW1 8642   0.834   5.237   0.941
 2581SOL    HW2 8643   0.917   5.211   1.079
 2582SOL     OW 8644   0.523   4.928   2.628
 2582SOL    HW1 8645   0.573   4.856   2.579
 2582SOL    HW2 8646   0.477   4.987   2.561
 2583SOL     OW 8647   0.842   1.103   0.650
 2583SOL    HW1 8648   0.804   1.011   0.640
 2583SOL    HW2 8649   0.835   1.131   0.746
 2584SOL     OW 8650   4.314   5.801   7.008
 2584SOL    HW1 8651   4.256   5.755   6.940
 2584SOL    HW2 8652   4.357   5.733   0.046
 2585SOL     OW 8653   5.059   2.478   0.514
 2585SOL    HW1 8654   5.040   2.405   0.579
 2585SOL    HW2 8655   5.091   2.559   0.562
 2586SOL     OW 8656   3.670   1.210   3.636
 2586SOL    HW1 8657   3.745   1.192   3.572
 2586SOL    HW2 8658   3.608   1.278   3.596
 2587SOL     OW 8659   0.501   0.587   3.835
 2587SOL    HW1 8660   0.442   0.527   3.781
 2587SOL    HW2 8661   0.471   0.682   3.825
 2588SOL     OW 8662   4.275   0.511   6.843
 2588SOL    HW1 8663   4.332   0.592   6.838
 2588SOL    HW2 8664   4.231   0.494   6.755
 2589SOL     OW 8665   0.710   5.605   6.504
 2589SOL    HW1 8666   0.768   5.578   6.427
 2589SOL    HW2 8667   0.726   5.701   6.526
 2590SOL     OW 8668   3.500   5.932   0.838
 2590SOL    HW1 8669   3.574   5.888   0.889
 2590SOL    HW2 8670   3.493   5.892   0.747
 2591SOL     OW 8671   6.785   5.200   2.920
 2591SOL    HW1 8672   6.731   5.196   2.836
 2591SOL    HW2 8673   6.744   5.266   2.982
 2592SOL     OW 8674   3.513   4.942   0.373
 2592SOL    HW1 8675   3.532   4.891   0.456
 2592SOL    HW2 8676   3.598   4.980   0.336
 2593SOL     OW 8677   3.446   5.192   0.458
 2593SOL    HW1 8678   3.452   5.100   0.419
 2593SOL    HW2 8679   3.491   5.257   0.397
 2594SOL     OW 8680   1.569   4.957   6.388
 2594SOL    HW1 8681   1.575   4.859   6.408
 2594SOL    HW2 8682   1.587   4.972   6.290
 2595SOL     OW 8683   6.079   1.141   4.175
 2595SOL    HW1 8684   6.161   1.198   4.176
 2595SOL    HW2 8685   6.010   1.183   4.115
 2596SOL     OW 8686   2.953   1.701   1.656
 2596SOL    HW1 8687   2.930   1.609   1.624
 2596SOL    HW2 8688   2.874   1.761   1.646
 2597SOL     OW 8689   1.692   5.308   5.263
 2597SOL    HW1 8690   1.756   5.232   5.270
 2597SOL    HW2 8691   1.622   5.287   5.195
 2598SOL     OW 8692   0.046   1.514   3.037
 2598SOL    HW1 8693   0.026   1.429   3.087
 2598SOL    HW2 8694   6.981   1.564   3.022
 2599SOL     OW 8695   1.796   6.386   1.271
 2599SOL    HW1 8696   1.808   6.484   1.287
 2599SOL    HW2 8697   1.698   6.364   1.273
 2600SOL     OW 8698   5.123   3.190   4.814
 2600SOL    HW1 8699   5.044   3.223   4.762
 2600SOL    HW2 8700   5.109   3.095   4.842
 2601SOL     OW 8701   2.166   1.404   1.800
 2601SOL    HW1 8702   2.111   1.478   1.839
 2601SOL    HW2 8703   2.260   1.435   1.788
 2602SOL     OW 8704   1.470   4.451   4.516
 2602SOL    HW1 8705   1.492   4.369   4.465
 2602SOL    HW2 8706   1.509   4.531   4.470
 2603SOL     OW 8707   2.732   0.867   4.252
 2603SOL    HW1 8708   2.736   0.914   4.164
 2603SOL    HW2 8709   2.802   0.905   4.313
 2604SOL     OW 8710   4.535   1.718   2.569
 2604SOL    HW1 8711   4.506   1.799   2.620
 2604SOL    HW2 8712   4.489   1.637   2.607
 2605SOL     OW 8713   2.177   2.994   3.570
 2605SOL    HW1 8714   2.097   3.046   3.598
 2605SOL    HW2 8715   2.195   2.921   3.636
 2606SOL     OW 8716   5.522   4.597   2.014
 2606SOL    HW1 8717   5.500   4.673   2.075
 2606SOL    HW2 8718   5.456   4.523   2.027
 2607SOL     OW 8719   1.422   1.691   1.434
 2607SOL    HW1 8720   1.453   1.727   1.522
 2607SOL    HW2 8721   1.454   1.597   1.423
 2608SOL     OW 8722   4.918   5.104   1.133
 2608SOL    HW1 8723   4.957   5.163   1.063
 2608SOL    HW2 8724   4.891   5.017   1.092
 2609SOL     OW 8725   6.020   1.179   1.391
 2609SOL    HW1 8726   6.007   1.266   1.438
 2609SOL    HW2 8727   5.939   1.159   1.335
 2610SOL     OW 8728   1.140   4.707   4.748
 2610SOL    HW1 8729   1.208   4.776   4.773
 2610SOL    HW2 8730   1.187   4.626   4.712
 2611SOL     OW 8731   4.134   0.115   0.625
 2611SOL    HW1 8732   4.170   0.205   0.650
 2611SOL    HW2 8733   4.067   0.086   0.693
 2612SOL     OW 8734   6.482   0.078   5.547
 2612SOL    HW1 8735   6.514   0.172   5.558
 2612SOL    HW2 8736   6.447   0.044   5.635
 2613SOL     OW 8737   2.890   5.547   6.209
 2613SOL    HW1 8738   2.834   5.532   6.290
 2613SOL    HW2 8739   2.982   5.574   6.237
 2614SOL     OW 8740   6.540   1.632   6.227
 2614SOL    HW1 8741   6.574   1.541   6.249
 2614SOL    HW2 8742   6.488   1.668   6.304
 2615SOL     OW 8743   0.576   3.456   2.491
 2615SOL    HW1 8744   0.633   3.520   2.542
 2615SOL    HW2 8745   0.615   3.442   2.400
 2616SOL     OW 8746   2.957   3.085   5.989
 2616SOL    HW1 8747   2.912   3.147   6.052
 2616SOL    HW2 8748   2.961   3.126   5.898
 2617SOL     OW 8749   3.790   6.924   0.203
 2617SOL    HW1 8750   3.697   6.958   0.221
 2617SOL    HW2 8751   3.785   6.832   0.165
 2618SOL     OW 8752   6.531   0.614   3.767
 2618SOL    HW1 8753   6.446   0.571   3.798
 2618SOL    HW2 8754   6.606   0.548   3.772
 2619SOL     OW 8755   4.257   2.344   2.821
 2619SOL    HW1 8756   4.170   2.362   2.868
 2619SOL    HW2 8757   4.332   2.351   2.886
 2620SOL     OW 8758   6.689   6.759   3.249
 2620SOL    HW1 8759   6.714   6.753   3.345
 2620SOL    HW2 8760   6.749   6.701   3.194
 2621SOL     OW 8761   0.560   5.431   1.984
 2621SOL    HW1 8762   0.551   5.452   1.886
 2621SOL    HW2 8763   0.589   5.335   1.994
 2622SOL     OW 8764   1.772   3.896   4.993
 2622SOL    HW1 8765   1.817   3.930   4.910
 2622SOL    HW2 8766   1.835   3.904   5.070
 2623SOL     OW 8767   0.681   1.302   5.589
 2623SOL    HW1 8768   0.587   1.281   5.616
 2623SOL    HW2 8769   0.693   1.282   5.492
 2624SOL     OW 8770   6.954   1.265   4.438
 2624SOL    HW1 8771   6.857   1.282   4.457
 2624SOL    HW2 8772   7.004   1.257   4.524
 2625SOL     OW 8773   2.422   3.651   5.641
 2625SOL    HW1 8774   2.463   3.636   5.551
 2625SOL    HW2 8775   2.356   3.579   5.660
 2626SOL     OW 8776   0.337   0.482   5.754
 2626SOL    HW1 8777   0.336   0.406   5.689
 2626SOL    HW2 8778   0.428   0.490   5.794
 2627SOL     OW 8779   0.681   0.922   6.359
 2627SOL    HW1 8780   0.652   1.010   6.323
 2627SOL    HW2 8781   0.724   0.869   6.286
 2628SOL     OW 8782   1.990   4.439   5.808
 2628SOL    HW1 8783   1.895   4.468   5.803
 2628SOL    HW2 8784   2.018   4.398   5.721
 2629SOL     OW 8785   3.784   3.247   2.477
 2629SOL    HW1 8786   3.807   3.167   2.421
 2629SOL    HW2 8787   3.816   3.330   2.431
 2630SOL     OW 8788   2.851   1.835   2.887
 2630SOL    HW1 8789   2.897   1.752   2.857
 2630SOL    HW2 8790   2.889   1.864   2.975
 2631SOL     OW 8791   5.314   0.779   6.264
 2631SOL    HW1 8792   5.222   0.814   6.248
 2631SOL    HW2 8793   5.312   0.715   6.340
 2632SOL     OW 8794   5.509   3.240   6.793
 2632SOL    HW1 8795   5.507   3.141   6.779
 2632SOL    HW2 8796   5.568   3.283   6.725
 2633SOL     OW 8797   0.722   1.845   4.386
 2633SOL    HW1 8798   0.711   1.936   4.346
 2633SOL    HW2 8799   0.815   1.813   4.370
 2634SOL     OW 8800   0.591   4.630   3.649
 2634SOL    HW1 8801   0.495   4.629   3.676
 2634SOL    HW2 8802   0.643   4.686   3.714
 2635SOL     OW 8803   6.855   6.081   5.138
 2635SOL    HW1 8804   6.943   6.055   5.179
 2635SOL    HW2 8805   6.837   6.022   5.059
 2636SOL     OW 8806   3.974   0.768   5.320
 2636SOL    HW1 8807   3.904   0.807   5.261
 2636SOL    HW2 8808   3.940   0.684   5.362
 2637SOL     OW 8809   5.696   1.847   3.719
 2637SOL    HW1 8810   5.764   1.776   3.704
 2637SOL    HW2 8811   5.698   1.913   3.644
 2638SOL     OW 8812   0.060   6.847   3.744
 2638SOL    HW1 8813   0.056   6.946   3.751
 2638SOL    HW2 8814   0.058   6.819   3.648
 2639SOL     OW 8815   0.865   5.579   0.235
 2639SOL    HW1 8816   0.965   5.578   0.236
 2639SOL    HW2 8817   0.831   5.505   0.177
 2640SOL     OW 8818   7.011   6.117   5.546
 2640SOL    HW1 8819   0.028   6.168   5.624
 2640SOL    HW2 8820   6.974   6.182   5.479
 2641SOL     OW 8821   5.700   2.935   2.178
 2641SOL    HW1 8822   5.783   2.880   2.164
 2641SOL    HW2 8823   5.722   3.032   2.162
 2642SOL     OW 8824   5.766   0.612   3.520
 2642SOL    HW1 8825   5.686   0.603   3.459
 2642SOL    HW2 8826   5.845   0.641   3.467
 2643SOL     OW 8827   0.828   3.738   3.299
 2643SOL    HW1 8828   0.838   3.711   3.394
 2643SOL    HW2 8829   0.786   3.664   3.247
 2644SOL     OW 8830   5.058   5.415   5.246
 2644SOL    HW1 8831   4.993   5.462   5.306
 2644SOL    HW2 8832   5.079   5.325   5.284
 2645SOL     OW 8833   4.233   5.907   3.787
 2645SOL    HW1 8834   4.246   6.006   3.792
 2645SOL    HW2 8835   4.146   5.887   3.743
 2646SOL     OW 8836   6.413   1.424   6.849
 2646SOL    HW1 8837   6.474   1.434   6.928
 2646SOL    HW2 8838   6.426   1.501   6.787
 2647SOL     OW 8839   6.510   0.098   1.962
 2647SOL    HW1 8840   6.516   0.050   1.875
 2647SOL    HW2 8841   6.527   0.195   1.948
 2648SOL     OW 8842   1.096   6.611   3.034
 2648SOL    HW1 8843   1.065   6.563   3.115
 2648SOL    HW2 8844   1.192   6.588   3.016
 2649SOL     OW 8845   6.802   3.628   0.525
 2649SOL    HW1 8846   6.744   3.547   0.513
 2649SOL    HW2 8847   6.745   3.707   0.547
 2650SOL     OW 8848   1.211   4.889   3.874
 2650SOL    HW1 8849   1.154   4.908   3.794
 2650SOL    HW2 8850   1.232   4.792   3.878
 2651SOL     OW 8851   2.277   1.562   0.975
 2651SOL    HW1 8852   2.238   1.524   1.059
 2651SOL    HW2 8853   2.207   1.560   0.903
 2652SOL     OW 8854   4.167   3.414   5.254
 2652SOL    HW1 8855   4.176   3.314   5.255
 2652SOL    HW2 8856   4.189   3.450   5.344
 2653SOL     OW 8857   4.749   6.882   5.796
 2653SOL    HW1 8858   4.809   6.829   5.737
 2653SOL    HW2 8859   4.798   6.960   5.833
 2654SOL     OW 8860   4.431   0.196   1.904
 2654SOL    HW1 8861   4.365   0.250   1.851
 2654SOL    HW2 8862   4.383   0.143   1.973
 2655SOL     OW 8863   5.588   6.827   3.913
 2655SOL    HW1 8864   5.678   6.848   3.876
 2655SOL    HW2 8865   5.575   6.727   3.915
 2656SOL     OW 8866   3.279   5.123   4.225
 2656SOL    HW1 8867   3.332   5.073   4.294
 2656SOL    HW2 8868   3.334   5.200   4.191
 2657SOL     OW 8869   0.896   4.280   0.095
 2657SOL    HW1 8870   0.946   4.290   0.181
 2657SOL    HW2 8871   0.949   4.224   0.032
 2658SOL     OW 8872   4.901   4.796   0.711
 2658SOL    HW1 8873   4.862   4.721   0.764
 2658SOL    HW2 8874   4.868   4.791   0.616
 2659SOL     OW 8875   4.957   3.111   5.156
 2659SOL    HW1 8876   5.011   3.195   5.149
 2659SOL    HW2 8877   4.862   3.131   5.133
 2660SOL     OW 8878   1.485   6.719   1.662
 2660SOL    HW1 8879   1.434   6.637   1.689
 2660SOL    HW2 8880   1.430   6.773   1.598
 2661SOL     OW 8881   2.312   6.815   1.651
 2661SOL    HW1 8882   2.223   6.839   1.612
 2661SOL    HW2 8883   2.332   6.875   1.729
 2662SOL     OW 8884   3.821   6.299   5.397
 2662SOL    HW1 8885   3.850   6.315   5.303
 2662SOL    HW2 8886   3.885   6.236   5.442
 2663SOL     OW 8887   3.339   4.181   6.831
 2663SOL    HW1 8888   3.383   4.096   6.858
 2663SOL    HW2 8889   3.331   4.242   6.910
 2664SOL     OW 8890   4.536   3.491   5.439
 2664SOL    HW1 8891   4.589   3.513   5.358
 2664SOL    HW2 8892   4.489   3.403   5.426
 2665SOL     OW 8893   2.966   3.158   5.288
 2665SOL    HW1 8894   2.894   3.226   5.276
 2665SOL    HW2 8895   2.976   3.104   5.205
 2666SOL     OW 8896   0.447   5.470   1.681
 2666SOL    HW1 8897   0.527   5.507   1.634
 2666SOL    HW2 8898   0.369   5.468   1.618
 2667SOL     OW 8899   1.004   5.794   4.215
 2667SOL    HW1 8900   0.950   5.866   4.170
 2667SOL    HW2 8901   1.101   5.821   4.214
 2668SOL     OW 8902   0.286   2.867   4.865
 2668SOL    HW1 8903   0.298   2.953   4.915
 2668SOL    HW2 8904   0.291   2.885   4.767
 2669SOL     OW 8905   2.986   4.847   5.975
 2669SOL    HW1 8906   3.038   4.921   5.933
 2669SOL    HW2 8907   3.035   4.813   6.056
 2670SOL     OW 8908   6.164   3.917   5.801
 2670SOL    HW1 8909   6.192   3.919   5.897
 2670SOL    HW2 8910   6.237   3.954   5.744
 2671SOL     OW 8911   4.066   5.493   6.887
 2671SOL    HW1 8912   4.055   5.440   6.803
 2671SOL    HW2 8913   3.993   5.561   6.894
 2672SOL     OW 8914   2.483   5.189   1.053
 2672SOL    HW1 8915   2.404   5.134   1.025
 2672SOL    HW2 8916   2.543   5.205   0.974
 2673SOL     OW 8917   6.535   1.710   1.692
 2673SOL    HW1 8918   6.490   1.799   1.693
 2673SOL    HW2 8919   6.466   1.637   1.695
 2674SOL     OW 8920   1.217   4.613   3.737
 2674SOL    HW1 8921   1.172   4.537   3.784
 2674SOL    HW2 8922   1.180   4.621   3.644
 2675SOL     OW 8923   5.942   5.656   4.082
 2675SOL    HW1 8924   5.859   5.654   4.025
 2675SOL    HW2 8925   6.001   5.731   4.051
 2676SOL     OW 8926   3.335   2.718   1.260
 2676SOL    HW1 8927   3.350   2.816   1.242
 2676SOL    HW2 8928   3.340   2.701   1.358
 2677SOL     OW 8929   2.412   3.970   6.869
 2677SOL    HW1 8930   2.373   4.014   6.788
 2677SOL    HW2 8931   2.381   3.875   6.873
 2678SOL     OW 8932   0.093   2.290   2.379
 2678SOL    HW1 8933   0.047   2.316   2.294
 2678SOL    HW2 8934   0.135   2.200   2.368
 2679SOL     OW 8935   2.077   5.142   1.812
 2679SOL    HW1 8936   1.987   5.101   1.798
 2679SOL    HW2 8937   2.138   5.074   1.854
 2680SOL     OW 8938   0.872   1.996   1.220
 2680SOL    HW1 8939   0.891   1.995   1.318
 2680SOL    HW2 8940   0.866   2.091   1.188
 2681SOL     OW 8941   1.455   2.268   5.545
 2681SOL    HW1 8942   1.507   2.237   5.625
 2681SOL    HW2 8943   1.464   2.368   5.537
 2682SOL     OW 8944   4.605   4.350   3.534
 2682SOL    HW1 8945   4.649   4.344   3.623
 2682SOL    HW2 8946   4.543   4.273   3.521
 2683SOL     OW 8947   2.681   5.604   1.981
 2683SOL    HW1 8948   2.628   5.685   1.956
 2683SOL    HW2 8949   2.779   5.624   1.974
 2684SOL     OW 8950   4.285   6.401   1.703
 2684SOL    HW1 8951   4.381   6.409   1.677
 2684SOL    HW2 8952   4.242   6.328   1.650
 2685SOL     OW 8953   6.307   5.749   6.497
 2685SOL    HW1 8954   6.348   5.837   6.476
 2685SOL    HW2 8955   6.331   5.723   6.591
 2686SOL     OW 8956   1.962   1.513   5.814
 2686SOL    HW1 8957   1.997   1.504   5.720
 2686SOL    HW2 8958   2.001   1.595   5.855
 2687SOL     OW 8959   5.156   5.732   1.390
 2687SOL    HW1 8960   5.182   5.677   1.469
 2687SOL    HW2 8961   5.124   5.822   1.421
 2688SOL     OW 8962   3.038   3.253   0.516
 2688SOL    HW1 8963   3.032   3.255   0.616
 2688SOL    HW2 8964   2.965   3.194   0.480
 2689SOL     OW 8965   1.052   4.086   2.216
 2689SOL    HW1 8966   1.010   4.137   2.141
 2689SOL    HW2 8967   1.034   4.132   2.303
 2690SOL     OW 8968   3.823   3.449   4.973
 2690SOL    HW1 8969   3.823   3.435   4.874
 2690SOL    HW2 8970   3.735   3.484   5.002
 2691SOL     OW 8971   0.732   5.312   3.970
 2691SOL    HW1 8972   0.750   5.404   3.934
 2691SOL    HW2 8973   0.718   5.317   4.068
 2692SOL     OW 8974   2.759   6.006   3.589
 2692SOL    HW1 8975   2.844   6.009   3.641
 2692SOL    HW2 8976   2.780   6.016   3.491
 2693SOL     OW 8977   2.028   5.861   3.581
 2693SOL    HW1 8978   2.056   5.785   3.522
 2693SOL    HW2 8979   1.950   5.907   3.540
 2694SOL     OW 8980   4.286   6.595   2.834
 2694SOL    HW1 8981   4.213   6.600   2.902
 2694SOL    HW2 8982   4.357   6.531   2.865
 2695SOL     OW 8983   5.787   1.131   2.294
 2695SOL    HW1 8984   5.806   1.043   2.252
 2695SOL    HW2 8985   5.690   1.136   2.320
 2696SOL     OW 8986   3.470   3.146   5.920
 2696SOL    HW1 8987   3.443   3.240   5.939
 2696SOL    HW2 8988   3.506   3.140   5.827
 2697SOL     OW 8989   3.159   1.343   3.126
 2697SOL    HW1 8990   3.158   1.443   3.120
 2697SOL    HW2 8991   3.153   1.316   3.222
 2698SOL     OW 8992   2.026   4.702   0.822
 2698SOL    HW1 8993   1.978   4.753   0.893
 2698SOL    HW2 8994   2.076   4.626   0.863
 2699SOL     OW 8995   2.653   5.753   0.979
 2699SOL    HW1 8996   2.741   5.801   0.974
 2699SOL    HW2 8997   2.630   5.736   1.075
 2700SOL     OW 8998   2.793   2.778   0.572
 2700SOL    HW1 8999   2.721   2.720   0.610
 2700SOL    HW2 9000   2.835   2.732   0.493
 2701SOL     OW 9001   5.621   1.793   6.566
 2701SOL    HW1 9002   5.568   1.840   6.496
 2701SOL    HW2 9003   5.579   1.808   6.655
 2702SOL     OW 9004   0.347   2.505   3.408
 2702SOL    HW1 9005   0.434   2.493   3.456
 2702SOL    HW2 9006   0.313   2.415   3.379
 2703SOL     OW 9007   0.794   6.539   0.504
 2703SOL    HW1 9008   0.824   6.470   0.571
 2703SOL    HW2 9009   0.856   6.539   0.426
 2704SOL     OW 9010   6.530   5.968   1.839
 2704SOL    HW1 9011   6.491   5.983   1.748
 2704SOL    HW2 9012   6.561   5.873   1.846
 2705SOL     OW 9013   6.576   6.914   4.813
 2705SOL    HW1 9014   6.525   6.894   4.729
 2705SOL    HW2 9015   6.555   6.845   4.882
 2706SOL     OW 9016   6.122   5.075   3.007
 2706SOL    HW1 9017   6.202   5.110   2.958
 2706SOL    HW2 9018   6.100   5.136   3.083
 2707SOL     OW 9019   4.065   0.593   4.515
 2707SOL    HW1 9020   3.997   0.587   4.588
 2707SOL    HW2 9021   4.141   0.651   4.545
 2708SOL     OW 9022   6.953   2.548   0.924
 2708SOL    HW1 9023   6.869   2.601   0.907
 2708SOL    HW2 9024   0.011   2.607   0.908
 2709SOL     OW 9025   5.118   0.233   0.505
 2709SOL    HW1 9026   5.131   0.220   0.407
 2709SOL    HW2 9027   5.030   0.193   0.533
 2710SOL     OW 9028   1.141   3.110   4.205
 2710SOL    HW1 9029   1.155   3.094   4.107
 2710SOL    HW2 9030   1.217   3.069   4.256
 2711SOL     OW 9031   2.747   1.285   3.622
 2711SOL    HW1 9032   2.707   1.228   3.550
 2711SOL    HW2 9033   2.690   1.281   3.704
 2712SOL     OW 9034   2.573   4.505   1.161
 2712SOL    HW1 9035   2.565   4.407   1.180
 2712SOL    HW2 9036   2.640   4.520   1.088
 2713SOL     OW 9037   2.211   2.954   5.951
 2713SOL    HW1 9038   2.229   3.044   5.993
 2713SOL    HW2 9039   2.288   2.927   5.894
 2714SOL     OW 9040   4.175   2.316   0.351
 2714SOL    HW1 9041   4.174   2.225   0.311
 2714SOL    HW2 9042   4.208   2.312   0.445
 2715SOL     OW 9043   5.262   2.691   1.161
 2715SOL    HW1 9044   5.227   2.605   1.198
 2715SOL    HW2 9045   5.275   2.682   1.062
 2716SOL     OW 9046   5.140   3.185   3.503
 2716SOL    HW1 9047   5.173   3.207   3.595
 2716SOL    HW2 9048   5.202   3.224   3.435
 2717SOL     OW 9049   6.938   0.226   2.504
 2717SOL    HW1 9050   6.969   0.319   2.525
 2717SOL    HW2 9051   6.973   0.198   2.415
 2718SOL     OW 9052   1.197   1.186   5.255
 2718SOL    HW1 9053   1.264   1.137   5.311
 2718SOL    HW2 9054   1.242   1.224   5.174
 2719SOL     OW 9055   0.558   5.166   1.351
 2719SOL    HW1 9056   0.630   5.218   1.304
 2719SOL    HW2 9057   0.561   5.186   1.449
 2720SOL     OW 9058   1.777   6.556   2.260
 2720SOL    HW1 9059   1.835   6.545   2.341
 2720SOL    HW2 9060   1.739   6.648   2.258
 2721SOL     OW 9061   3.713   6.405   3.315
 2721SOL    HW1 9062   3.707   6.308   3.335
 2721SOL    HW2 9063   3.711   6.419   3.216
 2722SOL     OW 9064   6.268   4.970   0.732
 2722SOL    HW1 9065   6.320   5.055   0.731
 2722SOL    HW2 9066   6.313   4.904   0.793
 2723SOL     OW 9067   1.124   5.899   6.074
 2723SOL    HW1 9068   1.190   5.842   6.025
 2723SOL    HW2 9069   1.044   5.844   6.097
 2724SOL     OW 9070   2.408   5.600   6.949
 2724SOL    HW1 9071   2.374   5.513   6.985
 2724SOL    HW2 9072   2.330   5.660   6.929
 2725SOL     OW 9073   4.725   4.680   5.034
 2725SOL    HW1 9074   4.758   4.690   4.940
 2725SOL    HW2 9075   4.675   4.762   5.061
 2726SOL     OW 9076   0.184   1.948   1.600
 2726SOL    HW1 9077   0.206   1.994   1.514
 2726SOL    HW2 9078   0.095   1.903   1.592
 2727SOL     OW 9079   0.698   4.797   3.838
 2727SOL    HW1 9080   0.681   4.880   3.784
 2727SOL    HW2 9081   0.680   4.816   3.935
 2728SOL     OW 9082   4.598   6.665   5.185
 2728SOL    HW1 9083   4.596   6.749   5.241
 2728SOL    HW2 9084   4.622   6.689   5.091
 2729SOL     OW 9085   0.091   6.062   0.453
 2729SOL    HW1 9086   0.100   6.014   0.366
 2729SOL    HW2 9087   0.010   6.121   0.451
 2730SOL     OW 9088   1.655   5.498   1.737
 2730SOL    HW1 9089   1.736   5.541   1.698
 2730SOL    HW2 9090   1.682   5.423   1.798
 2731SOL     OW 9091   2.918   3.614   3.382
 2731SOL    HW1 9092   2.925   3.713   3.375
 2731SOL    HW2 9093   2.825   3.585   3.362
 2732SOL     OW 9094   5.777   2.265   1.964
 2732SOL    HW1 9095   5.803   2.169   1.957
 2732SOL    HW2 9096   5.762   2.289   2.060
 2733SOL     OW 9097   6.511   2.055   5.282
 2733SOL    HW1 9098   6.447   2.073   5.357
 2733SOL    HW2 9099   6.538   1.959   5.283
 2734SOL     OW 9100   3.158   5.660   0.942
 2734SOL    HW1 9101   3.162   5.752   0.903
 2734SOL    HW2 9102   3.080   5.611   0.902
 2735SOL     OW 9103   1.565   3.272   1.764
 2735SOL    HW1 9104   1.548   3.355   1.711
 2735SOL    HW2 9105   1.648   3.227   1.731
 2736SOL     OW 9106   6.029   5.821   4.383
 2736SOL    HW1 9107   6.017   5.881   4.305
 2736SOL    HW2 9108   5.958   5.750   4.383
 2737SOL     OW 9109   2.761   4.364   5.339
 2737SOL    HW1 9110   2.793   4.269   5.346
 2737SOL    HW2 9111   2.817   4.414   5.274
 2738SOL     OW 9112   5.158   6.564   2.051
 2738SOL    HW1 9113   5.096   6.641   2.041
 2738SOL    HW2 9114   5.203   6.545   1.964
 2739SOL     OW 9115   1.525   5.004   1.140
 2739SOL    HW1 9116   1.569   4.915   1.145
 2739SOL    HW2 9117   1.547   5.048   1.053
 2740SOL     OW 9118   6.443   4.208   2.265
 2740SOL    HW1 9119   6.516   4.206   2.196
 2740SOL    HW2 9120   6.480   4.178   2.353
 2741SOL     OW 9121   6.283   0.161   4.781
 2741SOL    HW1 9122   6.382   0.169   4.768
 2741SOL    HW2 9123   6.249   0.244   4.826
 2742SOL     OW 9124   1.638   5.201   0.389
 2742SOL    HW1 9125   1.709   5.258   0.348
 2742SOL    HW2 9126   1.554   5.208   0.336
 2743SOL     OW 9127   6.570   4.483   2.423
 2743SOL    HW1 9128   6.627   4.401   2.419
 2743SOL    HW2 9129   6.628   4.564   2.436
 2744SOL     OW 9130   4.747   2.338   0.470
 2744SOL    HW1 9131   4.695   2.403   0.525
 2744SOL    HW2 9132   4.813   2.388   0.413
 2745SOL     OW 9133   6.873   0.859   4.876
 2745SOL    HW1 9134   6.923   0.836   4.792
 2745SOL    HW2 9135   6.811   0.935   4.857
 2746SOL     OW 9136   1.145   2.651   4.827
 2746SOL    HW1 9137   1.144   2.564   4.777
 2746SOL    HW2 9138   1.206   2.715   4.780
 2747SOL     OW 9139   4.656   4.862   6.368
 2747SOL    HW1 9140   4.569   4.836   6.409
 2747SOL    HW2 9141   4.730   4.842   6.433
 2748SOL     OW 9142   4.616   1.405   2.220
 2748SOL    HW1 9143   4.678   1.449   2.286
 2748SOL    HW2 9144   4.600   1.468   2.144
 2749SOL     OW 9145   0.557   4.290   1.111
 2749SOL    HW1 9146   0.572   4.266   1.015
 2749SOL    HW2 9147   0.467   4.334   1.120
 2750SOL     OW 9148   1.456   3.438   0.745
 2750SOL    HW1 9149   1.518   3.364   0.772
 2750SOL    HW2 9150   1.462   3.512   0.811
 2751SOL     OW 9151   1.238   3.291   1.383
 2751SOL    HW1 9152   1.201   3.359   1.319
 2751SOL    HW2 9153   1.203   3.309   1.475
 2752SOL     OW 9154   3.675   4.929   5.255
 2752SOL    HW1 9155   3.736   4.851   5.240
 2752SOL    HW2 9156   3.730   5.012   5.262
 2753SOL     OW 9157   6.780   6.250   4.927
 2753SOL    HW1 9158   6.802   6.182   4.997
 2753SOL    HW2 9159   6.831   6.334   4.944
 2754SOL     OW 9160   0.891   0.304   1.151
 2754SOL    HW1 9161   0.964   0.235   1.150
 2754SOL    HW2 9162   0.879   0.338   1.244
 2755SOL     OW 9163   2.421   0.261   2.568
 2755SOL    HW1 9164   2.516   0.274   2.595
 2755SOL    HW2 9165   2.416   0.241   2.470
 2756SOL     OW 9166   5.685   5.139   0.183
 2756SOL    HW1 9167   5.682   5.103   0.277
 2756SOL    HW2 9168   5.778   5.134   0.149
 2757SOL     OW 9169   2.486   6.717   6.821
 2757SOL    HW1 9170   2.472   6.812   6.848
 2757SOL    HW2 9171   2.431   6.696   6.741
 2758SOL     OW 9172   3.627   6.138   4.189
 2758SOL    HW1 9173   3.592   6.078   4.117
 2758SOL    HW2 9174   3.595   6.105   4.278
 2759SOL     OW 9175   5.328   6.749   5.701
 2759SOL    HW1 9176   5.368   6.658   5.687
 2759SOL    HW2 9177   5.392   6.819   5.668
 2760SOL     OW 9178   0.805   6.396   1.783
 2760SOL    HW1 9179   0.805   6.317   1.845
 2760SOL    HW2 9180   0.836   6.367   1.693
 2761SOL     OW 9181   2.324   5.668   4.408
 2761SOL    HW1 9182   2.300   5.749   4.463
 2761SOL    HW2 9183   2.246   5.607   4.403
 2762SOL     OW 9184   1.347   1.297   5.033
 2762SOL    HW1 9185   1.292   1.332   4.958
 2762SOL    HW2 9186   1.439   1.336   5.029
 2763SOL     OW 9187   5.181   1.363   3.040
 2763SOL    HW1 9188   5.170   1.287   2.977
 2763SOL    HW2 9189   5.092   1.385   3.081
 2764SOL     OW 9190   5.805   1.064   0.979
 2764SOL    HW1 9191   5.865   1.141   0.960
 2764SOL    HW2 9192   5.713   1.098   1.000
 2765SOL     OW 9193   5.903   6.873   1.126
 2765SOL    HW1 9194   5.838   6.946   1.148
 2765SOL    HW2 9195   5.853   6.787   1.115
 2766SOL     OW 9196   5.300   2.190   0.538
 2766SOL    HW1 9197   5.323   2.247   0.459
 2766SOL    HW2 9198   5.367   2.205   0.611
 2767SOL     OW 9199   6.786   5.254   0.364
 2767SOL    HW1 9200   6.813   5.158   0.374
 2767SOL    HW2 9201   6.839   5.296   0.291
 2768SOL     OW 9202   4.289   0.702   0.979
 2768SOL    HW1 9203   4.203   0.655   0.999
 2768SOL    HW2 9204   4.363   0.635   0.974
 2769SOL     OW 9205   2.073   4.249   4.320
 2769SOL    HW1 9206   2.019   4.202   4.250
 2769SOL    HW2 9207   2.035   4.230   4.410
 2770SOL     OW 9208   4.147   5.839   5.561
 2770SOL    HW1 9209   4.135   5.924   5.613
 2770SOL    HW2 9210   4.119   5.762   5.618
 2771SOL     OW 9211   6.685   0.961   3.598
 2771SOL    HW1 9212   6.738   1.042   3.625
 2771SOL    HW2 9213   6.624   0.934   3.673
 2772SOL     OW 9214   4.180   1.351   0.859
 2772SOL    HW1 9215   4.164   1.374   0.955
 2772SOL    HW2 9216   4.278   1.357   0.840
 2773SOL     OW 9217   6.091   2.165   5.068
 2773SOL    HW1 9218   6.162   2.126   5.010
 2773SOL    HW2 9219   6.082   2.110   5.151
 2774SOL     OW 9220   5.771   3.320   3.108
 2774SOL    HW1 9221   5.725   3.333   3.019
 2774SOL    HW2 9222   5.868   3.341   3.098
 2775SOL     OW 9223   6.909   5.883   6.351
 2775SOL    HW1 9224   6.809   5.886   6.348
 2775SOL    HW2 9225   6.939   5.876   6.446
 2776SOL     OW 9226   4.102   5.028   5.510
 2776SOL    HW1 9227   4.122   5.083   5.429
 2776SOL    HW2 9228   4.144   5.070   5.590
 2777SOL     OW 9229   2.602   1.021   2.126
 2777SOL    HW1 9230   2.687   1.006   2.176
 2777SOL    HW2 9231   2.553   0.934   2.118
 2778SOL     OW 9232   1.673   0.096   5.736
 2778SOL    HW1 9233   1.707   0.152   5.660
 2778SOL    HW2 9234   1.658   0.003   5.705
 2779SOL     OW 9235   4.935   6.369   1.175
 2779SOL    HW1 9236   4.909   6.273   1.185
 2779SOL    HW2 9237   5.027   6.375   1.134
 2780SOL     OW 9238   6.256   6.761   6.803
 2780SOL    HW1 9239   6.165   6.791   6.775
 2780SOL    HW2 9240   6.317   6.840   6.810
 2781SOL     OW 9241   5.520   6.455   2.128
 2781SOL    HW1 9242   5.473   6.374   2.162
 2781SOL    HW2 9243   5.604   6.470   2.182
 2782SOL     OW 9244   4.282   1.974   6.101
 2782SOL    HW1 9245   4.268   1.922   6.017
 2782SOL    HW2 9246   4.195   1.982   6.150
 2783SOL     OW 9247   5.210   4.054   3.747
 2783SOL    HW1 9248   5.183   3.963   3.714
 2783SOL    HW2 9249   5.309   4.065   3.739
 2784SOL     OW 9250   3.243   1.286   2.119
 2784SOL    HW1 9251   3.276   1.368   2.165
 2784SOL    HW2 9252   3.188   1.312   2.040
 2785SOL     OW 9253   4.731   1.263   0.796
 2785SOL    HW1 9254   4.685   1.212   0.869
 2785SOL    HW2 9255   4.819   1.297   0.829
 2786SOL     OW 9256   5.142   6.992   2.196
 2786SOL    HW1 9257   5.200   0.020   2.131
 2786SOL    HW2 9258   5.053   0.017   2.202
 2787SOL     OW 9259   4.336   1.926   6.453
 2787SOL    HW1 9260   4.421   1.974   6.430
 2787SOL    HW2 9261   4.258   1.983   6.427
 2788SOL     OW 9262   1.993   4.868   5.751
 2788SOL    HW1 9263   2.054   4.947   5.758
 2788SOL    HW2 9264   2.018   4.800   5.820
 2789SOL     OW 9265   1.594   2.050   3.511
 2789SOL    HW1 9266   1.587   2.084   3.418
 2789SOL    HW2 9267   1.508   2.065   3.559
 2790SOL     OW 9268   3.031   6.153   1.810
 2790SOL    HW1 9269   2.938   6.132   1.837
 2790SOL    HW2 9270   3.094   6.089   1.854
 2791SOL     OW 9271   0.626   3.027   3.119
 2791SOL    HW1 9272   0.535   3.028   3.077
 2791SOL    HW2 9273   0.692   3.066   3.055
 2792SOL     OW 9274   2.322   6.707   3.921
 2792SOL    HW1 9275   2.416   6.716   3.955
 2792SOL    HW2 9276   2.323   6.657   3.835
 2793SOL     OW 9277   5.536   4.038   2.847
 2793SOL    HW1 9278   5.495   4.052   2.757
 2793SOL    HW2 9279   5.515   4.116   2.906
 2794SOL     OW 9280   0.165   2.707   6.694
 2794SOL    HW1 9281   0.101   2.691   6.619
 2794SOL    HW2 9282   0.136   2.656   6.774
 2795SOL     OW 9283   1.146   2.991   0.529
 2795SOL    HW1 9284   1.213   3.062   0.508
 2795SOL    HW2 9285   1.154   2.917   0.462
 2796SOL     OW 9286   7.011   6.150   3.014
 2796SOL    HW1 9287   7.012   6.096   3.098
 2796SOL    HW2 9288   0.035   6.100   2.941
 2797SOL     OW 9289   5.306   5.439   4.457
 2797SOL    HW1 9290   5.227   5.402   4.506
 2797SOL    HW2 9291   5.332   5.526   4.498
 2798SOL     OW 9292   0.232   5.257   2.189
 2798SOL    HW1 9293   0.232   5.339   2.132
 2798SOL    HW2 9294   0.297   5.268   2.264
 2799SOL     OW 9295   6.094   5.701   6.821
 2799SOL    HW1 9296   6.094   5.615   6.771
 2799SOL    HW2 9297   6.003   5.718   6.857
 2800SOL     OW 9298   4.662   5.992   0.483
 2800SOL    HW1 9299   4.696   6.038   0.401
 2800SOL    HW2 9300   4.715   5.909   0.500
 2801SOL     OW 9301   6.626   5.791   6.358
 2801SOL    HW1 9302   6.646   5.795   6.260
 2801SOL    HW2 9303   6.551   5.853   6.379
 2802SOL     OW 9304   5.543   1.422   5.249
 2802SOL    HW1 9305   5.479   1.370   5.305
 2802SOL    HW2 9306   5.549   1.381   5.158
 2803SOL     OW 9307   3.665   5.700   6.542
 2803SOL    HW1 9308   3.749   5.652   6.517
 2803SOL    HW2 9309   3.642   5.766   6.471
 2804SOL     OW 9310   0.127   5.058   4.744
 2804SOL    HW1 9311   0.208   5.044   4.686
 2804SOL    HW2 9312   0.155   5.077   4.838
 2805SOL     OW 9313   5.493   3.278   1.691
 2805SOL    HW1 9314   5.515   3.373   1.671
 2805SOL    HW2 9315   5.494   3.263   1.790
 2806SOL     OW 9316   6.972   4.792   5.928
 2806SOL    HW1 9317   6.954   4.722   5.996
 2806SOL    HW2 9318   6.968   4.883   5.971
 2807SOL     OW 9319   5.062   6.520   4.492
 2807SOL    HW1 9320   5.072   6.434   4.442
 2807SOL    HW2 9321   5.098   6.510   4.584
 2808SOL     OW 9322   5.746   4.392   2.115
 2808SOL    HW1 9323   5.718   4.487   2.103
 2808SOL    HW2 9324   5.699   4.353   2.194
 2809SOL     OW 9325   5.960   3.224   1.012
 2809SOL    HW1 9326   6.031   3.242   1.080
 2809SOL    HW2 9327   5.970   3.288   0.936
 2810SOL     OW 9328   3.434   4.899   3.410
 2810SOL    HW1 9329   3.528   4.863   3.406
 2810SOL    HW2 9330   3.435   4.989   3.453
 2811SOL     OW 9331   1.114   1.779   3.246
 2811SOL    HW1 9332   1.026   1.732   3.249
 2811SOL    HW2 9333   1.106   1.860   3.187
 2812SOL     OW 9334   5.103   3.922   6.379
 2812SOL    HW1 9335   5.008   3.925   6.349
 2812SOL    HW2 9336   5.106   3.900   6.477
 2813SOL     OW 9337   6.847   6.658   6.464
 2813SOL    HW1 9338   6.768   6.597   6.471
 2813SOL    HW2 9339   6.882   6.657   6.370
 2814SOL     OW 9340   3.983   3.628   5.442
 2814SOL    HW1 9341   3.979   3.711   5.386
 2814SOL    HW2 9342   4.079   3.601   5.453
 2815SOL     OW 9343   6.289   7.005   5.379
 2815SOL    HW1 9344   6.257   0.075   5.405
 2815SOL    HW2 9345   6.378   6.988   5.421
 2816SOL     OW 9346   6.455   5.647   3.475
 2816SOL    HW1 9347   6.500   5.736   3.468
 2816SOL    HW2 9348   6.520   5.575   3.447
 2817SOL     OW 9349   2.560   7.002   1.583
 2817SOL    HW1 9350   2.473   0.028   1.597
 2817SOL    HW2 9351   2.565   6.969   1.489
 2818SOL     OW 9352   0.286   0.789   0.610
 2818SOL    HW1 9353   0.304   0.858   0.540
 2818SOL    HW2 9354   0.264   0.702   0.566
 2819SOL     OW 9355   0.792   1.380   1.875
 2819SOL    HW1 9356   0.742   1.439   1.811
 2819SOL    HW2 9357   0.728   1.345   1.943
 2820SOL     OW 9358   0.661   2.739   3.126
 2820SOL    HW1 9359   0.572   2.733   3.081
 2820SOL    HW2 9360   0.698   2.831   3.115
 2821SOL     OW 9361   4.179   3.090   6.828
 2821SOL    HW1 9362   4.093   3.051   6.861
 2821SOL    HW2 9363   4.199   3.054   6.737
 2822SOL     OW 9364   4.055   1.526   0.168
 2822SOL    HW1 9365   4.054   1.604   0.105
 2822SOL    HW2 9366   4.012   1.553   0.254
 2823SOL     OW 9367   4.647   6.978   0.440
 2823SOL    HW1 9368   4.596   6.954   0.523
 2823SOL    HW2 9369   4.619   6.918   0.365
 2824SOL     OW 9370   2.746   1.528   3.498
 2824SOL    HW1 9371   2.746   1.439   3.542
 2824SOL    HW2 9372   2.728   1.599   3.566
 2825SOL     OW 9373   6.024   0.429   6.617
 2825SOL    HW1 9374   5.967   0.483   6.554
 2825SOL    HW2 9375   6.049   0.485   6.696
 2826SOL     OW 9376   4.907   1.256   6.562
 2826SOL    HW1 9377   4.880   1.239   6.657
 2826SOL    HW2 9378   4.995   1.303   6.560
 2827SOL     OW 9379   6.992   0.895   5.156
 2827SOL    HW1 9380   6.934   0.921   5.078
 2827SOL    HW2 9381   7.015   0.798   5.149
 2828SOL     OW 9382   2.723   1.153   0.195
 2828SOL    HW1 9383   2.758   1.061   0.215
 2828SOL    HW2 9384   2.651   1.176   0.260
 2829SOL     OW 9385   3.143   3.421   4.901
 2829SOL    HW1 9386   3.051   3.449   4.926
 2829SOL    HW2 9387   3.190   3.385   4.982
 2830SOL     OW 9388   1.681   3.364   5.768
 2830SOL    HW1 9389   1.654   3.434   5.833
 2830SOL    HW2 9390   1.692   3.276   5.816
 2831SOL     OW 9391   0.661   5.022   3.700
 2831SOL    HW1 9392   0.596   5.098   3.697
 2831SOL    HW2 9393   0.715   5.021   3.616
 2832SOL     OW 9394   0.635   2.427   1.990
 2832SOL    HW1 9395   0.718   2.398   2.037
 2832SOL    HW2 9396   0.597   2.506   2.036
 2833SOL     OW 9397   3.127   1.899   2.127
 2833SOL    HW1 9398   3.214   1.883   2.080
 2833SOL    HW2 9399   3.075   1.814   2.132
 2834SOL     OW 9400   4.114   4.928   6.080
 2834SOL    HW1 9401   4.149   4.969   5.996
 2834SOL    HW2 9402   4.033   4.978   6.110
 2835SOL     OW 9403   0.342   0.122   2.093
 2835SOL    HW1 9404   0.439   0.144   2.082
 2835SOL    HW2 9405   0.319   0.044   2.035
 2836SOL     OW 9406   6.478   6.906   2.400
 2836SOL    HW1 9407   6.484   6.892   2.301
 2836SOL    HW2 9408   6.425   6.831   2.440
 2837SOL     OW 9409   5.331   4.474   2.233
 2837SOL    HW1 9410   5.274   4.457   2.153
 2837SOL    HW2 9411   5.282   4.536   2.296
 2838SOL     OW 9412   2.276   4.126   0.902
 2838SOL    HW1 9413   2.257   4.072   0.821
 2838SOL    HW2 9414   2.222   4.091   0.979
 2839SOL     OW 9415   0.064   1.955   2.301
 2839SOL    HW1 9416   6.994   1.997   2.291
 2839SOL    HW2 9417   0.056   1.875   2.362
 2840SOL     OW 9418   1.760   0.494   3.146
 2840SOL    HW1 9419   1.727   0.588   3.139
 2840SOL    HW2 9420   1.854   0.494   3.180
 2841SOL     OW 9421   0.504   0.709   6.082
 2841SOL    HW1 9422   0.598   0.712   6.116
 2841SOL    HW2 9423   0.464   0.800   6.090
 2842SOL     OW 9424   0.461   4.003   4.166
 2842SOL    HW1 9425   0.485   3.958   4.080
 2842SOL    HW2 9426   0.375   3.966   4.200
 2843SOL     OW 9427   2.388   2.358   2.922
 2843SOL    HW1 9428   2.384   2.261   2.901
 2843SOL    HW2 9429   2.478   2.394   2.897
 2844SOL     OW 9430   6.790   4.793   0.530
 2844SOL    HW1 9431   6.835   4.704   0.534
 2844SOL    HW2 9432   6.696   4.781   0.498
 2845SOL     OW 9433   6.046   2.703   1.390
 2845SOL    HW1 9434   6.122   2.762   1.363
 2845SOL    HW2 9435   5.991   2.749   1.460
 2846SOL     OW 9436   4.176   1.176   7.000
 2846SOL    HW1 9437   4.253   1.111   7.003
 2846SOL    HW2 9438   4.093   1.129   0.008
 2847SOL     OW 9439   4.899   3.080   3.943
 2847SOL    HW1 9440   4.884   3.026   4.026
 2847SOL    HW2 9441   4.996   3.077   3.919
 2848SOL     OW 9442   1.571   2.266   5.006
 2848SOL    HW1 9443   1.636   2.330   4.966
 2848SOL    HW2 9444   1.600   2.242   5.099
 2849SOL     OW 9445   3.737   6.312   0.597
 2849SOL    HW1 9446   3.737   6.246   0.672
 2849SOL    HW2 9447   3.774   6.269   0.515
 2850SOL     OW 9448   1.574   0.418   2.310
 2850SOL    HW1 9449   1.487   0.454   2.278
 2850SOL    HW2 9450   1.563   0.322   2.337
 2851SOL     OW 9451   6.156   1.033   6.253
 2851SOL    HW1 9452   6.089   1.070   6.189
 2851SOL    HW2 9453   6.174   1.099   6.325
 2852SOL     OW 9454   5.741   4.292   6.657
 2852SOL    HW1 9455   5.765   4.273   6.562
 2852SOL    HW2 9456   5.821   4.328   6.706
 2853SOL     OW 9457   1.779   2.219   6.333
 2853SOL    HW1 9458   1.775   2.120   6.341
 2853SOL    HW2 9459   1.686   2.256   6.329
 2854SOL     OW 9460   4.266   1.621   5.214
 2854SOL    HW1 9461   4.251   1.600   5.311
 2854SOL    HW2 9462   4.180   1.648   5.172
 2855SOL     OW 9463   2.180   1.193   0.245
 2855SOL    HW1 9464   2.099   1.136   0.251
 2855SOL    HW2 9465   2.169   1.259   0.170
 2856SOL     OW 9466   0.858   2.829   5.666
 2856SOL    HW1 9467   0.848   2.923   5.698
 2856SOL    HW2 9468   0.804   2.816   5.583
 2857SOL     OW 9469   2.428   2.231   2.442
 2857SOL    HW1 9470   2.445   2.135   2.466
 2857SOL    HW2 9471   2.425   2.286   2.526
 2858SOL     OW 9472   4.768   4.103   2.403
 2858SOL    HW1 9473   4.726   4.163   2.335
 2858SOL    HW2 9474   4.859   4.075   2.371
 2859SOL     OW 9475   5.693   1.597   6.907
 2859SOL    HW1 9476   5.752   1.658   6.853
 2859SOL    HW2 9477   5.620   1.562   6.849
 2860SOL     OW 9478   3.277   1.239   1.763
 2860SOL    HW1 9479   3.331   1.169   1.716
 2860SOL    HW2 9480   3.179   1.218   1.752
 2861SOL     OW 9481   3.686   3.959   5.482
 2861SOL    HW1 9482   3.661   3.906   5.401
 2861SOL    HW2 9483   3.735   4.042   5.455
 2862SOL     OW 9484   5.791   1.643   2.785
 2862SOL    HW1 9485   5.703   1.644   2.834
 2862SOL    HW2 9486   5.783   1.699   2.703
 2863SOL     OW 9487   5.201   1.098   6.616
 2863SOL    HW1 9488   5.198   1.198   6.615
 2863SOL    HW2 9489   5.186   1.065   6.709
 2864SOL     OW 9490   4.487   1.701   1.704
 2864SOL    HW1 9491   4.396   1.705   1.746
 2864SOL    HW2 9492   4.505   1.787   1.655
 2865SOL     OW 9493   3.907   4.316   6.531
 2865SOL    HW1 9494   3.845   4.391   6.553
 2865SOL    HW2 9495   3.905   4.248   6.604
 2866SOL     OW 9496   6.639   5.487   0.437
 2866SOL    HW1 9497   6.612   5.483   0.534
 2866SOL    HW2 9498   6.688   5.404   0.412
 2867SOL     OW 9499   6.379   5.511   3.025
 2867SOL    HW1 9500   6.297   5.483   2.976
 2867SOL    HW2 9501   6.424   5.585   2.975
 2868SOL     OW 9502   0.777   1.923   5.494
 2868SOL    HW1 9503   0.863   1.933   5.545
 2868SOL    HW2 9504   0.729   1.841   5.527
 2869SOL     OW 9505   6.805   1.204   3.487
 2869SOL    HW1 9506   6.725   1.246   3.530
 2869SOL    HW2 9507   6.775   1.130   3.426
 2870SOL     OW 9508   0.483   1.520   4.756
 2870SOL    HW1 9509   0.391   1.557   4.746
 2870SOL    HW2 9510   0.479   1.430   4.801
 2871SOL     OW 9511   0.131   1.989   0.054
 2871SOL    HW1 9512   0.218   1.946   0.078
 2871SOL    HW2 9513   0.141   2.035   6.986
 2872SOL     OW 9514   2.459   1.978   2.547
 2872SOL    HW1 9515   2.534   1.942   2.490
 2872SOL    HW2 9516   2.487   1.978   2.643
 2873SOL     OW 9517   0.101   5.340   3.051
 2873SOL    HW1 9518   0.145   5.428   3.066
 2873SOL    HW2 9519   0.162   5.266   3.082
 2874SOL     OW 9520   4.091   6.634   3.280
 2874SOL    HW1 9521   4.178   6.679   3.301
 2874SOL    HW2 9522   4.034   6.632   3.363
 2875SOL     OW 9523   4.361   6.838   0.633
 2875SOL    HW1 9524   4.433   6.871   0.693
 2875SOL    HW2 9525   4.274   6.834   0.683
 2876SOL     OW 9526   1.483   0.519   1.473
 2876SOL    HW1 9527   1.513   0.509   1.378
 2876SOL    HW2 9528   1.471   0.616   1.494
 2877SOL     OW 9529   3.358   2.634   5.287
 2877SOL    HW1 9530   3.285   2.570   5.263
 2877SOL    HW2 9531   3.423   2.589   5.347
 2878SOL     OW 9532   3.988   5.062   5.022
 2878SOL    HW1 9533   3.908   5.059   4.962
 2878SOL    HW2 9534   3.998   4.975   5.069
 2879SOL     OW 9535   5.540   5.022   0.516
 2879SOL    HW1 9536   5.601   4.950   0.483
 2879SOL    HW2 9537   5.453   5.017   0.466
 2880SOL     OW 9538   6.845   0.490   1.842
 2880SOL    HW1 9539   6.759   0.448   1.872
 2880SOL    HW2 9540   6.915   0.477   1.913
 2881SOL     OW 9541   5.129   5.819   0.201
 2881SOL    HW1 9542   5.089   5.733   0.233
 2881SOL    HW2 9543   5.068   5.860   0.133
 2882SOL     OW 9544   0.616   4.725   2.511
 2882SOL    HW1 9545   0.650   4.707   2.418
 2882SOL    HW2 9546   0.555   4.651   2.539
 2883SOL     OW 9547   5.945   0.141   3.489
 2883SOL    HW1 9548   5.887   0.113   3.566
 2883SOL    HW2 9549   5.891   0.192   3.423
 2884SOL     OW 9550   0.767   0.098   2.684
 2884SOL    HW1 9551   0.832   0.148   2.742
 2884SOL    HW2 9552   0.741   0.013   2.729
 2885SOL     OW 9553   1.005   3.527   3.000
 2885SOL    HW1 9554   1.069   3.493   3.068
 2885SOL    HW2 9555   1.041   3.610   2.958
 2886SOL     OW 9556   1.931   4.179   5.597
 2886SOL    HW1 9557   1.954   4.193   5.694
 2886SOL    HW2 9558   1.833   4.164   5.588
 2887SOL     OW 9559   0.052   0.560   4.847
 2887SOL    HW1 9560   0.099   0.570   4.759
 2887SOL    HW2 9561   6.974   0.567   4.833
 2888SOL     OW 9562   0.627   4.184   0.155
 2888SOL    HW1 9563   0.692   4.119   0.194
 2888SOL    HW2 9564   0.662   4.218   0.067
 2889SOL     OW 9565   1.965   6.847   2.440
 2889SOL    HW1 9566   1.969   6.892   2.529
 2889SOL    HW2 9567   1.956   6.749   2.453
 2890SOL     OW 9568   2.557   5.728   0.723
 2890SOL    HW1 9569   2.602   5.725   0.812
 2890SOL    HW2 9570   2.462   5.699   0.733
 2891SOL     OW 9571   0.828   4.144   3.863
 2891SOL    HW1 9572   0.925   4.124   3.849
 2891SOL    HW2 9573   0.814   4.177   3.957
 2892SOL     OW 9574   5.130   3.280   6.981
 2892SOL    HW1 9575   5.127   3.232   6.893
 2892SOL    HW2 9576   5.225   3.293   7.008
 2893SOL     OW 9577   0.323   6.084   4.935
 2893SOL    HW1 9578   0.303   5.988   4.912
 2893SOL    HW2 9579   0.242   6.126   4.974
 2894SOL     OW 9580   1.459   2.854   1.617
 2894SOL    HW1 9581   1.497   2.928   1.561
 2894SOL    HW2 9582   1.532   2.793   1.645
 2895SOL     OW 9583   4.464   2.188   5.779
 2895SOL    HW1 9584   4.516   2.103   5.791
 2895SOL    HW2 9585   4.438   2.224   5.868
 2896SOL     OW 9586   4.606   6.033   6.033
 2896SOL    HW1 9587   4.656   6.011   6.117
 2896SOL    HW2 9588   4.512   6.060   6.055
 2897SOL     OW 9589   3.960   4.922   2.883
 2897SOL    HW1 9590   3.996   4.993   2.944
 2897SOL    HW2 9591   4.036   4.865   2.850
 2898SOL     OW 9592   4.491   4.994   4.445
 2898SOL    HW1 9593   4.523   5.085   4.421
 2898SOL    HW2 9594   4.511   4.930   4.370
 2899SOL     OW 9595   1.049   1.566   0.528
 2899SOL    HW1 9596   1.056   1.609   0.438
 2899SOL    HW2 9597   1.099   1.621   0.595
 2900SOL     OW 9598   1.615   4.461   5.243
 2900SOL    HW1 9599   1.598   4.554   5.212
 2900SOL    HW2 9600   1.699   4.458   5.297
 2901SOL     OW 9601   3.219   5.736   3.617
 2901SOL    HW1 9602   3.123   5.711   3.629
 2901SOL    HW2 9603   3.259   5.678   3.546
 2902SOL     OW 9604   4.911   6.728   2.420
 2902SOL    HW1 9605   4.851   6.717   2.341
 2902SOL    HW2 9606   4.939   6.824   2.427
 2903SOL     OW 9607   3.299   0.677   0.746
 2903SOL    HW1 9608   3.255   0.695   0.834
 2903SOL    HW2 9609   3.369   0.746   0.729
 2904SOL     OW 9610   2.042   3.926   5.149
 2904SOL    HW1 9611   2.024   3.834   5.114
 2904SOL    HW2 9612   2.139   3.947   5.140
 2905SOL     OW 9613   1.643   2.544   4.389
 2905SOL    HW1 9614   1.631   2.466   4.450
 2905SOL    HW2 9615   1.739   2.553   4.364
 2906SOL     OW 9616   4.310   5.422   1.501
 2906SOL    HW1 9617   4.291   5.455   1.593
 2906SOL    HW2 9618   4.334   5.499   1.442
 2907SOL     OW 9619   0.558   1.555   3.645
 2907SOL    HW1 9620   0.606   1.475   3.608
 2907SOL    HW2 9621   0.586   1.570   3.739
 2908SOL     OW 9622   4.882   6.236   4.035
 2908SOL    HW1 9623   4.889   6.143   3.999
 2908SOL    HW2 9624   4.937   6.243   4.118
 2909SOL     OW 9625   1.742   5.961   3.318
 2909SOL    HW1 9626   1.718   5.992   3.226
 2909SOL    HW2 9627   1.666   5.982   3.381
 2910SOL     OW 9628   4.462   6.963   4.333
 2910SOL    HW1 9629   4.555   6.993   4.314
 2910SOL    HW2 9630   4.417   6.938   4.248
 2911SOL     OW 9631   0.990   5.794   3.347
 2911SOL    HW1 9632   0.897   5.774   3.318
 2911SOL    HW2 9633   1.020   5.724   3.413
 2912SOL     OW 9634   4.857   0.418   0.096
 2912SOL    HW1 9635   4.866   0.370   0.009
 2912SOL    HW2 9636   4.816   0.357   0.164
 2913SOL     OW 9637   2.747   4.865   2.662
 2913SOL    HW1 9638   2.669   4.851   2.602
 2913SOL    HW2 9639   2.830   4.833   2.617
 2914SOL     OW 9640   6.043   6.515   6.768
 2914SOL    HW1 9641   6.027   6.531   6.866
 2914SOL    HW2 9642   6.111   6.443   6.757
 2915SOL     OW 9643   5.615   1.532   4.046
 2915SOL    HW1 9644   5.582   1.446   4.084
 2915SOL    HW2 9645   5.583   1.608   4.103
 2916SOL     OW 9646   0.938   6.589   0.073
 2916SOL    HW1 9647   0.855   6.639   0.048
 2916SOL    HW2 9648   0.927   6.492   0.050
 2917SOL     OW 9649   2.500   6.989   2.878
 2917SOL    HW1 9650   2.456   6.936   2.950
 2917SOL    HW2 9651   2.434   7.008   2.805
 2918SOL     OW 9652   6.675   5.422   4.704
 2918SOL    HW1 9653   6.751   5.482   4.730
 2918SOL    HW2 9654   6.589   5.472   4.709
 2919SOL     OW 9655   6.959   1.150   1.557
 2919SOL    HW1 9656   6.877   1.169   1.612
 2919SOL    HW2 9657   0.014   1.207   1.589
 2920SOL     OW 9658   2.456   1.563   1.439
 2920SOL    HW1 9659   2.359   1.583   1.449
 2920SOL    HW2 9660   2.510   1.640   1.472
 2921SOL     OW 9661   0.859   0.334   3.725
 2921SOL    HW1 9662   0.924   0.397   3.769
 2921SOL    HW2 9663   0.859   0.349   3.626
 2922SOL     OW 9664   5.032   0.537   0.345
 2922SOL    HW1 9665   5.018   0.632   0.373
 2922SOL    HW2 9666   4.977   0.518   0.263
 2923SOL     OW 9667   6.634   5.184   1.897
 2923SOL    HW1 9668   6.582   5.122   1.840
 2923SOL    HW2 9669   6.572   5.247   1.944
 2924SOL     OW 9670   6.639   2.132   5.992
 2924SOL    HW1 9671   6.644   2.049   6.048
 2924SOL    HW2 9672   6.553   2.179   6.010
 2925SOL     OW 9673   4.562   0.747   2.231
 2925SOL    HW1 9674   4.500   0.680   2.272
 2925SOL    HW2 9675   4.523   0.839   2.239
 2926SOL     OW 9676   6.643   1.750   4.366
 2926SOL    HW1 9677   6.676   1.754   4.461
 2926SOL    HW2 9678   6.695   1.815   4.310
 2927SOL     OW 9679   0.891   2.912   1.792
 2927SOL    HW1 9680   0.913   2.862   1.708
 2927SOL    HW2 9681   0.889   2.848   1.869
 2928SOL     OW 9682   0.239   1.257   6.329
 2928SOL    HW1 9683   0.223   1.165   6.294
 2928SOL    HW2 9684   0.258   1.253   6.427
 2929SOL     OW 9685   6.955   2.180   6.831
 2929SOL    HW1 9686   6.896   2.115   6.878
 2929SOL    HW2 9687   0.025   2.140   6.819
 2930SOL     OW 9688   4.715   0.098   5.189
 2930SOL    HW1 9689   4.704   0.196   5.205
 2930SOL    HW2 9690   4.660   0.047   5.255
 2931SOL     OW 9691   5.352   4.672   0.538
 2931SOL    HW1 9692   5.367   4.732   0.459
 2931SOL    HW2 9693   5.440   4.651   0.580
 2932SOL     OW 9694   0.762   5.315   1.212
 2932SOL    HW1 9695   0.721   5.370   1.139
 2932SOL    HW2 9696   0.786   5.375   1.288
 2933SOL     OW 9697   6.566   4.797   3.553
 2933SOL    HW1 9698   6.495   4.860   3.586
 2933SOL    HW2 9699   6.604   4.746   3.631
 2934SOL     OW 9700   4.596   1.137   0.075
 2934SOL    HW1 9701   4.658   1.215   0.071
 2934SOL    HW2 9702   4.516   1.161   0.130
 2935SOL     OW 9703   6.081   2.918   0.423
 2935SOL    HW1 9704   6.064   2.842   0.360
 2935SOL    HW2 9705   5.998   2.935   0.477
 2936SOL     OW 9706   4.023   5.959   1.385
 2936SOL    HW1 9707   4.032   5.950   1.484
 2936SOL    HW2 9708   3.955   6.029   1.363
 2937SOL     OW 9709   4.767   4.418   0.285
 2937SOL    HW1 9710   4.697   4.346   0.288
 2937SOL    HW2 9711   4.853   4.383   0.322
 2938SOL     OW 9712   4.604   5.206   0.232
 2938SOL    HW1 9713   4.515   5.236   0.264
 2938SOL    HW2 9714   4.607   5.106   0.230
 2939SOL     OW 9715   1.263   0.720   3.444
 2939SOL    HW1 9716   1.352   0.692   3.409
 2939SOL    HW2 9717   1.240   0.811   3.408
 2940SOL     OW 9718   5.795   5.242   6.166
 2940SOL    HW1 9719   5.770   5.307   6.094
 2940SOL    HW2 9720   5.810   5.292   6.251
 2941SOL     OW 9721   1.903   3.044   4.598
 2941SOL    HW1 9722   1.907   2.992   4.683
 2941SOL    HW2 9723   1.946   2.991   4.524
 2942SOL     OW 9724   3.203   2.229   0.944
 2942SOL    HW1 9725   3.258   2.300   0.899
 2942SOL    HW2 9726   3.193   2.250   1.041
 2943SOL     OW 9727   4.745   4.636   2.692
 2943SOL    HW1 9728   4.680   4.596   2.757
 2943SOL    HW2 9729   4.761   4.571   2.617
 2944SOL     OW 9730   2.929   5.856   4.640
 2944SOL    HW1 9731   2.890   5.821   4.725
 2944SOL    HW2 9732   2.901   5.798   4.564
 2945SOL     OW 9733   3.657   4.174   4.045
 2945SOL    HW1 9734   3.638   4.084   4.085
 2945SOL    HW2 9735   3.741   4.211   4.085
 2946SOL     OW 9736   1.113   5.247   6.109
 2946SOL    HW1 9737   1.136   5.327   6.054
 2946SOL    HW2 9738   1.101   5.275   6.204
 2947SOL     OW 9739   0.323   3.273   0.922
 2947SOL    HW1 9740   0.238   3.233   0.888
 2947SOL    HW2 9741   0.399   3.210   0.905
 2948SOL     OW 9742   0.778   4.590   5.342
 2948SOL    HW1 9743   0.743   4.683   5.359
 2948SOL    HW2 9744   0.821   4.587   5.252
 2949SOL     OW 9745   2.763   4.910   0.936
 2949SOL    HW1 9746   2.705   4.987   0.911
 2949SOL    HW2 9747   2.832   4.939   1.002
 2950SOL     OW 9748   5.470   4.068   4.359
 2950SOL    HW1 9749   5.421   3.985   4.382
 2950SOL    HW2 9750   5.501   4.064   4.264
 2951SOL     OW 9751   5.954   1.525   1.130
 2951SOL    HW1 9752   5.942   1.621   1.106
 2951SOL    HW2 9753   5.974   1.517   1.227
 2952SOL     OW 9754   0.884   5.610   5.311
 2952SOL    HW1 9755   0.908   5.566   5.398
 2952SOL    HW2 9756   0.785   5.615   5.303
 2953SOL     OW 9757   5.125   3.080   2.796
 2953SOL    HW1 9758   5.174   3.123   2.871
 2953SOL    HW2 9759   5.141   2.982   2.797
 2954SOL     OW 9760   0.040   5.603   1.784
 2954SOL    HW1 9761   0.126   5.573   1.826
 2954SOL    HW2 9762   6.992   5.616   1.856
 2955SOL     OW 9763   1.226   4.061   1.590
 2955SOL    HW1 9764   1.312   4.012   1.600
 2955SOL    HW2 9765   1.175   4.025   1.512
 2956SOL     OW 9766   5.715   6.509   2.990
 2956SOL    HW1 9767   5.766   6.592   2.967
 2956SOL    HW2 9768   5.650   6.529   3.063
 2957SOL     OW 9769   6.118   3.074   1.937
 2957SOL    HW1 9770   6.189   3.025   1.885
 2957SOL    HW2 9771   6.059   3.124   1.873
 2958SOL     OW 9772   2.150   4.890   4.021
 2958SOL    HW1 9773   2.140   4.968   4.083
 2958SOL    HW2 9774   2.247   4.877   3.998
 2959SOL     OW 9775   4.304   4.317   0.529
 2959SOL    HW1 9776   4.241   4.392   0.507
 2959SOL    HW2 9777   4.316   4.312   0.628
 2960SOL     OW 9778   3.650   0.620   6.449
 2960SOL    HW1 9779   3.705   0.542   6.479
 2960SOL    HW2 9780   3.642   0.685   6.524
 2961SOL     OW 9781   4.915   2.972   3.179
 2961SOL    HW1 9782   4.910   3.068   3.205
 2961SOL    HW2 9783   4.899   2.963   3.080
 2962SOL     OW 9784   4.065   0.503   3.381
 2962SOL    HW1 9785   3.999   0.441   3.338
 2962SOL    HW2 9786   4.064   0.490   3.480
 2963SOL     OW 9787   2.005   0.445   6.480
 2963SOL    HW1 9788   2.013   0.352   6.445
 2963SOL    HW2 9789   1.908   0.467   6.495
 2964SOL     OW 9790   0.780   0.466   3.024
 2964SOL    HW1 9791   0.814   0.526   3.095
 2964SOL    HW2 9792   0.770   0.516   2.938
 2965SOL     OW 9793   6.737   1.854   4.620
 2965SOL    HW1 9794   6.774   1.941   4.587
 2965SOL    HW2 9795   6.649   1.869   4.665
 2966SOL     OW 9796   5.978   6.033   4.205
 2966SOL    HW1 9797   5.897   6.022   4.147
 2966SOL    HW2 9798   5.960   6.102   4.275
 2967SOL     OW 9799   5.749   0.750   4.588
 2967SOL    HW1 9800   5.803   0.770   4.506
 2967SOL    HW2 9801   5.783   0.666   4.631
 2968SOL     OW 9802   0.768   3.250   6.230
 2968SOL    HW1 9803   0.848   3.309   6.223
 2968SOL    HW2 9804   0.691   3.302   6.267
 2969SOL     OW 9805   5.465   1.294   4.144
 2969SOL    HW1 9806   5.396   1.295   4.217
 2969SOL    HW2 9807   5.546   1.244   4.176
 2970SOL     OW 9808   1.741   4.547   5.809
 2970SOL    HW1 9809   1.715   4.502   5.894
 2970SOL    HW2 9810   1.686   4.629   5.796
 2971SOL     OW 9811   4.825   4.058   6.792
 2971SOL    HW1 9812   4.845   4.146   6.834
 2971SOL    HW2 9813   4.824   3.987   6.863
 2972SOL     OW 9814   6.290   4.533   6.425
 2972SOL    HW1 9815   6.201   4.490   6.417
 2972SOL    HW2 9816   6.354   4.489   6.362
 2973SOL     OW 9817   5.368   0.413   3.283
 2973SOL    HW1 9818   5.383   0.322   3.244
 2973SOL    HW2 9819   5.326   0.472   3.214
 2974SOL     OW 9820   0.434   4.733   2.866
 2974SOL    HW1 9821   0.382   4.679   2.799
 2974SOL    HW2 9822   0.514   4.773   2.821
 2975SOL     OW 9823   6.100   3.012   4.839
 2975SOL    HW1 9824   6.199   3.003   4.834
 2975SOL    HW2 9825   6.070   2.997   4.933
 2976SOL     OW 9826   3.883   2.185   3.901
 2976SOL    HW1 9827   3.816   2.130   3.851
 2976SOL    HW2 9828   3.932   2.243   3.836
 2977SOL     OW 9829   2.604   0.046   3.405
 2977SOL    HW1 9830   2.590   6.991   3.469
 2977SOL    HW2 9831   2.518   0.094   3.391
 2978SOL     OW 9832   4.700   4.452   0.010
 2978SOL    HW1 9833   4.602   4.457   7.008
 2978SOL    HW2 9834   4.714   4.482   0.104
 2979SOL     OW 9835   4.656   0.943   4.446
 2979SOL    HW1 9836   4.729   0.990   4.397
 2979SOL    HW2 9837   4.693   0.866   4.498
 2980SOL     OW 9838   1.468   6.328   3.712
 2980SOL    HW1 9839   1.472   6.340   3.811
 2980SOL    HW2 9840   1.415   6.246   3.690
 2981SOL     OW 9841   2.287   1.104   5.979
 2981SOL    HW1 9842   2.268   1.173   5.910
 2981SOL    HW2 9843   2.310   1.017   5.935
 2982SOL     OW 9844   4.121   5.115   3.070
 2982SOL    HW1 9845   4.120   5.083   3.165
 2982SOL    HW2 9846   4.216   5.127   3.040
 2983SOL     OW 9847   0.926   1.516   3.195
 2983SOL    HW1 9848   1.017   1.481   3.217
 2983SOL    HW2 9849   0.890   1.468   3.115
 2984SOL     OW 9850   5.481   5.589   1.486
 2984SOL    HW1 9851   5.450   5.684   1.479
 2984SOL    HW2 9852   5.548   5.570   1.414
 2985SOL     OW 9853   1.170   2.908   5.645
 2985SOL    HW1 9854   1.098   2.842   5.668
 2985SOL    HW2 9855   1.161   2.937   5.550
 2986SOL     OW 9856   3.199   3.924   4.989
 2986SOL    HW1 9857   3.109   3.907   4.947
 2986SOL    HW2 9858   3.213   4.022   4.998
 2987SOL     OW 9859   6.085   0.951   4.557
 2987SOL    HW1 9860   6.077   0.977   4.460
 2987SOL    HW2 9861   6.166   0.993   4.596
 2988SOL     OW 9862   0.676   5.980   2.594
 2988SOL    HW1 9863   0.768   6.020   2.597
 2988SOL    HW2 9864   0.673   5.908   2.525
 2989SOL     OW 9865   6.640   6.184   6.799
 2989SOL    HW1 9866   6.651   6.210   6.704
 2989SOL    HW2 9867   6.612   6.088   6.805
 2990SOL     OW 9868   4.455   2.032   4.424
 2990SOL    HW1 9869   4.404   2.043   4.509
 2990SOL    HW2 9870   4.540   2.085   4.428
 2991SOL     OW 9871   6.389   4.278   5.799
 2991SOL    HW1 9872   6.444   4.336   5.858
 2991SOL    HW2 9873   6.295   4.312   5.796
 2992SOL     OW 9874   2.977   5.616   5.069
 2992SOL    HW1 9875   3.062   5.635   5.020
 2992SOL    HW2 9876   2.899   5.640   5.011
 2993SOL     OW 9877   0.434   5.497   0.838
 2993SOL    HW1 9878   0.410   5.594   0.831
 2993SOL    HW2 9879   0.357   5.447   0.877
 2994SOL     OW 9880   3.797   6.797   6.777
 2994SOL    HW1 9881   3.777   6.831   6.685
 2994SOL    HW2 9882   3.792   6.697   6.776
 2995SOL     OW 9883   3.174   2.779   6.724
 2995SOL    HW1 9884   3.096   2.820   6.678
 2995SOL    HW2 9885   3.229   2.852   6.767
 2996SOL     OW 9886   2.309   0.421   3.323
 2996SOL    HW1 9887   2.356   0.472   3.251
 2996SOL    HW2 9888   2.365   0.422   3.406
 2997SOL     OW 9889   5.432   1.148   2.631
 2997SOL    HW1 9890   5.333   1.162   2.625
 2997SOL    HW2 9891   5.477   1.235   2.651
 2998SOL     OW 9892   3.978   0.357   4.163
 2998SOL    HW1 9893   3.923   0.406   4.095
 2998SOL    HW2 9894   4.075   0.371   4.143
 2999SOL     OW 9895   2.987   4.840   4.423
 2999SOL    HW1 9896   3.047   4.889   4.487
 2999SOL    HW2 9897   2.898   4.827   4.465
 3000SOL     OW 9898   2.468   3.153   0.167
 3000SOL    HW1 9899   2.449   3.197   0.254
 3000SOL    HW2 9900   2.565   3.159   0.147
 3001SOL     OW 9901   5.433   6.773   6.454
 3001SOL    HW1 9902   5.339   6.804   6.467
 3001SOL    HW2 9903   5.434   6.703   6.382
 3002SOL     OW 9904   3.645   0.816   6.650
 3002SOL    HW1 9905   3.724   0.877   6.642
 3002SOL    HW2 9906   3.563   0.870   6.668
 3003SOL     OW 9907   1.845   6.509   0.194
 3003SOL    HW1 9908   1.842   6.437   0.125
 3003SOL    HW2 9909   1.921   6.572   0.174
 3004SOL     OW 9910   1.189   4.403   3.481
 3004SOL    HW1 9911   1.131   4.391   3.562
 3004SOL    HW2 9912   1.189   4.499   3.454
 3005SOL     OW 9913   3.742   2.293   0.146
 3005SOL    HW1 9914   3.714   2.385   0.172
 3005SOL    HW2 9915   3.832   2.296   0.101
 3006SOL     OW 9916   5.608   1.794   5.901
 3006SOL    HW1 9917   5.554   1.726   5.851
 3006SOL    HW2 9918   5.569   1.885   5.886
 3007SOL     OW 9919   5.991   5.447   1.049
 3007SOL    HW1 9920   5.965   5.538   1.081
 3007SOL    HW2 9921   5.909   5.393   1.029
 3008SOL     OW 9922   3.571   2.072   6.710
 3008SOL    HW1 9923   3.515   2.000   6.751
 3008SOL    HW2 9924   3.586   2.145   6.777
 3009SOL     OW 9925   0.667   0.876   2.670
 3009SOL    HW1 9926   0.766   0.893   2.663
 3009SOL    HW2 9927   0.618   0.952   2.628
 3010SOL     OW 9928   3.240   5.714   2.782
 3010SOL    HW1 9929   3.150   5.757   2.793
 3010SOL    HW2 9930   3.247   5.677   2.689
 3011SOL     OW 9931   5.436   1.385   1.063
 3011SOL    HW1 9932   5.422   1.337   0.977
 3011SOL    HW2 9933   5.520   1.352   1.107
 3012SOL     OW 9934   1.036   3.639   5.649
 3012SOL    HW1 9935   1.096   3.705   5.695
 3012SOL    HW2 9936   0.976   3.688   5.586
 3013SOL     OW 9937   5.501   5.721   5.469
 3013SOL    HW1 9938   5.451   5.651   5.417
 3013SOL    HW2 9939   5.439   5.796   5.491
 3014SOL     OW 9940   4.881   2.465   4.626
 3014SOL    HW1 9941   4.826   2.516   4.559
 3014SOL    HW2 9942   4.961   2.426   4.581
 3015SOL     OW 9943   3.529   2.010   0.259
 3015SOL    HW1 9944   3.603   2.051   0.312
 3015SOL    HW2 9945   3.476   1.949   0.317
 3016SOL     OW 9946   2.719   6.326   4.211
 3016SOL    HW1 9947   2.795   6.261   4.216
 3016SOL    HW2 9948   2.682   6.326   4.118
 3017SOL     OW 9949   6.496   5.009   1.723
 3017SOL    HW1 9950   6.562   4.969   1.659
 3017SOL    HW2 9951   6.464   4.938   1.786
 3018SOL     OW 9952   3.236   6.150   5.990
 3018SOL    HW1 9953   3.276   6.067   5.953
 3018SOL    HW2 9954   3.163   6.182   5.930
 3019SOL     OW 9955   0.597   0.163   6.641
 3019SOL    HW1 9956   0.612   0.248   6.692
 3019SOL    HW2 9957   0.636   0.087   6.692
 3020SOL     OW 9958   4.005   3.074   1.820
 3020SOL    HW1 9959   3.967   3.004   1.758
 3020SOL    HW2 9960   4.102   3.056   1.835
 3021SOL     OW 9961   3.263   7.001   0.141
 3021SOL    HW1 9962   3.296   0.032   0.062
 3021SOL    HW2 9963   3.269   0.038   0.223
 3022SOL     OW 9964   3.881   5.188   4.238
 3022SOL    HW1 9965   3.833   5.133   4.170
 3022SOL    HW2 9966   3.979   5.187   4.218
 3023SOL     OW 9967   4.187   0.202   2.665
 3023SOL    HW1 9968   4.259   0.161   2.720
 3023SOL    HW2 9969   4.098   0.178   2.703
 3024SOL     OW 9970   3.958   6.699   5.250
 3024SOL    HW1 9971   3.934   6.711   5.153
 3024SOL    HW2 9972   3.972   6.602   5.269
 3025SOL     OW 9973   3.456   1.073   0.757
 3025SOL    HW1 9974   3.372   1.099   0.804
 3025SOL    HW2 9975   3.495   1.153   0.712
 3026SOL     OW 9976   1.186   0.633   0.636
 3026SOL    HW1 9977   1.155   0.560   0.697
 3026SOL    HW2 9978   1.239   0.700   0.687
 3027SOL     OW 9979   3.634   0.648   2.934
 3027SOL    HW1 9980   3.708   0.686   2.879
 3027SOL    HW2 9981   3.671   0.613   3.020
 3028SOL     OW 9982   1.020   4.539   5.476
 3028SOL    HW1 9983   0.932   4.555   5.431
 3028SOL    HW2 9984   1.094   4.576   5.419
 3029SOL     OW 9985   0.347   2.674   4.523
 3029SOL    HW1 9986   0.433   2.675   4.574
 3029SOL    HW2 9987   0.310   2.766   4.519
 3030SOL     OW 9988   0.769   3.084   6.046
 3030SOL    HW1 9989   0.681   3.036   6.047
 3030SOL    HW2 9990   0.770   3.154   6.118
 3031SOL     OW 9991   0.622   3.497   0.406
 3031SOL    HW1 9992   0.682   3.574   0.426
 3031SOL    HW2 9993   0.644   3.460   0.316
 3032SOL     OW 9994   3.417   6.834   1.392
 3032SOL    HW1 9995   3.416   6.920   1.341
 3032SOL    HW2 9996   3.398   6.852   1.488
 3033SOL     OW 9997   6.471   1.994   1.819
 3033SOL    HW1 9998   6.422   1.939   1.886
 3033SOL    HW2 9999   6.566   2.006   1.849
 3034SOL     OW10000   1.450   5.647   2.955
 3034SOL    HW110001   1.452   5.743   2.983
 3034SOL    HW210002   1.361   5.607   2.975
 3035SOL     OW10003   0.142   3.057   6.760
 3035SOL    HW110004   0.125   3.062   6.662
 3035SOL    HW210005   0.230   3.012   6.777
 3036SOL     OW10006   1.830   1.944   6.367
 3036SOL    HW110007   1.810   1.846   6.362
 3036SOL    HW210008   1.928   1.958   6.374
 3037SOL     OW10009   6.770   5.958   5.455
 3037SOL    HW110010   6.704   6.033   5.447
 3037SOL    HW210011   6.854   5.992   5.496
 3038SOL     OW10012   5.797   6.533   6.360
 3038SOL    HW110013   5.847   6.545   6.274
 3038SOL    HW210014   5.700   6.521   6.340
 3039SOL     OW10015   7.005   3.992   1.320
 3039SOL    HW110016   7.010   4.055   1.242
 3039SOL    HW210017   6.931   4.021   1.381
 3040SOL     OW10018   3.828   3.590   6.299
 3040SOL    HW110019   3.892   3.656   6.258
 3040SOL    HW210020   3.878   3.508   6.327
 3041SOL     OW10021   2.386   2.719   4.180
 3041SOL    HW110022   2.396   2.818   4.190
 3041SOL    HW210023   2.290   2.694   4.194
 3042SOL     OW10024   4.158   6.273   2.162
 3042SOL    HW110025   4.085   6.204   2.159
 3042SOL    HW210026   4.247   6.227   2.163
 3043SOL     OW10027   1.967   5.370   1.384
 3043SOL    HW110028   1.964   5.350   1.482
 3043SOL    HW210029   2.062   5.378   1.355
 3044SOL     OW10030   3.384   3.856   6.152
 3044SOL    HW110031   3.376   3.793   6.075
 3044SOL    HW210032   3.480   3.884   6.162
 3045SOL     OW10033   4.529   0.756   2.885
 3045SOL    HW110034   4.589   0.829   2.916
 3045SOL    HW210035   4.578   0.696   2.822
 3046SOL     OW10036   2.060   0.899   6.302
 3046SOL    HW110037   2.086   0.867   6.393
 3046SOL    HW210038   2.049   0.820   6.241
 3047SOL     OW10039   5.794   0.191   2.276
 3047SOL    HW110040   5.772   0.199   2.179
 3047SOL    HW210041   5.885   0.231   2.292
 3048SOL     OW10042   3.820   2.285   1.615
 3048SOL    HW110043   3.799   2.300   1.711
 3048SOL    HW210044   3.807   2.370   1.564
 3049SOL     OW10045   0.643   6.975   2.265
 3049SOL    HW110046   0.647   0.045   2.223
 3049SOL    HW210047   0.588   6.979   2.348
 3050SOL     OW10048   3.023   1.197   2.233
 3050SOL    HW110049   3.090   1.210   2.160
 3050SOL    HW210050   2.997   1.100   2.237
 3051SOL     OW10051   2.085   4.175   6.989
 3051SOL    HW110052   2.109   4.270   6.969
 3051SOL    HW210053   1.994   4.155   6.952
 3052SOL     OW10054   5.528   0.032   1.773
 3052SOL    HW110055   5.469   0.105   1.741
 3052SOL    HW210056   5.622   0.048   1.741
 3053SOL     OW10057   6.754   1.704   0.026
 3053SOL    HW110058   6.827   1.672   0.086
 3053SOL    HW210059   6.710   1.784   0.068
 3054SOL     OW10060   6.488   1.957   0.797
 3054SOL    HW110061   6.389   1.966   0.811
 3054SOL    HW210062   6.513   1.860   0.803
 3055SOL     OW10063   5.451   0.027   3.827
 3055SOL    HW110064   5.477   0.096   3.895
 3055SOL    HW210065   5.488   6.959   3.854
 3056SOL     OW10066   5.897   0.651   4.863
 3056SOL    HW110067   5.910   0.750   4.876
 3056SOL    HW210068   5.896   0.606   4.952
 3057SOL     OW10069   3.952   6.261   2.949
 3057SOL    HW110070   4.035   6.259   2.892
 3057SOL    HW210071   3.975   6.296   3.040
 3058SOL     OW10072   0.038   5.554   0.847
 3058SOL    HW110073   0.091   5.505   0.777
 3058SOL    HW210074   0.028   5.650   0.819
 3059SOL     OW10075   2.689   2.357   4.747
 3059SOL    HW110076   2.721   2.265   4.725
 3059SOL    HW210077   2.677   2.364   4.846
 3060SOL     OW10078   0.452   5.281   0.476
 3060SOL    HW110079   0.476   5.320   0.386
 3060SOL    HW210080   0.472   5.183   0.476
 3061SOL     OW10081   6.912   0.119   5.344
 3061SOL    HW110082   6.854   0.040   5.328
 3061SOL    HW210083   6.983   0.095   5.410
 3062SOL     OW10084   1.653   0.271   6.877
 3062SOL    HW110085   1.613   0.244   6.790
 3062SOL    HW210086   1.716   0.200   6.909
 3063SOL     OW10087   2.521   5.480   1.601
 3063SOL    HW110088   2.434   5.445   1.634
 3063SOL    HW210089   2.594   5.414   1.619
 3064SOL     OW10090   5.695   4.663   2.893
 3064SOL    HW110091   5.596   4.676   2.898
 3064SOL    HW210092   5.738   4.712   2.969
 3065SOL     OW10093   2.319   0.451   0.592
 3065SOL    HW110094   2.333   0.468   0.689
 3065SOL    HW210095   2.339   0.535   0.540
 3066SOL     OW10096   5.553   4.851   1.025
 3066SOL    HW110097   5.481   4.864   0.956
 3066SOL    HW210098   5.634   4.812   0.982
 3067SOL     OW10099   3.883   1.878   5.304
 3067SOL    HW110100   3.850   1.920   5.389
 3067SOL    HW210101   3.892   1.949   5.234
 3068SOL     OW10102   6.294   6.776   1.800
 3068SOL    HW110103   6.326   6.689   1.763
 3068SOL    HW210104   6.212   6.761   1.856
 3069SOL     OW10105   6.700   6.354   1.744
 3069SOL    HW110106   6.614   6.321   1.703
 3069SOL    HW210107   6.759   6.391   1.672
 3070SOL     OW10108   1.865   1.386   0.810
 3070SOL    HW110109   1.896   1.310   0.868
 3070SOL    HW210110   1.944   1.440   0.782
 3071SOL     OW10111   6.180   6.439   3.052
 3071SOL    HW110112   6.085   6.408   3.049
 3071SOL    HW210113   6.232   6.384   3.117
 3072SOL     OW10114   2.086   6.644   0.156
 3072SOL    HW110115   2.061   6.684   0.067
 3072SOL    HW210116   2.122   6.716   0.215
 3073SOL     OW10117   6.300   2.873   4.192
 3073SOL    HW110118   6.276   2.808   4.120
 3073SOL    HW210119   6.380   2.840   4.242
 3074SOL     OW10120   6.115   3.493   1.061
 3074SOL    HW110121   6.117   3.418   1.127
 3074SOL    HW210122   6.021   3.508   1.031
 3075SOL     OW10123   2.456   6.139   1.795
 3075SOL    HW110124   2.513   6.220   1.781
 3075SOL    HW210125   2.486   6.065   1.735
 3076SOL     OW10126   6.828   6.969   4.693
 3076SOL    HW110127   6.757   6.919   4.743
 3076SOL    HW210128   6.918   6.944   4.730
 3077SOL     OW10129   4.806   6.074   2.323
 3077SOL    HW110130   4.887   6.102   2.375
 3077SOL    HW210131   4.727   6.073   2.384
 3078SOL     OW10132   0.789   2.973   2.373
 3078SOL    HW110133   0.885   2.991   2.349
 3078SOL    HW210134   0.746   3.058   2.403
 3079SOL     OW10135   2.550   2.119   3.567
 3079SOL    HW110136   2.562   2.218   3.558
 3079SOL    HW210137   2.529   2.097   3.662
 3080SOL     OW10138   4.822   3.824   3.510
 3080SOL    HW110139   4.848   3.793   3.418
 3080SOL    HW210140   4.835   3.922   3.517
 3081SOL     OW10141   0.331   2.180   5.653
 3081SOL    HW110142   0.392   2.247   5.609
 3081SOL    HW210143   0.318   2.206   5.749
 3082SOL     OW10144   2.868   6.575   4.064
 3082SOL    HW110145   2.954   6.610   4.102
 3082SOL    HW210146   2.803   6.560   4.138
 3083SOL     OW10147   4.238   6.186   3.767
 3083SOL    HW110148   4.139   6.202   3.761
 3083SOL    HW210149   4.279   6.254   3.827
 3084SOL     OW10150   5.908   4.015   4.972
 3084SOL    HW110151   5.838   3.963   4.923
 3084SOL    HW210152   5.999   3.982   4.946
 3085SOL     OW10153   6.387   4.301   1.320
 3085SOL    HW110154   6.432   4.388   1.338
 3085SOL    HW210155   6.357   4.260   1.406
 3086SOL     OW10156   4.442   1.469   1.567
 3086SOL    HW110157   4.347   1.439   1.577
 3086SOL    HW210158   4.457   1.550   1.623
 3087SOL     OW10159   0.162   5.515   3.587
 3087SOL    HW110160   0.142   5.468   3.673
 3087SOL    HW210161   0.212   5.599   3.605
 3088SOL     OW10162   1.771   4.705   4.861
 3088SOL    HW110163   1.836   4.629   4.864
 3088SOL    HW210164   1.792   4.765   4.784
 3089SOL     OW10165   1.457   3.380   6.794
 3089SOL    HW110166   1.444   3.284   6.819
 3089SOL    HW210167   1.544   3.390   6.745
 3090SOL     OW10168   1.650   2.213   1.990
 3090SOL    HW110169   1.581   2.251   2.053
 3090SOL    HW210170   1.740   2.218   2.032
 3091SOL     OW10171   1.581   1.149   1.112
 3091SOL    HW110172   1.650   1.208   1.154
 3091SOL    HW210173   1.548   1.191   1.027
 3092SOL     OW10174   4.518   0.365   0.663
 3092SOL    HW110175   4.498   0.330   0.571
 3092SOL    HW210176   4.479   0.304   0.731
 3093SOL     OW10177   5.394   6.461   5.548
 3093SOL    HW110178   5.429   6.504   5.465
 3093SOL    HW210179   5.436   6.372   5.560
 3094SOL     OW10180   2.899   6.766   4.459
 3094SOL    HW110181   2.971   6.701   4.484
 3094SOL    HW210182   2.821   6.754   4.520
 3095SOL     OW10183   2.144   5.464   5.365
 3095SOL    HW110184   2.239   5.437   5.381
 3095SOL    HW210185   2.094   5.465   5.452
 3096SOL     OW10186   1.798   6.206   5.000
 3096SOL    HW110187   1.757   6.116   5.015
 3096SOL    HW210188   1.729   6.268   4.962
 3097SOL     OW10189   5.984   2.622   0.514
 3097SOL    HW110190   5.929   2.615   0.430
 3097SOL    HW210191   6.081   2.615   0.491
 3098SOL     OW10192   3.141   3.296   0.786
 3098SOL    HW110193   3.155   3.371   0.851
 3098SOL    HW210194   3.162   3.209   0.830
 3099SOL     OW10195   0.464   6.620   2.959
 3099SOL    HW110196   0.559   6.640   2.986
 3099SOL    HW210197   0.413   6.590   3.040
 3100SOL     OW10198   6.666   6.677   4.610
 3100SOL    HW110199   6.634   6.691   4.703
 3100SOL    HW210200   6.592   6.698   4.546
 3101SOL     OW10201   5.299   0.057   6.134
 3101SOL    HW110202   5.242   7.007   6.176
 3101SOL    HW210203   5.249   0.143   6.134
 3102SOL     OW10204   0.259   5.024   1.851
 3102SOL    HW110205   0.172   4.975   1.859
 3102SOL    HW210206   0.310   5.016   1.936
 3103SOL     OW10207   3.820   0.332   2.247
 3103SOL    HW110208   3.868   0.245   2.263
 3103SOL    HW210209   3.887   0.403   2.225
 3104SOL     OW10210   5.147   6.932   5.023
 3104SOL    HW110211   5.243   6.943   4.999
 3104SOL    HW210212   5.094   7.010   4.988
 3105SOL     OW10213   6.085   4.739   2.437
 3105SOL    HW110214   5.989   4.714   2.435
 3105SOL    HW210215   6.142   4.658   2.420
 3106SOL     OW10216   6.588   1.786   3.284
 3106SOL    HW110217   6.637   1.873   3.286
 3106SOL    HW210218   6.544   1.774   3.195
 3107SOL     OW10219   4.405   1.076   4.969
 3107SOL    HW110220   4.356   1.151   4.924
 3107SOL    HW210221   4.460   1.027   4.901
 3108SOL     OW10222   1.319   6.553   4.272
 3108SOL    HW110223   1.220   6.552   4.264
 3108SOL    HW210224   1.359   6.595   4.190
 3109SOL     OW10225   5.685   6.303   2.773
 3109SOL    HW110226   5.699   6.357   2.856
 3109SOL    HW210227   5.592   6.267   2.771
 3110SOL     OW10228   1.597   2.057   2.994
 3110SOL    HW110229   1.677   2.072   3.051
 3110SOL    HW210230   1.533   2.133   3.006
 3111SOL     OW10231   6.331   5.681   3.866
 3111SOL    HW110232   6.323   5.763   3.923
 3111SOL    HW210233   6.325   5.600   3.923
 3112SOL     OW10234   4.888   2.503   6.615
 3112SOL    HW110235   4.854   2.450   6.693
 3112SOL    HW210236   4.954   2.570   6.647
 3113SOL     OW10237   2.254   6.207   3.687
 3113SOL    HW110238   2.353   6.213   3.680
 3113SOL    HW210239   2.226   6.111   3.690
 3114SOL     OW10240   4.309   1.688   1.303
 3114SOL    HW110241   4.394   1.646   1.334
 3114SOL    HW210242   4.306   1.688   1.204
 3115SOL     OW10243   4.045   3.422   5.989
 3115SOL    HW110244   3.974   3.355   6.010
 3115SOL    HW210245   4.135   3.378   5.997
 3116SOL     OW10246   0.523   3.145   6.889
 3116SOL    HW110247   0.586   3.147   6.967
 3116SOL    HW210248   0.478   3.056   6.885
 3117SOL     OW10249   4.327   3.647   5.221
 3117SOL    HW110250   4.421   3.632   5.189
 3117SOL    HW210251   4.274   3.563   5.210
 3118SOL     OW10252   0.525   5.108   1.658
 3118SOL    HW110253   0.576   5.024   1.638
 3118SOL    HW210254   0.428   5.085   1.671
 3119SOL     OW10255   1.541   3.504   5.536
 3119SOL    HW110256   1.617   3.482   5.597
 3119SOL    HW210257   1.468   3.436   5.548
 3120SOL     OW10258   3.453   6.545   4.917
 3120SOL    HW110259   3.405   6.625   4.953
 3120SOL    HW210260   3.386   6.479   4.882
 3121SOL     OW10261   7.016   1.084   3.740
 3121SOL    HW110262   6.933   1.137   3.761
 3121SOL    HW210263   7.018   1.065   3.642
 3122SOL     OW10264   3.366   6.705   6.159
 3122SOL    HW110265   3.312   6.767   6.102
 3122SOL    HW210266   3.445   6.672   6.108
 3123SOL     OW10267   4.164   1.588   4.018
 3123SOL    HW110268   4.250   1.549   4.048
 3123SOL    HW210269   4.155   1.577   3.919
 3124SOL     OW10270   3.740   0.360   4.366
 3124SOL    HW110271   3.654   0.411   4.360
 3124SOL    HW210272   3.814   0.414   4.327
 3125SOL     OW10273   6.729   2.265   5.340
 3125SOL    HW110274   6.763   2.339   5.282
 3125SOL    HW210275   6.642   2.231   5.303
 3126SOL     OW10276   4.822   5.227   6.074
 3126SOL    HW110277   4.725   5.205   6.079
 3126SOL    HW210278   4.855   5.213   5.981
 3127SOL     OW10279   1.166   3.437   4.231
 3127SOL    HW110280   1.213   3.350   4.242
 3127SOL    HW210281   1.127   3.443   4.139
 3128SOL     OW10282   2.631   0.611   6.580
 3128SOL    HW110283   2.654   0.514   6.568
 3128SOL    HW210284   2.715   0.662   6.597
 3129SOL     OW10285   0.414   3.698   6.538
 3129SOL    HW110286   0.320   3.666   6.550
 3129SOL    HW210287   0.455   3.716   6.628
 3130SOL     OW10288   1.856   4.270   1.491
 3130SOL    HW110289   1.876   4.199   1.424
 3130SOL    HW210290   1.768   4.251   1.534
 3131SOL     OW10291   6.977   2.418   1.143
 3131SOL    HW110292   6.959   2.449   1.049
 3131SOL    HW210293   7.016   2.493   1.196
 3132SOL     OW10294   4.267   5.774   5.945
 3132SOL    HW110295   4.227   5.865   5.938
 3132SOL    HW210296   4.302   5.760   6.038
 3133SOL     OW10297   3.488   2.006   4.082
 3133SOL    HW110298   3.529   1.927   4.128
 3133SOL    HW210299   3.388   2.002   4.092
 3134SOL     OW10300   5.038   4.416   0.859
 3134SOL    HW110301   5.083   4.505   0.869
 3134SOL    HW210302   5.030   4.394   0.762
 3135SOL     OW10303   5.287   0.736   5.713
 3135SOL    HW110304   5.376   0.709   5.751
 3135SOL    HW210305   5.253   0.816   5.762
 3136SOL     OW10306   5.641   0.646   0.707
 3136SOL    HW110307   5.576   0.718   0.733
 3136SOL    HW210308   5.732   0.668   0.742
 3137SOL     OW10309   6.178   0.932   3.360
 3137SOL    HW110310   6.204   0.971   3.272
 3137SOL    HW210311   6.247   0.955   3.429
 3138SOL     OW10312   6.131   3.688   4.005
 3138SOL    HW110313   6.060   3.724   4.065
 3138SOL    HW210314   6.220   3.720   4.037
 3139SOL     OW10315   5.082   6.490   0.401
 3139SOL    HW110316   5.006   6.501   0.337
 3139SOL    HW210317   5.115   6.581   0.428
 3140SOL     OW10318   5.931   0.103   6.722
 3140SOL    HW110319   6.025   0.095   6.755
 3140SOL    HW210320   5.896   0.013   6.697
 3141SOL     OW10321   0.179   6.225   6.226
 3141SOL    HW110322   0.254   6.177   6.272
 3141SOL    HW210323   0.216   6.297   6.169
 3142SOL     OW10324   3.625   0.168   1.777
 3142SOL    HW110325   3.686   0.148   1.853
 3142SOL    HW210326   3.530   0.153   1.805
 3143SOL     OW10327   6.765   1.550   6.816
 3143SOL    HW110328   6.740   1.610   6.892
 3143SOL    HW210329   6.714   1.464   6.824
 3144SOL     OW10330   4.359   4.217   1.347
 3144SOL    HW110331   4.338   4.187   1.440
 3144SOL    HW210332   4.458   4.227   1.337
 3145SOL     OW10333   2.097   5.690   1.347
 3145SOL    HW110334   2.084   5.785   1.378
 3145SOL    HW210335   2.018   5.662   1.291
 3146SOL     OW10336   1.455   6.941   2.915
 3146SOL    HW110337   1.431   6.919   2.821
 3146SOL    HW210338   1.371   6.957   2.968
 3147SOL     OW10339   3.010   4.984   0.589
 3147SOL    HW110340   3.065   4.931   0.524
 3147SOL    HW210341   2.997   4.931   0.673
 3148SOL     OW10342   5.086   5.992   4.807
 3148SOL    HW110343   5.102   6.040   4.894
 3148SOL    HW210344   5.149   5.915   4.799
 3149SOL     OW10345   2.831   1.415   6.438
 3149SOL    HW110346   2.856   1.326   6.400
 3149SOL    HW210347   2.752   1.404   6.498
 3150SOL     OW10348   6.630   6.237   4.096
 3150SOL    HW110349   6.616   6.244   4.194
 3150SOL    HW210350   6.640   6.328   4.056
 3151SOL     OW10351   4.734   1.449   6.262
 3151SOL    HW110352   4.790   1.532   6.270
 3151SOL    HW210353   4.747   1.408   6.172
 3152SOL     OW10354   1.857   6.040   0.171
 3152SOL    HW110355   1.920   6.033   0.248
 3152SOL    HW210356   1.779   5.979   0.186
 3153SOL     OW10357   6.435   4.807   1.888
 3153SOL    HW110358   6.503   4.775   1.954
 3153SOL    HW210359   6.400   4.729   1.836
 3154SOL     OW10360   6.208   1.176   6.493
 3154SOL    HW110361   6.200   1.177   6.593
 3154SOL    HW210362   6.142   1.240   6.454
 3155SOL     OW10363   6.269   4.194   1.552
 3155SOL    HW110364   6.186   4.147   1.522
 3155SOL    HW210365   6.245   4.285   1.586
 3156SOL     OW10366   3.353   3.417   3.326
 3156SOL    HW110367   3.426   3.409   3.394
 3156SOL    HW210368   3.387   3.386   3.237
 3157SOL     OW10369   2.259   2.841   4.814
 3157SOL    HW110370   2.308   2.883   4.890
 3157SOL    HW210371   2.273   2.742   4.816
 3158SOL     OW10372   4.527   0.474   3.076
 3158SOL    HW110373   4.584   0.440   3.152
 3158SOL    HW210374   4.581   0.473   2.992
 3159SOL     OW10375   5.097   1.260   0.067
 3159SOL    HW110376   5.002   1.290   0.082
 3159SOL    HW210377   5.150   1.277   0.150
 3160SOL     OW10378   0.131   5.969   5.200
 3160SOL    HW110379   0.188   6.001   5.276
 3160SOL    HW210380   0.062   5.906   5.236
 3161SOL     OW10381   1.674   1.594   3.340
 3161SOL    HW110382   1.627   1.510   3.311
 3161SOL    HW210383   1.731   1.574   3.420
 3162SOL     OW10384   1.350   6.418   2.133
 3162SOL    HW110385   1.363   6.497   2.192
 3162SOL    HW210386   1.296   6.444   2.053
 3163SOL     OW10387   4.136   2.092   6.333
 3163SOL    HW110388   4.045   2.109   6.294
 3163SOL    HW210389   4.174   2.178   6.368
 3164SOL     OW10390   4.623   4.170   1.382
 3164SOL    HW110391   4.713   4.126   1.379
 3164SOL    HW210392   4.596   4.184   1.477
 3165SOL     OW10393   0.923   5.717   0.539
 3165SOL    HW110394   0.866   5.736   0.619
 3165SOL    HW210395   0.892   5.633   0.496
 3166SOL     OW10396   4.765   1.872   5.488
 3166SOL    HW110397   4.799   1.856   5.396
 3166SOL    HW210398   4.711   1.956   5.491
 3167SOL     OW10399   0.097   3.923   1.953
 3167SOL    HW110400   0.086   3.955   2.047
 3167SOL    HW210401   0.044   3.839   1.940
 3168SOL     OW10402   4.432   2.407   0.244
 3168SOL    HW110403   4.463   2.313   0.256
 3168SOL    HW210404   4.340   2.417   0.280
 3169SOL     OW10405   1.348   3.479   4.840
 3169SOL    HW110406   1.341   3.579   4.845
 3169SOL    HW210407   1.372   3.443   4.930
 3170SOL     OW10408   4.074   1.038   1.159
 3170SOL    HW110409   3.979   1.053   1.133
 3170SOL    HW210410   4.130   1.025   1.078
 3171SOL     OW10411   0.270   6.529   1.467
 3171SOL    HW110412   0.327   6.579   1.532
 3171SOL    HW210413   0.220   6.594   1.409
 3172SOL     OW10414   0.473   5.187   6.273
 3172SOL    HW110415   0.487   5.191   6.372
 3172SOL    HW210416   0.402   5.252   6.247
 3173SOL     OW10417   3.160   2.428   0.592
 3173SOL    HW110418   3.081   2.388   0.639
 3173SOL    HW210419   3.232   2.449   0.658
 3174SOL     OW10420   2.971   2.973   6.672
 3174SOL    HW110421   3.056   3.000   6.626
 3174SOL    HW210422   2.980   2.991   6.770
 3175SOL     OW10423   6.536   7.005   0.448
 3175SOL    HW110424   6.623   6.997   0.400
 3175SOL    HW210425   6.541   6.955   0.535
 3176SOL     OW10426   1.872   4.779   4.630
 3176SOL    HW110427   1.966   4.805   4.655
 3176SOL    HW210428   1.874   4.729   4.543
 3177SOL     OW10429   4.682   4.279   4.450
 3177SOL    HW110430   4.686   4.339   4.530
 3177SOL    HW210431   4.602   4.302   4.395
 3178SOL     OW10432   6.283   2.182   0.441
 3178SOL    HW110433   6.359   2.234   0.481
 3178SOL    HW210434   6.288   2.087   0.470
 3179SOL     OW10435   2.056   2.631   2.433
 3179SOL    HW110436   2.115   2.701   2.393
 3179SOL    HW210437   2.046   2.649   2.531
 3180SOL     OW10438   4.402   0.990   6.934
 3180SOL    HW110439   4.490   1.019   6.972
 3180SOL    HW210440   4.397   1.019   6.838
 3181SOL     OW10441   0.985   1.042   2.930
 3181SOL    HW110442   0.913   1.033   2.998
 3181SOL    HW210443   1.041   0.959   2.929
 3182SOL     OW10444   2.483   1.843   5.084
 3182SOL    HW110445   2.441   1.913   5.142
 3182SOL    HW210446   2.419   1.766   5.074
 3183SOL     OW10447   4.329   4.096   1.642
 3183SOL    HW110448   4.232   4.119   1.634
 3183SOL    HW210449   4.372   4.158   1.708
 3184SOL     OW10450   1.219   2.590   2.662
 3184SOL    HW110451   1.307   2.629   2.687
 3184SOL    HW210452   1.203   2.507   2.716
 3185SOL     OW10453   6.002   6.188   0.225
 3185SOL    HW110454   6.092   6.209   0.263
 3185SOL    HW210455   5.990   6.238   0.139
 3186SOL     OW10456   3.938   1.882   2.224
 3186SOL    HW110457   3.953   1.872   2.126
 3186SOL    HW210458   3.862   1.945   2.240
 3187SOL     OW10459   4.653   3.798   0.684
 3187SOL    HW110460   4.622   3.792   0.779
 3187SOL    HW210461   4.577   3.773   0.623
 3188SOL     OW10462   3.846   6.475   5.030
 3188SOL    HW110463   3.748   6.451   5.030
 3188SOL    HW210464   3.897   6.403   5.078
 3189SOL     OW10465   1.681   1.571   1.783
 3189SOL    HW110466   1.587   1.577   1.749
 3189SOL    HW210467   1.733   1.651   1.753
 3190SOL     OW10468   0.092   6.414   0.903
 3190SOL    HW110469   0.099   6.411   1.002
 3190SOL    HW210470   0.176   6.378   0.862
 3191SOL     OW10471   3.975   6.713   0.551
 3191SOL    HW110472   4.059   6.690   0.500
 3191SOL    HW210473   3.904   6.647   0.529
 3192SOL     OW10474   0.185   2.643   0.826
 3192SOL    HW110475   0.193   2.736   0.860
 3192SOL    HW210476   0.122   2.641   0.748
 3193SOL     OW10477   4.453   1.692   6.016
 3193SOL    HW110478   4.410   1.695   6.107
 3193SOL    HW210479   4.523   1.764   6.011
 3194SOL     OW10480   0.545   3.423   6.005
 3194SOL    HW110481   0.552   3.451   5.909
 3194SOL    HW210482   0.499   3.334   6.011
 3195SOL     OW10483   2.665   2.325   3.024
 3195SOL    HW110484   2.686   2.229   3.010
 3195SOL    HW210485   2.667   2.346   3.122
 3196SOL     OW10486   0.150   0.655   5.459
 3196SOL    HW110487   0.079   0.597   5.499
 3196SOL    HW210488   0.108   0.740   5.426
 3197SOL     OW10489   1.608   6.281   3.497
 3197SOL    HW110490   1.570   6.315   3.583
 3197SOL    HW210491   1.543   6.299   3.423
 3198SOL     OW10492   6.410   2.184   5.765
 3198SOL    HW110493   6.448   2.234   5.843
 3198SOL    HW210494   6.383   2.092   5.795
 3199SOL     OW10495   4.805   2.769   1.896
 3199SOL    HW110496   4.730   2.749   1.832
 3199SOL    HW210497   4.781   2.848   1.952
 3200SOL     OW10498   6.652   2.475   2.057
 3200SOL    HW110499   6.717   2.548   2.036
 3200SOL    HW210500   6.576   2.478   1.992
 3201SOL     OW10501   5.092   4.192   4.469
 3201SOL    HW110502   5.183   4.156   4.489
 3201SOL    HW210503   5.027   4.158   4.537
 3202SOL     OW10504   1.278   4.668   2.024
 3202SOL    HW110505   1.262   4.573   1.995
 3202SOL    HW210506   1.356   4.670   2.087
 3203SOL     OW10507   6.373   2.609   6.706
 3203SOL    HW110508   6.437   2.542   6.743
 3203SOL    HW210509   6.375   2.606   6.606
 3204SOL     OW10510   4.871   6.470   1.686
 3204SOL    HW110511   4.970   6.483   1.686
 3204SOL    HW210512   4.836   6.471   1.593
 3205SOL     OW10513   0.254   3.977   6.873
 3205SOL    HW110514   0.230   3.971   6.970
 3205SOL    HW210515   0.330   4.041   6.861
 3206SOL     OW10516   0.400   6.912   6.248
 3206SOL    HW110517   0.333   6.849   6.208
 3206SOL    HW210518   0.416   6.888   6.343
 3207SOL     OW10519   0.491   1.358   6.196
 3207SOL    HW110520   0.402   1.335   6.234
 3207SOL    HW210521   0.482   1.436   6.133
 3208SOL     OW10522   5.159   6.151   5.278
 3208SOL    HW110523   5.206   6.219   5.222
 3208SOL    HW210524   5.119   6.195   5.359
 3209SOL     OW10525   3.592   5.605   2.830
 3209SOL    HW110526   3.521   5.669   2.802
 3209SOL    HW210527   3.600   5.532   2.762
 3210SOL     OW10528   0.613   4.428   1.628
 3210SOL    HW110529   0.704   4.417   1.668
 3210SOL    HW210530   0.563   4.497   1.679
 3211SOL     OW10531   2.692   3.276   1.166
 3211SOL    HW110532   2.696   3.235   1.075
 3211SOL    HW210533   2.597   3.302   1.186
 3212SOL     OW10534   2.906   1.404   0.163
 3212SOL    HW110535   2.878   1.497   0.138
 3212SOL    HW210536   2.841   1.338   0.125
 3213SOL     OW10537   6.320   5.670   2.272
 3213SOL    HW110538   6.417   5.666   2.247
 3213SOL    HW210539   6.276   5.584   2.247
 3214SOL     OW10540   4.813   5.441   0.641
 3214SOL    HW110541   4.886   5.437   0.573
 3214SOL    HW210542   4.833   5.376   0.715
 3215SOL     OW10543   0.131   3.131   1.110
 3215SOL    HW110544   0.201   3.199   1.132
 3215SOL    HW210545   0.140   3.102   1.015
 3216SOL     OW10546   5.694   5.358   1.831
 3216SOL    HW110547   5.681   5.301   1.912
 3216SOL    HW210548   5.624   5.429   1.829
 3217SOL     OW10549   0.290   5.500   2.755
 3217SOL    HW110550   0.364   5.561   2.728
 3217SOL    HW210551   0.316   5.452   2.839
 3218SOL     OW10552   3.806   6.871   3.495
 3218SOL    HW110553   3.790   6.779   3.459
 3218SOL    HW210554   3.797   6.870   3.595
 3219SOL     OW10555   6.981   1.815   3.788
 3219SOL    HW110556   6.979   1.903   3.739
 3219SOL    HW210557   6.983   1.740   3.721
 3220SOL     OW10558   6.787   5.649   5.945
 3220SOL    HW110559   6.688   5.659   5.933
 3220SOL    HW210560   6.828   5.738   5.962
 3221SOL     OW10561   2.819   6.993   1.666
 3221SOL    HW110562   2.826   0.062   1.709
 3221SOL    HW210563   2.723   6.975   1.642
 3222SOL     OW10564   4.105   1.510   3.262
 3222SOL    HW110565   4.097   1.610   3.266
 3222SOL    HW210566   4.178   1.485   3.199
 3223SOL     OW10567   2.060   5.068   6.689
 3223SOL    HW110568   2.078   5.124   6.770
 3223SOL    HW210569   1.988   5.002   6.709
 3224SOL     OW10570   4.445   3.768   6.503
 3224SOL    HW110571   4.374   3.727   6.560
 3224SOL    HW210572   4.483   3.848   6.550
 3225SOL     OW10573   4.521   3.222   5.352
 3225SOL    HW110574   4.589   3.149   5.357
 3225SOL    HW210575   4.452   3.208   5.423
 3226SOL     OW10576   1.339   1.574   4.448
 3226SOL    HW110577   1.348   1.663   4.493
 3226SOL    HW210578   1.372   1.581   4.354
 3227SOL     OW10579   3.170   2.508   6.309
 3227SOL    HW110580   3.223   2.576   6.359
 3227SOL    HW210581   3.091   2.552   6.266
 3228SOL     OW10582   5.439   3.698   3.282
 3228SOL    HW110583   5.454   3.662   3.190
 3228SOL    HW210584   5.511   3.764   3.305
 3229SOL     OW10585   3.438   1.753   5.438
 3229SOL    HW110586   3.508   1.754   5.509
 3229SOL    HW210587   3.482   1.736   5.349
 3230SOL     OW10588   1.246   2.980   3.956
 3230SOL    HW110589   1.234   2.892   4.002
 3230SOL    HW210590   1.290   2.965   3.867
 3231SOL     OW10591   2.379   0.273   2.236
 3231SOL    HW110592   2.462   0.328   2.250
 3231SOL    HW210593   2.380   0.234   2.144
 3232SOL     OW10594   4.071   5.354   4.007
 3232SOL    HW110595   4.070   5.293   3.928
 3232SOL    HW210596   4.041   5.445   3.979
 3233SOL     OW10597   1.318   3.268   1.100
 3233SOL    HW110598   1.259   3.269   1.180
 3233SOL    HW210599   1.279   3.326   1.029
 3234SOL     OW10600   0.260   2.114   0.686
 3234SOL    HW110601   0.285   2.151   0.596
 3234SOL    HW210602   0.191   2.173   0.728
 3235SOL     OW10603   4.577   0.141   1.552
 3235SOL    HW110604   4.589   0.231   1.593
 3235SOL    HW210605   4.512   0.088   1.607
 3236SOL     OW10606   1.608   3.230   0.384
 3236SOL    HW110607   1.583   3.325   0.401
 3236SOL    HW210608   1.701   3.213   0.418
 3237SOL     OW10609   5.655   1.345   3.332
 3237SOL    HW110610   5.723   1.417   3.323
 3237SOL    HW210611   5.574   1.381   3.380
 3238SOL     OW10612   0.272   4.816   0.181
 3238SOL    HW110613   0.348   4.789   0.241
 3238SOL    HW210614   0.279   4.914   0.161
 3239SOL     OW10615   6.052   1.812   0.295
 3239SOL    HW110616   6.087   1.822   0.202
 3239SOL    HW210617   6.059   1.716   0.323
 3240SOL     OW10618   1.026   5.911   5.473
 3240SOL    HW110619   1.040   5.990   5.533
 3240SOL    HW210620   1.084   5.919   5.392
 3241SOL     OW10621   4.846   1.054   4.285
 3241SOL    HW110622   4.808   0.985   4.224
 3241SOL    HW210623   4.941   1.074   4.259
 3242SOL     OW10624   3.016   4.727   1.270
 3242SOL    HW110625   3.086   4.794   1.247
 3242SOL    HW210626   3.047   4.636   1.244
 3243SOL     OW10627   5.543   5.056   6.990
 3243SOL    HW110628   5.622   5.040   6.931
 3243SOL    HW210629   5.573   5.069   0.063
 3244SOL     OW10630   4.849   5.710   0.755
 3244SOL    HW110631   4.788   5.769   0.809
 3244SOL    HW210632   4.862   5.750   0.664
 3245SOL     OW10633   5.268   2.106   5.672
 3245SOL    HW110634   5.308   2.016   5.656
 3245SOL    HW210635   5.168   2.097   5.677
 3246SOL     OW10636   5.904   1.005   3.234
 3246SOL    HW110637   5.985   0.968   3.278
 3246SOL    HW210638   5.930   1.083   3.177
 3247SOL     OW10639   6.736   4.918   3.874
 3247SOL    HW110640   6.809   4.962   3.820
 3247SOL    HW210641   6.744   4.819   3.866
 3248SOL     OW10642   6.230   3.448   1.766
 3248SOL    HW110643   6.290   3.450   1.685
 3248SOL    HW210644   6.257   3.521   1.829
 3249SOL     OW10645   3.580   3.527   5.044
 3249SOL    HW110646   3.621   3.589   5.112
 3249SOL    HW210647   3.526   3.457   5.091
 3250SOL     OW10648   5.322   0.179   2.590
 3250SOL    HW110649   5.343   0.200   2.495
 3250SOL    HW210650   5.371   0.243   2.650
 3251SOL     OW10651   4.045   0.889   2.374
 3251SOL    HW110652   3.957   0.895   2.327
 3251SOL    HW210653   4.065   0.976   2.418
 3252SOL     OW10654   2.377   1.711   2.118
 3252SOL    HW110655   2.305   1.770   2.155
 3252SOL    HW210656   2.367   1.704   2.018
 3253SOL     OW10657   5.549   2.784   2.573
 3253SOL    HW110658   5.517   2.690   2.590
 3253SOL    HW210659   5.636   2.799   2.619
 3254SOL     OW10660   4.529   5.883   5.576
 3254SOL    HW110661   4.532   5.860   5.674
 3254SOL    HW210662   4.533   5.799   5.522
 3255SOL     OW10663   5.022   6.244   1.445
 3255SOL    HW110664   4.975   6.226   1.359
 3255SOL    HW210665   4.965   6.214   1.521
 3256SOL     OW10666   5.495   0.491   6.966
 3256SOL    HW110667   5.509   0.500   0.044
 3256SOL    HW210668   5.456   0.576   6.930
 3257SOL     OW10669   1.405   2.386   1.344
 3257SOL    HW110670   1.313   2.353   1.322
 3257SOL    HW210671   1.420   2.377   1.443
 3258SOL     OW10672   3.994   5.142   1.910
 3258SOL    HW110673   3.936   5.208   1.863
 3258SOL    HW210674   4.024   5.072   1.845
 3259SOL     OW10675   4.895   6.057   3.707
 3259SOL    HW110676   4.974   6.110   3.675
 3259SOL    HW210677   4.907   6.035   3.804
 3260SOL     OW10678   2.068   1.895   1.686
 3260SOL    HW110679   1.968   1.891   1.678
 3260SOL    HW210680   2.094   1.980   1.732
 3261SOL     OW10681   4.404   5.930   0.542
 3261SOL    HW110682   4.361   6.001   0.598
 3261SOL    HW210683   4.494   5.961   0.512
 3262SOL     OW10684   3.774   2.068   2.488
 3262SOL    HW110685   3.850   2.122   2.526
 3262SOL    HW210686   3.763   2.090   2.391
 3263SOL     OW10687   3.480   0.684   3.738
 3263SOL    HW110688   3.541   0.621   3.691
 3263SOL    HW210689   3.516   0.777   3.731
 3264SOL     OW10690   1.776   4.875   0.795
 3264SOL    HW110691   1.781   4.900   0.699
 3264SOL    HW210692   1.769   4.958   0.851
 3265SOL     OW10693   4.612   1.959   5.741
 3265SOL    HW110694   4.546   1.884   5.737
 3265SOL    HW210695   4.610   2.010   5.655
 3266SOL     OW10696   0.977   2.728   0.414
 3266SOL    HW110697   0.959   2.726   0.512
 3266SOL    HW210698   0.940   2.645   0.372
 3267SOL     OW10699   3.884   1.874   0.574
 3267SOL    HW110700   3.816   1.947   0.576
 3267SOL    HW210701   3.892   1.833   0.665
 3268SOL     OW10702   1.333   4.486   6.581
 3268SOL    HW110703   1.273   4.506   6.503
 3268SOL    HW210704   1.317   4.392   6.611
 3269SOL     OW10705   4.451   5.225   1.627
 3269SOL    HW110706   4.398   5.280   1.563
 3269SOL    HW210707   4.542   5.208   1.588
 3270SOL     OW10708   1.585   4.728   5.079
 3270SOL    HW110709   1.487   4.719   5.063
 3270SOL    HW210710   1.635   4.710   4.995
 3271SOL     OW10711   5.605   3.403   2.907
 3271SOL    HW110712   5.572   3.412   2.813
 3271SOL    HW210713   5.539   3.441   2.970
 3272SOL     OW10714   3.707   4.023   0.055
 3272SOL    HW110715   3.793   3.978   0.027
 3272SOL    HW210716   3.693   4.009   0.153
 3273SOL     OW10717   0.524   6.526   2.132
 3273SOL    HW110718   0.621   6.543   2.146
 3273SOL    HW210719   0.507   6.427   2.132
 3274SOL     OW10720   3.872   1.743   0.825
 3274SOL    HW110721   3.794   1.684   0.847
 3274SOL    HW210722   3.923   1.765   0.908
 3275SOL     OW10723   1.217   0.809   6.637
 3275SOL    HW110724   1.251   0.898   6.668
 3275SOL    HW210725   1.184   0.758   6.716
 3276SOL     OW10726   3.307   5.080   6.637
 3276SOL    HW110727   3.236   5.019   6.671
 3276SOL    HW210728   3.380   5.088   6.705
 3277SOL     OW10729   4.970   6.703   6.758
 3277SOL    HW110730   5.068   6.709   6.774
 3277SOL    HW210731   4.953   6.684   6.661
 3278SOL     OW10732   6.645   0.726   5.921
 3278SOL    HW110733   6.654   0.627   5.924
 3278SOL    HW210734   6.691   0.766   6.000
 3279SOL     OW10735   7.012   0.761   0.885
 3279SOL    HW110736   6.968   0.723   0.966
 3279SOL    HW210737   0.007   0.859   0.898
 3280SOL     OW10738   3.258   4.851   5.646
 3280SOL    HW110739   3.298   4.772   5.692
 3280SOL    HW210740   3.302   4.865   5.557
 3281SOL     OW10741   2.189   5.735   1.034
 3281SOL    HW110742   2.104   5.682   1.032
 3281SOL    HW210743   2.172   5.825   0.994
 3282SOL     OW10744   2.143   5.467   4.380
 3282SOL    HW110745   2.089   5.387   4.408
 3282SOL    HW210746   2.228   5.436   4.339
 3283SOL     OW10747   3.196   1.002   1.372
 3283SOL    HW110748   3.171   1.006   1.275
 3283SOL    HW210749   3.270   0.936   1.384
 3284SOL     OW10750   5.902   6.299   7.013
 3284SOL    HW110751   5.912   6.391   0.030
 3284SOL    HW210752   5.819   6.294   6.959
 3285SOL     OW10753   5.703   2.715   3.250
 3285SOL    HW110754   5.608   2.744   3.262
 3285SOL    HW210755   5.705   2.625   3.206
 3286SOL     OW10756   4.149   3.478   3.273
 3286SOL    HW110757   4.148   3.577   3.286
 3286SOL    HW210758   4.074   3.437   3.324
 3287SOL     OW10759   1.582   5.882   0.498
 3287SOL    HW110760   1.493   5.909   0.460
 3287SOL    HW210761   1.570   5.804   0.559
 3288SOL     OW10762   1.164   5.061   6.731
 3288SOL    HW110763   1.258   5.038   6.756
 3288SOL    HW210764   1.125   4.988   6.674
 3289SOL     OW10765   2.430   6.545   5.961
 3289SOL    HW110766   2.368   6.589   5.896
 3289SOL    HW210767   2.391   6.549   6.053
 3290SOL     OW10768   0.514   6.803   2.071
 3290SOL    HW110769   0.576   6.862   2.123
 3290SOL    HW210770   0.525   6.708   2.101
 3291SOL     OW10771   1.273   6.122   6.965
 3291SOL    HW110772   1.299   6.210   7.006
 3291SOL    HW210773   1.289   6.125   6.867
 3292SOL     OW10774   0.303   0.568   6.730
 3292SOL    HW110775   0.249   0.535   6.652
 3292SOL    HW210776   0.286   0.665   6.744
 3293SOL     OW10777   6.597   3.480   2.958
 3293SOL    HW110778   6.650   3.562   2.935
 3293SOL    HW210779   6.637   3.400   2.912
 3294SOL     OW10780   0.240   0.569   6.108
 3294SOL    HW110781   0.325   0.602   6.067
 3294SOL    HW210782   0.260   0.485   6.161
 3295SOL     OW10783   1.537   3.015   1.851
 3295SOL    HW110784   1.518   3.101   1.805
 3295SOL    HW210785   1.488   2.941   1.806
 3296SOL     OW10786   1.996   6.296   1.413
 3296SOL    HW110787   1.928   6.344   1.358
 3296SOL    HW210788   2.087   6.310   1.373
 3297SOL     OW10789   3.015   0.542   5.215
 3297SOL    HW110790   3.058   0.632   5.225
 3297SOL    HW210791   3.038   0.486   5.295
 3298SOL     OW10792   6.265   1.696   3.900
 3298SOL    HW110793   6.325   1.659   3.829
 3298SOL    HW210794   6.201   1.761   3.859
 3299SOL     OW10795   2.381   6.493   3.329
 3299SOL    HW110796   2.421   6.576   3.289
 3299SOL    HW210797   2.284   6.509   3.349
 3300SOL     OW10798   0.794   0.839   5.716
 3300SOL    HW110799   0.710   0.865   5.764
 3300SOL    HW210800   0.771   0.794   5.630
 3301SOL     OW10801   1.910   3.495   3.513
 3301SOL    HW110802   1.907   3.555   3.593
 3301SOL    HW210803   1.972   3.419   3.530
 3302SOL     OW10804   1.731   6.013   4.493
 3302SOL    HW110805   1.804   5.999   4.560
 3302SOL    HW210806   1.645   6.030   4.540
 3303SOL     OW10807   3.835   3.120   1.549
 3303SOL    HW110808   3.888   3.196   1.510
 3303SOL    HW210809   3.886   3.035   1.539
 3304SOL     OW10810   1.635   5.223   3.927
 3304SOL    HW110811   1.643   5.134   3.971
 3304SOL    HW210812   1.609   5.292   3.995
 3305SOL     OW10813   2.791   1.100   2.839
 3305SOL    HW110814   2.852   1.172   2.873
 3305SOL    HW210815   2.781   1.110   2.740
 3306SOL     OW10816   2.252   5.483   3.731
 3306SOL    HW110817   2.171   5.527   3.768
 3306SOL    HW210818   2.253   5.386   3.758
 3307SOL     OW10819   0.284   5.583   6.459
 3307SOL    HW110820   0.213   5.518   6.486
 3307SOL    HW210821   0.242   5.661   6.414
 3308SOL     OW10822   4.779   5.839   0.230
 3308SOL    HW110823   4.861   5.895   0.215
 3308SOL    HW210824   4.751   5.798   0.143
 3309SOL     OW10825   0.815   5.497   1.633
 3309SOL    HW110826   0.832   5.582   1.684
 3309SOL    HW210827   0.858   5.421   1.682
 3310SOL     OW10828   6.513   4.202   4.635
 3310SOL    HW110829   6.612   4.212   4.628
 3310SOL    HW210830   6.487   4.202   4.732
 3311SOL     OW10831   2.240   4.650   1.944
 3311SOL    HW110832   2.148   4.689   1.938
 3311SOL    HW210833   2.264   4.609   1.856
 3312SOL     OW10834   3.462   4.512   5.997
 3312SOL    HW110835   3.391   4.446   6.019
 3312SOL    HW210836   3.532   4.511   6.068
 3313SOL     OW10837   6.663   5.152   2.665
 3313SOL    HW110838   6.596   5.217   2.630
 3313SOL    HW210839   6.745   5.155   2.608
 3314SOL     OW10840   1.510   1.986   4.549
 3314SOL    HW110841   1.556   1.980   4.638
 3314SOL    HW210842   1.525   2.076   4.509
 3315SOL     OW10843   6.545   3.499   3.893
 3315SOL    HW110844   6.621   3.438   3.871
 3315SOL    HW210845   6.518   3.487   3.988
 3316SOL     OW10846   3.811   1.670   6.078
 3316SOL    HW110847   3.855   1.599   6.133
 3316SOL    HW210848   3.867   1.752   6.077
 3317SOL     OW10849   5.002   2.970   1.901
 3317SOL    HW110850   4.922   3.013   1.943
 3317SOL    HW210851   4.976   2.881   1.863
 3318SOL     OW10852   2.962   6.965   0.306
 3318SOL    HW110853   2.948   6.877   0.352
 3318SOL    HW210854   2.888   0.007   0.331
 3319SOL     OW10855   6.211   6.873   4.073
 3319SOL    HW110856   6.170   6.788   4.109
 3319SOL    HW210857   6.197   6.947   4.139
 3320SOL     OW10858   5.401   1.169   6.203
 3320SOL    HW110859   5.417   1.125   6.291
 3320SOL    HW210860   5.371   1.101   6.136
 3321SOL     OW10861   3.481   2.302   1.701
 3321SOL    HW110862   3.403   2.291   1.764
 3321SOL    HW210863   3.564   2.317   1.754
 3322SOL     OW10864   5.152   3.423   1.810
 3322SOL    HW110865   5.156   3.325   1.833
 3322SOL    HW210866   5.062   3.459   1.837
 3323SOL     OW10867   1.773   4.113   6.514
 3323SOL    HW110868   1.699   4.133   6.578
 3323SOL    HW210869   1.860   4.118   6.562
 3324SOL     OW10870   0.883   4.047   6.755
 3324SOL    HW110871   0.932   4.069   6.670
 3324SOL    HW210872   0.948   4.022   6.826
 3325SOL     OW10873   2.328   3.148   6.661
 3325SOL    HW110874   2.348   3.081   6.589
 3325SOL    HW210875   2.345   3.106   6.750
 3326SOL     OW10876   5.343   1.380   2.107
 3326SOL    HW110877   5.296   1.439   2.042
 3326SOL    HW210878   5.438   1.367   2.078
 3327SOL     OW10879   2.971   6.166   1.362
 3327SOL    HW110880   3.012   6.096   1.422
 3327SOL    HW210881   3.040   6.235   1.340
 3328SOL     OW10882   4.202   1.869   2.644
 3328SOL    HW110883   4.123   1.882   2.704
 3328SOL    HW210884   4.173   1.875   2.548
 3329SOL     OW10885   4.887   0.685   5.453
 3329SOL    HW110886   4.812   0.750   5.461
 3329SOL    HW210887   4.960   0.725   5.396
 3330SOL     OW10888   5.778   6.181   1.607
 3330SOL    HW110889   5.820   6.209   1.693
 3330SOL    HW210890   5.678   6.188   1.614
 3331SOL     OW10891   0.778   3.415   2.044
 3331SOL    HW110892   0.730   3.327   2.055
 3331SOL    HW210893   0.850   3.421   2.114
 3332SOL     OW10894   6.507   4.434   0.040
 3332SOL    HW110895   6.445   4.404   0.113
 3332SOL    HW210896   6.537   4.355   7.008
 3333SOL     OW10897   3.157   3.351   6.974
 3333SOL    HW110898   3.067   3.391   6.989
 3333SOL    HW210899   3.228   3.413   7.007
 3334SOL     OW10900   2.029   3.562   2.406
 3334SOL    HW110901   2.041   3.590   2.311
 3334SOL    HW210902   2.068   3.471   2.419
 3335SOL     OW10903   4.935   6.297   6.417
 3335SOL    HW110904   5.034   6.287   6.413
 3335SOL    HW210905   4.911   6.359   6.493
 3336SOL     OW10906   2.197   6.674   4.349
 3336SOL    HW110907   2.274   6.692   4.410
 3336SOL    HW210908   2.124   6.628   4.399
 3337SOL     OW10909   2.691   4.053   1.344
 3337SOL    HW110910   2.703   4.021   1.250
 3337SOL    HW210911   2.597   4.083   1.357
 3338SOL     OW10912   7.001   2.669   1.588
 3338SOL    HW110913   7.001   2.659   1.687
 3338SOL    HW210914   6.999   2.767   1.564
 3339SOL     OW10915   1.234   6.999   6.735
 3339SOL    HW110916   1.279   7.015   6.823
 3339SOL    HW210917   1.302   6.979   6.665
 3340SOL     OW10918   3.654   1.055   4.167
 3340SOL    HW110919   3.581   0.986   4.166
 3340SOL    HW210920   3.614   1.145   4.184
 3341SOL     OW10921   1.941   4.504   3.760
 3341SOL    HW110922   2.004   4.579   3.778
 3341SOL    HW210923   1.992   4.419   3.747
 3342SOL     OW10924   1.033   0.560   3.433
 3342SOL    HW110925   1.122   0.597   3.405
 3342SOL    HW210926   1.005   0.604   3.518
 3343SOL     OW10927   5.578   4.613   6.430
 3343SOL    HW110928   5.607   4.541   6.366
 3343SOL    HW210929   5.480   4.605   6.446
 3344SOL     OW10930   6.212   3.402   4.043
 3344SOL    HW110931   6.166   3.488   4.021
 3344SOL    HW210932   6.244   3.358   3.959
 3345SOL     OW10933   1.113   4.490   6.316
 3345SOL    HW110934   1.017   4.501   6.341
 3345SOL    HW210935   1.141   4.565   6.256
 3346SOL     OW10936   1.113   1.028   6.919
 3346SOL    HW110937   1.037   0.999   6.861
 3346SOL    HW210938   1.199   1.025   6.868
 3347SOL     OW10939   0.752   3.065   5.759
 3347SOL    HW110940   0.658   3.090   5.738
 3347SOL    HW210941   0.766   3.069   5.858
 3348SOL     OW10942   4.077   3.539   5.015
 3348SOL    HW110943   3.995   3.485   4.995
 3348SOL    HW210944   4.112   3.514   5.105
 3349SOL     OW10945   2.023   4.706   2.941
 3349SOL    HW110946   2.000   4.651   3.022
 3349SOL    HW210947   2.018   4.803   2.965
 3350SOL     OW10948   0.024   2.556   6.047
 3350SOL    HW110949   7.016   2.650   6.033
 3350SOL    HW210950   0.101   2.554   6.111
 3351SOL     OW10951   4.467   1.340   1.869
 3351SOL    HW110952   4.425   1.270   1.812
 3351SOL    HW210953   4.567   1.331   1.864
 3352SOL     OW10954   5.922   2.686   1.106
 3352SOL    HW110955   5.923   2.679   1.206
 3352SOL    HW210956   5.830   2.711   1.075
 3353SOL     OW10957   2.689   6.003   1.437
 3353SOL    HW110958   2.753   5.930   1.411
 3353SOL    HW210959   2.727   6.091   1.410
 3354SOL     OW10960   4.264   2.495   5.455
 3354SOL    HW110961   4.268   2.470   5.552
 3354SOL    HW210962   4.174   2.533   5.434
 3355SOL     OW10963   2.322   1.525   6.044
 3355SOL    HW110964   2.327   1.586   5.965
 3355SOL    HW210965   2.366   1.569   6.123
 3356SOL     OW10966   1.377   6.061   6.075
 3356SOL    HW110967   1.442   6.000   6.121
 3356SOL    HW210968   1.286   6.020   6.077
 3357SOL     OW10969   3.410   3.735   2.131
 3357SOL    HW110970   3.396   3.824   2.174
 3357SOL    HW210971   3.418   3.665   2.202
 3358SOL     OW10972   4.594   1.319   2.767
 3358SOL    HW110973   4.562   1.401   2.720
 3358SOL    HW210974   4.543   1.239   2.735
 3359SOL     OW10975   0.017   5.801   3.060
 3359SOL    HW110976   6.982   5.720   3.042
 3359SOL    HW210977   6.994   5.857   3.130
 3360SOL     OW10978   0.516   2.143   6.399
 3360SOL    HW110979   0.481   2.088   6.475
 3360SOL    HW210980   0.453   2.136   6.321
 3361SOL     OW10981   0.553   5.783   4.403
 3361SOL    HW110982   0.653   5.791   4.403
 3361SOL    HW210983   0.513   5.855   4.459
 3362SOL     OW10984   3.602   1.850   2.482
 3362SOL    HW110985   3.538   1.886   2.414
 3362SOL    HW210986   3.679   1.912   2.491
 3363SOL     OW10987   6.928   2.248   1.604
 3363SOL    HW110988   6.971   2.204   1.683
 3363SOL    HW210989   6.871   2.182   1.555
 3364SOL     OW10990   2.418   4.474   3.350
 3364SOL    HW110991   2.382   4.390   3.389
 3364SOL    HW210992   2.409   4.471   3.250
 3365SOL     OW10993   0.224   3.120   4.998
 3365SOL    HW110994   0.148   3.155   4.943
 3365SOL    HW210995   0.211   3.146   5.094
 3366SOL     OW10996   5.217   4.874   3.992
 3366SOL    HW110997   5.128   4.845   4.029
 3366SOL    HW210998   5.242   4.813   3.916
 3367SOL     OW10999   3.313   3.803   2.921
 3367SOL    HW111000   3.250   3.880   2.907
 3367SOL    HW211001   3.342   3.801   3.017
 3368SOL     OW11002   0.888   5.532   6.327
 3368SOL    HW111003   0.858   5.519   6.232
 3368SOL    HW211004   0.985   5.559   6.328
 3369SOL     OW11005   4.655   1.913   1.372
 3369SOL    HW111006   4.745   1.930   1.332
 3369SOL    HW211007   4.637   1.815   1.370
 3370SOL     OW11008   6.388   6.256   1.276
 3370SOL    HW111009   6.290   6.235   1.273
 3370SOL    HW211010   6.401   6.346   1.318
 3371SOL     OW11011   2.100   3.318   1.818
 3371SOL    HW111012   2.114   3.406   1.863
 3371SOL    HW211013   2.188   3.273   1.804
 3372SOL     OW11014   6.894   1.959   0.132
 3372SOL    HW111015   6.994   1.956   0.125
 3372SOL    HW211016   6.855   1.950   0.040
 3373SOL     OW11017   0.233   2.289   3.884
 3373SOL    HW111018   0.153   2.332   3.842
 3373SOL    HW211019   0.266   2.346   3.959
 3374SOL     OW11020   1.091   6.896   3.927
 3374SOL    HW111021   1.138   6.981   3.905
 3374SOL    HW211022   1.152   6.837   3.980
 3375SOL     OW11023   0.046   4.379   0.804
 3375SOL    HW111024   6.981   4.333   0.828
 3375SOL    HW211025   0.035   4.478   0.814
 3376SOL     OW11026   3.360   2.970   4.687
 3376SOL    HW111027   3.370   2.938   4.782
 3376SOL    HW211028   3.267   3.000   4.672
 3377SOL     OW11029   6.982   5.116   5.977
 3377SOL    HW111030   6.897   5.112   6.029
 3377SOL    HW211031   6.962   5.146   5.884
 3378SOL     OW11032   1.473   6.090   0.325
 3378SOL    HW111033   1.387   6.110   0.278
 3378SOL    HW211034   1.537   6.165   0.311
 3379SOL     OW11035   1.067   1.799   4.469
 3379SOL    HW111036   1.159   1.823   4.499
 3379SOL    HW211037   1.008   1.785   4.549
 3380SOL     OW11038   4.982   6.228   5.486
 3380SOL    HW111039   4.963   6.183   5.574
 3380SOL    HW211040   4.903   6.283   5.459
 3381SOL     OW11041   6.541   2.818   1.272
 3381SOL    HW111042   6.596   2.763   1.334
 3381SOL    HW211043   6.469   2.864   1.324
 3382SOL     OW11044   0.385   2.896   6.746
 3382SOL    HW111045   0.306   2.843   6.715
 3382SOL    HW211046   0.463   2.879   6.685
 3383SOL     OW11047   3.220   4.971   0.909
 3383SOL    HW111048   3.128   4.947   0.878
 3383SOL    HW211049   3.263   5.033   0.843
 3384SOL     OW11050   2.263   3.678   0.991
 3384SOL    HW111051   2.289   3.773   1.012
 3384SOL    HW211052   2.335   3.635   0.937
 3385SOL     OW11053   6.692   3.484   4.618
 3385SOL    HW111054   6.705   3.524   4.528
 3385SOL    HW211055   6.659   3.390   4.609
 3386SOL     OW11056   5.296   4.085   6.804
 3386SOL    HW111057   5.292   4.184   6.816
 3386SOL    HW211058   5.315   4.041   6.892
 3387SOL     OW11059   4.983   0.424   3.094
 3387SOL    HW111060   4.926   0.500   3.062
 3387SOL    HW211061   4.938   0.338   3.070
 3388SOL     OW11062   5.420   3.323   2.416
 3388SOL    HW111063   5.392   3.277   2.332
 3388SOL    HW211064   5.362   3.292   2.492
 3389SOL     OW11065   6.666   5.521   6.173
 3389SOL    HW111066   6.680   5.542   6.076
 3389SOL    HW211067   6.750   5.541   6.224
 3390SOL     OW11068   5.099   6.896   6.193
 3390SOL    HW111069   5.058   6.805   6.202
 3390SOL    HW211070   5.073   6.936   6.104
 3391SOL     OW11071   4.981   2.471   3.412
 3391SOL    HW111072   5.022   2.400   3.354
 3391SOL    HW211073   5.028   2.558   3.396
 3392SOL     OW11074   3.507   6.802   4.510
 3392SOL    HW111075   3.544   6.762   4.594
 3392SOL    HW211076   3.445   6.877   4.534
 3393SOL     OW11077   5.989   5.966   0.727
 3393SOL    HW111078   6.021   5.950   0.820
 3393SOL    HW211079   6.062   6.010   0.674
 3394SOL     OW11080   4.902   3.667   0.678
 3394SOL    HW111081   4.974   3.706   0.621
 3394SOL    HW211082   4.822   3.727   0.678
 3395SOL     OW11083   5.131   2.165   2.809
 3395SOL    HW111084   5.184   2.107   2.871
 3395SOL    HW211085   5.193   2.211   2.746
 3396SOL     OW11086   5.606   0.960   3.635
 3396SOL    HW111087   5.651   0.976   3.547
 3396SOL    HW211088   5.663   0.899   3.691
 3397SOL     OW11089   3.610   4.823   6.064
 3397SOL    HW111090   3.584   4.909   6.108
 3397SOL    HW211091   3.623   4.838   5.966
 3398SOL     OW11092   1.367   7.009   5.203
 3398SOL    HW111093   1.332   0.079   5.222
 3398SOL    HW211094   1.360   6.952   5.285
 3399SOL     OW11095   5.598   5.306   3.355
 3399SOL    HW111096   5.630   5.211   3.358
 3399SOL    HW211097   5.580   5.333   3.260
 3400SOL     OW11098   5.674   3.951   0.033
 3400SOL    HW111099   5.588   3.991   0.064
 3400SOL    HW211100   5.738   4.024   0.010
 3401SOL     OW11101   5.846   4.371   6.944
 3401SOL    HW111102   5.848   4.453   6.887
 3401SOL    HW211103   5.755   4.360   6.983
 3402SOL     OW11104   5.835   5.607   6.622
 3402SOL    HW111105   5.930   5.633   6.611
 3402SOL    HW211106   5.816   5.589   6.719
 3403SOL     OW11107   4.903   5.482   0.041
 3403SOL    HW111108   4.921   5.527   6.975
 3403SOL    HW211109   4.806   5.458   0.046
 3404SOL     OW11110   5.308   2.561   0.195
 3404SOL    HW111111   5.208   2.567   0.187
 3404SOL    HW211112   5.333   2.564   0.292
 3405SOL     OW11113   5.742   4.224   6.370
 3405SOL    HW111114   5.777   4.133   6.348
 3405SOL    HW211115   5.797   4.293   6.322
 3406SOL     OW11116   1.200   3.514   2.353
 3406SOL    HW111117   1.280   3.467   2.392
 3406SOL    HW211118   1.229   3.567   2.273
 3407SOL     OW11119   1.800   4.463   0.179
 3407SOL    HW111120   1.871   4.433   0.243
 3407SOL    HW211121   1.840   4.529   0.115
 3408SOL     OW11122   4.816   3.204   4.887
 3408SOL    HW111123   4.804   3.226   4.790
 3408SOL    HW211124   4.868   3.276   4.932
 3409SOL     OW11125   3.834   6.098   0.050
 3409SOL    HW111126   3.745   6.142   0.039
 3409SOL    HW211127   3.906   6.165   0.030
 3410SOL     OW11128   6.402   6.122   2.035
 3410SOL    HW111129   6.389   6.071   2.121
 3410SOL    HW211130   6.453   6.066   1.971
 3411SOL     OW11131   0.560   2.852   0.753
 3411SOL    HW111132   0.598   2.775   0.805
 3411SOL    HW211133   0.592   2.847   0.659
 3412SOL     OW11134   5.165   3.524   1.560
 3412SOL    HW111135   5.207   3.614   1.573
 3412SOL    HW211136   5.154   3.479   1.648
 3413SOL     OW11137   6.573   1.494   0.020
 3413SOL    HW111138   6.621   1.581   0.013
 3413SOL    HW211139   6.619   1.435   0.086
 3414SOL     OW11140   3.475   2.187   5.857
 3414SOL    HW111141   3.515   2.096   5.846
 3414SOL    HW211142   3.501   2.224   5.947
 3415SOL     OW11143   2.621   1.979   4.201
 3415SOL    HW111144   2.535   1.952   4.245
 3415SOL    HW211145   2.679   1.899   4.188
 3416SOL     OW11146   5.514   0.199   0.418
 3416SOL    HW111147   5.529   0.296   0.437
 3416SOL    HW211148   5.486   0.188   0.322
 3417SOL     OW11149   0.294   6.346   4.135
 3417SOL    HW111150   0.240   6.371   4.216
 3417SOL    HW211151   0.234   6.343   4.055
 3418SOL     OW11152   4.119   6.202   3.414
 3418SOL    HW111153   4.197   6.174   3.358
 3418SOL    HW211154   4.053   6.127   3.418
 3419SOL     OW11155   3.579   5.036   5.788
 3419SOL    HW111156   3.514   5.097   5.742
 3419SOL    HW211157   3.579   4.947   5.743
 3420SOL     OW11158   5.368   3.544   4.645
 3420SOL    HW111159   5.393   3.640   4.632
 3420SOL    HW211160   5.450   3.487   4.637
 3421SOL     OW11161   5.498   1.713   3.281
 3421SOL    HW111162   5.421   1.741   3.339
 3421SOL    HW211163   5.483   1.620   3.248
 3422SOL     OW11164   2.509   0.447   0.303
 3422SOL    HW111165   2.478   0.533   0.345
 3422SOL    HW211166   2.477   0.370   0.359
 3423SOL     OW11167   0.325   4.562   6.241
 3423SOL    HW111168   0.262   4.485   6.258
 3423SOL    HW211169   0.345   4.568   6.144
 3424SOL     OW11170   3.112   0.121   1.253
 3424SOL    HW111171   3.066   0.145   1.339
 3424SOL    HW211172   3.200   0.078   1.274
 3425SOL     OW11173   4.929   4.323   2.112
 3425SOL    HW111174   4.865   4.266   2.163
 3425SOL    HW211175   5.018   4.323   2.158
 3426SOL     OW11176   5.341   2.929   1.247
 3426SOL    HW111177   5.304   2.838   1.229
 3426SOL    HW211178   5.340   2.982   1.162
 3427SOL     OW11179   0.620   2.178   2.163
 3427SOL    HW111180   0.570   2.139   2.086
 3427SOL    HW211181   0.703   2.223   2.130
 3428SOL     OW11182   4.118   4.536   0.020
 3428SOL    HW111183   4.018   4.542   0.023
 3428SOL    HW211184   4.146   4.484   6.960
 3429SOL     OW11185   0.765   1.674   0.822
 3429SOL    HW111186   0.757   1.774   0.814
 3429SOL    HW211187   0.692   1.640   0.882
 3430SOL     OW11188   2.412   5.586   5.169
 3430SOL    HW111189   2.399   5.510   5.233
 3430SOL    HW211190   2.451   5.664   5.217
 3431SOL     OW11191   1.364   6.124   1.451
 3431SOL    HW111192   1.439   6.117   1.517
 3431SOL    HW211193   1.296   6.053   1.470
 3432SOL     OW11194   2.441   4.640   6.592
 3432SOL    HW111195   2.351   4.649   6.634
 3432SOL    HW211196   2.511   4.671   6.657
 3433SOL     OW11197   1.246   1.516   5.509
 3433SOL    HW111198   1.168   1.455   5.499
 3433SOL    HW211199   1.310   1.502   5.434
 3434SOL     OW11200   3.740   1.776   1.825
 3434SOL    HW111201   3.717   1.874   1.820
 3434SOL    HW211202   3.801   1.753   1.750
 3435SOL     OW11203   1.965   1.061   0.887
 3435SOL    HW111204   2.045   1.075   0.946
 3435SOL    HW211205   1.889   1.027   0.942
 3436SOL     OW11206   3.334   5.623   0.116
 3436SOL    HW111207   3.327   5.523   0.123
 3436SOL    HW211208   3.249   5.659   0.077
 3437SOL     OW11209   2.897   6.173   5.556
 3437SOL    HW111210   2.889   6.111   5.478
 3437SOL    HW211211   2.805   6.203   5.584
 3438SOL     OW11212   0.692   4.033   1.428
 3438SOL    HW111213   0.726   4.102   1.365
 3438SOL    HW211214   0.700   4.067   1.522
 3439SOL     OW11215   3.353   6.135   4.084
 3439SOL    HW111216   3.340   6.121   4.182
 3439SOL    HW211217   3.379   6.229   4.066
 3440SOL     OW11218   4.013   3.125   2.815
 3440SOL    HW111219   4.035   3.034   2.780
 3440SOL    HW211220   3.976   3.181   2.740
 3441SOL     OW11221   6.916   5.854   6.621
 3441SOL    HW111222   6.882   5.898   6.704
 3441SOL    HW211223   6.932   5.757   6.638
 3442SOL     OW11224   2.633   3.573   1.228
 3442SOL    HW111225   2.713   3.543   1.175
 3442SOL    HW211226   2.641   3.539   1.322
 3443SOL     OW11227   3.197   6.331   2.159
 3443SOL    HW111228   3.279   6.359   2.209
 3443SOL    HW211229   3.191   6.382   2.073
 3444SOL     OW11230   4.678   5.544   0.422
 3444SOL    HW111231   4.725   5.506   0.501
 3444SOL    HW211232   4.740   5.606   0.373
 3445SOL     OW11233   6.303   5.124   3.411
 3445SOL    HW111234   6.359   5.045   3.434
 3445SOL    HW211235   6.346   5.207   3.445
 3446SOL     OW11236   5.984   0.636   1.553
 3446SOL    HW111237   6.004   0.610   1.458
 3446SOL    HW211238   5.941   0.726   1.554
 3447SOL     OW11239   5.354   6.790   0.728
 3447SOL    HW111240   5.434   6.803   0.669
 3447SOL    HW211241   5.278   6.844   0.693
 3448SOL     OW11242   3.379   6.477   6.313
 3448SOL    HW111243   3.353   6.551   6.250
 3448SOL    HW211244   3.360   6.506   6.407
 3449SOL     OW11245   5.868   5.164   4.558
 3449SOL    HW111246   5.882   5.091   4.491
 3449SOL    HW211247   5.870   5.252   4.511
 3450SOL     OW11248   0.670   1.365   6.401
 3450SOL    HW111249   0.608   1.375   6.323
 3450SOL    HW211250   0.620   1.322   6.477
 3451SOL     OW11251   2.200   6.060   0.013
 3451SOL    HW111252   2.248   6.035   0.097
 3451SOL    HW211253   2.266   6.064   6.959
 3452SOL     OW11254   5.761   0.294   6.585
 3452SOL    HW111255   5.838   0.245   6.626
 3452SOL    HW211256   5.794   0.378   6.543
 3453SOL     OW11257   5.475   5.510   6.457
 3453SOL    HW111258   5.466   5.561   6.372
 3453SOL    HW211259   5.463   5.571   6.535
 3454SOL     OW11260   0.684   4.302   4.888
 3454SOL    HW111261   0.779   4.307   4.921
 3454SOL    HW211262   0.644   4.393   4.887
 3455SOL     OW11263   2.823   1.600   3.876
 3455SOL    HW111264   2.891   1.532   3.902
 3455SOL    HW211265   2.732   1.560   3.883
 3456SOL     OW11266   4.906   5.088   2.113
 3456SOL    HW111267   4.932   5.145   2.035
 3456SOL    HW211268   4.920   5.140   2.198
 3457SOL     OW11269   4.485   5.735   4.362
 3457SOL    HW111270   4.545   5.671   4.411
 3457SOL    HW211271   4.465   5.813   4.422
 3458SOL     OW11272   4.423   1.485   2.643
 3458SOL    HW111273   4.392   1.451   2.554
 3458SOL    HW211274   4.344   1.497   2.704
 3459SOL     OW11275   4.930   2.178   3.393
 3459SOL    HW111276   4.921   2.114   3.469
 3459SOL    HW211277   4.975   2.132   3.316
 3460SOL     OW11278   2.844   1.880   6.261
 3460SOL    HW111279   2.928   1.836   6.229
 3460SOL    HW211280   2.858   1.979   6.263
 3461SOL     OW11281   4.986   3.741   6.711
 3461SOL    HW111282   4.956   3.835   6.694
 3461SOL    HW211283   5.086   3.738   6.716
 3462SOL     OW11284   0.895   4.139   5.246
 3462SOL    HW111285   0.950   4.062   5.214
 3462SOL    HW211286   0.799   4.123   5.225
 3463SOL     OW11287   0.702   4.588   0.971
 3463SOL    HW111288   0.710   4.491   0.949
 3463SOL    HW211289   0.791   4.623   0.999
 3464SOL     OW11290   0.542   4.693   6.380
 3464SOL    HW111291   0.535   4.788   6.348
 3464SOL    HW211292   0.470   4.638   6.337
 3465SOL     OW11293   2.003   2.595   1.946
 3465SOL    HW111294   1.963   2.681   1.915
 3465SOL    HW211295   1.989   2.585   2.044
 3466SOL     OW11296   7.004   5.293   6.273
 3466SOL    HW111297   0.008   5.359   6.203
 3466SOL    HW211298   0.020   5.203   6.250
 3467SOL     OW11299   1.449   2.816   6.795
 3467SOL    HW111300   1.519   2.776   6.736
 3467SOL    HW211301   1.475   2.802   6.891
 3468SOL     OW11302   3.795   6.135   2.581
 3468SOL    HW111303   3.775   6.233   2.577
 3468SOL    HW211304   3.816   6.110   2.675
 3469SOL     OW11305   5.863   1.528   3.174
 3469SOL    HW111306   5.831   1.467   3.101
 3469SOL    HW211307   5.956   1.503   3.200
 3470SOL     OW11308   6.801   4.667   0.996
 3470SOL    HW111309   6.861   4.626   0.928
 3470SOL    HW211310   6.806   4.767   0.990
 3471SOL     OW11311   3.890   5.389   4.645
 3471SOL    HW111312   3.980   5.425   4.622
 3471SOL    HW211313   3.878   5.299   4.602
 3472SOL     OW11314   2.526   0.723   3.261
 3472SOL    HW111315   2.623   0.746   3.249
 3472SOL    HW211316   2.510   0.630   3.226
 3473SOL     OW11317   6.077   1.389   6.117
 3473SOL    HW111318   5.992   1.403   6.166
 3473SOL    HW211319   6.145   1.456   6.148
 3474SOL     OW11320   3.135   5.191   2.181
 3474SOL    HW111321   3.085   5.167   2.097
 3474SOL    HW211322   3.072   5.190   2.259
 3475SOL     OW11323   1.463   6.414   3.976
 3475SOL    HW111324   1.442   6.511   3.989
 3475SOL    HW211325   1.410   6.359   4.040
 3476SOL     OW11326   3.435   1.374   3.567
 3476SOL    HW111327   3.349   1.398   3.613
 3476SOL    HW211328   3.437   1.417   3.477
 3477SOL     OW11329   2.930   5.733   1.943
 3477SOL    HW111330   2.997   5.736   2.017
 3477SOL    HW211331   2.975   5.711   1.857
 3478SOL     OW11332   2.956   5.832   5.899
 3478SOL    HW111333   2.887   5.795   5.838
 3478SOL    HW211334   3.005   5.756   5.944
 3479SOL     OW11335   0.606   0.399   3.491
 3479SOL    HW111336   0.695   0.354   3.489
 3479SOL    HW211337   0.612   0.489   3.448
 3480SOL     OW11338   6.570   0.168   4.721
 3480SOL    HW111339   6.608   0.152   4.630
 3480SOL    HW211340   6.565   0.081   4.771
 3481SOL     OW11341   4.707   0.207   6.884
 3481SOL    HW111342   4.696   0.143   6.807
 3481SOL    HW211343   4.737   0.157   6.965
 3482SOL     OW11344   5.624   1.288   0.545
 3482SOL    HW111345   5.721   1.269   0.528
 3482SOL    HW211346   5.569   1.211   0.515
 3483SOL     OW11347   3.174   0.606   1.427
 3483SOL    HW111348   3.174   0.510   1.453
 3483SOL    HW211349   3.213   0.616   1.336
 3484SOL     OW11350   2.913   3.482   1.745
 3484SOL    HW111351   2.814   3.478   1.736
 3484SOL    HW211352   2.947   3.565   1.700
 3485SOL     OW11353   1.206   0.698   4.575
 3485SOL    HW111354   1.215   0.611   4.525
 3485SOL    HW211355   1.224   0.683   4.672
 3486SOL     OW11356   3.050   2.031   2.416
 3486SOL    HW111357   3.075   2.003   2.323
 3486SOL    HW211358   3.063   1.954   2.478
 3487SOL     OW11359   6.389   1.771   6.043
 3487SOL    HW111360   6.366   1.694   5.982
 3487SOL    HW211361   6.467   1.746   6.100
 3488SOL     OW11362   5.779   3.183   4.047
 3488SOL    HW111363   5.680   3.174   4.034
 3488SOL    HW211364   5.826   3.110   3.996
 3489SOL     OW11365   2.646   6.835   0.770
 3489SOL    HW111366   2.547   6.842   0.787
 3489SOL    HW211367   2.672   6.901   0.699
 3490SOL     OW11368   4.431   4.503   0.005
 3490SOL    HW111369   4.376   4.560   0.065
 3490SOL    HW211370   4.373   4.464   6.955
 3491SOL     OW11371   6.079   3.274   4.757
 3491SOL    HW111372   6.063   3.178   4.781
 3491SOL    HW211373   6.113   3.323   4.837
 3492SOL     OW11374   1.186   5.706   0.580
 3492SOL    HW111375   1.094   5.745   0.571
 3492SOL    HW211376   1.197   5.671   0.673
 3493SOL     OW11377   6.558   5.242   0.078
 3493SOL    HW111378   6.519   5.332   0.057
 3493SOL    HW211379   6.645   5.231   0.030
 3494SOL     OW11380   4.055   0.239   0.957
 3494SOL    HW111381   4.015   0.247   1.048
 3494SOL    HW211382   4.154   0.250   0.962
 3495SOL     OW11383   4.242   4.927   2.221
 3495SOL    HW111384   4.147   4.939   2.191
 3495SOL    HW211385   4.301   4.914   2.141
 3496SOL     OW11386   0.743   3.002   1.487
 3496SOL    HW111387   0.733   2.904   1.507
 3496SOL    HW211388   0.680   3.054   1.545
 3497SOL     OW11389   3.942   0.348   2.929
 3497SOL    HW111390   3.961   0.418   2.861
 3497SOL    HW211391   3.939   0.258   2.885
 3498SOL     OW11392   2.611   2.354   0.797
 3498SOL    HW111393   2.540   2.364   0.867
 3498SOL    HW211394   2.660   2.268   0.810
 3499SOL     OW11395   5.382   2.892   4.465
 3499SOL    HW111396   5.426   2.890   4.376
 3499SOL    HW211397   5.446   2.858   4.534
 3500SOL     OW11398   0.405   4.029   5.578
 3500SOL    HW111399   0.390   4.108   5.518
 3500SOL    HW211400   0.359   4.044   5.665
 3501SOL     OW11401   0.570   4.939   4.474
 3501SOL    HW111402   0.508   4.984   4.410
 3501SOL    HW211403   0.648   4.998   4.493
 3502SOL     OW11404   6.805   2.241   2.471
 3502SOL    HW111405   6.899   2.271   2.489
 3502SOL    HW211406   6.749   2.320   2.445
 3503SOL     OW11407   5.680   5.497   5.560
 3503SOL    HW111408   5.714   5.478   5.652
 3503SOL    HW211409   5.650   5.592   5.555
 3504SOL     OW11410   2.790   3.182   1.456
 3504SOL    HW111411   2.863   3.115   1.470
 3504SOL    HW211412   2.762   3.181   1.360
 3505SOL     OW11413   6.099   5.046   5.140
 3505SOL    HW111414   6.078   5.142   5.156
 3505SOL    HW211415   6.194   5.027   5.167
 3506SOL     OW11416   3.768   5.712   4.912
 3506SOL    HW111417   3.735   5.805   4.928
 3506SOL    HW211418   3.760   5.691   4.815
 3507SOL     OW11419   1.618   0.663   6.814
 3507SOL    HW111420   1.618   0.567   6.843
 3507SOL    HW211421   1.575   0.670   6.724
 3508SOL     OW11422   4.111   2.711   6.067
 3508SOL    HW111423   4.014   2.728   6.049
 3508SOL    HW211424   4.132   2.736   6.161
 3509SOL     OW11425   5.541   5.720   6.614
 3509SOL    HW111426   5.557   5.753   6.707
 3509SOL    HW211427   5.626   5.684   6.577
 3510SOL     OW11428   1.625   2.985   1.439
 3510SOL    HW111429   1.613   2.924   1.360
 3510SOL    HW211430   1.597   3.078   1.414
 3511SOL     OW11431   1.328   4.031   6.848
 3511SOL    HW111432   1.381   3.977   6.783
 3511SOL    HW211433   1.387   4.066   6.920
 3512SOL     OW11434   0.990   4.625   0.360
 3512SOL    HW111435   0.975   4.608   0.457
 3512SOL    HW211436   1.069   4.572   0.329
 3513SOL     OW11437   5.898   4.534   0.983
 3513SOL    HW111438   5.943   4.592   1.050
 3513SOL    HW211439   5.954   4.452   0.968
 3514SOL     OW11440   0.793   1.074   1.848
 3514SOL    HW111441   0.711   1.018   1.859
 3514SOL    HW211442   0.773   1.168   1.872
 3515SOL     OW11443   3.917   6.379   2.344
 3515SOL    HW111444   3.974   6.297   2.347
 3515SOL    HW211445   3.973   6.459   2.363
 3516SOL     OW11446   4.150   0.821   1.267
 3516SOL    HW111447   4.110   0.902   1.225
 3516SOL    HW211448   4.161   0.836   1.365
 3517SOL     OW11449   0.364   1.841   0.040
 3517SOL    HW111450   0.410   1.850   0.129
 3517SOL    HW211451   0.428   1.863   6.988
 3518SOL     OW11452   4.931   4.051   5.447
 3518SOL    HW111453   4.935   3.957   5.414
 3518SOL    HW211454   4.859   4.060   5.515
 3519SOL     OW11455   1.748   0.385   6.590
 3519SOL    HW111456   1.690   0.434   6.656
 3519SOL    HW211457   1.692   0.358   6.512
 3520SOL     OW11458   3.622   4.153   1.315
 3520SOL    HW111459   3.590   4.082   1.378
 3520SOL    HW211460   3.618   4.120   1.221
 3521SOL     OW11461   5.740   2.878   1.893
 3521SOL    HW111462   5.693   2.801   1.849
 3521SOL    HW211463   5.724   2.875   1.992
 3522SOL     OW11464   3.170   5.801   2.204
 3522SOL    HW111465   3.263   5.765   2.213
 3522SOL    HW211466   3.173   5.891   2.162
 3523SOL     OW11467   2.791   4.425   5.607
 3523SOL    HW111468   2.772   4.409   5.510
 3523SOL    HW211469   2.882   4.467   5.617
 3524SOL     OW11470   2.402   0.317   1.187
 3524SOL    HW111471   2.427   0.312   1.284
 3524SOL    HW211472   2.403   0.413   1.158
 3525SOL     OW11473   0.748   3.516   1.798
 3525SOL    HW111474   0.827   3.458   1.777
 3525SOL    HW211475   0.728   3.511   1.896
 3526SOL     OW11476   1.065   0.470   3.850
 3526SOL    HW111477   1.046   0.402   3.920
 3526SOL    HW211478   1.053   0.562   3.889
 3527SOL     OW11479   5.300   2.900   5.054
 3527SOL    HW111480   5.221   2.926   4.999
 3527SOL    HW211481   5.269   2.859   5.140
 3528SOL     OW11482   1.014   6.063   3.369
 3528SOL    HW111483   1.029   5.966   3.386
 3528SOL    HW211484   0.926   6.076   3.322
 3529SOL     OW11485   4.010   0.024   5.795
 3529SOL    HW111486   3.977   0.108   5.839
 3529SOL    HW211487   3.932   6.991   5.763
 3530SOL     OW11488   1.675   4.842   2.832
 3530SOL    HW111489   1.630   4.835   2.743
 3530SOL    HW211490   1.708   4.935   2.846
 3531SOL     OW11491   5.057   4.100   0.457
 3531SOL    HW111492   4.978   4.051   0.495
 3531SOL    HW211493   5.141   4.052   0.480
 3532SOL     OW11494   3.062   0.635   0.617
 3532SOL    HW111495   3.070   0.554   0.559
 3532SOL    HW211496   3.153   0.658   0.653
 3533SOL     OW11497   1.131   2.178   3.272
 3533SOL    HW111498   1.210   2.117   3.273
 3533SOL    HW211499   1.162   2.273   3.268
 3534SOL     OW11500   5.741   1.574   5.344
 3534SOL    HW111501   5.748   1.589   5.443
 3534SOL    HW211502   5.665   1.512   5.326
 3535SOL     OW11503   7.003   5.811   0.734
 3535SOL    HW111504   0.014   5.902   0.761
 3535SOL    HW211505   7.010   5.802   0.635
 3536SOL     OW11506   2.203   3.181   3.822
 3536SOL    HW111507   2.251   3.095   3.838
 3536SOL    HW211508   2.133   3.194   3.893
 3537SOL     OW11509   2.346   4.440   0.687
 3537SOL    HW111510   2.286   4.490   0.625
 3537SOL    HW211511   2.298   4.421   0.773
 3538SOL     OW11512   2.809   0.830   3.830
 3538SOL    HW111513   2.893   0.876   3.859
 3538SOL    HW211514   2.782   0.865   3.740
 3539SOL     OW11515   5.694   3.289   5.939
 3539SOL    HW111516   5.793   3.285   5.927
 3539SOL    HW211517   5.654   3.350   5.871
 3540SOL     OW11518   2.426   1.889   6.050
 3540SOL    HW111519   2.404   1.968   5.993
 3540SOL    HW211520   2.524   1.868   6.042
 3541SOL     OW11521   2.714   3.118   0.039
 3541SOL    HW111522   2.795   3.148   0.091
 3541SOL    HW211523   2.725   3.143   6.964
 3542SOL     OW11524   5.654   2.359   0.463
 3542SOL    HW111525   5.702   2.319   0.541
 3542SOL    HW211526   5.718   2.408   0.405
 3543SOL     OW11527   1.673   3.312   3.693
 3543SOL    HW111528   1.649   3.409   3.694
 3543SOL    HW211529   1.608   3.261   3.748
 3544SOL     OW11530   2.079   4.349   6.515
 3544SOL    HW111531   2.014   4.289   6.468
 3544SOL    HW211532   2.158   4.364   6.456
 3545SOL     OW11533   3.828   4.553   0.629
 3545SOL    HW111534   3.728   4.559   0.622
 3545SOL    HW211535   3.853   4.467   0.673
 3546SOL     OW11536   6.765   4.938   3.078
 3546SOL    HW111537   6.831   5.011   3.059
 3546SOL    HW211538   6.727   4.951   3.170
 3547SOL     OW11539   6.442   4.169   4.898
 3547SOL    HW111540   6.475   4.153   4.991
 3547SOL    HW211541   6.346   4.195   4.900
 3548SOL     OW11542   5.795   0.500   5.060
 3548SOL    HW111543   5.721   0.445   5.021
 3548SOL    HW211544   5.759   0.555   5.136
 3549SOL     OW11545   1.593   4.721   5.508
 3549SOL    HW111546   1.549   4.661   5.442
 3549SOL    HW211547   1.690   4.697   5.516
 3550SOL     OW11548   5.842   3.049   4.350
 3550SOL    HW111549   5.895   3.035   4.266
 3550SOL    HW211550   5.857   2.972   4.412
 3551SOL     OW11551   3.312   2.033   5.138
 3551SOL    HW111552   3.386   2.041   5.072
 3551SOL    HW211553   3.243   2.103   5.120
 3552SOL     OW11554   5.568   5.494   2.133
 3552SOL    HW111555   5.569   5.556   2.054
 3552SOL    HW211556   5.519   5.537   2.209
 3553SOL     OW11557   3.698   5.126   6.017
 3553SOL    HW111558   3.634   5.149   6.090
 3553SOL    HW211559   3.648   5.087   5.939
 3554SOL     OW11560   4.642   3.214   0.285
 3554SOL    HW111561   4.578   3.164   0.343
 3554SOL    HW211562   4.598   3.237   0.199
 3555SOL     OW11563   1.842   1.961   4.308
 3555SOL    HW111564   1.788   2.045   4.301
 3555SOL    HW211565   1.808   1.894   4.241
 3556SOL     OW11566   3.903   1.119   3.765
 3556SOL    HW111567   3.882   1.213   3.740
 3556SOL    HW211568   3.955   1.075   3.692
 3557SOL     OW11569   0.903   0.314   3.432
 3557SOL    HW111570   0.971   0.383   3.405
 3557SOL    HW211571   0.888   0.250   3.358
 3558SOL     OW11572   2.514   4.771   1.112
 3558SOL    HW111573   2.506   4.824   1.197
 3558SOL    HW211574   2.518   4.674   1.134
 3559SOL     OW11575   1.898   6.165   4.183
 3559SOL    HW111576   1.986   6.163   4.230
 3559SOL    HW211577   1.912   6.158   4.084
 3560SOL     OW11578   2.266   5.230   3.332
 3560SOL    HW111579   2.296   5.144   3.291
 3560SOL    HW211580   2.226   5.288   3.262
 3561SOL     OW11581   5.335   4.662   5.979
 3561SOL    HW111582   5.397   4.700   6.048
 3561SOL    HW211583   5.379   4.665   5.889
 3562SOL     OW11584   3.469   1.948   4.461
 3562SOL    HW111585   3.469   1.883   4.385
 3562SOL    HW211586   3.392   2.011   4.450
 3563SOL     OW11587   6.312   2.025   6.135
 3563SOL    HW111588   6.331   1.936   6.095
 3563SOL    HW211589   6.252   2.077   6.074
 3564SOL     OW11590   0.466   4.772   3.253
 3564SOL    HW111591   0.444   4.869   3.260
 3564SOL    HW211592   0.547   4.760   3.196
 3565SOL     OW11593   3.353   5.025   2.504
 3565SOL    HW111594   3.432   4.964   2.504
 3565SOL    HW211595   3.364   5.094   2.433
 3566SOL     OW11596   5.968   0.896   5.438
 3566SOL    HW111597   6.062   0.871   5.459
 3566SOL    HW211598   5.939   0.969   5.499
 3567SOL     OW11599   0.378   2.282   5.945
 3567SOL    HW111600   0.477   2.294   5.932
 3567SOL    HW211601   0.362   2.216   6.018
 3568SOL     OW11602   6.055   3.597   5.053
 3568SOL    HW111603   6.038   3.634   4.962
 3568SOL    HW211604   5.969   3.591   5.103
 3569SOL     OW11605   3.131   1.725   5.583
 3569SOL    HW111606   3.064   1.787   5.541
 3569SOL    HW211607   3.218   1.733   5.535
 3570SOL     OW11608   4.691   0.589   6.047
 3570SOL    HW111609   4.675   0.491   6.057
 3570SOL    HW211610   4.789   0.608   6.053
 3571SOL     OW11611   0.482   5.223   6.962
 3571SOL    HW111612   0.420   5.272   6.901
 3571SOL    HW211613   0.572   5.267   6.963
 3572SOL     OW11614   5.476   4.078   3.589
 3572SOL    HW111615   5.476   3.980   3.609
 3572SOL    HW211616   5.501   4.092   3.494
 3573SOL     OW11617   0.311   4.520   3.675
 3573SOL    HW111618   0.273   4.472   3.597
 3573SOL    HW211619   0.391   4.471   3.709
 3574SOL     OW11620   0.134   4.651   0.584
 3574SOL    HW111621   0.078   4.635   0.503
 3574SOL    HW211622   0.159   4.748   0.588
 3575SOL     OW11623   5.342   4.562   3.066
 3575SOL    HW111624   5.383   4.608   2.987
 3575SOL    HW211625   5.283   4.488   3.034
 3576SOL     OW11626   2.380   1.623   5.795
 3576SOL    HW111627   2.336   1.615   5.706
 3576SOL    HW211628   2.478   1.601   5.786
 3577SOL     OW11629   1.349   3.516   5.805
 3577SOL    HW111630   1.277   3.464   5.851
 3577SOL    HW211631   1.332   3.614   5.815
 3578SOL     OW11632   3.644   2.640   0.718
 3578SOL    HW111633   3.560   2.635   0.665
 3578SOL    HW211634   3.624   2.676   0.809
 3579SOL     OW11635   6.945   4.001   4.695
 3579SOL    HW111636   6.884   4.031   4.769
 3579SOL    HW211637   0.011   4.050   4.701
 3580SOL     OW11638   6.058   1.694   0.784
 3580SOL    HW111639   6.051   1.768   0.717
 3580SOL    HW211640   6.032   1.727   0.874
 3581SOL     OW11641   6.781   0.199   4.038
 3581SOL    HW111642   6.692   0.169   4.071
 3581SOL    HW211643   6.771   0.241   3.947
 3582SOL     OW11644   1.068   1.599   5.943
 3582SOL    HW111645   1.047   1.686   5.988
 3582SOL    HW211646   1.080   1.615   5.845
 3583SOL     OW11647   1.040   3.808   6.522
 3583SOL    HW111648   1.030   3.907   6.524
 3583SOL    HW211649   1.107   3.779   6.591
 3584SOL     OW11650   5.922   5.454   0.275
 3584SOL    HW111651   5.911   5.532   0.213
 3584SOL    HW211652   5.844   5.450   0.337
 3585SOL     OW11653   3.722   5.370   5.105
 3585SOL    HW111654   3.660   5.447   5.119
 3585SOL    HW211655   3.693   5.318   5.025
 3586SOL     OW11656   0.160   1.956   5.183
 3586SOL    HW111657   0.150   1.892   5.260
 3586SOL    HW211658   0.207   1.911   5.107
 3587SOL     OW11659   2.662   4.709   6.731
 3587SOL    HW111660   2.629   4.757   6.812
 3587SOL    HW211661   2.743   4.654   6.755
 3588SOL     OW11662   0.885   2.565   4.658
 3588SOL    HW111663   0.878   2.578   4.757
 3588SOL    HW211664   0.953   2.495   4.638
 3589SOL     OW11665   4.043   1.716   4.338
 3589SOL    HW111666   4.025   1.804   4.381
 3589SOL    HW211667   3.997   1.712   4.249
 3590SOL     OW11668   0.464   3.740   5.761
 3590SOL    HW111669   0.551   3.701   5.731
 3590SOL    HW211670   0.388   3.694   5.715
 3591SOL     OW11671   5.218   3.033   6.056
 3591SOL    HW111672   5.297   3.049   5.996
 3591SOL    HW211673   5.135   3.036   6.002
 3592SOL     OW11674   6.310   4.222   2.592
 3592SOL    HW111675   6.214   4.252   2.591
 3592SOL    HW211676   6.370   4.302   2.585
 3593SOL     OW11677   2.409   5.697   4.123
 3593SOL    HW111678   2.411   5.790   4.085
 3593SOL    HW211679   2.377   5.701   4.218
 3594SOL     OW11680   3.838   0.797   2.818
 3594SOL    HW111681   3.894   0.876   2.793
 3594SOL    HW211682   3.892   0.714   2.811
 3595SOL     OW11683   2.415   5.493   6.046
 3595SOL    HW111684   2.322   5.476   6.077
 3595SOL    HW211685   2.471   5.411   6.060
 3596SOL     OW11686   6.126   2.341   3.155
 3596SOL    HW111687   6.203   2.293   3.197
 3596SOL    HW211688   6.134   2.335   3.055
 3597SOL     OW11689   2.383   6.714   5.201
 3597SOL    HW111690   2.413   6.701   5.295
 3597SOL    HW211691   2.403   6.807   5.171
 3598SOL     OW11692   1.291   6.464   6.266
 3598SOL    HW111693   1.384   6.452   6.232
 3598SOL    HW211694   1.291   6.467   6.366
 3599SOL     OW11695   0.538   2.005   5.816
 3599SOL    HW111696   0.573   2.099   5.819
 3599SOL    HW211697   0.456   2.002   5.759
 3600SOL     OW11698   1.246   3.498   0.320
 3600SOL    HW111699   1.258   3.507   0.221
 3600SOL    HW211700   1.153   3.525   0.344
 3601SOL     OW11701   6.555   4.265   0.529
 3601SOL    HW111702   6.516   4.270   0.620
 3601SOL    HW211703   6.505   4.197   0.475
 3602SOL     OW11704   1.659   2.180   0.560
 3602SOL    HW111705   1.625   2.151   0.649
 3602SOL    HW211706   1.759   2.171   0.558
 3603SOL     OW11707   3.541   6.270   3.817
 3603SOL    HW111708   3.517   6.309   3.906
 3603SOL    HW211709   3.616   6.322   3.777
 3604SOL     OW11710   6.976   5.040   3.833
 3604SOL    HW111711   0.023   4.971   3.856
 3604SOL    HW211712   7.013   5.104   3.766
 3605SOL     OW11713   5.177   4.549   5.397
 3605SOL    HW111714   5.252   4.504   5.445
 3605SOL    HW211715   5.206   4.639   5.366
 3606SOL     OW11716   6.941   5.671   5.560
 3606SOL    HW111717   6.956   5.739   5.632
 3606SOL    HW211718   6.900   5.589   5.600
 3607SOL     OW11719   5.206   6.466   1.135
 3607SOL    HW111720   5.209   6.506   1.043
 3607SOL    HW211721   5.289   6.412   1.151
 3608SOL     OW11722   6.768   1.858   2.443
 3608SOL    HW111723   6.720   1.913   2.512
 3608SOL    HW211724   6.758   1.761   2.465
 3609SOL     OW11725   0.482   0.234   4.398
 3609SOL    HW111726   0.529   0.207   4.315
 3609SOL    HW211727   0.542   0.220   4.477
 3610SOL     OW11728   1.178   0.439   5.552
 3610SOL    HW111729   1.275   0.428   5.569
 3610SOL    HW211730   1.163   0.470   5.458
 3611SOL     OW11731   4.188   6.148   5.772
 3611SOL    HW111732   4.138   6.104   5.848
 3611SOL    HW211733   4.136   6.228   5.741
 3612SOL     OW11734   6.110   0.440   5.980
 3612SOL    HW111735   6.104   0.467   6.076
 3612SOL    HW211736   6.033   0.379   5.958
 3613SOL     OW11737   4.784   5.262   1.666
 3613SOL    HW111738   4.752   5.290   1.756
 3613SOL    HW211739   4.807   5.165   1.667
 3614SOL     OW11740   3.311   3.414   2.611
 3614SOL    HW111741   3.287   3.346   2.680
 3614SOL    HW211742   3.380   3.377   2.549
 3615SOL     OW11743   5.053   6.165   0.103
 3615SOL    HW111744   5.011   6.077   0.080
 3615SOL    HW211745   5.126   6.151   0.170
 3616SOL     OW11746   6.893   2.442   6.309
 3616SOL    HW111747   6.883   2.519   6.246
 3616SOL    HW211748   6.840   2.458   6.391
 3617SOL     OW11749   4.641   0.836   6.704
 3617SOL    HW111750   4.585   0.774   6.759
 3617SOL    HW211751   4.700   0.782   6.644
 3618SOL     OW11752   1.999   1.785   4.622
 3618SOL    HW111753   1.930   1.772   4.693
 3618SOL    HW211754   2.088   1.799   4.663
 3619SOL     OW11755   6.351   3.293   3.811
 3619SOL    HW111756   6.412   3.372   3.809
 3619SOL    HW211757   6.393   3.217   3.761
 3620SOL     OW11758   6.151   5.844   6.160
 3620SOL    HW111759   6.125   5.816   6.253
 3620SOL    HW211760   6.154   5.944   6.155
 3621SOL     OW11761   2.946   2.714   5.835
 3621SOL    HW111762   2.985   2.629   5.800
 3621SOL    HW211763   3.012   2.788   5.825
 3622SOL     OW11764   2.116   2.680   4.166
 3622SOL    HW111765   2.099   2.765   4.116
 3622SOL    HW211766   2.051   2.672   4.242
 3623SOL     OW11767   6.438   5.998   3.791
 3623SOL    HW111768   6.470   5.917   3.742
 3623SOL    HW211769   6.338   5.997   3.796
 3624SOL     OW11770   1.282   0.089   2.234
 3624SOL    HW111771   1.293   0.076   2.332
 3624SOL    HW211772   1.269   0.186   2.214
 3625SOL     OW11773   5.392   3.713   6.957
 3625SOL    HW111774   5.365   3.775   6.883
 3625SOL    HW211775   5.458   3.646   6.922
 3626SOL     OW11776   1.304   3.544   5.337
 3626SOL    HW111777   1.364   3.620   5.363
 3626SOL    HW211778   1.313   3.470   5.404
 3627SOL     OW11779   3.531   2.871   3.241
 3627SOL    HW111780   3.594   2.906   3.311
 3627SOL    HW211781   3.583   2.821   3.172
 3628SOL     OW11782   1.387   0.299   1.590
 3628SOL    HW111783   1.440   0.229   1.637
 3628SOL    HW211784   1.446   0.378   1.569
 3629SOL     OW11785   6.520   2.135   4.386
 3629SOL    HW111786   6.593   2.131   4.454
 3629SOL    HW211787   6.488   2.042   4.366
 3630SOL     OW11788   5.120   2.764   3.328
 3630SOL    HW111789   5.025   2.753   3.301
 3630SOL    HW211790   5.179   2.754   3.247
 3631SOL     OW11791   1.957   0.274   3.842
 3631SOL    HW111792   1.918   0.250   3.753
 3631SOL    HW211793   2.046   0.318   3.828
 3632SOL     OW11794   4.750   6.688   0.892
 3632SOL    HW111795   4.809   6.637   0.830
 3632SOL    HW211796   4.765   6.658   0.986
 3633SOL     OW11797   3.011   1.658   5.833
 3633SOL    HW111798   2.963   1.645   5.746
 3633SOL    HW211799   3.096   1.708   5.817
 3634SOL     OW11800   0.846   5.480   4.593
 3634SOL    HW111801   0.873   5.384   4.591
 3634SOL    HW211802   0.768   5.491   4.655
 3635SOL     OW11803   2.749   6.286   6.383
 3635SOL    HW111804   2.769   6.212   6.320
 3635SOL    HW211805   2.681   6.347   6.342
 3636SOL     OW11806   0.482   5.580   6.653
 3636SOL    HW111807   0.565   5.562   6.600
 3636SOL    HW211808   0.405   5.591   6.591
 3637SOL     OW11809   5.729   1.768   1.532
 3637SOL    HW111810   5.744   1.721   1.619
 3637SOL    HW211811   5.758   1.863   1.539
 3638SOL     OW11812   0.112   4.663   4.467
 3638SOL    HW111813   0.169   4.582   4.467
 3638SOL    HW211814   0.140   4.725   4.540
 3639SOL     OW11815   3.654   4.409   1.449
 3639SOL    HW111816   3.644   4.323   1.400
 3639SOL    HW211817   3.599   4.408   1.532
 3640SOL     OW11818   3.417   0.776   6.988
 3640SOL    HW111819   3.325   0.783   6.950
 3640SOL    HW211820   3.474   0.719   6.929
 3641SOL     OW11821   4.970   3.291   4.220
 3641SOL    HW111822   4.898   3.240   4.266
 3641SOL    HW211823   4.944   3.309   4.125
 3642SOL     OW11824   4.837   0.728   0.455
 3642SOL    HW111825   4.875   0.761   0.541
 3642SOL    HW211826   4.750   0.683   0.472
 3643SOL     OW11827   3.387   5.806   4.715
 3643SOL    HW111828   3.367   5.728   4.656
 3643SOL    HW211829   3.475   5.846   4.691
 3644SOL     OW11830   6.377   1.383   1.509
 3644SOL    HW111831   6.363   1.456   1.577
 3644SOL    HW211832   6.410   1.301   1.556
 3645SOL     OW11833   6.879   2.740   3.971
 3645SOL    HW111834   6.939   2.803   3.921
 3645SOL    HW211835   6.927   2.653   3.984
 3646SOL     OW11836   6.250   3.898   0.082
 3646SOL    HW111837   6.296   3.833   0.021
 3646SOL    HW211838   6.152   3.876   0.087
 3647SOL     OW11839   2.118   3.393   0.297
 3647SOL    HW111840   2.101   3.348   0.384
 3647SOL    HW211841   2.048   3.366   0.231
 3648SOL     OW11842   3.128   4.896   2.924
 3648SOL    HW111843   3.071   4.814   2.935
 3648SOL    HW211844   3.074   4.967   2.879
 3649SOL     OW11845   5.153   3.166   2.079
 3649SOL    HW111846   5.160   3.118   1.992
 3649SOL    HW211847   5.079   3.233   2.074
 3650SOL     OW11848   0.515   4.569   0.671
 3650SOL    HW111849   0.477   4.570   0.764
 3650SOL    HW211850   0.566   4.485   0.657
 3651SOL     OW11851   0.828   6.759   4.196
 3651SOL    HW111852   0.774   6.764   4.112
 3651SOL    HW211853   0.892   6.836   4.199
 3652SOL     OW11854   5.957   6.133   3.046
 3652SOL    HW111855   5.895   6.082   3.105
 3652SOL    HW211856   5.940   6.111   2.950
 3653SOL     OW11857   0.562   1.489   4.339
 3653SOL    HW111858   0.568   1.486   4.239
 3653SOL    HW211859   0.515   1.573   4.368
 3654SOL     OW11860   2.719   5.550   0.305
 3654SOL    HW111861   2.730   5.626   0.369
 3654SOL    HW211862   2.696   5.587   0.215
 3655SOL     OW11863   2.535   6.886   3.604
 3655SOL    HW111864   2.466   6.925   3.665
 3655SOL    HW211865   2.574   6.805   3.646
 3656SOL     OW11866   0.985   3.800   2.142
 3656SOL    HW111867   0.919   3.740   2.188
 3656SOL    HW211868   0.984   3.890   2.185
 3657SOL     OW11869   4.989   5.002   6.414
 3657SOL    HW111870   4.946   4.914   6.433
 3657SOL    HW211871   5.036   4.997   6.326
 3658SOL     OW11872   1.647   6.203   4.303
 3658SOL    HW111873   1.727   6.228   4.248
 3658SOL    HW211874   1.669   6.123   4.359
 3659SOL     OW11875   1.907   3.444   5.337
 3659SOL    HW111876   1.862   3.412   5.253
 3659SOL    HW211877   1.896   3.375   5.408
 3660SOL     OW11878   4.630   0.133   2.658
 3660SOL    HW111879   4.540   0.177   2.664
 3660SOL    HW211880   4.618   0.034   2.644
 3661SOL     OW11881   5.170   1.298   6.283
 3661SOL    HW111882   5.259   1.264   6.254
 3661SOL    HW211883   5.099   1.265   6.221
 3662SOL     OW11884   3.692   0.547   3.667
 3662SOL    HW111885   3.782   0.538   3.709
 3662SOL    HW211886   3.656   0.456   3.645
 3663SOL     OW11887   1.443   2.451   0.549
 3663SOL    HW111888   1.354   2.480   0.585
 3663SOL    HW211889   1.477   2.375   0.604
 3664SOL     OW11890   4.945   1.687   2.147
 3664SOL    HW111891   4.917   1.642   2.062
 3664SOL    HW211892   5.022   1.636   2.187
 3665SOL     OW11893   1.830   6.149   5.410
 3665SOL    HW111894   1.769   6.218   5.370
 3665SOL    HW211895   1.779   6.067   5.433
 3666SOL     OW11896   1.186   4.000   3.273
 3666SOL    HW111897   1.099   3.965   3.239
 3666SOL    HW211898   1.259   3.974   3.211
 3667SOL     OW11899   0.249   1.199   1.598
 3667SOL    HW111900   0.224   1.234   1.507
 3667SOL    HW211901   0.342   1.164   1.595
 3668SOL     OW11902   1.467   1.384   2.002
 3668SOL    HW111903   1.491   1.447   1.928
 3668SOL    HW211904   1.493   1.291   1.976
 3669SOL     OW11905   5.360   1.475   3.204
 3669SOL    HW111906   5.341   1.440   3.296
 3669SOL    HW211907   5.315   1.416   3.136
 3670SOL     OW11908   2.222   4.577   0.465
 3670SOL    HW111909   2.318   4.602   0.474
 3670SOL    HW211910   2.165   4.649   0.506
 3671SOL     OW11911   6.150   0.122   4.166
 3671SOL    HW111912   6.103   0.127   4.079
 3671SOL    HW211913   6.107   0.185   4.231
 3672SOL     OW11914   5.599   2.293   1.722
 3672SOL    HW111915   5.539   2.219   1.753
 3672SOL    HW211916   5.657   2.324   1.797
 3673SOL     OW11917   4.211   6.623   6.528
 3673SOL    HW111918   4.253   6.635   6.618
 3673SOL    HW211919   4.197   6.713   6.486
 3674SOL     OW11920   0.772   6.907   5.213
 3674SOL    HW111921   0.792   6.823   5.162
 3674SOL    HW211922   0.851   6.968   5.208
 3675SOL     OW11923   1.634   3.366   4.857
 3675SOL    HW111924   1.723   3.385   4.816
 3675SOL    HW211925   1.562   3.401   4.797
 3676SOL     OW11926   5.171   4.402   4.843
 3676SOL    HW111927   5.175   4.406   4.743
 3676SOL    HW211928   5.108   4.472   4.877
 3677SOL     OW11929   2.233   6.311   2.933
 3677SOL    HW111930   2.295   6.303   3.011
 3677SOL    HW211931   2.255   6.241   2.865
 3678SOL     OW11932   0.115   2.687   5.019
 3678SOL    HW111933   0.149   2.765   4.967
 3678SOL    HW211934   0.092   2.613   4.956
 3679SOL     OW11935   1.461   0.633   2.770
 3679SOL    HW111936   1.528   0.617   2.842
 3679SOL    HW211937   1.408   0.716   2.792
 3680SOL     OW11938   5.406   2.210   3.603
 3680SOL    HW111939   5.311   2.179   3.597
 3680SOL    HW211940   5.455   2.183   3.520
 3681SOL     OW11941   0.394   0.446   5.359
 3681SOL    HW111942   0.334   0.514   5.401
 3681SOL    HW211943   0.387   0.451   5.260
 3682SOL     OW11944   5.553   2.383   6.802
 3682SOL    HW111945   5.522   2.441   6.877
 3682SOL    HW211946   5.653   2.384   6.799
 3683SOL     OW11947   0.202   0.188   3.286
 3683SOL    HW111948   0.141   0.241   3.228
 3683SOL    HW211949   0.217   0.098   3.245
 3684SOL     OW11950   1.687   4.835   6.877
 3684SOL    HW111951   1.624   4.766   6.844
 3684SOL    HW211952   1.770   4.834   6.820
 3685SOL     OW11953   6.791   6.116   6.162
 3685SOL    HW111954   6.766   6.187   6.229
 3685SOL    HW211955   6.830   6.160   6.081
 3686SOL     OW11956   5.671   6.193   3.339
 3686SOL    HW111957   5.657   6.166   3.434
 3686SOL    HW211958   5.711   6.116   3.289
 3687SOL     OW11959   3.958   6.273   5.146
 3687SOL    HW111960   3.896   6.195   5.154
 3687SOL    HW211961   4.051   6.239   5.127
 3688SOL     OW11962   6.296   3.713   6.724
 3688SOL    HW111963   6.199   3.703   6.748
 3688SOL    HW211964   6.304   3.729   6.625
 3689SOL     OW11965   2.065   0.802   6.923
 3689SOL    HW111966   1.991   0.736   6.912
 3689SOL    HW211967   2.073   0.858   6.841
 3690SOL     OW11968   4.913   6.281   0.493
 3690SOL    HW111969   4.910   6.279   0.593
 3690SOL    HW211970   4.998   6.326   0.464
 3691SOL     OW11971   3.226   2.901   0.148
 3691SOL    HW111972   3.136   2.863   0.129
 3691SOL    HW211973   3.216   2.982   0.207
 3692SOL     OW11974   0.504   5.869   4.954
 3692SOL    HW111975   0.508   5.967   4.931
 3692SOL    HW211976   0.525   5.857   5.051
 3693SOL     OW11977   1.942   2.605   2.864
 3693SOL    HW111978   1.895   2.619   2.776
 3693SOL    HW211979   2.041   2.607   2.849
 3694SOL     OW11980   1.283   5.301   2.979
 3694SOL    HW111981   1.341   5.366   3.027
 3694SOL    HW211982   1.208   5.273   3.039
 3695SOL     OW11983   6.928   2.980   1.867
 3695SOL    HW111984   7.013   3.003   1.820
 3695SOL    HW211985   6.878   2.911   1.814
 3696SOL     OW11986   3.308   5.465   4.970
 3696SOL    HW111987   3.402   5.490   4.994
 3696SOL    HW211988   3.291   5.371   4.997
 3697SOL     OW11989   0.069   6.400   3.108
 3697SOL    HW111990   0.141   6.469   3.118
 3697SOL    HW211991   0.107   6.309   3.122
 3698SOL     OW11992   2.202   0.599   4.646
 3698SOL    HW111993   2.196   0.696   4.623
 3698SOL    HW211994   2.255   0.588   4.731
 3699SOL     OW11995   0.766   3.034   3.546
 3699SOL    HW111996   0.837   2.972   3.581
 3699SOL    HW211997   0.799   3.128   3.549
 3700SOL     OW11998   0.281   0.143   5.230
 3700SOL    HW111999   0.326   0.160   5.142
 3700SOL    HW212000   0.210   0.212   5.245
 3701SOL     OW12001   1.212   0.101   3.865
 3701SOL    HW112002   1.268   0.150   3.932
 3701SOL    HW212003   1.200   0.158   3.783
 3702SOL     OW12004   5.810   6.606   2.619
 3702SOL    HW112005   5.811   6.524   2.562
 3702SOL    HW212006   5.730   6.661   2.596
 3703SOL     OW12007   4.495   1.534   6.439
 3703SOL    HW112008   4.574   1.497   6.391
 3703SOL    HW212009   4.427   1.566   6.372
 3704SOL     OW12010   3.787   1.469   1.859
 3704SOL    HW112011   3.785   1.557   1.810
 3704SOL    HW212012   3.823   1.484   1.951
 3705SOL     OW12013   4.994   5.719   3.566
 3705SOL    HW112014   4.898   5.734   3.544
 3705SOL    HW212015   5.012   5.750   3.659
 3706SOL     OW12016   1.389   3.889   5.406
 3706SOL    HW112017   1.488   3.878   5.421
 3706SOL    HW212018   1.352   3.953   5.474
 3707SOL     OW12019   5.167   4.216   5.534
 3707SOL    HW112020   5.093   4.261   5.483
 3707SOL    HW212021   5.128   4.158   5.606
 3708SOL     OW12022   6.910   1.125   6.253
 3708SOL    HW112023   6.890   1.028   6.238
 3708SOL    HW212024   6.948   1.137   6.345
 3709SOL     OW12025   3.426   0.755   1.136
 3709SOL    HW112026   3.339   0.765   1.087
 3709SOL    HW212027   3.475   0.676   1.100
 3710SOL     OW12028   6.760   5.403   6.679
 3710SOL    HW112029   6.763   5.341   6.600
 3710SOL    HW212030   6.715   5.488   6.652
 3711SOL     OW12031   0.764   0.082   3.773
 3711SOL    HW112032   0.772   7.007   3.746
 3711SOL    HW212033   0.773   0.140   3.692
 3712SOL     OW12034   0.084   6.077   6.925
 3712SOL    HW112035   0.069   6.149   6.857
 3712SOL    HW212036   0.171   6.031   6.905
 3713SOL     OW12037   1.682   6.449   4.910
 3713SOL    HW112038   1.597   6.499   4.921
 3713SOL    HW212039   1.732   6.484   4.830
 3714SOL     OW12040   4.779   5.980   5.550
 3714SOL    HW112041   4.846   5.925   5.601
 3714SOL    HW212042   4.704   5.922   5.519
 3715SOL     OW12043   5.819   3.876   2.595
 3715SOL    HW112044   5.876   3.831   2.527
 3715SOL    HW212045   5.834   3.834   2.685
 3716SOL     OW12046   6.162   6.459   5.250
 3716SOL    HW112047   6.141   6.545   5.203
 3716SOL    HW212048   6.141   6.468   5.347
 3717SOL     OW12049   5.563   5.857   6.840
 3717SOL    HW112050   5.558   5.868   6.939
 3717SOL    HW212051   5.594   5.942   6.799
 3718SOL     OW12052   1.584   0.623   0.259
 3718SOL    HW112053   1.616   0.551   0.199
 3718SOL    HW212054   1.516   0.587   0.323
 3719SOL     OW12055   5.388   4.817   0.814
 3719SOL    HW112056   5.295   4.784   0.799
 3719SOL    HW212057   5.447   4.783   0.741
 3720SOL     OW12058   6.485   2.328   6.351
 3720SOL    HW112059   6.511   2.425   6.355
 3720SOL    HW212060   6.452   2.300   6.441
 3721SOL     OW12061   5.171   4.471   2.014
 3721SOL    HW112062   5.199   4.430   1.927
 3721SOL    HW212063   5.075   4.451   2.032
 3722SOL     OW12064   6.580   6.096   1.147
 3722SOL    HW112065   6.662   6.153   1.143
 3722SOL    HW212066   6.499   6.154   1.156
 3723SOL     OW12067   6.575   6.342   2.008
 3723SOL    HW112068   6.621   6.342   1.919
 3723SOL    HW212069   6.497   6.280   2.004
 3724SOL     OW12070   1.865   4.402   4.894
 3724SOL    HW112071   1.961   4.429   4.897
 3724SOL    HW212072   1.849   4.329   4.961
 3725SOL     OW12073   6.330   5.356   1.112
 3725SOL    HW112074   6.359   5.305   1.193
 3725SOL    HW212075   6.305   5.292   1.039
 3726SOL     OW12076   6.515   4.085   0.920
 3726SOL    HW112077   6.453   4.041   0.855
 3726SOL    HW212078   6.530   4.180   0.892
 3727SOL     OW12079   6.977   1.950   5.580
 3727SOL    HW112080   6.898   1.904   5.619
 3727SOL    HW212081   0.040   1.909   5.616
 3728SOL     OW12082   0.729   4.412   6.952
 3728SOL    HW112083   0.789   4.361   7.013
 3728SOL    HW212084   0.784   4.476   6.897
 3729SOL     OW12085   1.060   2.131   3.558
 3729SOL    HW112086   1.076   2.127   3.459
 3729SOL    HW212087   0.963   2.122   3.576
 3730SOL     OW12088   2.691   5.057   6.308
 3730SOL    HW112089   2.729   4.982   6.362
 3730SOL    HW212090   2.762   5.127   6.294
 3731SOL     OW12091   5.550   0.172   1.088
 3731SOL    HW112092   5.533   0.104   1.017
 3731SOL    HW212093   5.471   0.232   1.097
 3732SOL     OW12094   2.694   1.866   6.021
 3732SOL    HW112095   2.723   1.947   5.970
 3732SOL    HW212096   2.734   1.868   6.112
 3733SOL     OW12097   1.331   3.465   1.891
 3733SOL    HW112098   1.332   3.467   1.791
 3733SOL    HW212099   1.377   3.383   1.924
 3734SOL     OW12100   4.866   1.095   2.035
 3734SOL    HW112101   4.966   1.108   2.036
 3734SOL    HW212102   4.833   1.088   2.129
 3735SOL     OW12103   2.696   0.890   3.531
 3735SOL    HW112104   2.778   0.847   3.494
 3735SOL    HW212105   2.659   0.955   3.464
 3736SOL     OW12106   6.863   2.412   0.634
 3736SOL    HW112107   6.782   2.419   0.692
 3736SOL    HW212108   6.841   2.358   0.553
 3737SOL     OW12109   4.675   0.131   3.352
 3737SOL    HW112110   4.596   0.119   3.412
 3737SOL    HW212111   4.754   0.082   3.390
 3738SOL     OW12112   0.276   6.044   1.950
 3738SOL    HW112113   0.347   5.987   1.910
 3738SOL    HW212114   0.298   6.141   1.934
 3739SOL     OW12115   2.499   4.729   1.537
 3739SOL    HW112116   2.597   4.731   1.519
 3739SOL    HW212117   2.463   4.638   1.518
 3740SOL     OW12118   5.815   0.645   0.490
 3740SOL    HW112119   5.881   0.589   0.541
 3740SOL    HW212120   5.733   0.658   0.546
 3741SOL     OW12121   5.546   2.907   1.676
 3741SOL    HW112122   5.574   2.813   1.655
 3741SOL    HW212123   5.586   2.935   1.763
 3742SOL     OW12124   2.732   2.208   6.723
 3742SOL    HW112125   2.645   2.160   6.720
 3742SOL    HW212126   2.788   2.171   6.797
 3743SOL     OW12127   5.145   3.099   1.078
 3743SOL    HW112128   5.070   3.089   1.012
 3743SOL    HW212129   5.230   3.069   1.036
 3744SOL     OW12130   0.740   6.113   2.888
 3744SOL    HW112131   0.787   6.037   2.933
 3744SOL    HW212132   0.783   6.131   2.799
 3745SOL     OW12133   3.788   4.927   1.901
 3745SOL    HW112134   3.727   4.853   1.928
 3745SOL    HW212135   3.770   4.954   1.807
 3746SOL     OW12136   5.733   0.976   2.881
 3746SOL    HW112137   5.781   1.003   2.797
 3746SOL    HW212138   5.725   1.055   2.942
 3747SOL     OW12139   2.790   0.199   5.409
 3747SOL    HW112140   2.880   0.242   5.400
 3747SOL    HW212141   2.800   0.100   5.403
 3748SOL     OW12142   5.936   0.391   1.659
 3748SOL    HW112143   5.941   0.484   1.623
 3748SOL    HW212144   6.006   0.378   1.730
 3749SOL     OW12145   1.934   6.188   3.886
 3749SOL    HW112146   1.946   6.089   3.877
 3749SOL    HW212147   1.946   6.230   3.796
 3750SOL     OW12148   1.532   4.155   0.613
 3750SOL    HW112149   1.602   4.155   0.685
 3750SOL    HW212150   1.463   4.085   0.634
 3751SOL     OW12151   6.961   3.688   1.939
 3751SOL    HW112152   6.961   3.634   1.855
 3751SOL    HW212153   7.009   3.638   2.012
 3752SOL     OW12154   5.401   0.884   6.627
 3752SOL    HW112155   5.324   0.947   6.623
 3752SOL    HW212156   5.391   0.813   6.557
 3753SOL     OW12157   6.842   0.507   5.768
 3753SOL    HW112158   6.750   0.474   5.790
 3753SOL    HW212159   6.836   0.576   5.697
 3754SOL     OW12160   1.802   0.270   1.217
 3754SOL    HW112161   1.819   0.224   1.304
 3754SOL    HW212162   1.709   0.251   1.187
 3755SOL     OW12163   4.480   5.448   5.164
 3755SOL    HW112164   4.392   5.404   5.184
 3755SOL    HW212165   4.553   5.397   5.209
 3756SOL     OW12166   2.875   5.260   6.071
 3756SOL    HW112167   2.819   5.261   5.989
 3756SOL    HW212168   2.854   5.340   6.127
 3757SOL     OW12169   6.238   5.002   1.924
 3757SOL    HW112170   6.304   4.929   1.914
 3757SOL    HW212171   6.146   4.964   1.931
 3758SOL     OW12172   2.229   1.526   4.789
 3758SOL    HW112173   2.135   1.558   4.805
 3758SOL    HW212174   2.239   1.435   4.830
 3759SOL     OW12175   4.007   0.267   5.917
 3759SOL    HW112176   4.071   0.234   5.986
 3759SOL    HW212177   3.995   0.365   5.926
 3760SOL     OW12178   0.963   1.504   4.121
 3760SOL    HW112179   0.945   1.585   4.065
 3760SOL    HW212180   0.921   1.424   4.078
 3761SOL     OW12181   6.655   1.268   5.615
 3761SOL    HW112182   6.725   1.220   5.668
 3761SOL    HW212183   6.693   1.298   5.528
 3762SOL     OW12184   1.590   4.568   1.030
 3762SOL    HW112185   1.521   4.602   0.966
 3762SOL    HW212186   1.680   4.571   0.987
 3763SOL     OW12187   0.458   3.557   0.030
 3763SOL    HW112188   0.397   3.636   0.032
 3763SOL    HW212189   0.543   3.582   7.005
 3764SOL     OW12190   1.080   6.797   2.212
 3764SOL    HW112191   1.014   6.769   2.281
 3764SOL    HW212192   1.034   6.848   2.140
 3765SOL     OW12193   5.935   1.321   0.956
 3765SOL    HW112194   5.953   1.389   1.027
 3765SOL    HW212195   5.891   1.366   0.878
 3766SOL     OW12196   2.083   2.393   4.305
 3766SOL    HW112197   2.180   2.371   4.303
 3766SOL    HW212198   2.039   2.344   4.380
 3767SOL     OW12199   3.008   4.211   6.852
 3767SOL    HW112200   3.106   4.218   6.867
 3767SOL    HW212201   2.988   4.128   6.800
 3768SOL     OW12202   0.847   6.827   4.734
 3768SOL    HW112203   0.901   6.747   4.761
 3768SOL    HW212204   0.880   6.908   4.781
 3769SOL     OW12205   6.124   5.268   4.875
 3769SOL    HW112206   6.173   5.326   4.940
 3769SOL    HW212207   6.170   5.180   4.866
 3770SOL     OW12208   0.845   0.647   6.879
 3770SOL    HW112209   0.828   0.672   6.974
 3770SOL    HW212210   0.758   0.644   6.830
 3771SOL     OW12211   5.287   4.180   0.148
 3771SOL    HW112212   5.189   4.170   0.167
 3771SOL    HW212213   5.337   4.190   0.234
 3772SOL     OW12214   0.255   0.397   0.268
 3772SOL    HW112215   0.272   0.321   0.205
 3772SOL    HW212216   0.163   0.390   0.305
 3773SOL     OW12217   5.918   3.800   5.366
 3773SOL    HW112218   5.893   3.710   5.403
 3773SOL    HW212219   5.859   3.821   5.288
 3774SOL     OW12220   5.794   5.650   1.604
 3774SOL    HW112221   5.767   5.746   1.616
 3774SOL    HW212222   5.787   5.626   1.507
 3775SOL     OW12223   4.773   5.343   2.720
 3775SOL    HW112224   4.863   5.368   2.684
 3775SOL    HW212225   4.780   5.257   2.771
 3776SOL     OW12226   3.717   2.626   6.886
 3776SOL    HW112227   3.780   2.700   6.910
 3776SOL    HW212228   3.709   2.563   6.963
 3777SOL     OW12229   3.106   4.872   3.221
 3777SOL    HW112230   3.156   4.845   3.303
 3777SOL    HW212231   3.065   4.791   3.179
 3778SOL     OW12232   2.638   5.143   3.119
 3778SOL    HW112233   2.712   5.096   3.168
 3778SOL    HW212234   2.631   5.107   3.026
 3779SOL     OW12235   0.780   4.958   1.081
 3779SOL    HW112236   0.873   4.945   1.115
 3779SOL    HW212237   0.779   5.033   1.015
 3780SOL     OW12238   6.267   4.349   4.702
 3780SOL    HW112239   6.353   4.323   4.659
 3780SOL    HW212240   6.211   4.400   4.637
 3781SOL     OW12241   0.327   6.768   3.641
 3781SOL    HW112242   0.267   6.688   3.626
 3781SOL    HW212243   0.271   6.850   3.646
 3782SOL     OW12244   2.677   0.409   2.788
 3782SOL    HW112245   2.751   0.463   2.828
 3782SOL    HW212246   2.708   0.368   2.703
 3783SOL     OW12247   5.773   5.288   4.150
 3783SOL    HW112248   5.781   5.189   4.142
 3783SOL    HW212249   5.863   5.330   4.135
 3784SOL     OW12250   5.004   2.805   2.763
 3784SOL    HW112251   4.940   2.816   2.839
 3784SOL    HW212252   4.952   2.784   2.680
 3785SOL     OW12253   1.442   3.391   5.063
 3785SOL    HW112254   1.441   3.451   5.143
 3785SOL    HW212255   1.525   3.408   5.010
 3786SOL     OW12256   2.224   4.089   2.931
 3786SOL    HW112257   2.141   4.063   2.882
 3786SOL    HW212258   2.277   4.153   2.876
 3787SOL     OW12259   5.775   0.844   2.203
 3787SOL    HW112260   5.710   0.890   2.143
 3787SOL    HW212261   5.736   0.835   2.294
 3788SOL     OW12262   0.064   4.432   4.917
 3788SOL    HW112263   0.154   4.398   4.941
 3788SOL    HW212264   0.037   4.504   4.981
 3789SOL     OW12265   0.066   3.769   4.069
 3789SOL    HW112266   0.081   3.853   4.016
 3789SOL    HW212267   0.023   3.700   4.010
 3790SOL     OW12268   1.208   4.992   5.721
 3790SOL    HW112269   1.232   4.954   5.632
 3790SOL    HW212270   1.111   4.976   5.739
 3791SOL     OW12271   5.112   1.832   6.698
 3791SOL    HW112272   5.189   1.895   6.688
 3791SOL    HW212273   5.063   1.852   6.783
 3792SOL     OW12274   1.331   1.968   3.321
 3792SOL    HW112275   1.257   1.902   3.324
 3792SOL    HW212276   1.418   1.920   3.306
 3793SOL     OW12277   4.557   6.857   1.837
 3793SOL    HW112278   4.510   6.904   1.763
 3793SOL    HW212279   4.654   6.848   1.815
 3794SOL     OW12280   2.583   2.909   1.708
 3794SOL    HW112281   2.534   2.941   1.627
 3794SOL    HW212282   2.516   2.878   1.777
 3795SOL     OW12283   4.941   5.919   1.071
 3795SOL    HW112284   4.865   5.930   1.007
 3795SOL    HW212285   4.928   5.834   1.122
 3796SOL     OW12286   4.460   1.912   2.750
 3796SOL    HW112287   4.442   1.911   2.849
 3796SOL    HW212288   4.374   1.905   2.700
 3797SOL     OW12289   0.358   3.400   3.116
 3797SOL    HW112290   0.438   3.401   3.175
 3797SOL    HW212291   0.387   3.403   3.020
 3798SOL     OW12292   2.338   6.127   2.456
 3798SOL    HW112293   2.424   6.165   2.421
 3798SOL    HW212294   2.300   6.189   2.525
 3799SOL     OW12295   6.223   2.966   3.584
 3799SOL    HW112296   6.129   2.992   3.561
 3799SOL    HW212297   6.251   2.890   3.525
 3800SOL     OW12298   5.589   1.438   3.784
 3800SOL    HW112299   5.609   1.503   3.711
 3800SOL    HW212300   5.601   1.481   3.873
 3801SOL     OW12301   6.088   6.683   1.951
 3801SOL    HW112302   5.992   6.703   1.929
 3801SOL    HW212303   6.094   6.596   1.999
 3802SOL     OW12304   1.246   2.180   1.525
 3802SOL    HW112305   1.291   2.265   1.552
 3802SOL    HW212306   1.299   2.102   1.559
 3803SOL     OW12307   3.887   3.562   2.941
 3803SOL    HW112308   3.889   3.502   2.862
 3803SOL    HW212309   3.897   3.508   3.025
 3804SOL     OW12310   4.114   1.117   3.273
 3804SOL    HW112311   4.029   1.137   3.321
 3804SOL    HW212312   4.163   1.044   3.320
 3805SOL     OW12313   1.861   3.226   1.747
 3805SOL    HW112314   1.951   3.256   1.778
 3805SOL    HW212315   1.841   3.268   1.658
 3806SOL     OW12316   3.714   3.824   5.723
 3806SOL    HW112317   3.743   3.735   5.686
 3806SOL    HW212318   3.714   3.892   5.651
 3807SOL     OW12319   2.009   5.264   2.915
 3807SOL    HW112320   1.943   5.317   2.969
 3807SOL    HW212321   2.094   5.316   2.908
 3808SOL     OW12322   4.078   1.062   0.317
 3808SOL    HW112323   4.145   1.011   0.371
 3808SOL    HW212324   4.069   1.154   0.353
 3809SOL     OW12325   5.639   2.626   1.436
 3809SOL    HW112326   5.575   2.560   1.476
 3809SOL    HW212327   5.694   2.581   1.365
 3810SOL     OW12328   5.443   2.760   3.724
 3810SOL    HW112329   5.485   2.674   3.695
 3810SOL    HW212330   5.432   2.820   3.645
 3811SOL     OW12331   6.894   6.336   4.602
 3811SOL    HW112332   6.960   6.271   4.639
 3811SOL    HW212333   6.924   6.429   4.624
 3812SOL     OW12334   4.289   5.089   5.047
 3812SOL    HW112335   4.335   5.149   4.982
 3812SOL    HW212336   4.210   5.046   5.004
 3813SOL     OW12337   5.402   3.995   0.002
 3813SOL    HW112338   5.360   4.048   0.075
 3813SOL    HW212339   5.387   3.897   0.019
 3814SOL     OW12340   6.605   0.345   5.547
 3814SOL    HW112341   6.555   0.430   5.562
 3814SOL    HW212342   6.631   0.338   5.451
 3815SOL     OW12343   3.605   1.658   0.827
 3815SOL    HW112344   3.557   1.570   0.828
 3815SOL    HW212345   3.544   1.729   0.862
 3816SOL     OW12346   1.346   5.187   6.396
 3816SOL    HW112347   1.248   5.173   6.416
 3816SOL    HW212348   1.394   5.100   6.404
 3817SOL     OW12349   5.010   3.404   2.283
 3817SOL    HW112350   5.097   3.433   2.245
 3817SOL    HW212351   4.951   3.370   2.210
 3818SOL     OW12352   6.201   1.357   0.203
 3818SOL    HW112353   6.286   1.332   0.250
 3818SOL    HW212354   6.167   1.278   0.152
 3819SOL     OW12355   5.852   5.544   2.632
 3819SOL    HW112356   5.910   5.617   2.668
 3819SOL    HW212357   5.812   5.492   2.708
 3820SOL     OW12358   5.152   0.061   4.004
 3820SOL    HW112359   5.227   0.119   4.036
 3820SOL    HW212360   5.137   7.007   4.069
 3821SOL     OW12361   1.799   0.970   1.844
 3821SOL    HW112362   1.815   0.937   1.937
 3821SOL    HW212363   1.704   0.951   1.819
 3822SOL     OW12364   2.314   6.543   0.530
 3822SOL    HW112365   2.394   6.536   0.471
 3822SOL    HW212366   2.341   6.524   0.625
 3823SOL     OW12367   2.891   3.745   6.094
 3823SOL    HW112368   2.808   3.696   6.120
 3823SOL    HW212369   2.875   3.794   6.008
 3824SOL     OW12370   0.808   2.963   0.383
 3824SOL    HW112371   0.845   3.028   0.316
 3824SOL    HW212372   0.875   2.890   0.398
 3825SOL     OW12373   0.539   5.012   0.418
 3825SOL    HW112374   0.542   5.027   0.319
 3825SOL    HW212375   0.524   4.916   0.437
 3826SOL     OW12376   1.103   3.737   0.648
 3826SOL    HW112377   1.095   3.836   0.661
 3826SOL    HW212378   1.055   3.690   0.722
 3827SOL     OW12379   1.313   1.062   1.837
 3827SOL    HW112380   1.379   1.102   1.773
 3827SOL    HW212381   1.228   1.042   1.789
 3828SOL     OW12382   3.378   3.127   3.738
 3828SOL    HW112383   3.436   3.209   3.746
 3828SOL    HW212384   3.412   3.056   3.799
 3829SOL     OW12385   0.905   4.959   2.427
 3829SOL    HW112386   0.928   5.020   2.503
 3829SOL    HW212387   0.830   4.898   2.455
 3830SOL     OW12388   1.157   0.541   5.277
 3830SOL    HW112389   1.088   0.500   5.217
 3830SOL    HW212390   1.178   0.634   5.246
 3831SOL     OW12391   4.715   2.155   2.991
 3831SOL    HW112392   4.726   2.187   3.085
 3831SOL    HW212393   4.788   2.194   2.934
 3832SOL     OW12394   0.443   0.833   3.110
 3832SOL    HW112395   0.404   0.920   3.081
 3832SOL    HW212396   0.377   0.759   3.095
 3833SOL     OW12397   0.215   5.954   6.655
 3833SOL    HW112398   0.256   5.880   6.707
 3833SOL    HW212399   0.132   5.922   6.610
 3834SOL     OW12400   3.584   4.029   1.071
 3834SOL    HW112401   3.525   3.952   1.095
 3834SOL    HW212402   3.671   3.994   1.036
 3835SOL     OW12403   3.900   5.958   4.664
 3835SOL    HW112404   3.959   5.995   4.737
 3835SOL    HW212405   3.895   6.024   4.589
 3836SOL     OW12406   0.380   4.877   6.011
 3836SOL    HW112407   0.361   4.889   5.914
 3836SOL    HW212408   0.298   4.842   6.057
 3837SOL     OW12409   4.503   4.403   6.528
 3837SOL    HW112410   4.456   4.316   6.509
 3837SOL    HW212411   4.528   4.447   6.442
 3838SOL     OW12412   0.967   3.263   3.596
 3838SOL    HW112413   1.065   3.268   3.581
 3838SOL    HW212414   0.948   3.225   3.686
 3839SOL     OW12415   5.504   1.914   3.108
 3839SOL    HW112416   5.491   1.839   3.173
 3839SOL    HW212417   5.601   1.936   3.101
 3840SOL     OW12418   3.170   1.657   6.629
 3840SOL    HW112419   3.076   1.623   6.623
 3840SOL    HW212420   3.207   1.668   6.537
 3841SOL     OW12421   0.483   3.027   4.700
 3841SOL    HW112422   0.498   3.121   4.670
 3841SOL    HW212423   0.571   2.982   4.713
 3842SOL     OW12424   1.921   2.516   2.212
 3842SOL    HW112425   1.991   2.584   2.236
 3842SOL    HW212426   1.957   2.424   2.225
 3843SOL     OW12427   5.545   4.391   2.770
 3843SOL    HW112428   5.644   4.384   2.778
 3843SOL    HW212429   5.502   4.358   2.854
 3844SOL     OW12430   1.084   2.577   5.338
 3844SOL    HW112431   1.129   2.489   5.326
 3844SOL    HW212432   1.145   2.650   5.305
 3845SOL     OW12433   3.319   4.356   5.662
 3845SOL    HW112434   3.357   4.270   5.629
 3845SOL    HW212435   3.391   4.424   5.669
 3846SOL     OW12436   7.020   5.010   2.946
 3846SOL    HW112437   6.921   5.001   2.934
 3846SOL    HW212438   0.031   5.093   2.901
 3847SOL     OW12439   5.158   2.961   4.220
 3847SOL    HW112440   5.178   2.865   4.203
 3847SOL    HW212441   5.146   2.976   4.318
 3848SOL     OW12442   4.406   4.828   2.610
 3848SOL    HW112443   4.450   4.885   2.679
 3848SOL    HW212444   4.440   4.855   2.519
 3849SOL     OW12445   1.110   1.291   5.765
 3849SOL    HW112446   1.067   1.277   5.676
 3849SOL    HW212447   1.054   1.251   5.837
 3850SOL     OW12448   2.366   3.612   1.640
 3850SOL    HW112449   2.394   3.545   1.710
 3850SOL    HW212450   2.394   3.703   1.669
 3851SOL     OW12451   0.966   4.464   2.492
 3851SOL    HW112452   0.965   4.365   2.482
 3851SOL    HW212453   0.889   4.503   2.442
 3852SOL     OW12454   4.339   6.368   4.173
 3852SOL    HW112455   4.422   6.412   4.207
 3852SOL    HW212456   4.270   6.365   4.246
 3853SOL     OW12457   0.386   4.163   3.828
 3853SOL    HW112458   0.429   4.222   3.896
 3853SOL    HW212459   0.423   4.185   3.737
 3854SOL     OW12460   1.568   2.045   2.675
 3854SOL    HW112461   1.627   2.037   2.755
 3854SOL    HW212462   1.491   1.981   2.684
 3855SOL     OW12463   5.253   6.587   6.261
 3855SOL    HW112464   5.161   6.627   6.269
 3855SOL    HW212465   5.265   6.549   6.170
 3856SOL     OW12466   6.694   0.368   6.360
 3856SOL    HW112467   6.782   0.320   6.359
 3856SOL    HW212468   6.644   0.347   6.276
 3857SOL     OW12469   0.592   6.236   6.985
 3857SOL    HW112470   0.573   6.326   6.946
 3857SOL    HW212471   0.520   6.213   0.030
 3858SOL     OW12472   2.446   0.948   5.681
 3858SOL    HW112473   2.373   0.968   5.615
 3858SOL    HW212474   2.478   1.034   5.722
 3859SOL     OW12475   5.349   1.103   2.128
 3859SOL    HW112476   5.281   1.064   2.066
 3859SOL    HW212477   5.353   1.202   2.114
 3860SOL     OW12478   2.238   1.248   4.920
 3860SOL    HW112479   2.171   1.177   4.896
 3860SOL    HW212480   2.329   1.207   4.925
 3861SOL     OW12481   4.373   5.252   2.993
 3861SOL    HW112482   4.357   5.314   2.917
 3861SOL    HW212483   4.417   5.168   2.959
 3862SOL     OW12484   0.677   0.611   5.230
 3862SOL    HW112485   0.598   0.565   5.189
 3862SOL    HW212486   0.659   0.709   5.235
 3863SOL     OW12487   5.678   2.775   6.996
 3863SOL    HW112488   5.641   2.859   6.955
 3863SOL    HW212489   5.711   2.795   0.068
 3864SOL     OW12490   2.334   0.726   5.340
 3864SOL    HW112491   2.244   0.705   5.303
 3864SOL    HW212492   2.346   0.825   5.345
 3865SOL     OW12493   3.601   0.938   0.259
 3865SOL    HW112494   3.656   0.906   0.337
 3865SOL    HW212495   3.538   0.865   0.231
 3866SOL     OW12496   3.293   0.369   1.168
 3866SOL    HW112497   3.212   0.361   1.226
 3866SOL    HW212498   3.280   0.316   1.085
 3867SOL     OW12499   0.540   5.116   4.024
 3867SOL    HW112500   0.465   5.105   3.959
 3867SOL    HW212501   0.601   5.189   3.992
 3868SOL     OW12502   2.896   6.716   0.407
 3868SOL    HW112503   2.819   6.774   0.432
 3868SOL    HW212504   2.869   6.620   0.417
 3869SOL     OW12505   6.178   4.195   4.908
 3869SOL    HW112506   6.182   4.249   4.824
 3869SOL    HW212507   6.082   4.176   4.930
 3870SOL     OW12508   5.867   5.938   0.245
 3870SOL    HW112509   5.908   6.026   0.223
 3870SOL    HW212510   5.890   5.912   0.339
 3871SOL     OW12511   3.146   0.589   2.593
 3871SOL    HW112512   3.143   0.546   2.683
 3871SOL    HW212513   3.085   0.669   2.592
 3872SOL     OW12514   3.802   2.953   3.860
 3872SOL    HW112515   3.764   2.960   3.952
 3872SOL    HW212516   3.863   2.874   3.855
 3873SOL     OW12517   6.689   2.882   0.982
 3873SOL    HW112518   6.684   2.786   0.955
 3873SOL    HW212519   6.614   2.904   1.043
 3874SOL     OW12520   4.254   6.122   6.719
 3874SOL    HW112521   4.224   6.206   6.675
 3874SOL    HW212522   4.210   6.114   6.809
 3875SOL     OW12523   2.108   3.291   2.496
 3875SOL    HW112524   2.097   3.247   2.585
 3875SOL    HW212525   2.182   3.246   2.445
 3876SOL     OW12526   3.760   5.504   1.188
 3876SOL    HW112527   3.674   5.544   1.219
 3876SOL    HW212528   3.743   5.411   1.154
 3877SOL     OW12529   5.640   2.851   0.807
 3877SOL    HW112530   5.577   2.920   0.771
 3877SOL    HW212531   5.718   2.841   0.746
 3878SOL     OW12532   3.218   0.249   4.290
 3878SOL    HW112533   3.270   0.312   4.232
 3878SOL    HW212534   3.194   0.167   4.237
 3879SOL     OW12535   5.652   5.358   1.332
 3879SOL    HW112536   5.606   5.319   1.412
 3879SOL    HW212537   5.629   5.305   1.251
 3880SOL     OW12538   5.262   4.739   4.571
 3880SOL    HW112539   5.350   4.692   4.562
 3880SOL    HW212540   5.195   4.678   4.613
 3881SOL     OW12541   1.428   3.492   1.608
 3881SOL    HW112542   1.491   3.549   1.555
 3881SOL    HW212543   1.334   3.522   1.592
 3882SOL     OW12544   1.285   1.023   5.712
 3882SOL    HW112545   1.304   0.960   5.787
 3882SOL    HW212546   1.307   1.116   5.741
 3883SOL     OW12547   3.822   0.923   3.223
 3883SOL    HW112548   3.856   0.974   3.144
 3883SOL    HW212549   3.892   0.861   3.256
 3884SOL     OW12550   0.464   5.372   3.355
 3884SOL    HW112551   0.555   5.392   3.319
 3884SOL    HW212552   0.469   5.295   3.420
 3885SOL     OW12553   6.616   0.142   2.885
 3885SOL    HW112554   6.650   0.125   2.792
 3885SOL    HW212555   6.694   0.151   2.947
 3886SOL     OW12556   6.098   5.847   5.212
 3886SOL    HW112557   6.023   5.796   5.253
 3886SOL    HW212558   6.070   5.880   5.121
 3887SOL     OW12559   0.008   0.710   6.241
 3887SOL    HW112560   0.092   0.669   6.206
 3887SOL    HW212561   6.964   0.722   6.167
 3888SOL     OW12562   6.799   0.602   5.298
 3888SOL    HW112563   6.780   0.504   5.310
 3888SOL    HW212564   6.839   0.617   5.208
 3889SOL     OW12565   0.247   3.771   6.217
 3889SOL    HW112566   0.176   3.837   6.193
 3889SOL    HW212567   0.336   3.818   6.219
 3890SOL     OW12568   5.471   5.433   2.775
 3890SOL    HW112569   5.570   5.419   2.776
 3890SOL    HW212570   5.436   5.427   2.869
 3891SOL     OW12571   5.682   4.588   5.018
 3891SOL    HW112572   5.683   4.568   5.116
 3891SOL    HW212573   5.659   4.684   5.004
 3892SOL     OW12574   0.268   2.086   1.362
 3892SOL    HW112575   0.336   2.101   1.434
 3892SOL    HW212576   0.239   2.175   1.326
 3893SOL     OW12577   4.515   3.979   1.142
 3893SOL    HW112578   4.505   4.000   1.239
 3893SOL    HW212579   4.607   4.005   1.112
 3894SOL     OW12580   3.162   1.879   1.605
 3894SOL    HW112581   3.209   1.873   1.517
 3894SOL    HW212582   3.084   1.816   1.605
 3895SOL     OW12583   1.665   0.704   5.768
 3895SOL    HW112584   1.567   0.682   5.767
 3895SOL    HW212585   1.711   0.644   5.833
 3896SOL     OW12586   0.060   0.399   5.849
 3896SOL    HW112587   6.994   0.439   5.818
 3896SOL    HW212588   0.135   0.439   5.798
 3897SOL     OW12589   3.519   5.752   2.451
 3897SOL    HW112590   3.552   5.684   2.516
 3897SOL    HW212591   3.573   5.836   2.462
 3898SOL     OW12592   3.238   3.789   4.733
 3898SOL    HW112593   3.202   3.837   4.813
 3898SOL    HW212594   3.225   3.845   4.651
 3899SOL     OW12595   5.874   0.250   4.812
 3899SOL    HW112596   5.919   0.169   4.850
 3899SOL    HW212597   5.783   0.259   4.851
 3900SOL     OW12598   5.245   2.724   4.180
 3900SOL    HW112599   5.276   2.712   4.086
 3900SOL    HW212600   5.156   2.679   4.192
 3901SOL     OW12601   3.061   0.583   5.621
 3901SOL    HW112602   2.976   0.622   5.586
 3901SOL    HW212603   3.138   0.632   5.582
 3902SOL     OW12604   5.956   3.671   2.229
 3902SOL    HW112605   6.045   3.695   2.191
 3902SOL    HW212606   5.936   3.731   2.306
 3903SOL     OW12607   4.360   5.566   0.095
 3903SOL    HW112608   4.277   5.515   0.118
 3903SOL    HW212609   4.404   5.598   0.178
 3904SOL     OW12610   1.756   0.419   4.787
 3904SOL    HW112611   1.681   0.363   4.821
 3904SOL    HW212612   1.732   0.456   4.697
 3905SOL     OW12613   6.884   6.959   5.714
 3905SOL    HW112614   6.874   0.035   5.692
 3905SOL    HW212615   6.807   6.930   5.772
 3906SOL     OW12616   3.707   5.292   4.835
 3906SOL    HW112617   3.766   5.356   4.785
 3906SOL    HW212618   3.612   5.309   4.812
 3907SOL     OW12619   6.696   6.607   5.451
 3907SOL    HW112620   6.767   6.659   5.499
 3907SOL    HW212621   6.665   6.532   5.509
 3908SOL     OW12622   0.878   0.949   0.308
 3908SOL    HW112623   0.944   0.918   0.376
 3908SOL    HW212624   0.789   0.962   0.352
 3909SOL     OW12625   0.415   5.716   5.419
 3909SOL    HW112626   0.377   5.628   5.390
 3909SOL    HW212627   0.343   5.785   5.418
 3910SOL     OW12628   3.682   3.765   2.079
 3910SOL    HW112629   3.583   3.760   2.089
 3910SOL    HW212630   3.715   3.853   2.113
 3911SOL     OW12631   4.245   1.434   7.004
 3911SOL    HW112632   4.204   1.346   6.983
 3911SOL    HW212633   4.195   1.477   0.058
 3912SOL     OW12634   3.138   0.804   6.304
 3912SOL    HW112635   3.048   0.766   6.326
 3912SOL    HW212636   3.127   0.894   6.261
 3913SOL     OW12637   2.306   5.933   6.186
 3913SOL    HW112638   2.335   6.026   6.163
 3913SOL    HW212639   2.348   5.868   6.123
 3914SOL     OW12640   3.834   1.176   1.090
 3914SOL    HW112641   3.883   1.240   1.148
 3914SOL    HW212642   3.759   1.223   1.044
 3915SOL     OW12643   3.555   6.451   1.690
 3915SOL    HW112644   3.592   6.362   1.667
 3915SOL    HW212645   3.477   6.471   1.630
 3916SOL     OW12646   1.461   6.154   2.865
 3916SOL    HW112647   1.440   6.186   2.958
 3916SOL    HW212648   1.515   6.223   2.818
 3917SOL     OW12649   1.522   4.644   6.722
 3917SOL    HW112650   1.440   4.599   6.686
 3917SOL    HW212651   1.594   4.577   6.735
 3918SOL     OW12652   5.551   6.733   2.556
 3918SOL    HW112653   5.480   6.800   2.576
 3918SOL    HW212654   5.521   6.642   2.587
 3919SOL     OW12655   2.988   6.085   6.652
 3919SOL    HW112656   2.996   5.985   6.657
 3919SOL    HW212657   2.990   6.114   6.557
 3920SOL     OW12658   2.967   2.507   6.744
 3920SOL    HW112659   2.870   2.485   6.756
 3920SOL    HW212660   2.981   2.547   6.653
 3921SOL     OW12661   6.842   3.104   0.893
 3921SOL    HW112662   6.844   3.169   0.969
 3921SOL    HW212663   6.784   3.026   0.916
 3922SOL     OW12664   5.530   4.457   1.367
 3922SOL    HW112665   5.516   4.367   1.409
 3922SOL    HW212666   5.566   4.445   1.274
 3923SOL     OW12667   6.747   1.999   0.600
 3923SOL    HW112668   6.842   1.978   0.621
 3923SOL    HW212669   6.692   1.997   0.684
 3924SOL     OW12670   0.236   5.584   3.111
 3924SOL    HW112671   0.306   5.652   3.127
 3924SOL    HW212672   0.150   5.613   3.154
 3925SOL     OW12673   3.637   4.339   0.805
 3925SOL    HW112674   3.582   4.300   0.879
 3925SOL    HW212675   3.697   4.410   0.843
 3926SOL     OW12676   6.451   5.763   2.578
 3926SOL    HW112677   6.466   5.799   2.486
 3926SOL    HW212678   6.364   5.713   2.581
 3927SOL     OW12679   0.139   3.675   3.774
 3927SOL    HW112680   0.055   3.720   3.743
 3927SOL    HW212681   0.195   3.739   3.825
 3928SOL     OW12682   2.977   5.246   4.881
 3928SOL    HW112683   2.887   5.278   4.854
 3928SOL    HW212684   2.979   5.231   4.979
 3929SOL     OW12685   0.448   1.993   6.612
 3929SOL    HW112686   0.454   1.993   6.712
 3929SOL    HW212687   0.466   1.900   6.579
 3930SOL     OW12688   1.964   1.526   3.863
 3930SOL    HW112689   2.008   1.557   3.947
 3930SOL    HW212690   1.930   1.605   3.812
 3931SOL     OW12691   2.263   1.812   2.820
 3931SOL    HW112692   2.222   1.744   2.759
 3931SOL    HW212693   2.335   1.862   2.771
 3932SOL     OW12694   1.481   4.209   2.908
 3932SOL    HW112695   1.491   4.149   2.987
 3932SOL    HW212696   1.444   4.297   2.936
 3933SOL     OW12697   2.484   6.953   6.603
 3933SOL    HW112698   2.460   6.984   6.695
 3933SOL    HW212699   2.573   6.909   6.605
 3934SOL     OW12700   0.349   0.888   1.223
 3934SOL    HW112701   0.353   0.965   1.158
 3934SOL    HW212702   0.401   0.811   1.185
 3935SOL     OW12703   2.100   6.899   5.768
 3935SOL    HW112704   2.036   6.862   5.835
 3935SOL    HW212705   2.135   6.987   5.801
 3936SOL     OW12706   0.212   5.391   5.719
 3936SOL    HW112707   0.283   5.338   5.765
 3936SOL    HW212708   0.124   5.346   5.729
 3937SOL     OW12709   0.510   0.438   2.253
 3937SOL    HW112710   0.437   0.484   2.303
 3937SOL    HW212711   0.595   0.490   2.264
 3938SOL     OW12712   6.703   2.473   3.970
 3938SOL    HW112713   6.799   2.503   3.966
 3938SOL    HW212714   6.689   2.418   4.052
 3939SOL     OW12715   3.036   1.738   2.554
 3939SOL    HW112716   3.022   1.679   2.634
 3939SOL    HW212717   2.972   1.711   2.482
 3940SOL     OW12718   3.962   4.837   2.139
 3940SOL    HW112719   4.018   4.789   2.071
 3940SOL    HW212720   3.962   4.786   2.225
 3941SOL     OW12721   5.264   1.540   6.407
 3941SOL    HW112722   5.224   1.453   6.378
 3941SOL    HW212723   5.357   1.548   6.370
 3942SOL     OW12724   0.538   6.910   5.344
 3942SOL    HW112725   0.610   6.913   5.275
 3942SOL    HW212726   0.460   6.859   5.309
 3943SOL     OW12727   0.858   3.807   2.682
 3943SOL    HW112728   0.952   3.775   2.677
 3943SOL    HW212729   0.799   3.732   2.712
 3944SOL     OW12730   5.904   4.175   5.891
 3944SOL    HW112731   5.977   4.225   5.938
 3944SOL    HW212732   5.898   4.207   5.796
 3945SOL     OW12733   1.214   2.301   2.113
 3945SOL    HW112734   1.217   2.282   2.015
 3945SOL    HW212735   1.157   2.232   2.158
 3946SOL     OW12736   6.496   4.449   5.987
 3946SOL    HW112737   6.440   4.531   5.975
 3946SOL    HW212738   6.491   4.419   6.082
 3947SOL     OW12739   6.027   5.259   1.806
 3947SOL    HW112740   5.973   5.188   1.852
 3947SOL    HW212741   6.115   5.221   1.778
 3948SOL     OW12742   1.226   4.982   0.980
 3948SOL    HW112743   1.202   5.078   0.967
 3948SOL    HW212744   1.314   4.963   0.937
 3949SOL     OW12745   5.760   0.650   2.643
 3949SOL    HW112746   5.788   0.605   2.558
 3949SOL    HW212747   5.700   0.727   2.622
 3950SOL     OW12748   3.347   3.910   1.757
 3950SOL    HW112749   3.299   3.946   1.838
 3950SOL    HW212750   3.430   3.863   1.787
 3951SOL     OW12751   0.004   6.735   0.116
 3951SOL    HW112752   6.928   6.717   0.099
 3951SOL    HW212753   0.022   6.731   0.214
 3952SOL     OW12754   6.771   4.076   4.311
 3952SOL    HW112755   6.737   4.145   4.247
 3952SOL    HW212756   6.693   4.027   4.351
 3953SOL     OW12757   2.984   4.255   0.655
 3953SOL    HW112758   2.999   4.256   0.556
 3953SOL    HW212759   2.930   4.335   0.681
 3954SOL     OW12760   6.216   5.381   5.792
 3954SOL    HW112761   6.163   5.465   5.806
 3954SOL    HW212762   6.153   5.306   5.773
 3955SOL     OW12763   3.800   6.690   0.035
 3955SOL    HW112764   3.825   6.694   6.959
 3955SOL    HW212765   3.859   6.624   0.081
 3956SOL     OW12766   0.840   2.365   3.265
 3956SOL    HW112767   0.883   2.450   3.297
 3956SOL    HW212768   0.826   2.303   3.342
 3957SOL     OW12769   4.871   6.805   3.221
 3957SOL    HW112770   4.859   6.837   3.127
 3957SOL    HW212771   4.836   6.712   3.230
 3958SOL     OW12772   5.811   0.280   6.208
 3958SOL    HW112773   5.867   0.248   6.131
 3958SOL    HW212774   5.821   0.216   6.284
 3959SOL     OW12775   3.399   6.700   0.950
 3959SOL    HW112776   3.356   6.631   0.892
 3959SOL    HW212777   3.335   6.727   1.022
 3960SOL     OW12778   5.100   1.739   6.446
 3960SOL    HW112779   5.112   1.771   6.539
 3960SOL    HW212780   5.167   1.666   6.427
 3961SOL     OW12781   5.627   2.459   2.145
 3961SOL    HW112782   5.698   2.529   2.137
 3961SOL    HW212783   5.661   2.383   2.199
 3962SOL     OW12784   1.755   5.253   6.594
 3962SOL    HW112785   1.781   5.215   6.505
 3962SOL    HW212786   1.837   5.276   6.646
 3963SOL     OW12787   4.615   4.459   3.832
 3963SOL    HW112788   4.546   4.527   3.806
 3963SOL    HW212789   4.621   4.455   3.932
 3964SOL     OW12790   4.623   4.896   3.689
 3964SOL    HW112791   4.665   4.877   3.601
 3964SOL    HW212792   4.524   4.903   3.678
 3965SOL     OW12793   3.855   3.185   6.007
 3965SOL    HW112794   3.783   3.154   6.069
 3965SOL    HW212795   3.865   3.120   5.932
 3966SOL     OW12796   6.179   5.427   0.360
 3966SOL    HW112797   6.256   5.376   0.323
 3966SOL    HW212798   6.100   5.417   0.300
 3967SOL     OW12799   1.536   3.982   2.645
 3967SOL    HW112800   1.580   4.068   2.621
 3967SOL    HW212801   1.602   3.921   2.690
 3968SOL     OW12802   6.592   0.070   1.380
 3968SOL    HW112803   6.630   0.162   1.392
 3968SOL    HW212804   6.585   0.049   1.283
 3969SOL     OW12805   1.503   3.568   2.356
 3969SOL    HW112806   1.501   3.594   2.259
 3969SOL    HW212807   1.455   3.636   2.410
 3970SOL     OW12808   5.222   5.408   3.852
 3970SOL    HW112809   5.304   5.454   3.887
 3970SOL    HW212810   5.216   5.316   3.892
 3971SOL     OW12811   2.711   4.996   2.116
 3971SOL    HW112812   2.779   4.924   2.104
 3971SOL    HW212813   2.622   4.954   2.138
 3972SOL     OW12814   1.650   5.648   0.836
 3972SOL    HW112815   1.736   5.676   0.794
 3972SOL    HW212816   1.624   5.714   0.907
 3973SOL     OW12817   1.490   4.265   5.516
 3973SOL    HW112818   1.442   4.261   5.428
 3973SOL    HW212819   1.444   4.331   5.576
 3974SOL     OW12820   0.927   0.084   5.319
 3974SOL    HW112821   0.953   0.178   5.297
 3974SOL    HW212822   0.830   0.080   5.340
 3975SOL     OW12823   5.349   0.445   5.975
 3975SOL    HW112824   5.352   0.529   6.030
 3975SOL    HW212825   5.437   0.399   5.979
 3976SOL     OW12826   1.417   5.216   1.648
 3976SOL    HW112827   1.401   5.294   1.708
 3976SOL    HW212828   1.338   5.202   1.590
 3977SOL     OW12829   3.161   4.567   5.459
 3977SOL    HW112830   3.126   4.498   5.396
 3977SOL    HW212831   3.106   4.567   5.542
 3978SOL     OW12832   5.163   0.105   4.509
 3978SOL    HW112833   5.257   0.135   4.528
 3978SOL    HW212834   5.151   0.011   4.541
 3979SOL     OW12835   2.762   5.972   1.910
 3979SOL    HW112836   2.706   5.958   1.828
 3979SOL    HW212837   2.826   5.896   1.920
 3980SOL     OW12838   0.538   5.136   6.550
 3980SOL    HW112839   0.533   5.070   6.625
 3980SOL    HW212840   0.615   5.197   6.564
 3981SOL     OW12841   1.825   1.601   6.069
 3981SOL    HW112842   1.855   1.554   5.986
 3981SOL    HW212843   1.880   1.570   6.146
 3982SOL     OW12844   2.039   0.600   4.276
 3982SOL    HW112845   2.059   0.513   4.321
 3982SOL    HW212846   2.078   0.601   4.184
 3983SOL     OW12847   4.456   5.198   3.905
 3983SOL    HW112848   4.456   5.274   3.970
 3983SOL    HW212849   4.520   5.128   3.935
 3984SOL     OW12850   1.117   0.518   2.808
 3984SOL    HW112851   1.190   0.483   2.750
 3984SOL    HW212852   1.128   0.482   2.901
 3985SOL     OW12853   3.917   4.583   6.279
 3985SOL    HW112854   3.919   4.483   6.281
 3985SOL    HW212855   3.982   4.617   6.211
 3986SOL     OW12856   6.751   2.263   2.780
 3986SOL    HW112857   6.815   2.248   2.705
 3986SOL    HW212858   6.738   2.178   2.830
 3987SOL     OW12859   3.125   5.602   4.070
 3987SOL    HW112860   3.202   5.559   4.022
 3987SOL    HW212861   3.091   5.539   4.140
 3988SOL     OW12862   3.757   3.389   6.524
 3988SOL    HW112863   3.843   3.385   6.473
 3988SOL    HW212864   3.680   3.391   6.459
 3989SOL     OW12865   6.573   1.879   0.128
 3989SOL    HW112866   6.503   1.819   0.166
 3989SOL    HW212867   6.631   1.914   0.201
 3990SOL     OW12868   5.366   2.330   2.964
 3990SOL    HW112869   5.350   2.359   2.870
 3990SOL    HW212870   5.452   2.279   2.969
 3991SOL     OW12871   5.639   1.190   1.728
 3991SOL    HW112872   5.639   1.110   1.669
 3991SOL    HW212873   5.727   1.196   1.776
 3992SOL     OW12874   3.988   2.290   7.003
 3992SOL    HW112875   3.943   2.315   6.917
 3992SOL    HW212876   4.021   2.196   6.997
 3993SOL     OW12877   0.386   2.743   3.027
 3993SOL    HW112878   0.385   2.670   2.958
 3993SOL    HW212879   0.325   2.718   3.102
 3994SOL     OW12880   0.961   1.579   6.697
 3994SOL    HW112881   0.894   1.526   6.750
 3994SOL    HW212882   0.941   1.570   6.600
 3995SOL     OW12883   1.914   3.787   3.891
 3995SOL    HW112884   1.894   3.761   3.985
 3995SOL    HW212885   2.004   3.752   3.865
 3996SOL     OW12886   0.694   1.199   4.804
 3996SOL    HW112887   0.676   1.102   4.794
 3996SOL    HW212888   0.750   1.231   4.728
 3997SOL     OW12889   4.783   2.429   3.599
 3997SOL    HW112890   4.843   2.442   3.521
 3997SOL    HW212891   4.797   2.503   3.665
 3998SOL     OW12892   4.136   1.213   2.481
 3998SOL    HW112893   4.222   1.265   2.478
 3998SOL    HW212894   4.086   1.237   2.565
 3999SOL     OW12895   5.351   3.341   3.974
 3999SOL    HW112896   5.340   3.267   4.039
 3999SOL    HW212897   5.415   3.409   4.012
 4000SOL     OW12898   2.877   4.727   3.054
 4000SOL    HW112899   2.805   4.722   2.985
 4000SOL    HW212900   2.836   4.739   3.145
 4001SOL     OW12901   2.344   2.140   4.115
 4001SOL    HW112902   2.381   2.103   4.030
 4001SOL    HW212903   2.337   2.066   4.183
 4002SOL     OW12904   3.079   2.467   0.336
 4002SOL    HW112905   3.149   2.480   0.267
 4002SOL    HW212906   3.122   2.453   0.425
 4003SOL     OW12907   2.733   6.618   5.029
 4003SOL    HW112908   2.760   6.713   5.048
 4003SOL    HW212909   2.684   6.582   5.108
 4004SOL     OW12910   6.009   1.962   4.080
 4004SOL    HW112911   6.013   1.928   4.175
 4004SOL    HW212912   5.916   1.948   4.045
 4005SOL     OW12913   5.753   5.590   0.866
 4005SOL    HW112914   5.746   5.682   0.828
 4005SOL    HW212915   5.796   5.530   0.799
 4006SOL     OW12916   3.928   5.117   2.336
 4006SOL    HW112917   3.987   5.068   2.400
 4006SOL    HW212918   3.873   5.184   2.386
 4007SOL     OW12919   0.984   3.197   1.524
 4007SOL    HW112920   0.963   3.127   1.455
 4007SOL    HW212921   0.970   3.288   1.485
 4008SOL     OW12922   4.010   2.216   4.390
 4008SOL    HW112923   3.991   2.307   4.352
 4008SOL    HW212924   4.086   2.175   4.340
 4009SOL     OW12925   5.136   3.108   0.292
 4009SOL    HW112926   5.088   3.196   0.298
 4009SOL    HW212927   5.113   3.064   0.206
 4010SOL     OW12928   2.433   3.248   1.239
 4010SOL    HW112929   2.402   3.153   1.245
 4010SOL    HW212930   2.389   3.302   1.310
 4011SOL     OW12931   0.718   0.778   1.402
 4011SOL    HW112932   0.642   0.842   1.391
 4011SOL    HW212933   0.803   0.821   1.371
 4012SOL     OW12934   4.429   5.297   1.884
 4012SOL    HW112935   4.421   5.241   1.802
 4012SOL    HW212936   4.525   5.320   1.901
 4013SOL     OW12937   2.820   0.179   0.411
 4013SOL    HW112938   2.797   0.269   0.377
 4013SOL    HW212939   2.862   0.187   0.502
 4014SOL     OW12940   4.065   5.963   3.179
 4014SOL    HW112941   4.075   5.864   3.188
 4014SOL    HW212942   4.001   5.996   3.248
 4015SOL     OW12943   4.378   5.751   6.202
 4015SOL    HW112944   4.328   5.752   6.289
 4015SOL    HW212945   4.474   5.769   6.219
 4016SOL     OW12946   1.791   5.847   6.180
 4016SOL    HW112947   1.715   5.843   6.115
 4016SOL    HW212948   1.841   5.761   6.178
 4017SOL     OW12949   0.026   6.454   0.438
 4017SOL    HW112950   0.077   6.383   0.390
 4017SOL    HW212951   6.957   6.418   0.465
 4018SOL     OW12952   5.707   6.776   2.213
 4018SOL    HW112953   5.611   6.785   2.189
 4018SOL    HW212954   5.723   6.821   2.301
 4019SOL     OW12955   6.071   3.400   3.024
 4019SOL    HW112956   6.095   3.497   3.037
 4019SOL    HW212957   6.125   3.344   3.087
 4020SOL     OW12958   5.708   2.386   5.088
 4020SOL    HW112959   5.757   2.314   5.039
 4020SOL    HW212960   5.625   2.411   5.037
 4021SOL     OW12961   3.172   3.426   5.426
 4021SOL    HW112962   3.153   3.505   5.485
 4021SOL    HW212963   3.204   3.349   5.482
 4022SOL     OW12964   4.749   0.272   0.284
 4022SOL    HW112965   4.674   0.336   0.300
 4022SOL    HW212966   4.713   0.179   0.273
 4023SOL     OW12967   6.596   1.798   5.235
 4023SOL    HW112968   6.593   1.792   5.135
 4023SOL    HW212969   6.511   1.761   5.272
 4024SOL     OW12970   3.017   5.242   3.930
 4024SOL    HW112971   2.963   5.266   4.011
 4024SOL    HW212972   3.005   5.145   3.909
 4025SOL     OW12973   0.899   6.165   4.535
 4025SOL    HW112974   0.830   6.116   4.589
 4025SOL    HW212975   0.857   6.203   4.453
 4026SOL     OW12976   6.169   5.993   3.779
 4026SOL    HW112977   6.120   5.936   3.846
 4026SOL    HW212978   6.158   5.954   3.688
 4027SOL     OW12979   3.331   3.988   2.240
 4027SOL    HW112980   3.243   3.996   2.193
 4027SOL    HW212981   3.316   3.955   2.333
 4028SOL     OW12982   1.432   2.324   3.962
 4028SOL    HW112983   1.466   2.237   3.926
 4028SOL    HW212984   1.458   2.398   3.900
 4029SOL     OW12985   2.512   4.290   6.598
 4029SOL    HW112986   2.527   4.264   6.503
 4029SOL    HW212987   2.470   4.381   6.602
 4030SOL     OW12988   1.717   1.691   6.397
 4030SOL    HW112989   1.765   1.633   6.463
 4030SOL    HW212990   1.684   1.635   6.321
 4031SOL     OW12991   4.330   5.901   2.970
 4031SOL    HW112992   4.423   5.885   2.936
 4031SOL    HW212993   4.326   5.991   3.014
 4032SOL     OW12994   6.091   0.450   2.835
 4032SOL    HW112995   6.131   0.392   2.764
 4032SOL    HW212996   6.056   0.393   2.909
 4033SOL     OW12997   2.929   3.393   2.835
 4033SOL    HW112998   2.908   3.427   2.743
 4033SOL    HW212999   3.023   3.417   2.860
 4034SOL     OW13000   6.219   1.835   4.855
 4034SOL    HW113001   6.220   1.929   4.819
 4034SOL    HW213002   6.147   1.827   4.924
 4035SOL     OW13003   0.106   3.105   0.824
 4035SOL    HW113004   0.014   3.136   0.850
 4035SOL    HW213005   0.129   3.142   0.734
 4036SOL     OW13006   5.686   7.003   2.924
 4036SOL    HW113007   5.717   0.020   3.011
 4036SOL    HW213008   5.587   6.992   2.925
 4037SOL     OW13009   2.126   2.219   0.323
 4037SOL    HW113010   2.176   2.150   0.272
 4037SOL    HW213011   2.069   2.272   0.261
 4038SOL     OW13012   4.902   4.649   1.772
 4038SOL    HW113013   4.903   4.619   1.867
 4038SOL    HW213014   4.816   4.623   1.729
 4039SOL     OW13015   5.171   4.989   1.293
 4039SOL    HW113016   5.205   5.081   1.313
 4039SOL    HW213017   5.248   4.929   1.272
 4040SOL     OW13018   3.096   6.959   6.403
 4040SOL    HW113019   3.185   6.991   6.434
 4040SOL    HW213020   3.105   6.866   6.367
 4041SOL     OW13021   1.857   5.601   1.605
 4041SOL    HW113022   1.945   5.560   1.628
 4041SOL    HW213023   1.871   5.691   1.564
 4042SOL     OW13024   6.035   4.681   2.820
 4042SOL    HW113025   5.953   4.731   2.848
 4042SOL    HW213026   6.068   4.626   2.897
 4043SOL     OW13027   5.044   2.290   4.489
 4043SOL    HW113028   5.119   2.272   4.426
 4043SOL    HW213029   5.081   2.304   4.581
 4044SOL     OW13030   4.511   0.290   4.280
 4044SOL    HW113031   4.464   0.281   4.368
 4044SOL    HW213032   4.487   0.378   4.238
 4045SOL     OW13033   2.776   4.395   6.371
 4045SOL    HW113034   2.744   4.490   6.367
 4045SOL    HW213035   2.704   4.334   6.336
 4046SOL     OW13036   0.742   1.351   3.597
 4046SOL    HW113037   0.688   1.283   3.646
 4046SOL    HW213038   0.813   1.306   3.543
 4047SOL     OW13039   2.998   2.573   1.230
 4047SOL    HW113040   3.097   2.580   1.221
 4047SOL    HW213041   2.967   2.485   1.194
 4048SOL     OW13042   5.570   1.331   2.010
 4048SOL    HW113043   5.627   1.288   1.940
 4048SOL    HW213044   5.627   1.389   2.069
 4049SOL     OW13045   6.235   6.105   6.659
 4049SOL    HW113046   6.266   6.025   6.710
 4049SOL    HW213047   6.190   6.170   6.721
 4050SOL     OW13048   1.945   6.538   0.600
 4050SOL    HW113049   1.971   6.468   0.533
 4050SOL    HW213050   1.919   6.493   0.686
 4051SOL     OW13051   4.006   3.004   0.040
 4051SOL    HW113052   3.977   2.980   0.132
 4051SOL    HW213053   3.927   3.006   7.000
 4052SOL     OW13054   0.770   0.595   1.594
 4052SOL    HW113055   0.758   0.663   1.522
 4052SOL    HW213056   0.703   0.610   1.667
 4053SOL     OW13057   3.547   4.889   3.906
 4053SOL    HW113058   3.455   4.879   3.945
 4053SOL    HW213059   3.576   4.802   3.867
 4054SOL     OW13060   1.284   2.832   1.234
 4054SOL    HW113061   1.201   2.790   1.198
 4054SOL    HW213062   1.298   2.803   1.329
 4055SOL     OW13063   3.099   3.801   5.770
 4055SOL    HW113064   3.013   3.848   5.792
 4055SOL    HW213065   3.148   3.851   5.699
 4056SOL     OW13066   4.393   2.519   6.960
 4056SOL    HW113067   4.431   2.480   0.023
 4056SOL    HW213068   4.466   2.531   6.893
 4057SOL     OW13069   5.372   2.736   6.676
 4057SOL    HW113070   5.278   2.718   6.645
 4057SOL    HW213071   5.376   2.728   6.776
 4058SOL     OW13072   1.583   1.608   4.840
 4058SOL    HW113073   1.488   1.638   4.834
 4058SOL    HW213074   1.633   1.637   4.757
 4059SOL     OW13075   1.829   2.460   3.281
 4059SOL    HW113076   1.926   2.441   3.269
 4059SOL    HW213077   1.780   2.441   3.196
 4060SOL     OW13078   4.191   5.462   5.179
 4060SOL    HW113079   4.226   5.553   5.199
 4060SOL    HW213080   4.106   5.469   5.126
 4061SOL     OW13081   3.389   4.818   1.713
 4061SOL    HW113082   3.461   4.766   1.760
 4061SOL    HW213083   3.429   4.871   1.639
 4062SOL     OW13084   3.289   1.677   3.129
 4062SOL    HW113085   3.323   1.670   3.223
 4062SOL    HW213086   3.348   1.738   3.077
 4063SOL     OW13087   4.977   0.062   5.277
 4063SOL    HW113088   5.027   0.060   5.191
 4063SOL    HW213089   4.880   0.072   5.259
 4064SOL     OW13090   1.821   0.075   3.356
 4064SOL    HW113091   1.793   7.014   3.307
 4064SOL    HW213092   1.759   0.150   3.334
 4065SOL     OW13093   1.586   6.795   0.173
 4065SOL    HW113094   1.531   6.755   0.246
 4065SOL    HW213095   1.569   6.893   0.169
 4066SOL     OW13096   4.990   4.780   2.674
 4066SOL    HW113097   4.897   4.755   2.700
 4066SOL    HW213098   4.989   4.864   2.621
 4067SOL     OW13099   6.057   2.982   2.207
 4067SOL    HW113100   6.088   2.998   2.113
 4067SOL    HW213101   6.012   3.064   2.242
 4068SOL     OW13102   4.238   0.526   4.793
 4068SOL    HW113103   4.195   0.438   4.774
 4068SOL    HW213104   4.292   0.555   4.714
 4069SOL     OW13105   4.048   3.414   6.773
 4069SOL    HW113106   4.046   3.375   6.865
 4069SOL    HW213107   4.094   3.503   6.776
 4070SOL     OW13108   1.285   3.429   2.866
 4070SOL    HW113109   1.258   3.368   2.940
 4070SOL    HW213110   1.236   3.404   2.782
 4071SOL     OW13111   1.229   0.987   4.759
 4071SOL    HW113112   1.249   0.981   4.661
 4071SOL    HW213113   1.225   0.895   4.797
 4072SOL     OW13114   0.786   6.468   3.744
 4072SOL    HW113115   0.712   6.462   3.676
 4072SOL    HW213116   0.789   6.561   3.782
 4073SOL     OW13117   2.396   5.434   5.675
 4073SOL    HW113118   2.398   5.371   5.753
 4073SOL    HW213119   2.372   5.384   5.592
 4074SOL     OW13120   1.123   2.502   2.411
 4074SOL    HW113121   1.114   2.559   2.493
 4074SOL    HW213122   1.215   2.465   2.406
 4075SOL     OW13123   4.959   2.475   2.700
 4075SOL    HW113124   4.972   2.505   2.794
 4075SOL    HW213125   5.046   2.476   2.652
 4076SOL     OW13126   1.984   3.888   6.054
 4076SOL    HW113127   1.928   3.813   6.019
 4076SOL    HW213128   1.987   3.884   6.154
 4077SOL     OW13129   3.143   6.543   0.554
 4077SOL    HW113130   3.075   6.513   0.620
 4077SOL    HW213131   3.152   6.474   0.481
 4078SOL     OW13132   6.473   5.390   2.036
 4078SOL    HW113133   6.437   5.483   2.026
 4078SOL    HW213134   6.435   5.349   2.119
 4079SOL     OW13135   1.353   1.178   3.475
 4079SOL    HW113136   1.361   1.240   3.553
 4079SOL    HW213137   1.442   1.135   3.458
 4080SOL     OW13138   2.661   2.918   0.322
 4080SOL    HW113139   2.609   2.850   0.374
 4080SOL    HW213140   2.620   2.930   0.232
 4081SOL     OW13141   1.957   1.154   4.284
 4081SOL    HW113142   1.864   1.190   4.277
 4081SOL    HW213143   1.970   1.083   4.215
 4082SOL     OW13144   1.848   1.741   0.490
 4082SOL    HW113145   1.831   1.645   0.512
 4082SOL    HW213146   1.820   1.798   0.567
 4083SOL     OW13147   5.948   4.181   3.646
 4083SOL    HW113148   6.031   4.127   3.638
 4083SOL    HW213149   5.961   4.253   3.714
 4084SOL     OW13150   5.222   3.018   3.210
 4084SOL    HW113151   5.274   2.997   3.127
 4084SOL    HW213152   5.157   2.944   3.228
 4085SOL     OW13153   2.972   5.454   0.298
 4085SOL    HW113154   2.876   5.478   0.290
 4085SOL    HW213155   2.982   5.374   0.358
 4086SOL     OW13156   0.494   4.739   0.439
 4086SOL    HW113157   0.490   4.691   0.527
 4086SOL    HW213158   0.559   4.693   0.379
 4087SOL     OW13159   2.500   1.033   2.455
 4087SOL    HW113160   2.452   1.094   2.518
 4087SOL    HW213161   2.439   1.008   2.379
 4088SOL     OW13162   6.255   0.881   5.579
 4088SOL    HW113163   6.284   0.801   5.631
 4088SOL    HW213164   6.293   0.876   5.486
 4089SOL     OW13165   6.769   5.740   4.438
 4089SOL    HW113166   6.676   5.724   4.472
 4089SOL    HW213167   6.801   5.659   4.390
 4090SOL     OW13168   1.676   5.715   5.140
 4090SOL    HW113169   1.619   5.633   5.126
 4090SOL    HW213170   1.732   5.702   5.222
 4091SOL     OW13171   0.883   5.672   6.911
 4091SOL    HW113172   0.943   5.749   6.890
 4091SOL    HW213173   0.788   5.702   6.911
 4092SOL     OW13174   5.679   2.760   4.111
 4092SOL    HW113175   5.775   2.777   4.089
 4092SOL    HW213176   5.672   2.683   4.175
 4093SOL     OW13177   5.507   6.511   1.532
 4093SOL    HW113178   5.559   6.571   1.472
 4093SOL    HW213179   5.491   6.557   1.619
 4094SOL     OW13180   1.243   4.903   6.395
 4094SOL    HW113181   1.162   4.910   6.455
 4094SOL    HW213182   1.325   4.899   6.452
 4095SOL     OW13183   0.962   3.575   0.276
 4095SOL    HW113184   0.899   3.603   0.203
 4095SOL    HW213185   0.923   3.600   0.364
 4096SOL     OW13186   2.607   0.993   6.035
 4096SOL    HW113187   2.582   1.008   6.130
 4096SOL    HW213188   2.558   1.058   5.977
 4097SOL     OW13189   6.014   4.823   5.280
 4097SOL    HW113190   6.067   4.898   5.240
 4097SOL    HW213191   5.987   4.847   5.373
 4098SOL     OW13192   1.582   3.180   1.105
 4098SOL    HW113193   1.486   3.206   1.116
 4098SOL    HW213194   1.591   3.081   1.109
 4099SOL     OW13195   2.871   4.831   0.161
 4099SOL    HW113196   2.936   4.755   0.153
 4099SOL    HW213197   2.903   4.908   0.107
 4100SOL     OW13198   1.208   0.908   4.111
 4100SOL    HW113199   1.187   0.915   4.209
 4100SOL    HW213200   1.300   0.871   4.099
 4101SOL     OW13201   0.529   1.242   6.587
 4101SOL    HW113202   0.430   1.250   6.597
 4101SOL    HW213203   0.569   1.206   6.671
 4102SOL     OW13204   1.716   0.571   0.508
 4102SOL    HW113205   1.749   0.480   0.530
 4102SOL    HW213206   1.668   0.570   0.420
 4103SOL     OW13207   6.877   6.564   1.964
 4103SOL    HW113208   6.939   6.544   1.887
 4103SOL    HW213209   6.876   6.485   2.026
 4104SOL     OW13210   0.532   5.280   3.726
 4104SOL    HW113211   0.498   5.251   3.636
 4104SOL    HW213212   0.623   5.322   3.715
 4105SOL     OW13213   5.353   0.598   2.327
 4105SOL    HW113214   5.321   0.615   2.420
 4105SOL    HW213215   5.324   0.507   2.298
 4106SOL     OW13216   0.812   1.824   3.648
 4106SOL    HW113217   0.713   1.827   3.637
 4106SOL    HW213218   0.851   1.752   3.590
 4107SOL     OW13219   1.629   5.898   0.183
 4107SOL    HW113220   1.573   5.961   0.238
 4107SOL    HW213221   1.582   5.810   0.174
 4108SOL     OW13222   6.843   5.022   4.663
 4108SOL    HW113223   6.942   5.015   4.656
 4108SOL    HW213224   6.811   5.100   4.609
 4109SOL     OW13225   5.562   6.578   4.543
 4109SOL    HW113226   5.534   6.576   4.639
 4109SOL    HW213227   5.521   6.658   4.498
 4110SOL     OW13228   3.791   3.002   6.354
 4110SOL    HW113229   3.730   2.933   6.392
 4110SOL    HW213230   3.739   3.068   6.300
 4111SOL     OW13231   6.095   5.037   6.455
 4111SOL    HW113232   6.060   5.038   6.361
 4111SOL    HW213233   6.187   4.997   6.455
 4112SOL     OW13234   4.730   6.705   4.364
 4112SOL    HW113235   4.678   6.723   4.448
 4112SOL    HW213236   4.727   6.785   4.305
 4113SOL     OW13237   4.639   5.775   4.777
 4113SOL    HW113238   4.585   5.713   4.834
 4113SOL    HW213239   4.721   5.804   4.827
 4114SOL     OW13240   6.814   1.695   3.058
 4114SOL    HW113241   6.808   1.697   2.958
 4114SOL    HW213242   6.882   1.762   3.089
 4115SOL     OW13243   3.138   5.137   3.636
 4115SOL    HW113244   3.177   5.195   3.707
 4115SOL    HW213245   3.044   5.168   3.615
 4116SOL     OW13246   4.547   1.786   3.444
 4116SOL    HW113247   4.627   1.727   3.457
 4116SOL    HW213248   4.474   1.757   3.506
 4117SOL     OW13249   1.053   2.403   3.646
 4117SOL    HW113250   1.022   2.314   3.612
 4117SOL    HW213251   1.133   2.389   3.705
 4118SOL     OW13252   5.232   6.601   6.627
 4118SOL    HW113253   5.208   6.672   6.560
 4118SOL    HW213254   5.272   6.643   6.708
 4119SOL     OW13255   2.972   1.529   3.349
 4119SOL    HW113256   3.023   1.464   3.405
 4119SOL    HW213257   2.886   1.551   3.394
 4120SOL     OW13258   3.384   1.322   5.768
 4120SOL    HW113259   3.318   1.294   5.698
 4120SOL    HW213260   3.375   1.263   5.848
 4121SOL     OW13261   6.246   0.231   3.152
 4121SOL    HW113262   6.288   0.313   3.113
 4121SOL    HW213263   6.304   0.152   3.135
 4122SOL     OW13264   2.048   6.389   4.653
 4122SOL    HW113265   2.096   6.302   4.639
 4122SOL    HW213266   2.089   6.438   4.729
 4123SOL     OW13267   4.200   4.769   4.182
 4123SOL    HW113268   4.205   4.777   4.282
 4123SOL    HW213269   4.178   4.674   4.158
 4124SOL     OW13270   6.744   6.969   1.177
 4124SOL    HW113271   6.791   7.009   1.256
 4124SOL    HW213272   6.767   6.871   1.172
 4125SOL     OW13273   4.508   2.189   2.714
 4125SOL    HW113274   4.507   2.090   2.732
 4125SOL    HW213275   4.417   2.226   2.731
 4126SOL     OW13276   2.006   3.261   3.052
 4126SOL    HW113277   1.909   3.284   3.057
 4126SOL    HW213278   2.022   3.197   2.977
 4127SOL     OW13279   5.593   2.791   4.998
 4127SOL    HW113280   5.552   2.818   5.085
 4127SOL    HW213281   5.628   2.872   4.952
 4128SOL     OW13282   0.851   3.473   1.348
 4128SOL    HW113283   0.946   3.464   1.318
 4128SOL    HW213284   0.808   3.548   1.297
 4129SOL     OW13285   3.161   1.338   0.283
 4129SOL    HW113286   3.072   1.374   0.256
 4129SOL    HW213287   3.201   1.286   0.207
 4130SOL     OW13288   5.974   2.184   0.612
 4130SOL    HW113289   5.976   2.193   0.513
 4130SOL    HW213290   5.997   2.090   0.637
 4131SOL     OW13291   0.370   1.388   2.892
 4131SOL    HW113292   0.289   1.396   2.833
 4131SOL    HW213293   0.373   1.464   2.956
 4132SOL     OW13294   5.059   3.841   4.551
 4132SOL    HW113295   5.056   3.763   4.488
 4132SOL    HW213296   4.966   3.863   4.581
 4133SOL     OW13297   4.078   6.029   1.655
 4133SOL    HW113298   4.008   6.074   1.710
 4133SOL    HW213299   4.099   5.939   1.694
 4134SOL     OW13300   2.177   3.967   0.678
 4134SOL    HW113301   2.115   3.908   0.729
 4134SOL    HW213302   2.240   3.911   0.623
 4135SOL     OW13303   0.482   2.606   2.165
 4135SOL    HW113304   0.417   2.572   2.233
 4135SOL    HW213305   0.551   2.663   2.209
 4136SOL     OW13306   0.999   3.588   2.559
 4136SOL    HW113307   1.055   3.558   2.482
 4136SOL    HW213308   1.057   3.629   2.630
 4137SOL     OW13309   1.950   3.717   0.527
 4137SOL    HW113310   1.853   3.695   0.512
 4137SOL    HW213311   1.957   3.793   0.592
 4138SOL     OW13312   3.423   5.158   2.285
 4138SOL    HW113313   3.493   5.093   2.255
 4138SOL    HW213314   3.378   5.197   2.205
 4139SOL     OW13315   1.489   1.484   3.914
 4139SOL    HW113316   1.420   1.430   3.960
 4139SOL    HW213317   1.445   1.550   3.853
 4140SOL     OW13318   3.525   1.761   4.228
 4140SOL    HW113319   3.449   1.696   4.227
 4140SOL    HW213320   3.611   1.710   4.223
 4141SOL     OW13321   5.466   6.939   0.936
 4141SOL    HW113322   5.453   6.875   0.860
 4141SOL    HW213323   5.454   6.891   1.023
 4142SOL     OW13324   6.276   3.671   1.432
 4142SOL    HW113325   6.289   3.703   1.338
 4142SOL    HW213326   6.252   3.749   1.490
 4143SOL     OW13327   5.681   2.590   0.261
 4143SOL    HW113328   5.701   2.687   0.277
 4143SOL    HW213329   5.597   2.565   0.309
 4144SOL     OW13330   4.716   1.520   0.387
 4144SOL    HW113331   4.785   1.583   0.351
 4144SOL    HW213332   4.656   1.491   0.314
 4145SOL     OW13333   1.228   6.017   0.195
 4145SOL    HW113334   1.265   5.931   0.229
 4145SOL    HW213335   1.245   6.024   0.096
 4146SOL     OW13336   6.582   0.603   3.503
 4146SOL    HW113337   6.673   0.643   3.513
 4146SOL    HW213338   6.527   0.622   3.585
 4147SOL     OW13339   4.573   4.534   6.302
 4147SOL    HW113340   4.650   4.598   6.295
 4147SOL    HW213341   4.503   4.558   6.235
 4148SOL     OW13342   2.712   0.512   5.267
 4148SOL    HW113343   2.811   0.506   5.249
 4148SOL    HW213344   2.698   0.530   5.365
 4149SOL     OW13345   0.326   3.646   1.509
 4149SOL    HW113346   0.250   3.675   1.451
 4149SOL    HW213347   0.413   3.672   1.466
 4150SOL     OW13348   0.064   1.434   5.351
 4150SOL    HW113349   0.018   1.472   5.271
 4150SOL    HW213350   0.159   1.411   5.327
 4151SOL     OW13351   2.898   6.095   6.026
 4151SOL    HW113352   2.854   6.082   6.115
 4151SOL    HW213353   2.888   6.012   5.971
 4152SOL     OW13354   3.961   5.664   1.035
 4152SOL    HW113355   4.044   5.608   1.030
 4152SOL    HW213356   3.906   5.635   1.113
 4153SOL     OW13357   5.876   5.366   1.510
 4153SOL    HW113358   5.959   5.358   1.456
 4153SOL    HW213359   5.797   5.375   1.449
 4154SOL     OW13360   0.191   6.030   4.052
 4154SOL    HW113361   0.107   6.072   4.086
 4154SOL    HW213362   0.234   5.977   4.126
 4155SOL     OW13363   0.256   1.273   0.882
 4155SOL    HW113364   0.176   1.300   0.936
 4155SOL    HW213365   0.269   1.337   0.807
 4156SOL     OW13366   6.094   5.317   5.195
 4156SOL    HW113367   6.127   5.313   5.290
 4156SOL    HW213368   6.060   5.408   5.175
 4157SOL     OW13369   5.079   6.371   3.554
 4157SOL    HW113370   5.031   6.349   3.469
 4157SOL    HW213371   5.175   6.389   3.534
 4158SOL     OW13372   0.651   3.187   2.170
 4158SOL    HW113373   0.572   3.216   2.224
 4158SOL    HW213374   0.642   3.091   2.146
 4159SOL     OW13375   1.530   2.701   3.438
 4159SOL    HW113376   1.585   2.758   3.499
 4159SOL    HW213377   1.544   2.730   3.343
 4160SOL     OW13378   5.592   6.655   7.008
 4160SOL    HW113379   5.690   6.658   0.001
 4160SOL    HW213380   5.551   6.587   0.048
 4161SOL     OW13381   1.603   2.142   1.464
 4161SOL    HW113382   1.656   2.225   1.482
 4161SOL    HW213383   1.554   2.152   1.377
 4162SOL     OW13384   5.972   5.807   0.460
 4162SOL    HW113385   5.953   5.725   0.514
 4162SOL    HW213386   5.971   5.887   0.520
 4163SOL     OW13387   5.561   0.831   3.094
 4163SOL    HW113388   5.507   0.900   3.143
 4163SOL    HW213389   5.641   0.874   3.052
 4164SOL     OW13390   1.392   0.223   4.514
 4164SOL    HW113391   1.454   0.274   4.453
 4164SOL    HW213392   1.405   0.125   4.500
 4165SOL     OW13393   4.808   0.591   5.688
 4165SOL    HW113394   4.836   0.614   5.595
 4165SOL    HW213395   4.876   0.624   5.753
 4166SOL     OW13396   4.807   0.880   1.213
 4166SOL    HW113397   4.900   0.888   1.250
 4166SOL    HW213398   4.770   0.790   1.237
 4167SOL     OW13399   3.479   4.682   6.872
 4167SOL    HW113400   3.475   4.642   6.780
 4167SOL    HW213401   3.532   4.767   6.869
 4168SOL     OW13402   0.246   3.870   0.701
 4168SOL    HW113403   0.295   3.810   0.763
 4168SOL    HW213404   0.185   3.816   0.643
 4169SOL     OW13405   6.182   4.740   4.583
 4169SOL    HW113406   6.135   4.665   4.537
 4169SOL    HW213407   6.147   4.750   4.676
 4170SOL     OW13408   5.025   3.338   5.468
 4170SOL    HW113409   4.983   3.346   5.559
 4170SOL    HW213410   5.107   3.395   5.465
 4171SOL     OW13411   6.654   5.064   0.734
 4171SOL    HW113412   6.684   5.009   0.657
 4171SOL    HW213413   6.699   5.153   0.732
 4172SOL     OW13414   2.348   2.089   0.113
 4172SOL    HW113415   2.297   2.084   0.027
 4172SOL    HW213416   2.375   2.184   0.132
 4173SOL     OW13417   5.439   3.870   4.903
 4173SOL    HW113418   5.363   3.819   4.942
 4173SOL    HW213419   5.448   3.958   4.949
 4174SOL     OW13420   4.626   1.807   2.296
 4174SOL    HW113421   4.595   1.756   2.376
 4174SOL    HW213422   4.632   1.904   2.319
 4175SOL     OW13423   2.197   4.691   4.233
 4175SOL    HW113424   2.164   4.732   4.148
 4175SOL    HW213425   2.227   4.597   4.214
 4176SOL     OW13426   4.250   6.655   1.167
 4176SOL    HW113427   4.190   6.734   1.178
 4176SOL    HW213428   4.224   6.584   1.232
 4177SOL     OW13429   5.816   5.175   5.660
 4177SOL    HW113430   5.794   5.259   5.710
 4177SOL    HW213431   5.773   5.178   5.570
 4178SOL     OW13432   4.213   6.851   3.624
 4178SOL    HW113433   4.295   6.893   3.664
 4178SOL    HW213434   4.159   6.809   3.697
 4179SOL     OW13435   5.336   3.484   3.041
 4179SOL    HW113436   5.259   3.512   3.098
 4179SOL    HW213437   5.338   3.541   2.959
 4180SOL     OW13438   4.860   2.784   0.673
 4180SOL    HW113439   4.812   2.710   0.721
 4180SOL    HW213440   4.888   2.854   0.738
 4181SOL     OW13441   4.412   0.689   6.494
 4181SOL    HW113442   4.387   0.736   6.578
 4181SOL    HW213443   4.437   0.756   6.424
 4182SOL     OW13444   0.518   5.599   3.537
 4182SOL    HW113445   0.479   5.536   3.470
 4182SOL    HW213446   0.444   5.639   3.591
 4183SOL     OW13447   2.305   1.709   0.334
 4183SOL    HW113448   2.246   1.762   0.394
 4183SOL    HW213449   2.367   1.770   0.285
 4184SOL     OW13450   3.115   6.939   2.454
 4184SOL    HW113451   3.073   6.864   2.403
 4184SOL    HW213452   3.045   6.986   2.508
 4185SOL     OW13453   0.764   4.469   3.077
 4185SOL    HW113454   0.861   4.444   3.081
 4185SOL    HW213455   0.709   4.386   3.065
 4186SOL     OW13456   2.489   5.032   6.597
 4186SOL    HW113457   2.404   4.982   6.615
 4186SOL    HW213458   2.557   4.970   6.559
 4187SOL     OW13459   2.697   3.215   5.683
 4187SOL    HW113460   2.761   3.290   5.701
 4187SOL    HW213461   2.747   3.137   5.647
 4188SOL     OW13462   5.113   0.821   5.338
 4188SOL    HW113463   5.181   0.854   5.272
 4188SOL    HW213464   5.036   0.885   5.340
 4189SOL     OW13465   3.045   5.226   4.470
 4189SOL    HW113466   2.956   5.187   4.494
 4189SOL    HW213467   3.114   5.153   4.471
 4190SOL     OW13468   0.784   0.158   0.889
 4190SOL    HW113469   0.874   0.173   0.929
 4190SOL    HW213470   0.729   0.103   0.951
 4191SOL     OW13471   4.910   4.554   4.091
 4191SOL    HW113472   4.977   4.479   4.088
 4191SOL    HW213473   4.956   4.639   4.116
 4192SOL     OW13474   0.756   1.830   2.901
 4192SOL    HW113475   0.764   1.857   2.997
 4192SOL    HW213476   0.660   1.820   2.877
 4193SOL     OW13477   6.369   0.505   0.844
 4193SOL    HW113478   6.343   0.502   0.747
 4193SOL    HW213479   6.341   0.421   0.889
 4194SOL     OW13480   4.604   0.488   5.007
 4194SOL    HW113481   4.671   0.520   4.941
 4194SOL    HW213482   4.550   0.414   4.967
 4195SOL     OW13483   3.488   5.478   1.532
 4195SOL    HW113484   3.564   5.518   1.584
 4195SOL    HW213485   3.508   5.485   1.434
 4196SOL     OW13486   6.213   2.806   2.677
 4196SOL    HW113487   6.227   2.800   2.578
 4196SOL    HW213488   6.115   2.815   2.696
 4197SOL     OW13489   4.794   5.709   5.833
 4197SOL    HW113490   4.788   5.653   5.750
 4197SOL    HW213491   4.713   5.768   5.839
 4198SOL     OW13492   6.056   1.884   0.600
 4198SOL    HW113493   6.138   1.933   0.569
 4198SOL    HW213494   6.008   1.846   0.521
 4199SOL     OW13495   1.139   2.612   6.233
 4199SOL    HW113496   1.193   2.631   6.151
 4199SOL    HW213497   1.120   2.698   6.281
 4200SOL     OW13498   2.854   0.240   6.194
 4200SOL    HW113499   2.791   0.201   6.261
 4200SOL    HW213500   2.830   0.206   6.103
 4201SOL     OW13501   5.700   6.743   3.597
 4201SOL    HW113502   5.734   6.751   3.503
 4201SOL    HW213503   5.745   6.813   3.654
 4202SOL     OW13504   3.306   5.528   5.928
 4202SOL    HW113505   3.343   5.450   5.980
 4202SOL    HW213506   3.209   5.514   5.913
 4203SOL     OW13507   4.055   4.256   0.123
 4203SOL    HW113508   4.049   4.195   0.044
 4203SOL    HW213509   4.091   4.345   0.093
 4204SOL     OW13510   4.123   3.599   3.963
 4204SOL    HW113511   4.111   3.500   3.957
 4204SOL    HW213512   4.070   3.643   3.890
 4205SOL     OW13513   4.557   6.522   4.241
 4205SOL    HW113514   4.618   6.479   4.176
 4205SOL    HW213515   4.608   6.589   4.295
 4206SOL     OW13516   6.341   0.853   5.324
 4206SOL    HW113517   6.408   0.796   5.276
 4206SOL    HW213518   6.302   0.919   5.259
 4207SOL     OW13519   1.945   2.324   1.880
 4207SOL    HW113520   1.965   2.420   1.901
 4207SOL    HW213521   1.956   2.269   1.962
 4208SOL     OW13522   0.011   3.610   5.269
 4208SOL    HW113523   7.020   3.593   5.171
 4208SOL    HW213524   0.031   3.707   5.284
 4209SOL     OW13525   6.911   6.799   4.331
 4209SOL    HW113526   6.945   6.893   4.336
 4209SOL    HW213527   6.821   6.799   4.287
 4210SOL     OW13528   3.810   3.525   2.059
 4210SOL    HW113529   3.761   3.612   2.058
 4210SOL    HW213530   3.905   3.541   2.086
 4211SOL     OW13531   3.447   0.400   5.988
 4211SOL    HW113532   3.418   0.304   5.984
 4211SOL    HW213533   3.393   0.448   6.056
 4212SOL     OW13534   6.560   1.866   2.967
 4212SOL    HW113535   6.496   1.941   2.951
 4212SOL    HW213536   6.654   1.898   2.954
 4213SOL     OW13537   2.222   0.480   2.627
 4213SOL    HW113538   2.175   0.454   2.543
 4213SOL    HW213539   2.313   0.438   2.629
 4214SOL     OW13540   1.101   5.666   5.563
 4214SOL    HW113541   1.130   5.590   5.505
 4214SOL    HW213542   1.071   5.742   5.505
 4215SOL     OW13543   4.781   0.291   6.308
 4215SOL    HW113544   4.758   0.355   6.381
 4215SOL    HW213545   4.721   0.307   6.229
 4216SOL     OW13546   1.635   0.786   3.119
 4216SOL    HW113547   1.692   0.750   3.045
 4216SOL    HW213548   1.581   0.863   3.084
 4217SOL     OW13549   1.080   0.771   2.877
 4217SOL    HW113550   1.079   0.681   2.834
 4217SOL    HW213551   1.015   0.772   2.953
 4218SOL     OW13552   4.002   1.314   1.783
 4218SOL    HW113553   3.917   1.350   1.822
 4218SOL    HW213554   4.077   1.376   1.803
 4219SOL     OW13555   3.870   6.161   4.053
 4219SOL    HW113556   3.778   6.160   4.091
 4219SOL    HW213557   3.937   6.164   4.128
 4220SOL     OW13558   6.364   2.862   3.351
 4220SOL    HW113559   6.314   2.941   3.316
 4220SOL    HW213560   6.440   2.840   3.289
 4221SOL     OW13561   6.105   5.310   6.458
 4221SOL    HW113562   6.110   5.345   6.364
 4221SOL    HW213563   6.100   5.210   6.455
 4222SOL     OW13564   0.326   1.456   2.217
 4222SOL    HW113565   0.415   1.492   2.243
 4222SOL    HW213566   0.279   1.524   2.159
 4223SOL     OW13567   3.537   3.205   0.181
 4223SOL    HW113568   3.495   3.163   0.100
 4223SOL    HW213569   3.635   3.219   0.165
 4224SOL     OW13570   5.504   4.336   4.016
 4224SOL    HW113571   5.568   4.407   4.045
 4224SOL    HW213572   5.554   4.259   3.976
 4225SOL     OW13573   2.651   2.518   5.658
 4225SOL    HW113574   2.701   2.580   5.718
 4225SOL    HW213575   2.620   2.568   5.577
 4226SOL     OW13576   0.747   6.904   2.893
 4226SOL    HW113577   0.727   6.923   2.989
 4226SOL    HW213578   0.842   6.873   2.884
 4227SOL     OW13579   3.794   5.033   1.633
 4227SOL    HW113580   3.838   5.116   1.598
 4227SOL    HW213581   3.863   4.960   1.640
 4228SOL     OW13582   1.034   5.300   5.038
 4228SOL    HW113583   1.130   5.323   5.022
 4228SOL    HW213584   0.982   5.385   5.052
 4229SOL     OW13585   5.181   6.478   5.995
 4229SOL    HW113586   5.133   6.395   6.024
 4229SOL    HW213587   5.256   6.453   5.934
 4230SOL     OW13588   0.546   5.509   2.570
 4230SOL    HW113589   0.532   5.608   2.579
 4230SOL    HW213590   0.606   5.491   2.493
 4231SOL     OW13591   5.770   6.771   5.881
 4231SOL    HW113592   5.725   6.763   5.970
 4231SOL    HW213593   5.701   6.770   5.809
 4232SOL     OW13594   0.013   4.656   3.006
 4232SOL    HW113595   0.088   4.706   3.048
 4232SOL    HW213596   6.967   4.631   3.075
 4233SOL     OW13597   6.679   6.878   5.861
 4233SOL    HW113598   6.690   6.864   5.959
 4233SOL    HW213599   6.614   6.811   5.825
 4234SOL     OW13600   2.557   6.211   4.867
 4234SOL    HW113601   2.638   6.266   4.848
 4234SOL    HW213602   2.500   6.259   4.934
 4235SOL     OW13603   5.626   4.525   5.778
 4235SOL    HW113604   5.549   4.476   5.821
 4235SOL    HW213605   5.706   4.519   5.837
 4236SOL     OW13606   6.227   3.592   2.378
 4236SOL    HW113607   6.132   3.566   2.397
 4236SOL    HW213608   6.229   3.659   2.304
 4237SOL     OW13609   5.727   5.738   3.409
 4237SOL    HW113610   5.679   5.758   3.495
 4237SOL    HW213611   5.793   5.665   3.424
 4238SOL     OW13612   2.196   6.349   2.630
 4238SOL    HW113613   2.113   6.329   2.577
 4238SOL    HW213614   2.231   6.438   2.602
 4239SOL     OW13615   5.186   1.214   2.547
 4239SOL    HW113616   5.098   1.233   2.590
 4239SOL    HW213617   5.174   1.208   2.448
 4240SOL     OW13618   2.772   5.762   0.484
 4240SOL    HW113619   2.812   5.838   0.535
 4240SOL    HW213620   2.682   5.742   0.520
 4241SOL     OW13621   6.210   1.307   0.641
 4241SOL    HW113622   6.114   1.286   0.621
 4241SOL    HW213623   6.244   1.245   0.711
 4242SOL     OW13624   3.327   1.529   4.254
 4242SOL    HW113625   3.284   1.456   4.201
 4242SOL    HW213626   3.300   1.521   4.350
 4243SOL     OW13627   6.466   2.942   2.694
 4243SOL    HW113628   6.444   3.034   2.728
 4243SOL    HW213629   6.383   2.887   2.692
 4244SOL     OW13630   4.245   4.477   1.731
 4244SOL    HW113631   4.283   4.408   1.793
 4244SOL    HW213632   4.315   4.507   1.667
 4245SOL     OW13633   6.994   1.169   6.513
 4245SOL    HW113634   7.012   1.110   6.591
 4245SOL    HW213635   0.001   1.263   6.535
 4246SOL     OW13636   6.834   4.148   3.296
 4246SOL    HW113637   6.810   4.083   3.224
 4246SOL    HW213638   6.849   4.238   3.256
 4247SOL     OW13639   2.989   5.973   3.749
 4247SOL    HW113640   3.084   5.966   3.781
 4247SOL    HW213641   2.952   5.882   3.735
 4248SOL     OW13642   3.787   1.530   3.383
 4248SOL    HW113643   3.830   1.466   3.319
 4248SOL    HW213644   3.759   1.613   3.333
 4249SOL     OW13645   5.837   2.384   4.131
 4249SOL    HW113646   5.831   2.338   4.042
 4249SOL    HW213647   5.932   2.408   4.150
 4250SOL     OW13648   6.355   4.653   3.028
 4250SOL    HW113649   6.374   4.693   2.938
 4250SOL    HW213650   6.409   4.570   3.040
 4251SOL     OW13651   5.435   4.671   1.500
 4251SOL    HW113652   5.475   4.702   1.587
 4251SOL    HW213653   5.475   4.583   1.475
 4252SOL     OW13654   5.442   6.202   6.130
 4252SOL    HW113655   5.508   6.169   6.062
 4252SOL    HW213656   5.369   6.134   6.141
 4253SOL     OW13657   3.647   6.671   0.794
 4253SOL    HW113658   3.589   6.687   0.713
 4253SOL    HW213659   3.589   6.652   0.873
 4254SOL     OW13660   0.609   3.237   1.717
 4254SOL    HW113661   0.696   3.228   1.764
 4254SOL    HW213662   0.535   3.240   1.784
 4255SOL     OW13663   6.791   4.305   3.577
 4255SOL    HW113664   6.833   4.391   3.546
 4255SOL    HW213665   6.862   4.237   3.591
 4256SOL     OW13666   2.181   6.382   0.134
 4256SOL    HW113667   2.129   6.349   0.056
 4256SOL    HW213668   2.166   6.480   0.145
 4257SOL     OW13669   2.897   0.778   4.504
 4257SOL    HW113670   2.956   0.715   4.454
 4257SOL    HW213671   2.802   0.747   4.497
 4258SOL     OW13672   4.687   6.450   1.066
 4258SOL    HW113673   4.782   6.426   1.084
 4258SOL    HW213674   4.628   6.374   1.095
 4259SOL     OW13675   2.704   1.044   0.888
 4259SOL    HW113676   2.612   1.061   0.853
 4259SOL    HW213677   2.772   1.069   0.819
 4260SOL     OW13678   5.203   6.985   0.903
 4260SOL    HW113679   5.301   6.973   0.923
 4260SOL    HW213680   5.155   6.898   0.918
 4261SOL     OW13681   1.627   0.272   1.883
 4261SOL    HW113682   1.711   0.279   1.937
 4261SOL    HW213683   1.591   0.363   1.864
 4262SOL     OW13684   0.779   4.762   5.640
 4262SOL    HW113685   0.813   4.679   5.685
 4262SOL    HW213686   0.821   4.842   5.682
 4263SOL     OW13687   2.946   6.128   3.397
 4263SOL    HW113688   3.042   6.118   3.422
 4263SOL    HW213689   2.914   6.043   3.355
 4264SOL     OW13690   0.262   2.562   2.874
 4264SOL    HW113691   0.174   2.606   2.891
 4264SOL    HW213692   0.265   2.475   2.922
 4265SOL     OW13693   5.203   1.824   0.792
 4265SOL    HW113694   5.157   1.756   0.736
 4265SOL    HW213695   5.141   1.856   0.864
 4266SOL     OW13696   2.119   5.531   0.317
 4266SOL    HW113697   2.182   5.593   0.365
 4266SOL    HW213698   2.039   5.582   0.286
 4267SOL     OW13699   1.827   3.316   4.610
 4267SOL    HW113700   1.905   3.349   4.555
 4267SOL    HW213701   1.831   3.216   4.616
 4268SOL     OW13702   1.529   6.047   6.346
 4268SOL    HW113703   1.612   6.006   6.383
 4268SOL    HW213704   1.535   6.147   6.356
 4269SOL     OW13705   2.659   0.835   1.524
 4269SOL    HW113706   2.579   0.895   1.518
 4269SOL    HW213707   2.717   0.849   1.443
 4270SOL     OW13708   4.093   3.335   3.556
 4270SOL    HW113709   4.182   3.359   3.516
 4270SOL    HW213710   4.030   3.411   3.546
 4271SOL     OW13711   6.542   1.118   0.076
 4271SOL    HW113712   6.492   1.134   7.011
 4271SOL    HW213713   6.578   1.205   0.109
 4272SOL     OW13714   6.262   2.739   3.956
 4272SOL    HW113715   6.355   2.712   3.930
 4272SOL    HW213716   6.243   2.831   3.921
 4273SOL     OW13717   4.416   0.034   4.585
 4273SOL    HW113718   4.486   0.055   4.654
 4273SOL    HW213719   4.452   6.989   4.520
 4274SOL     OW13720   0.923   6.214   1.539
 4274SOL    HW113721   0.989   6.278   1.500
 4274SOL    HW213722   0.843   6.209   1.479
 4275SOL     OW13723   6.503   0.885   3.791
 4275SOL    HW113724   6.532   0.790   3.786
 4275SOL    HW213725   6.472   0.906   3.884
 4276SOL     OW13726   1.597   4.871   3.261
 4276SOL    HW113727   1.624   4.870   3.357
 4276SOL    HW213728   1.667   4.919   3.208
 4277SOL     OW13729   6.047   4.329   3.977
 4277SOL    HW113730   5.994   4.362   3.899
 4277SOL    HW213731   6.053   4.401   4.046
 4278SOL     OW13732   6.961   0.470   4.245
 4278SOL    HW113733   6.864   0.495   4.244
 4278SOL    HW213734   7.015   0.551   4.222
 4279SOL     OW13735   3.051   0.549   4.373
 4279SOL    HW113736   3.092   0.493   4.301
 4279SOL    HW213737   3.077   0.511   4.463
 4280SOL     OW13738   4.578   0.617   5.793
 4280SOL    HW113739   4.664   0.607   5.743
 4280SOL    HW213740   4.597   0.634   5.890
 4281SOL     OW13741   0.300   4.741   3.535
 4281SOL    HW113742   0.302   4.666   3.601
 4281SOL    HW213743   0.379   4.735   3.475
 4282SOL     OW13744   2.918   4.386   5.911
 4282SOL    HW113745   2.979   4.406   5.834
 4282SOL    HW213746   2.862   4.306   5.889
 4283SOL     OW13747   1.287   0.532   3.673
 4283SOL    HW113748   1.219   0.483   3.728
 4283SOL    HW213749   1.240   0.598   3.614
 4284SOL     OW13750   3.985   4.806   1.628
 4284SOL    HW113751   3.921   4.731   1.648
 4284SOL    HW213752   4.039   4.782   1.547
 4285SOL     OW13753   0.816   0.768   6.154
 4285SOL    HW113754   0.823   0.670   6.135
 4285SOL    HW213755   0.866   0.820   6.085
 4286SOL     OW13756   4.616   6.430   6.063
 4286SOL    HW113757   4.657   6.513   6.026
 4286SOL    HW213758   4.556   6.389   5.995
 4287SOL     OW13759   6.153   2.621   6.407
 4287SOL    HW113760   6.125   2.690   6.474
 4287SOL    HW213761   6.073   2.591   6.356
 4288SOL     OW13762   0.692   6.012   3.851
 4288SOL    HW113763   0.603   6.037   3.889
 4288SOL    HW213764   0.728   6.089   3.799
 4289SOL     OW13765   6.992   2.584   0.267
 4289SOL    HW113766   7.002   2.668   0.214
 4289SOL    HW213767   6.894   2.561   0.275
 4290SOL     OW13768   1.383   6.852   2.660
 4290SOL    HW113769   1.314   6.885   2.596
 4290SOL    HW213770   1.421   6.766   2.627
 4291SOL     OW13771   4.638   3.277   1.224
 4291SOL    HW113772   4.624   3.181   1.200
 4291SOL    HW213773   4.567   3.333   1.181
 4292SOL     OW13774   6.239   3.649   0.473
 4292SOL    HW113775   6.201   3.636   0.565
 4292SOL    HW213776   6.222   3.566   0.419
 4293SOL     OW13777   2.372   3.046   0.551
 4293SOL    HW113778   2.351   3.050   0.453
 4293SOL    HW213779   2.339   3.129   0.595
 4294SOL     OW13780   2.180   2.891   6.946
 4294SOL    HW113781   2.084   2.918   6.942
 4294SOL    HW213782   2.237   2.969   6.921
 4295SOL     OW13783   4.184   5.488   4.230
 4295SOL    HW113784   4.157   5.415   4.168
 4295SOL    HW213785   4.250   5.548   4.185
 4296SOL     OW13786   3.436   0.453   0.306
 4296SOL    HW113787   3.488   0.526   0.262
 4296SOL    HW213788   3.369   0.494   0.368
 4297SOL     OW13789   4.889   0.940   6.879
 4297SOL    HW113790   4.839   0.927   6.965
 4297SOL    HW213791   4.823   0.950   6.804
 4298SOL     OW13792   3.666   5.268   0.628
 4298SOL    HW113793   3.594   5.203   0.604
 4298SOL    HW213794   3.638   5.319   0.709
 4299SOL     OW13795   0.842   2.736   6.422
 4299SOL    HW113796   0.853   2.637   6.410
 4299SOL    HW213797   0.931   2.780   6.414
 4300SOL     OW13798   3.972   0.604   6.827
 4300SOL    HW113799   3.952   0.618   6.730
 4300SOL    HW213800   4.063   0.565   6.837
 4301SOL     OW13801   4.221   0.891   1.520
 4301SOL    HW113802   4.246   0.988   1.512
 4301SOL    HW213803   4.289   0.843   1.576
 4302SOL     OW13804   1.702   6.768   6.404
 4302SOL    HW113805   1.785   6.717   6.380
 4302SOL    HW213806   1.653   6.793   6.321
 4303SOL     OW13807   0.141   4.858   3.954
 4303SOL    HW113808   0.124   4.869   4.052
 4303SOL    HW213809   0.175   4.766   3.936
 4304SOL     OW13810   2.954   3.894   3.385
 4304SOL    HW113811   3.054   3.904   3.382
 4304SOL    HW213812   2.915   3.932   3.301
 4305SOL     OW13813   6.590   0.136   5.185
 4305SOL    HW113814   6.650   0.063   5.219
 4305SOL    HW213815   6.504   0.096   5.152
 4306SOL     OW13816   5.646   3.904   6.150
 4306SOL    HW113817   5.609   3.841   6.083
 4306SOL    HW213818   5.577   3.921   6.221
 4307SOL     OW13819   3.911   4.023   6.228
 4307SOL    HW113820   3.913   4.123   6.228
 4307SOL    HW213821   3.820   3.992   6.200
 4308SOL     OW13822   6.234   5.454   0.033
 4308SOL    HW113823   6.154   5.486   7.004
 4308SOL    HW213824   6.292   5.531   0.057
 4309SOL     OW13825   1.237   1.583   0.123
 4309SOL    HW113826   1.284   1.645   0.184
 4309SOL    HW213827   1.138   1.590   0.137
 4310SOL     OW13828   1.281   2.834   2.473
 4310SOL    HW113829   1.350   2.893   2.516
 4310SOL    HW213830   1.282   2.744   2.517
 4311SOL     OW13831   1.958   6.249   2.995
 4311SOL    HW113832   1.968   6.156   2.960
 4311SOL    HW213833   2.036   6.305   2.968
 4312SOL     OW13834   1.456   4.953   0.823
 4312SOL    HW113835   1.406   4.953   0.736
 4312SOL    HW213836   1.474   4.859   0.851
 4313SOL     OW13837   5.210   1.568   1.957
 4313SOL    HW113838   5.232   1.652   2.005
 4313SOL    HW213839   5.123   1.578   1.908
 4314SOL     OW13840   6.178   0.668   4.744
 4314SOL    HW113841   6.190   0.743   4.809
 4314SOL    HW213842   6.101   0.689   4.683
 4315SOL     OW13843   2.051   6.694   1.479
 4315SOL    HW113844   1.984   6.652   1.540
 4315SOL    HW213845   2.045   6.793   1.486
 4316SOL     OW13846   5.343   0.226   1.690
 4316SOL    HW113847   5.294   0.207   1.605
 4316SOL    HW213848   5.351   0.325   1.702
 4317SOL     OW13849   4.942   1.959   4.487
 4317SOL    HW113850   4.929   2.047   4.441
 4317SOL    HW213851   5.013   1.969   4.558
 4318SOL     OW13852   0.572   3.436   4.900
 4318SOL    HW113853   0.573   3.520   4.953
 4318SOL    HW213854   0.477   3.411   4.879
 4319SOL     OW13855   2.234   2.594   0.908
 4319SOL    HW113856   2.163   2.616   0.975
 4319SOL    HW213857   2.289   2.676   0.890
 4320SOL     OW13858   6.320   5.515   1.411
 4320SOL    HW113859   6.248   5.462   1.366
 4320SOL    HW213860   6.303   5.518   1.510
 4321SOL     OW13861   6.888   6.691   5.601
 4321SOL    HW113862   6.897   6.778   5.649
 4321SOL    HW213863   6.977   6.664   5.564
 4322SOL     OW13864   6.717   3.005   6.624
 4322SOL    HW113865   6.730   2.943   6.702
 4322SOL    HW213866   6.682   2.953   6.546
 4323SOL     OW13867   4.256   3.687   0.969
 4323SOL    HW113868   4.255   3.787   0.963
 4323SOL    HW213869   4.345   3.653   0.940
 4324SOL     OW13870   5.516   4.597   6.950
 4324SOL    HW113871   5.499   4.574   6.854
 4324SOL    HW213872   5.464   4.679   6.974
 4325SOL     OW13873   2.056   1.246   1.568
 4325SOL    HW113874   2.094   1.156   1.586
 4325SOL    HW213875   2.095   1.312   1.632
 4326SOL     OW13876   4.857   5.036   5.222
 4326SOL    HW113877   4.956   5.051   5.223
 4326SOL    HW213878   4.838   4.941   5.248
 4327SOL     OW13879   5.876   6.265   1.858
 4327SOL    HW113880   5.908   6.341   1.915
 4327SOL    HW213881   5.841   6.192   1.916
 4328SOL     OW13882   4.775   3.816   5.339
 4328SOL    HW113883   4.849   3.758   5.372
 4328SOL    HW213884   4.727   3.769   5.264
 4329SOL     OW13885   4.370   1.817   5.784
 4329SOL    HW113886   4.383   1.776   5.875
 4329SOL    HW213887   4.272   1.820   5.762
 4330SOL     OW13888   2.528   0.164   4.966
 4330SOL    HW113889   2.449   0.221   4.942
 4330SOL    HW213890   2.503   0.105   5.043
 4331SOL     OW13891   5.270   2.148   1.592
 4331SOL    HW113892   5.203   2.078   1.613
 4331SOL    HW213893   5.286   2.151   1.493
 4332SOL     OW13894   5.187   4.280   2.545
 4332SOL    HW113895   5.156   4.201   2.598
 4332SOL    HW213896   5.157   4.364   2.591
 4333SOL     OW13897   3.612   0.516   5.154
 4333SOL    HW113898   3.670   0.435   5.154
 4333SOL    HW213899   3.662   0.592   5.113
 4334SOL     OW13900   1.457   2.670   2.718
 4334SOL    HW113901   1.486   2.622   2.636
 4334SOL    HW213902   1.531   2.729   2.750
 4335SOL     OW13903   3.485   3.539   2.312
 4335SOL    HW113904   3.495   3.611   2.381
 4335SOL    HW213905   3.522   3.453   2.347
 4336SOL     OW13906   2.131   6.456   6.870
 4336SOL    HW113907   2.077   6.410   6.799
 4336SOL    HW213908   2.093   6.546   6.889
 4337SOL     OW13909   0.335   4.277   0.819
 4337SOL    HW113910   0.418   4.271   0.765
 4337SOL    HW213911   0.341   4.355   0.881
 4338SOL     OW13912   5.710   5.384   5.076
 4338SOL    HW113913   5.705   5.381   4.977
 4338SOL    HW213914   5.643   5.449   5.111
 4339SOL     OW13915   5.709   3.842   4.883
 4339SOL    HW113916   5.728   3.803   4.793
 4339SOL    HW213917   5.612   3.837   4.902
 4340SOL     OW13918   6.642   3.416   0.944
 4340SOL    HW113919   6.619   3.425   1.041
 4340SOL    HW213920   6.738   3.440   0.931
 4341SOL     OW13921   0.741   6.042   1.757
 4341SOL    HW113922   0.750   6.085   1.847
 4341SOL    HW213923   0.823   6.060   1.704
 4342SOL     OW13924   6.188   3.956   4.367
 4342SOL    HW113925   6.244   3.932   4.446
 4342SOL    HW213926   6.173   4.055   4.366
 4343SOL     OW13927   2.504   5.806   5.279
 4343SOL    HW113928   2.475   5.874   5.212
 4343SOL    HW213929   2.604   5.805   5.283
 4344SOL     OW13930   1.095   4.685   2.433
 4344SOL    HW113931   1.037   4.605   2.450
 4344SOL    HW213932   1.115   4.730   2.520
 4345SOL     OW13933   2.983   3.513   5.262
 4345SOL    HW113934   3.056   3.458   5.302
 4345SOL    HW213935   2.917   3.538   5.333
 4346SOL     OW13936   1.830   2.997   2.316
 4346SOL    HW113937   1.829   2.959   2.408
 4346SOL    HW213938   1.832   3.097   2.320
 4347SOL     OW13939   6.827   6.860   2.923
 4347SOL    HW113940   6.735   6.888   2.952
 4347SOL    HW213941   6.877   6.940   2.888
 4348SOL     OW13942   6.815   4.435   3.149
 4348SOL    HW113943   6.768   4.474   3.070
 4348SOL    HW213944   6.767   4.460   3.233
 4349SOL     OW13945   0.048   1.554   2.631
 4349SOL    HW113946   7.013   1.529   2.552
 4349SOL    HW213947   0.080   1.471   2.677
 4350SOL     OW13948   4.794   1.339   4.082
 4350SOL    HW113949   4.823   1.338   3.986
 4350SOL    HW213950   4.860   1.289   4.137
 4351SOL     OW13951   1.974   5.430   1.047
 4351SOL    HW113952   1.896   5.467   1.097
 4351SOL    HW213953   2.037   5.387   1.112
 4352SOL     OW13954   6.898   3.235   2.280
 4352SOL    HW113955   6.838   3.159   2.306
 4352SOL    HW213956   6.957   3.207   2.204
 4353SOL     OW13957   3.948   3.347   6.320
 4353SOL    HW113958   3.956   3.280   6.247
 4353SOL    HW213959   4.012   3.324   6.394
 4354SOL     OW13960   2.548   6.840   5.548
 4354SOL    HW113961   2.508   6.922   5.589
 4354SOL    HW213962   2.475   6.779   5.517
 4355SOL     OW13963   2.672   0.415   2.500
 4355SOL    HW113964   2.629   0.504   2.511
 4355SOL    HW213965   2.665   0.385   2.405
 4356SOL     OW13966   5.105   4.138   0.905
 4356SOL    HW113967   5.192   4.126   0.856
 4356SOL    HW213968   5.071   4.231   0.890
 4357SOL     OW13969   6.734   0.992   0.625
 4357SOL    HW113970   6.782   0.994   0.537
 4357SOL    HW213971   6.664   1.064   0.627
 4358SOL     OW13972   0.590   6.485   6.909
 4358SOL    HW113973   0.516   6.534   6.955
 4358SOL    HW213974   0.657   6.550   6.873
 4359SOL     OW13975   2.154   1.901   6.836
 4359SOL    HW113976   2.171   1.904   6.934
 4359SOL    HW213977   2.239   1.879   6.788
 4360SOL     OW13978   1.594   2.183   3.266
 4360SOL    HW113979   1.591   2.279   3.294
 4360SOL    HW213980   1.516   2.163   3.207
 4361SOL     OW13981   2.094   3.432   1.045
 4361SOL    HW113982   2.145   3.365   0.992
 4361SOL    HW213983   2.136   3.522   1.033
 4362SOL     OW13984   6.108   5.488   2.931
 4362SOL    HW113985   6.062   5.404   2.903
 4362SOL    HW213986   6.044   5.546   2.981
 4363SOL     OW13987   5.134   2.852   0.407
 4363SOL    HW113988   5.045   2.816   0.380
 4363SOL    HW213989   5.137   2.951   0.389
 4364SOL     OW13990   2.929   3.203   4.680
 4364SOL    HW113991   2.842   3.171   4.719
 4364SOL    HW213992   3.005   3.170   4.736
 4365SOL     OW13993   2.089   1.648   1.876
 4365SOL    HW113994   2.117   1.719   1.811
 4365SOL    HW213995   2.090   1.684   1.969
 4366SOL     OW13996   5.938   0.027   0.155
 4366SOL    HW113997   5.950   0.123   0.131
 4366SOL    HW213998   5.876   0.019   0.233
 4367SOL     OW13999   2.289   4.427   4.291
 4367SOL    HW114000   2.296   4.468   4.382
 4367SOL    HW214001   2.216   4.358   4.291
 4368SOL     OW14002   3.886   4.138   0.807
 4368SOL    HW114003   3.955   4.209   0.791
 4368SOL    HW214004   3.795   4.181   0.813
 4369SOL     OW14005   4.321   5.445   2.720
 4369SOL    HW114006   4.300   5.487   2.808
 4369SOL    HW214007   4.347   5.516   2.655
 4370SOL     OW14008   4.138   5.320   2.307
 4370SOL    HW114009   4.150   5.285   2.214
 4370SOL    HW214010   4.112   5.245   2.368
 4371SOL     OW14011   0.983   2.227   1.436
 4371SOL    HW114012   0.916   2.154   1.455
 4371SOL    HW214013   1.074   2.197   1.465
 4372SOL     OW14014   3.551   1.463   2.604
 4372SOL    HW114015   3.523   1.368   2.592
 4372SOL    HW214016   3.591   1.497   2.519
 4373SOL     OW14017   6.447   2.247   6.612
 4373SOL    HW114018   6.447   2.311   6.688
 4373SOL    HW214019   6.538   2.209   6.600
 4374SOL     OW14020   1.656   1.987   1.840
 4374SOL    HW114021   1.752   1.960   1.843
 4374SOL    HW214022   1.644   2.073   1.888
 4375SOL     OW14023   4.365   0.056   2.821
 4375SOL    HW114024   4.306   0.002   2.881
 4375SOL    HW214025   4.455   0.066   2.863
 4376SOL     OW14026   0.152   6.986   1.215
 4376SOL    HW114027   0.190   0.053   1.244
 4376SOL    HW214028   0.157   6.979   1.116
 4377SOL     OW14029   5.169   4.669   0.733
 4377SOL    HW114030   5.084   4.716   0.707
 4377SOL    HW214031   5.236   4.676   0.659
 4378SOL     OW14032   2.186   2.398   3.111
 4378SOL    HW114033   2.111   2.343   3.076
 4378SOL    HW214034   2.270   2.377   3.060
 4379SOL     OW14035   1.860   1.427   2.606
 4379SOL    HW114036   1.840   1.524   2.592
 4379SOL    HW214037   1.815   1.396   2.690
 4380SOL     OW14038   0.546   7.016   2.520
 4380SOL    HW114039   0.525   6.976   2.609
 4380SOL    HW214040   0.477   0.064   2.497
 4381SOL     OW14041   1.014   5.392   5.475
 4381SOL    HW114042   1.108   5.393   5.509
 4381SOL    HW214043   0.991   5.300   5.442
 4382SOL     OW14044   6.971   2.854   5.453
 4382SOL    HW114045   7.005   2.941   5.489
 4382SOL    HW214046   7.017   2.834   5.367
 4383SOL     OW14047   1.142   3.390   5.930
 4383SOL    HW114048   1.052   3.432   5.931
 4383SOL    HW214049   1.157   3.341   6.016
 4384SOL     OW14050   5.485   0.851   4.615
 4384SOL    HW114051   5.475   0.897   4.703
 4384SOL    HW214052   5.550   0.776   4.624
 4385SOL     OW14053   5.734   2.386   4.774
 4385SOL    HW114054   5.676   2.447   4.828
 4385SOL    HW214055   5.733   2.294   4.815
 4386SOL     OW14056   1.830   3.711   5.758
 4386SOL    HW114057   1.885   3.638   5.798
 4386SOL    HW214058   1.875   3.745   5.675
 4387SOL     OW14059   0.089   1.772   1.207
 4387SOL    HW114060   0.177   1.818   1.223
 4387SOL    HW214061   0.017   1.841   1.200
 4388SOL     OW14062   4.415   2.220   6.048
 4388SOL    HW114063   4.361   2.290   6.096
 4388SOL    HW214064   4.393   2.130   6.084
 4389SOL     OW14065   6.343   3.013   0.900
 4389SOL    HW114066   6.251   3.004   0.860
 4389SOL    HW214067   6.393   3.085   0.852
 4390SOL     OW14068   4.170   0.070   1.549
 4390SOL    HW114069   4.075   0.075   1.578
 4390SOL    HW214070   4.176   0.081   1.450
 4391SOL     OW14071   2.488   5.414   6.640
 4391SOL    HW114072   2.486   5.374   6.548
 4391SOL    HW214073   2.492   5.513   6.634
 4392SOL     OW14074   6.537   3.578   4.861
 4392SOL    HW114075   6.591   3.648   4.909
 4392SOL    HW214076   6.587   3.547   4.780
 4393SOL     OW14077   6.060   0.935   2.794
 4393SOL    HW114078   6.037   0.840   2.817
 4393SOL    HW214079   6.000   0.997   2.844
 4394SOL     OW14080   6.908   5.357   2.507
 4394SOL    HW114081   6.906   5.257   2.505
 4394SOL    HW214082   6.932   5.392   2.417
 4395SOL     OW14083   1.615   0.151   2.370
 4395SOL    HW114084   1.588   0.121   2.278
 4395SOL    HW214085   1.634   0.072   2.427
 4396SOL     OW14086   2.660   1.857   3.924
 4396SOL    HW114087   2.652   1.778   3.863
 4396SOL    HW214088   2.722   1.835   3.999
 4397SOL     OW14089   1.330   2.142   4.217
 4397SOL    HW114090   1.333   2.226   4.162
 4397SOL    HW214091   1.243   2.139   4.267
 4398SOL     OW14092   0.716   3.652   6.163
 4398SOL    HW114093   0.677   3.698   6.243
 4398SOL    HW214094   0.658   3.574   6.138
 4399SOL     OW14095   2.517   0.319   2.985
 4399SOL    HW114096   2.498   0.222   2.969
 4399SOL    HW214097   2.578   0.354   2.913
 4400SOL     OW14098   2.758   6.915   5.382
 4400SOL    HW114099   2.807   6.832   5.358
 4400SOL    HW214100   2.683   6.893   5.444
 4401SOL     OW14101   2.796   0.094   5.952
 4401SOL    HW114102   2.852   0.106   5.870
 4401SOL    HW214103   2.784   7.018   5.971
 4402SOL     OW14104   1.824   0.854   2.089
 4402SOL    HW114105   1.858   0.883   2.179
 4402SOL    HW214106   1.758   0.780   2.101
 4403SOL     OW14107   0.675   0.479   0.475
 4403SOL    HW114108   0.686   0.483   0.574
 4403SOL    HW214109   0.592   0.427   0.452
 4404SOL     OW14110   1.774   5.918   5.546
 4404SOL    HW114111   1.689   5.954   5.586
 4404SOL    HW214112   1.840   5.900   5.620
 4405SOL     OW14113   1.794   4.348   1.877
 4405SOL    HW114114   1.702   4.385   1.870
 4405SOL    HW214115   1.843   4.394   1.951
 4406SOL     OW14116   0.511   3.288   1.282
 4406SOL    HW114117   0.576   3.224   1.241
 4406SOL    HW214118   0.551   3.327   1.366
 4407SOL     OW14119   6.332   5.646   0.733
 4407SOL    HW114120   6.318   5.743   0.712
 4407SOL    HW214121   6.329   5.633   0.833
 4408SOL     OW14122   2.655   0.667   0.911
 4408SOL    HW114123   2.599   0.619   0.844
 4408SOL    HW214124   2.749   0.636   0.904
 4409SOL     OW14125   4.617   1.561   1.998
 4409SOL    HW114126   4.563   1.517   1.926
 4409SOL    HW214127   4.594   1.659   2.001
 4410SOL     OW14128   1.566   4.759   0.147
 4410SOL    HW114129   1.635   4.821   0.110
 4410SOL    HW214130   1.477   4.782   0.107
 4411SOL     OW14131   3.612   4.122   5.089
 4411SOL    HW114132   3.552   4.141   5.167
 4411SOL    HW214133   3.586   4.034   5.048
 4412SOL     OW14134   4.532   6.029   4.166
 4412SOL    HW114135   4.529   6.086   4.248
 4412SOL    HW214136   4.447   6.042   4.114
 4413SOL     OW14137   5.608   4.828   4.743
 4413SOL    HW114138   5.575   4.794   4.655
 4413SOL    HW214139   5.704   4.803   4.755
 4414SOL     OW14140   3.525   5.183   1.308
 4414SOL    HW114141   3.612   5.232   1.302
 4414SOL    HW214142   3.532   5.098   1.255
 4415SOL     OW14143   5.137   2.720   0.655
 4415SOL    HW114144   5.159   2.774   0.574
 4415SOL    HW214145   5.038   2.724   0.672
 4416SOL     OW14146   3.851   1.888   4.028
 4416SOL    HW114147   3.821   1.947   4.103
 4416SOL    HW214148   3.939   1.921   3.993
 4417SOL     OW14149   5.639   4.264   3.706
 4417SOL    HW114150   5.680   4.230   3.791
 4417SOL    HW214151   5.573   4.197   3.672
 4418SOL     OW14152   6.185   1.548   2.107
 4418SOL    HW114153   6.175   1.633   2.158
 4418SOL    HW214154   6.150   1.561   2.014
 4419SOL     OW14155   5.671   6.779   6.177
 4419SOL    HW114156   5.602   6.713   6.207
 4419SOL    HW214157   5.761   6.736   6.177
 4420SOL     OW14158   4.698   1.191   1.833
 4420SOL    HW114159   4.758   1.167   1.909
 4420SOL    HW214160   4.751   1.236   1.761
 4421SOL     OW14161   1.970   1.538   4.888
 4421SOL    HW114162   1.966   1.506   4.982
 4421SOL    HW214163   1.914   1.621   4.878
 4422SOL     OW14164   1.647   3.785   0.183
 4422SOL    HW114165   1.598   3.846   0.245
 4422SOL    HW214166   1.735   3.825   0.158
 4423SOL     OW14167   0.021   3.150   5.529
 4423SOL    HW114168   0.012   3.176   5.625
 4423SOL    HW214169   7.006   3.224   5.472
 4424SOL     OW14170   5.693   1.163   4.292
 4424SOL    HW114171   5.613   1.120   4.334
 4424SOL    HW214172   5.733   1.101   4.225
 4425SOL     OW14173   2.700   4.193   0.047
 4425SOL    HW114174   2.716   4.117   7.006
 4425SOL    HW214175   2.689   4.159   0.140
 4426SOL     OW14176   0.654   1.213   4.139
 4426SOL    HW114177   0.744   1.232   4.099
 4426SOL    HW214178   0.662   1.210   4.239
 4427SOL     OW14179   6.908   6.264   2.047
 4427SOL    HW114180   6.834   6.201   2.024
 4427SOL    HW214181   6.892   6.303   2.138
 4428SOL     OW14182   3.603   1.181   3.894
 4428SOL    HW114183   3.642   1.216   3.809
 4428SOL    HW214184   3.676   1.147   3.952
 4429SOL     OW14185   2.883   6.900   2.573
 4429SOL    HW114186   2.881   6.803   2.595
 4429SOL    HW214187   2.852   6.953   2.653
 4430SOL     OW14188   4.888   4.779   5.329
 4430SOL    HW114189   4.939   4.730   5.258
 4430SOL    HW214190   4.866   4.716   5.404
 4431SOL     OW14191   3.210   1.205   2.744
 4431SOL    HW114192   3.260   1.124   2.773
 4431SOL    HW214193   3.201   1.206   2.644
 4432SOL     OW14194   2.584   3.364   6.275
 4432SOL    HW114195   2.521   3.406   6.341
 4432SOL    HW214196   2.555   3.269   6.258
 4433SOL     OW14197   5.484   1.969   4.534
 4433SOL    HW114198   5.456   1.875   4.553
 4433SOL    HW214199   5.428   2.006   4.460
 4434SOL     OW14200   5.572   1.170   3.090
 4434SOL    HW114201   5.479   1.135   3.079
 4434SOL    HW214202   5.587   1.194   3.186
 4435SOL     OW14203   4.827   3.712   0.988
 4435SOL    HW114204   4.885   3.664   1.054
 4435SOL    HW214205   4.882   3.780   0.939
 4436SOL     OW14206   4.354   0.621   1.387
 4436SOL    HW114207   4.262   0.650   1.361
 4436SOL    HW214208   4.380   0.664   1.474
 4437SOL     OW14209   0.373   3.208   2.636
 4437SOL    HW114210   0.368   3.126   2.579
 4437SOL    HW214211   0.340   3.186   2.728
 4438SOL     OW14212   4.969   0.185   6.130
 4438SOL    HW114213   4.948   0.119   6.058
 4438SOL    HW214214   4.886   0.234   6.154
 4439SOL     OW14215   0.356   3.828   1.834
 4439SOL    HW114216   0.342   3.733   1.862
 4439SOL    HW214217   0.269   3.876   1.834
 4440SOL     OW14218   2.847   4.606   0.370
 4440SOL    HW114219   2.904   4.639   0.295
 4440SOL    HW214220   2.752   4.628   0.353
 4441SOL     OW14221   0.646   1.824   2.317
 4441SOL    HW114222   0.554   1.794   2.291
 4441SOL    HW214223   0.649   1.924   2.322
 4442SOL     OW14224   1.894   5.139   4.214
 4442SOL    HW114225   1.817   5.181   4.262
 4442SOL    HW214226   1.865   5.113   4.122
 4443SOL     OW14227   1.273   3.522   6.346
 4443SOL    HW114228   1.339   3.502   6.274
 4443SOL    HW214229   1.297   3.470   6.429
 4444SOL     OW14230   3.271   4.013   5.337
 4444SOL    HW114231   3.270   4.065   5.251
 4444SOL    HW214232   3.234   3.921   5.320
 4445SOL     OW14233   1.632   6.419   6.876
 4445SOL    HW114234   1.632   6.352   6.802
 4445SOL    HW214235   1.587   6.379   6.957
 4446SOL     OW14236   5.021   1.251   1.225
 4446SOL    HW114237   5.071   1.235   1.310
 4446SOL    HW214238   5.076   1.219   1.148
 4447SOL     OW14239   4.905   4.508   6.071
 4447SOL    HW114240   4.858   4.596   6.063
 4447SOL    HW214241   4.840   4.434   6.053
 4448SOL     OW14242   2.403   4.472   1.487
 4448SOL    HW114243   2.348   4.487   1.569
 4448SOL    HW214244   2.454   4.387   1.496
 4449SOL     OW14245   4.850   1.213   6.306
 4449SOL    HW114246   4.869   1.230   6.403
 4449SOL    HW214247   4.814   1.297   6.264
 4450SOL     OW14248   3.861   2.735   5.788
 4450SOL    HW114249   3.819   2.675   5.721
 4450SOL    HW214250   3.875   2.685   5.874
 4451SOL     OW14251   5.748   4.595   3.254
 4451SOL    HW114252   5.728   4.500   3.229
 4451SOL    HW214253   5.789   4.642   3.176
 4452SOL     OW14254   5.645   5.876   4.499
 4452SOL    HW114255   5.692   5.948   4.448
 4452SOL    HW214256   5.547   5.896   4.503
 4453SOL     OW14257   0.989   2.818   1.114
 4453SOL    HW114258   1.016   2.902   1.066
 4453SOL    HW214259   0.989   2.741   1.049
 4454SOL     OW14260   1.263   1.939   0.175
 4454SOL    HW114261   1.189   1.906   0.117
 4454SOL    HW214262   1.311   1.862   0.216
 4455SOL     OW14263   5.135   5.798   5.676
 4455SOL    HW114264   5.090   5.861   5.739
 4455SOL    HW214265   5.134   5.706   5.714
 4456SOL     OW14266   2.599   5.849   2.513
 4456SOL    HW114267   2.552   5.856   2.425
 4456SOL    HW214268   2.692   5.885   2.505
 4457SOL     OW14269   3.769   1.115   2.883
 4457SOL    HW114270   3.848   1.113   2.944
 4457SOL    HW214271   3.773   1.037   2.821
 4458SOL     OW14272   1.892   2.694   0.320
 4458SOL    HW114273   1.815   2.730   0.372
 4458SOL    HW214274   1.977   2.736   0.351
 4459SOL     OW14275   4.163   1.882   4.082
 4459SOL    HW114276   4.149   1.784   4.068
 4459SOL    HW214277   4.254   1.897   4.121
 4460SOL     OW14278   1.661   2.576   6.383
 4460SOL    HW114279   1.627   2.583   6.289
 4460SOL    HW214280   1.738   2.639   6.396
 4461SOL     OW14281   2.147   0.552   0.870
 4461SOL    HW114282   2.103   0.464   0.890
 4461SOL    HW214283   2.080   0.615   0.832
 4462SOL     OW14284   6.055   4.970   2.285
 4462SOL    HW114285   5.979   4.921   2.329
 4462SOL    HW214286   6.132   4.908   2.274
 4463SOL     OW14287   4.685   1.023   0.644
 4463SOL    HW114288   4.649   0.950   0.703
 4463SOL    HW214289   4.691   1.108   0.696
 4464SOL     OW14290   0.086   5.373   0.157
 4464SOL    HW114291   7.014   5.391   0.125
 4464SOL    HW214292   0.128   5.458   0.187
 4465SOL     OW14293   3.649   4.896   1.074
 4465SOL    HW114294   3.613   4.833   1.004
 4465SOL    HW214295   3.674   4.982   1.031
 4466SOL     OW14296   1.302   1.592   3.151
 4466SOL    HW114297   1.281   1.562   3.058
 4466SOL    HW214298   1.231   1.655   3.183
 4467SOL     OW14299   1.656   5.473   2.482
 4467SOL    HW114300   1.670   5.532   2.561
 4467SOL    HW214301   1.744   5.449   2.441
 4468SOL     OW14302   1.726   4.166   0.186
 4468SOL    HW114303   1.805   4.121   0.145
 4468SOL    HW214304   1.734   4.265   0.173
 4469SOL     OW14305   3.323   0.621   2.039
 4469SOL    HW114306   3.384   0.621   2.118
 4469SOL    HW214307   3.234   0.583   2.066
 4470SOL     OW14308   0.329   2.044   2.136
 4470SOL    HW114309   0.321   2.100   2.218
 4470SOL    HW214310   0.356   2.101   2.059
 4471SOL     OW14311   1.239   2.288   6.566
 4471SOL    HW114312   1.289   2.369   6.536
 4471SOL    HW214313   1.300   2.208   6.560
 4472SOL     OW14314   0.478   3.294   1.951
 4472SOL    HW114315   0.480   3.394   1.945
 4472SOL    HW214316   0.525   3.265   2.035
 4473SOL     OW14317   5.542   2.959   3.949
 4473SOL    HW114318   5.518   2.942   3.853
 4473SOL    HW214319   5.557   2.871   3.995
 4474SOL     OW14320   2.218   0.526   2.165
 4474SOL    HW114321   2.267   0.439   2.177
 4474SOL    HW214322   2.284   0.598   2.141
 4475SOL     OW14323   1.084   4.445   2.084
 4475SOL    HW114324   1.015   4.374   2.069
 4475SOL    HW214325   1.042   4.521   2.133
 4476SOL     OW14326   5.966   0.741   3.115
 4476SOL    HW114327   5.984   0.718   3.020
 4476SOL    HW214328   5.924   0.832   3.120
 4477SOL     OW14329   1.808   0.272   5.554
 4477SOL    HW114330   1.888   0.263   5.495
 4477SOL    HW214331   1.829   0.334   5.630
 4478SOL     OW14332   3.387   6.877   2.449
 4478SOL    HW114333   3.288   6.890   2.455
 4478SOL    HW214334   3.424   6.864   2.541
 4479SOL     OW14335   0.332   2.345   0.963
 4479SOL    HW114336   0.361   2.422   0.907
 4479SOL    HW214337   0.405   2.277   0.966
 4480SOL     OW14338   0.333   4.364   4.938
 4480SOL    HW114339   0.381   4.320   5.014
 4480SOL    HW214340   0.368   4.327   4.851
 4481SOL     OW14341   3.633   5.886   4.639
 4481SOL    HW114342   3.610   5.793   4.610
 4481SOL    HW214343   3.732   5.894   4.650
 4482SOL     OW14344   1.809   3.333   5.111
 4482SOL    HW114345   1.814   3.359   5.015
 4482SOL    HW214346   1.787   3.236   5.119
 4483SOL     OW14347   6.068   2.467   2.231
 4483SOL    HW114348   6.106   2.450   2.140
 4483SOL    HW214349   6.108   2.550   2.269
 4484SOL     OW14350   3.412   2.398   6.767
 4484SOL    HW114351   3.461   2.419   6.683
 4484SOL    HW214352   3.477   2.371   6.838
 4485SOL     OW14353   5.711   2.551   4.280
 4485SOL    HW114354   5.759   2.496   4.212
 4485SOL    HW214355   5.737   2.521   4.372
 4486SOL     OW14356   6.456   5.461   5.425
 4486SOL    HW114357   6.519   5.404   5.478
 4486SOL    HW214358   6.509   5.523   5.367
 4487SOL     OW14359   3.122   2.928   6.381
 4487SOL    HW114360   3.069   2.844   6.393
 4487SOL    HW214361   3.107   2.963   6.288
 4488SOL     OW14362   0.185   3.736   5.823
 4488SOL    HW114363   0.275   3.777   5.836
 4488SOL    HW214364   0.194   3.653   5.768
 4489SOL     OW14365   4.949   5.707   5.046
 4489SOL    HW114366   4.986   5.768   5.116
 4489SOL    HW214367   5.017   5.638   5.022
 4490SOL     OW14368   5.463   2.150   2.300
 4490SOL    HW114369   5.432   2.192   2.215
 4490SOL    HW214370   5.420   2.195   2.378
 4491SOL     OW14371   0.434   3.233   3.714
 4491SOL    HW114372   0.361   3.178   3.674
 4491SOL    HW214373   0.394   3.307   3.768
 4492SOL     OW14374   5.846   4.602   2.393
 4492SOL    HW114375   5.805   4.515   2.419
 4492SOL    HW214376   5.828   4.620   2.296
 4493SOL     OW14377   4.880   5.491   4.674
 4493SOL    HW114378   4.818   5.539   4.612
 4493SOL    HW214379   4.827   5.435   4.737
 4494SOL     OW14380   0.462   0.886   6.748
 4494SOL    HW114381   0.519   0.805   6.731
 4494SOL    HW214382   0.443   0.931   6.661
 4495SOL     OW14383   3.950   6.986   3.946
 4495SOL    HW114384   4.024   0.032   3.944
 4495SOL    HW214385   3.932   6.958   4.040
 4496SOL     OW14386   5.884   6.513   1.387
 4496SOL    HW114387   5.865   6.444   1.458
 4496SOL    HW214388   5.799   6.540   1.344
 4497SOL     OW14389   4.797   2.368   6.825
 4497SOL    HW114390   4.699   2.383   6.822
 4497SOL    HW214391   4.829   2.373   6.920
 4498SOL     OW14392   6.979   3.328   0.372
 4498SOL    HW114393   6.925   3.301   0.452
 4498SOL    HW214394   0.043   3.371   0.402
 4499SOL     OW14395   5.957   3.795   4.174
 4499SOL    HW114396   5.932   3.718   4.233
 4499SOL    HW214397   5.995   3.869   4.230
 4500SOL     OW14398   3.141   3.029   4.516
 4500SOL    HW114399   3.158   3.078   4.431
 4500SOL    HW214400   3.120   3.094   4.589
 4501SOL     OW14401   0.142   3.406   2.621
 4501SOL    HW114402   0.196   3.462   2.684
 4501SOL    HW214403   0.157   3.309   2.642
 4502SOL     OW14404   0.626   3.007   0.136
 4502SOL    HW114405   0.597   2.914   0.159
 4502SOL    HW214406   0.603   3.069   0.211
 4503SOL     OW14407   3.721   6.869   1.973
 4503SOL    HW114408   3.629   6.844   2.003
 4503SOL    HW214409   3.786   6.799   2.003
 4504SOL     OW14410   7.019   1.145   4.674
 4504SOL    HW114411   0.040   1.220   4.725
 4504SOL    HW214412   0.060   1.066   4.673
 4505SOL     OW14413   6.645   5.283   2.405
 4505SOL    HW114414   6.667   5.379   2.387
 4505SOL    HW214415   6.695   5.224   2.342
 4506SOL     OW14416   4.825   3.029   3.649
 4506SOL    HW114417   4.810   3.103   3.583
 4506SOL    HW214418   4.856   3.068   3.736
 4507SOL     OW14419   6.171   4.528   3.656
 4507SOL    HW114420   6.247   4.576   3.612
 4507SOL    HW214421   6.088   4.584   3.649
 4508SOL     OW14422   1.408   5.254   6.909
 4508SOL    HW114423   1.362   5.186   6.967
 4508SOL    HW214424   1.416   5.218   6.816
 4509SOL     OW14425   4.978   2.505   2.966
 4509SOL    HW114426   5.028   2.434   3.015
 4509SOL    HW214427   4.893   2.525   3.013
 4510SOL     OW14428   4.246   2.142   4.274
 4510SOL    HW114429   4.330   2.104   4.314
 4510SOL    HW214430   4.269   2.199   4.195
 4511SOL     OW14431   5.872   3.987   6.293
 4511SOL    HW114432   5.894   3.925   6.368
 4511SOL    HW214433   5.796   3.949   6.239
 4512SOL     OW14434   2.546   1.209   5.788
 4512SOL    HW114435   2.550   1.254   5.877
 4512SOL    HW214436   2.639   1.203   5.750
 4513SOL     OW14437   0.591   4.922   6.193
 4513SOL    HW114438   0.537   4.882   6.119
 4513SOL    HW214439   0.542   5.000   6.231
 4514SOL     OW14440   3.499   1.949   6.203
 4514SOL    HW114441   3.506   1.911   6.111
 4514SOL    HW214442   3.414   2.000   6.212
 4515SOL     OW14443   5.785   2.027   5.267
 4515SOL    HW114444   5.744   2.110   5.304
 4515SOL    HW214445   5.851   1.990   5.332
 4516SOL     OW14446   2.290   6.916   0.152
 4516SOL    HW114447   2.350   6.995   0.139
 4516SOL    HW214448   2.345   6.833   0.149
 4517SOL     OW14449   4.792   6.828   6.897
 4517SOL    HW114450   4.860   6.778   6.843
 4517SOL    HW214451   4.829   6.846   6.988
 4518SOL     OW14452   6.750   6.910   2.455
 4518SOL    HW114453   6.765   6.980   2.385
 4518SOL    HW214454   6.656   6.878   2.450
 4519SOL     OW14455   6.034   0.270   1.233
 4519SOL    HW114456   5.950   0.285   1.287
 4519SOL    HW214457   6.041   0.173   1.208
 4520SOL     OW14458   4.333   6.376   5.442
 4520SOL    HW114459   4.383   6.300   5.483
 4520SOL    HW214460   4.369   6.463   5.477
 4521SOL     OW14461   5.822   2.139   4.945
 4521SOL    HW114462   5.912   2.125   4.987
 4521SOL    HW214463   5.774   2.052   4.939
 4522SOL     OW14464   5.606   5.263   3.786
 4522SOL    HW114465   5.556   5.320   3.721
 4522SOL    HW214466   5.595   5.167   3.762
 4523SOL     OW14467   1.396   4.845   6.978
 4523SOL    HW114468   1.364   4.770   6.920
 4523SOL    HW214469   1.494   4.859   6.963
 4524SOL     OW14470   6.549   2.772   1.895
 4524SOL    HW114471   6.541   2.767   1.995
 4524SOL    HW214472   6.525   2.683   1.855
 4525SOL     OW14473   5.059   2.451   5.345
 4525SOL    HW114474   5.157   2.468   5.345
 4525SOL    HW214475   5.011   2.527   5.302
 4526SOL     OW14476   6.699   0.343   6.640
 4526SOL    HW114477   6.790   0.384   6.646
 4526SOL    HW214478   6.661   0.359   6.549
 4527SOL     OW14479   6.747   1.288   2.965
 4527SOL    HW114480   6.661   1.309   3.010
 4527SOL    HW214481   6.824   1.309   3.026
 4528SOL     OW14482   4.601   0.399   6.694
 4528SOL    HW114483   4.659   0.326   6.731
 4528SOL    HW214484   4.633   0.423   6.603
 4529SOL     OW14485   2.099   0.825   5.103
 4529SOL    HW114486   2.037   0.832   5.024
 4529SOL    HW214487   2.089   0.734   5.144
 4530SOL     OW14488   1.994   5.623   4.207
 4530SOL    HW114489   2.056   5.576   4.271
 4530SOL    HW214490   1.930   5.680   4.258
 4531SOL     OW14491   0.755   2.786   5.433
 4531SOL    HW114492   0.668   2.834   5.446
 4531SOL    HW214493   0.807   2.830   5.360
 4532SOL     OW14494   6.650   1.477   2.154
 4532SOL    HW114495   6.554   1.486   2.183
 4532SOL    HW214496   6.670   1.546   2.084
 4533SOL     OW14497   1.856   1.046   2.513
 4533SOL    HW114498   1.808   1.117   2.461
 4533SOL    HW214499   1.792   0.973   2.538
 4534SOL     OW14500   5.729   4.358   4.885
 4534SOL    HW114501   5.739   4.285   4.952
 4534SOL    HW214502   5.688   4.438   4.929
 4535SOL     OW14503   3.598   0.514   2.241
 4535SOL    HW114504   3.562   0.537   2.332
 4535SOL    HW214505   3.677   0.454   2.251
 4536SOL     OW14506   4.580   1.500   4.460
 4536SOL    HW114507   4.637   1.420   4.442
 4536SOL    HW214508   4.546   1.496   4.554
 4537SOL     OW14509   4.078   3.502   0.809
 4537SOL    HW114510   4.144   3.547   0.869
 4537SOL    HW214511   3.992   3.553   0.808
 4538SOL     OW14512   1.956   0.726   2.662
 4538SOL    HW114513   1.871   0.675   2.654
 4538SOL    HW214514   1.987   0.754   2.571
 4539SOL     OW14515   3.287   6.347   4.819
 4539SOL    HW114516   3.223   6.330   4.744
 4539SOL    HW214517   3.371   6.295   4.802
 4540SOL     OW14518   2.182   2.438   6.885
 4540SOL    HW114519   2.195   2.454   6.787
 4540SOL    HW214520   2.256   2.379   6.918
 4541SOL     OW14521   5.896   1.833   6.507
 4541SOL    HW114522   5.798   1.839   6.485
 4541SOL    HW214523   5.913   1.750   6.559
 4542SOL     OW14524   0.203   2.350   1.316
 4542SOL    HW114525   0.122   2.372   1.261
 4542SOL    HW214526   0.219   2.423   1.383
 4543SOL     OW14527   4.553   2.769   1.036
 4543SOL    HW114528   4.575   2.718   1.119
 4543SOL    HW214529   4.466   2.737   1.000
 4544SOL     OW14530   3.376   5.582   6.425
 4544SOL    HW114531   3.438   5.591   6.348
 4544SOL    HW214532   3.425   5.598   6.510
 4545SOL     OW14533   6.016   3.224   4.195
 4545SOL    HW114534   6.087   3.273   4.144
 4545SOL    HW214535   5.934   3.216   4.139
 4546SOL     OW14536   2.486   0.490   4.070
 4546SOL    HW114537   2.574   0.456   4.104
 4546SOL    HW214538   2.436   0.416   4.027
 4547SOL     OW14539   6.245   2.028   0.872
 4547SOL    HW114540   6.147   2.044   0.861
 4547SOL    HW214541   6.291   2.116   0.886
 4548SOL     OW14542   1.982   2.534   3.791
 4548SOL    HW114543   2.082   2.535   3.783
 4548SOL    HW214544   1.943   2.607   3.735
 4549SOL     OW14545   5.456   4.016   2.586
 4549SOL    HW114546   5.438   3.947   2.516
 4549SOL    HW214547   5.513   4.089   2.548
 4550SOL     OW14548   1.096   5.298   3.396
 4550SOL    HW114549   1.097   5.215   3.339
 4550SOL    HW214550   1.106   5.272   3.492
 4551SOL     OW14551   0.998   3.496   4.654
 4551SOL    HW114552   0.996   3.533   4.561
 4551SOL    HW214553   0.913   3.519   4.701
 4552SOL     OW14554   5.627   2.052   1.235
 4552SOL    HW114555   5.574   2.110   1.174
 4552SOL    HW214556   5.633   2.095   1.325
 4553SOL     OW14557   4.504   4.219   0.362
 4553SOL    HW114558   4.592   4.246   0.399
 4553SOL    HW214559   4.431   4.273   0.404
 4554SOL     OW14560   6.514   6.633   2.045
 4554SOL    HW114561   6.583   6.562   2.033
 4554SOL    HW214562   6.458   6.613   2.125
 4555SOL     OW14563   1.750   1.940   5.251
 4555SOL    HW114564   1.691   2.018   5.272
 4555SOL    HW214565   1.801   1.913   5.333
 4556SOL     OW14566   5.326   3.847   4.439
 4556SOL    HW114567   5.394   3.843   4.512
 4556SOL    HW214568   5.234   3.853   4.479
 4557SOL     OW14569   4.738   5.667   4.531
 4557SOL    HW114570   4.699   5.723   4.603
 4557SOL    HW214571   4.827   5.703   4.505
 4558SOL     OW14572   0.027   4.353   4.649
 4558SOL    HW114573   0.123   4.366   4.627
 4558SOL    HW214574   0.007   4.394   4.738
 4559SOL     OW14575   0.084   3.401   2.357
 4559SOL    HW114576   7.020   3.351   2.341
 4559SOL    HW214577   0.099   3.410   2.456
 4560SOL     OW14578   5.788   3.776   1.016
 4560SOL    HW114579   5.763   3.871   0.997
 4560SOL    HW214580   5.764   3.753   1.110
 4561SOL     OW14581   3.536   1.964   3.281
 4561SOL    HW114582   3.505   1.913   3.200
 4561SOL    HW214583   3.460   1.972   3.345
 4562SOL     OW14584   2.072   6.951   6.725
 4562SOL    HW114585   2.007   0.000   6.752
 4562SOL    HW214586   2.052   6.921   6.632
 4563SOL     OW14587   0.051   2.630   1.297
 4563SOL    HW114588   0.014   2.722   1.307
 4563SOL    HW214589   0.077   2.594   1.386
 4564SOL     OW14590   0.052   6.228   1.815
 4564SOL    HW114591   0.106   6.310   1.798
 4564SOL    HW214592   7.020   6.240   1.899
 4565SOL     OW14593   0.996   0.442   4.588
 4565SOL    HW114594   1.076   0.410   4.538
 4565SOL    HW214595   0.942   0.502   4.529
 4566SOL     OW14596   0.178   3.188   0.592
 4566SOL    HW114597   0.270   3.151   0.577
 4566SOL    HW214598   0.142   3.223   0.505
 4567SOL     OW14599   6.490   1.131   6.546
 4567SOL    HW114600   6.531   1.055   6.495
 4567SOL    HW214601   6.393   1.138   6.523
 4568SOL     OW14602   1.989   3.518   5.865
 4568SOL    HW114603   2.049   3.487   5.791
 4568SOL    HW214604   1.984   3.447   5.935
 4569SOL     OW14605   2.416   0.816   3.012
 4569SOL    HW114606   2.335   0.876   3.013
 4569SOL    HW214607   2.433   0.782   3.104
 4570SOL     OW14608   6.999   6.487   2.385
 4570SOL    HW114609   0.052   6.483   2.452
 4570SOL    HW214610   6.946   6.403   2.388
 4571SOL     OW14611   4.244   3.656   6.026
 4571SOL    HW114612   4.327   3.617   6.066
 4571SOL    HW214613   4.269   3.714   5.949
 4572SOL     OW14614   1.633   0.831   6.413
 4572SOL    HW114615   1.635   0.920   6.458
 4572SOL    HW214616   1.697   0.831   6.336
 4573SOL     OW14617   6.817   0.511   0.503
 4573SOL    HW114618   6.741   0.539   0.446
 4573SOL    HW214619   6.815   0.563   0.589
 4574SOL     OW14620   5.759   4.066   0.655
 4574SOL    HW114621   5.813   3.983   0.643
 4574SOL    HW214622   5.755   4.116   0.568
 4575SOL     OW14623   5.714   0.467   5.529
 4575SOL    HW114624   5.641   0.513   5.477
 4575SOL    HW214625   5.676   0.435   5.616
 4576SOL     OW14626   3.844   5.816   5.589
 4576SOL    HW114627   3.793   5.762   5.522
 4576SOL    HW214628   3.900   5.755   5.645
 4577SOL     OW14629   0.974   1.961   4.227
 4577SOL    HW114630   0.991   1.997   4.319
 4577SOL    HW214631   0.946   2.036   4.167
 4578SOL     OW14632   0.859   2.300   5.246
 4578SOL    HW114633   0.864   2.397   5.270
 4578SOL    HW214634   0.770   2.279   5.208
 4579SOL     OW14635   3.933   0.308   3.210
 4579SOL    HW114636   3.944   0.316   3.111
 4579SOL    HW214637   3.926   0.212   3.235
 4580SOL     OW14638   5.622   4.430   1.118
 4580SOL    HW114639   5.686   4.507   1.117
 4580SOL    HW214640   5.539   4.456   1.070
 4581SOL     OW14641   1.819   6.063   2.379
 4581SOL    HW114642   1.873   5.983   2.352
 4581SOL    HW214643   1.800   6.119   2.298
 4582SOL     OW14644   4.468   0.711   5.105
 4582SOL    HW114645   4.476   0.631   5.045
 4582SOL    HW214646   4.383   0.759   5.085
 4583SOL     OW14647   2.943   2.085   6.864
 4583SOL    HW114648   3.025   2.142   6.861
 4583SOL    HW214649   2.955   2.012   6.931
 4584SOL     OW14650   1.110   4.675   5.219
 4584SOL    HW114651   1.071   4.755   5.263
 4584SOL    HW214652   1.042   4.633   5.158
 4585SOL     OW14653   1.575   5.414   3.044
 4585SOL    HW114654   1.552   5.316   3.042
 4585SOL    HW214655   1.508   5.465   2.990
 4586SOL     OW14656   4.028   4.371   0.818
 4586SOL    HW114657   4.014   4.388   0.916
 4586SOL    HW214658   4.126   4.370   0.798
 4587SOL     OW14659   3.313   4.053   3.580
 4587SOL    HW114660   3.317   4.136   3.636
 4587SOL    HW214661   3.296   3.974   3.640
 4588SOL     OW14662   2.803   3.652   5.442
 4588SOL    HW114663   2.741   3.701   5.381
 4588SOL    HW214664   2.770   3.660   5.536
 4589SOL     OW14665   6.192   0.739   2.105
 4589SOL    HW114666   6.133   0.700   2.175
 4589SOL    HW214667   6.141   0.750   2.020
 4590SOL     OW14668   4.593   5.426   1.350
 4590SOL    HW114669   4.516   5.486   1.329
 4590SOL    HW214670   4.626   5.445   1.442
 4591SOL     OW14671   1.993   0.705   4.861
 4591SOL    HW114672   2.038   0.728   4.774
 4591SOL    HW214673   1.983   0.606   4.868
 4592SOL     OW14674   3.044   1.635   3.070
 4592SOL    HW114675   3.141   1.649   3.092
 4592SOL    HW214676   2.997   1.598   3.150
 4593SOL     OW14677   4.863   6.159   2.035
 4593SOL    HW114678   4.824   6.130   2.122
 4593SOL    HW214679   4.829   6.250   2.012
 4594SOL     OW14680   2.528   1.254   3.192
 4594SOL    HW114681   2.482   1.275   3.278
 4594SOL    HW214682   2.608   1.312   3.182
 4595SOL     OW14683   4.843   3.181   5.879
 4595SOL    HW114684   4.858   3.220   5.970
 4595SOL    HW214685   4.860   3.252   5.810
 4596SOL     OW14686   6.388   1.189   2.683
 4596SOL    HW114687   6.457   1.124   2.651
 4596SOL    HW214688   6.433   1.270   2.720
 4597SOL     OW14689   3.632   5.377   6.413
 4597SOL    HW114690   3.556   5.411   6.467
 4597SOL    HW214691   3.706   5.348   6.474
 4598SOL     OW14692   1.259   5.935   1.014
 4598SOL    HW114693   1.238   5.980   0.926
 4598SOL    HW214694   1.261   5.836   1.001
 4599SOL     OW14695   1.788   4.974   0.537
 4599SOL    HW114696   1.772   5.068   0.510
 4599SOL    HW214697   1.851   4.930   0.473
 4600SOL     OW14698   0.567   5.830   5.224
 4600SOL    HW114699   0.645   5.849   5.284
 4600SOL    HW214700   0.502   5.771   5.272
 4601SOL     OW14701   1.552   1.281   5.506
 4601SOL    HW114702   1.649   1.261   5.495
 4601SOL    HW214703   1.526   1.356   5.444
 4602SOL     OW14704   3.176   6.765   0.293
 4602SOL    HW114705   3.181   6.843   0.230
 4602SOL    HW214706   3.082   6.754   0.325
 4603SOL     OW14707   3.754   6.141   0.805
 4603SOL    HW114708   3.780   6.228   0.846
 4603SOL    HW214709   3.785   6.066   0.863
 4604SOL     OW14710   4.626   0.025   0.085
 4604SOL    HW114711   4.530   0.053   0.078
 4604SOL    HW214712   4.631   6.947   0.096
 4605SOL     OW14713   1.380   5.782   2.536
 4605SOL    HW114714   1.326   5.698   2.534
 4605SOL    HW214715   1.467   5.767   2.491
 4606SOL     OW14716   0.406   0.195   2.402
 4606SOL    HW114717   0.311   0.166   2.398
 4606SOL    HW214718   0.422   0.266   2.333
 4607SOL     OW14719   2.227   3.044   2.980
 4607SOL    HW114720   2.211   2.979   3.055
 4607SOL    HW214721   2.298   3.109   3.008
 4608SOL     OW14722   0.494   5.502   3.880
 4608SOL    HW114723   0.405   5.542   3.861
 4608SOL    HW214724   0.517   5.436   3.809
 4609SOL     OW14725   4.869   5.153   0.124
 4609SOL    HW114726   4.903   5.185   0.035
 4609SOL    HW214727   4.784   5.201   0.146
 4610SOL     OW14728   4.908   1.654   0.273
 4610SOL    HW114729   5.006   1.662   0.293
 4610SOL    HW214730   4.892   1.670   0.176
 4611SOL     OW14731   0.916   6.701   5.949
 4611SOL    HW114732   0.833   6.727   5.999
 4611SOL    HW214733   0.980   6.656   6.012
 4612SOL     OW14734   1.627   6.459   0.844
 4612SOL    HW114735   1.570   6.435   0.765
 4612SOL    HW214736   1.711   6.403   0.842
 4613SOL     OW14737   1.227   5.549   2.248
 4613SOL    HW114738   1.290   5.625   2.230
 4613SOL    HW214739   1.265   5.491   2.320
 4614SOL     OW14740   5.878   3.253   3.746
 4614SOL    HW114741   5.940   3.330   3.762
 4614SOL    HW214742   5.787   3.288   3.723
 4615SOL     OW14743   1.369   1.174   7.020
 4615SOL    HW114744   1.379   1.173   6.920
 4615SOL    HW214745   1.404   1.260   0.035
 4616SOL     OW14746   6.611   1.260   4.516
 4616SOL    HW114747   6.584   1.167   4.493
 4616SOL    HW214748   6.550   1.325   4.471
 4617SOL     OW14749   0.950   1.666   2.795
 4617SOL    HW114750   0.992   1.654   2.885
 4617SOL    HW214751   0.871   1.727   2.803
 4618SOL     OW14752   2.325   3.000   5.430
 4618SOL    HW114753   2.314   3.088   5.476
 4618SOL    HW214754   2.385   3.011   5.352
 4619SOL     OW14755   3.256   6.051   3.848
 4619SOL    HW114756   3.254   6.071   3.946
 4619SOL    HW214757   3.265   6.135   3.796
 4620SOL     OW14758   1.259   5.246   0.644
 4620SOL    HW114759   1.343   5.192   0.647
 4620SOL    HW214760   1.270   5.319   0.576
 4621SOL     OW14761   4.601   0.627   2.645
 4621SOL    HW114762   4.510   0.617   2.604
 4621SOL    HW214763   4.640   0.715   2.619
 4622SOL     OW14764   3.704   5.117   0.947
 4622SOL    HW114765   3.666   5.205   0.919
 4622SOL    HW214766   3.803   5.116   0.931
 4623SOL     OW14767   5.247   5.890   1.964
 4623SOL    HW114768   5.290   5.980   1.968
 4623SOL    HW214769   5.232   5.864   1.869
 4624SOL     OW14770   3.485   6.948   3.159
 4624SOL    HW114771   3.567   6.898   3.128
 4624SOL    HW214772   3.513   0.015   3.197
 4625SOL     OW14773   1.698   4.770   1.599
 4625SOL    HW114774   1.770   4.837   1.619
 4625SOL    HW214775   1.738   4.687   1.562
 4626SOL     OW14776   4.865   3.869   1.982
 4626SOL    HW114777   4.876   3.890   2.079
 4626SOL    HW214778   4.779   3.907   1.949
 4627SOL     OW14779   2.004   5.103   4.840
 4627SOL    HW114780   1.904   5.103   4.851
 4627SOL    HW214781   2.037   5.197   4.842
 4628SOL     OW14782   4.847   4.263   4.938
 4628SOL    HW114783   4.772   4.325   4.958
 4628SOL    HW214784   4.915   4.266   5.012
 4629SOL     OW14785   2.988   5.523   5.464
 4629SOL    HW114786   2.969   5.471   5.548
 4629SOL    HW214787   2.965   5.467   5.384
 4630SOL     OW14788   2.004   6.287   2.185
 4630SOL    HW114789   1.946   6.332   2.118
 4630SOL    HW214790   2.100   6.292   2.155
 4631SOL     OW14791   1.155   5.875   3.114
 4631SOL    HW114792   1.098   5.858   3.194
 4631SOL    HW214793   1.097   5.906   3.038
 4632SOL     OW14794   2.298   4.244   2.723
 4632SOL    HW114795   2.369   4.313   2.734
 4632SOL    HW214796   2.210   4.289   2.708
 4633SOL     OW14797   6.115   0.426   4.504
 4633SOL    HW114798   6.150   0.410   4.596
 4633SOL    HW214799   6.156   0.509   4.467
 4634SOL     OW14800   2.670   3.889   5.286
 4634SOL    HW114801   2.668   3.903   5.385
 4634SOL    HW214802   2.582   3.915   5.247
 4635SOL     OW14803   4.644   3.952   1.740
 4635SOL    HW114804   4.609   3.942   1.647
 4635SOL    HW214805   4.661   4.049   1.759
 4636SOL     OW14806   2.469   4.673   0.497
 4636SOL    HW114807   2.518   4.634   0.419
 4636SOL    HW214808   2.531   4.684   0.574
 4637SOL     OW14809   0.204   6.675   0.973
 4637SOL    HW114810   0.140   6.745   1.007
 4637SOL    HW214811   0.178   6.586   1.010
 4638SOL     OW14812   4.001   5.141   6.864
 4638SOL    HW114813   4.019   5.091   6.779
 4638SOL    HW214814   3.956   5.080   6.930
 4639SOL     OW14815   3.635   3.377   6.770
 4639SOL    HW114816   3.674   3.400   6.681
 4639SOL    HW214817   3.662   3.446   6.837
 4640SOL     OW14818   4.936   4.238   4.249
 4640SOL    HW114819   5.009   4.226   4.316
 4640SOL    HW214820   4.853   4.269   4.295
 4641SOL     OW14821   3.020   0.780   4.779
 4641SOL    HW114822   3.024   0.685   4.810
 4641SOL    HW214823   2.998   0.782   4.681
 4642SOL     OW14824   1.153   6.964   2.961
 4642SOL    HW114825   1.086   6.893   2.939
 4642SOL    HW214826   1.154   0.012   2.888
 4643SOL     OW14827   6.485   2.340   0.525
 4643SOL    HW114828   6.560   2.299   0.577
 4643SOL    HW214829   6.498   2.439   0.520
 4644SOL     OW14830   0.887   6.692   5.407
 4644SOL    HW114831   0.948   6.766   5.381
 4644SOL    HW214832   0.804   6.696   5.351
 4645SOL     OW14833   0.772   0.593   4.395
 4645SOL    HW114834   0.780   0.666   4.328
 4645SOL    HW214835   0.753   0.507   4.348
 4646SOL     OW14836   2.113   5.464   3.184
 4646SOL    HW114837   2.085   5.536   3.248
 4646SOL    HW214838   2.177   5.504   3.117
 4647SOL     OW14839   1.802   0.202   2.724
 4647SOL    HW114840   1.864   0.203   2.645
 4647SOL    HW214841   1.816   0.118   2.776
 4648SOL     OW14842   3.558   0.453   2.739
 4648SOL    HW114843   3.468   0.410   2.732
 4648SOL    HW214844   3.595   0.439   2.830
 4649SOL     OW14845   5.488   0.896   0.237
 4649SOL    HW114846   5.464   0.938   0.149
 4649SOL    HW214847   5.522   0.803   0.221
 4650SOL     OW14848   4.628   5.558   2.058
 4650SOL    HW114849   4.707   5.599   2.012
 4650SOL    HW214850   4.657   5.521   2.147
 4651SOL     OW14851   6.323   3.791   6.456
 4651SOL    HW114852   6.409   3.755   6.420
 4651SOL    HW214853   6.246   3.742   6.415
 4652SOL     OW14854   6.026   5.906   4.668
 4652SOL    HW114855   6.019   5.857   4.580
 4652SOL    HW214856   5.992   5.999   4.657
 4653SOL     OW14857   5.475   5.880   1.226
 4653SOL    HW114858   5.379   5.895   1.203
 4653SOL    HW214859   5.487   5.891   1.325
 4654SOL     OW14860   0.840   5.905   6.365
 4654SOL    HW114861   0.808   5.877   6.456
 4654SOL    HW214862   0.940   5.907   6.364
 4655SOL     OW14863   5.876   3.540   0.919
 4655SOL    HW114864   5.847   3.547   0.823
 4655SOL    HW214865   5.847   3.621   0.969
 4656SOL     OW14866   1.317   1.036   1.422
 4656SOL    HW114867   1.230   1.023   1.470
 4656SOL    HW214868   1.345   0.949   1.381
 4657SOL     OW14869   4.585   5.812   1.471
 4657SOL    HW114870   4.586   5.741   1.541
 4657SOL    HW214871   4.541   5.894   1.507
 4658SOL     OW14872   3.204   0.293   4.549
 4658SOL    HW114873   3.215   0.264   4.454
 4658SOL    HW214874   3.134   0.236   4.593
 4659SOL     OW14875   2.473   4.385   5.901
 4659SOL    HW114876   2.493   4.287   5.899
 4659SOL    HW214877   2.478   4.422   5.808
 4660SOL     OW14878   0.881   5.970   4.917
 4660SOL    HW114879   0.888   5.871   4.927
 4660SOL    HW214880   0.963   6.013   4.954
 4661SOL     OW14881   3.497   4.300   6.638
 4661SOL    HW114882   3.525   4.217   6.590
 4661SOL    HW214883   3.458   4.276   6.726
 4662SOL     OW14884   2.675   0.329   5.616
 4662SOL    HW114885   2.687   0.424   5.587
 4662SOL    HW214886   2.703   0.268   5.542
 4663SOL     OW14887   0.551   1.028   1.366
 4663SOL    HW114888   0.560   1.111   1.311
 4663SOL    HW214889   0.474   0.974   1.332
 4664SOL     OW14890   1.194   1.109   0.463
 4664SOL    HW114891   1.258   1.035   0.441
 4664SOL    HW214892   1.191   1.173   0.386
 4665SOL     OW14893   3.809   6.857   6.397
 4665SOL    HW114894   3.755   6.922   6.450
 4665SOL    HW214895   3.762   6.769   6.395
 4666SOL     OW14896   2.516   2.636   6.849
 4666SOL    HW114897   2.432   2.618   6.900
 4666SOL    HW214898   2.525   2.734   6.831
 4667SOL     OW14899   6.493   3.906   2.061
 4667SOL    HW114900   6.577   3.960   2.063
 4667SOL    HW214901   6.514   3.810   2.080
 4668SOL     OW14902   5.204   1.203   3.672
 4668SOL    HW114903   5.275   1.235   3.735
 4668SOL    HW214904   5.131   1.272   3.667
 4669SOL     OW14905   4.683   6.176   0.735
 4669SOL    HW114906   4.602   6.216   0.779
 4669SOL    HW214907   4.657   6.140   0.645
 4670SOL     OW14908   1.528   2.298   6.320
 4670SOL    HW114909   1.493   2.383   6.360
 4670SOL    HW214910   1.516   2.223   6.386
 4671SOL     OW14911   1.010   3.450   6.557
 4671SOL    HW114912   1.108   3.468   6.566
 4671SOL    HW214913   0.984   3.450   6.461
 4672SOL     OW14914   2.740   4.990   5.827
 4672SOL    HW114915   2.784   4.932   5.895
 4672SOL    HW214916   2.711   4.934   5.749
 4673SOL     OW14917   5.311   6.896   1.571
 4673SOL    HW114918   5.376   6.955   1.523
 4673SOL    HW214919   5.234   6.951   1.604
 4674SOL     OW14920   4.874   1.274   0.312
 4674SOL    HW114921   4.859   1.179   0.338
 4674SOL    HW214922   4.896   1.328   0.393
 4675SOL     OW14923   2.315   0.949   0.287
 4675SOL    HW114924   2.312   0.901   0.199
 4675SOL    HW214925   2.279   1.042   0.275
 4676SOL     OW14926   6.460   6.570   4.089
 4676SOL    HW114927   6.395   6.522   4.030
 4676SOL    HW214928   6.462   6.667   4.064
 4677SOL     OW14929   2.587   0.748   0.091
 4677SOL    HW114930   2.610   0.664   0.042
 4677SOL    HW214931   2.664   0.774   0.150
 4678SOL     OW14932   1.871   4.318   2.880
 4678SOL    HW114933   1.903   4.309   2.786
 4678SOL    HW214934   1.944   4.292   2.943
 4679SOL     OW14935   3.604   1.454   0.288
 4679SOL    HW114936   3.548   1.516   0.233
 4679SOL    HW214937   3.681   1.420   0.234
 4680SOL     OW14938   2.112   0.983   1.619
 4680SOL    HW114939   2.039   0.946   1.678
 4680SOL    HW214940   2.199   0.977   1.667
 4681SOL     OW14941   6.153   5.816   5.789
 4681SOL    HW114942   6.170   5.771   5.877
 4681SOL    HW214943   6.223   5.789   5.723
 4682SOL     OW14944   4.244   4.346   6.276
 4682SOL    HW114945   4.176   4.418   6.266
 4682SOL    HW214946   4.308   4.349   6.200
 4683SOL     OW14947   4.422   4.557   2.622
 4683SOL    HW114948   4.379   4.512   2.700
 4683SOL    HW214949   4.403   4.655   2.625
 4684SOL     OW14950   0.141   1.787   4.649
 4684SOL    HW114951   0.094   1.759   4.733
 4684SOL    HW214952   0.159   1.885   4.651
 4685SOL     OW14953   0.154   6.476   5.032
 4685SOL    HW114954   0.186   6.542   5.101
 4685SOL    HW214955   0.181   6.508   4.941
 4686SOL     OW14956   5.296   5.442   0.450
 4686SOL    HW114957   5.297   5.497   0.366
 4686SOL    HW214958   5.364   5.370   0.443
 4687SOL     OW14959   6.679   5.050   5.335
 4687SOL    HW114960   6.603   5.024   5.275
 4687SOL    HW214961   6.751   5.092   5.281
 4688SOL     OW14962   6.400   3.701   5.663
 4688SOL    HW114963   6.463   3.726   5.590
 4688SOL    HW214964   6.306   3.700   5.627
 4689SOL     OW14965   5.997   0.749   0.315
 4689SOL    HW114966   5.921   0.716   0.371
 4689SOL    HW214967   5.966   0.765   0.221
 4690SOL     OW14968   1.268   0.909   0.128
 4690SOL    HW114969   1.350   0.967   0.135
 4690SOL    HW214970   1.207   0.947   0.058
 4691SOL     OW14971   2.922   4.849   2.046
 4691SOL    HW114972   3.011   4.872   2.086
 4691SOL    HW214973   2.919   4.751   2.024
 4692SOL     OW14974   6.988   5.988   2.251
 4692SOL    HW114975   6.993   6.011   2.153
 4692SOL    HW214976   0.059   5.992   2.291
 4693SOL     OW14977   0.744   0.617   3.658
 4693SOL    HW114978   0.791   0.529   3.664
 4693SOL    HW214979   0.656   0.611   3.705
 4694SOL     OW14980   2.635   0.769   0.567
 4694SOL    HW114981   2.625   0.685   0.620
 4694SOL    HW214982   2.593   0.845   0.616
 4695SOL     OW14983   2.361   3.239   1.671
 4695SOL    HW114984   2.378   3.296   1.751
 4695SOL    HW214985   2.363   3.296   1.589
 4696SOL     OW14986   0.434   4.382   5.773
 4696SOL    HW114987   0.463   4.434   5.693
 4696SOL    HW214988   0.364   4.434   5.823
 4697SOL     OW14989   2.294   2.846   0.716
 4697SOL    HW114990   2.327   2.912   0.649
 4697SOL    HW214991   2.273   2.760   0.669
 4698SOL     OW14992   3.881   6.013   2.859
 4698SOL    HW114993   3.953   5.946   2.877
 4698SOL    HW214994   3.899   6.097   2.911
 4699SOL     OW14995   0.846   6.234   2.002
 4699SOL    HW114996   0.915   6.300   2.033
 4699SOL    HW214997   0.770   6.232   2.066
 4700SOL     OW14998   6.641   1.588   2.479
 4700SOL    HW114999   6.729   1.539   2.486
 4700SOL    HW215000   6.581   1.538   2.417
 4701SOL     OW15001   2.373   2.332   0.965
 4701SOL    HW115002   2.320   2.414   0.990
 4701SOL    HW215003   2.337   2.294   0.880
 4702SOL     OW15004   5.792   4.730   6.554
 4702SOL    HW115005   5.716   4.723   6.489
 4702SOL    HW215006   5.876   4.754   6.506
 4703SOL     OW15007   1.280   2.765   1.923
 4703SOL    HW115008   1.207   2.701   1.947
 4703SOL    HW215009   1.243   2.858   1.919
 4704SOL     OW15010   1.160   6.752   6.983
 4704SOL    HW115011   1.160   6.822   6.912
 4704SOL    HW215012   1.068   6.743   0.000
 4705SOL     OW15013   3.510   3.298   2.429
 4705SOL    HW115014   3.472   3.232   2.364
 4705SOL    HW215015   3.582   3.254   2.483
 4706SOL     OW15016   3.779   6.492   6.101
 4706SOL    HW115017   3.855   6.529   6.153
 4706SOL    HW215018   3.808   6.410   6.051
 4707SOL     OW15019   2.945   5.558   0.821
 4707SOL    HW115020   2.849   5.535   0.835
 4707SOL    HW215021   2.964   5.566   0.723
 4708SOL     OW15022   1.307   2.509   6.413
 4708SOL    HW115023   1.299   2.591   6.471
 4708SOL    HW215024   1.256   2.524   6.328
 4709SOL     OW15025   4.375   6.123   5.594
 4709SOL    HW115026   4.307   6.131   5.666
 4709SOL    HW215027   4.405   6.028   5.587
 4710SOL     OW15028   3.735   1.257   5.968
 4710SOL    HW115029   3.660   1.244   6.033
 4710SOL    HW215030   3.795   1.177   5.970
 4711SOL     OW15031   5.614   0.986   2.052
 4711SOL    HW115032   5.616   0.969   1.953
 4711SOL    HW215033   5.536   1.045   2.074
 4712SOL     OW15034   3.346   3.900   0.248
 4712SOL    HW115035   3.296   3.816   0.225
 4712SOL    HW215036   3.359   3.905   0.347
 4713SOL     OW15037   3.242   3.377   1.233
 4713SOL    HW115038   3.157   3.374   1.286
 4713SOL    HW215039   3.308   3.435   1.282
 4714SOL     OW15040   1.428   2.473   6.883
 4714SOL    HW115041   1.412   2.448   6.787
 4714SOL    HW215042   1.355   2.436   6.940
 4715SOL     OW15043   6.769   3.189   1.659
 4715SOL    HW115044   6.747   3.094   1.640
 4715SOL    HW215045   6.687   3.236   1.692
 4716SOL     OW15046   4.570   6.455   6.312
 4716SOL    HW115047   4.652   6.487   6.360
 4716SOL    HW215048   4.591   6.444   6.215
 4717SOL     OW15049   6.995   6.587   3.428
 4717SOL    HW115050   6.958   6.583   3.335
 4717SOL    HW215051   0.026   6.672   3.439
 4718SOL     OW15052   5.487   2.286   0.727
 4718SOL    HW115053   5.460   2.371   0.773
 4718SOL    HW215054   5.584   2.290   0.705
 4719SOL     OW15055   5.218   3.025   2.346
 4719SOL    HW115056   5.191   3.033   2.250
 4719SOL    HW215057   5.315   3.000   2.351
 4720SOL     OW15058   1.831   5.711   5.373
 4720SOL    HW115059   1.921   5.714   5.329
 4720SOL    HW215060   1.825   5.784   5.442
 4721SOL     OW15061   6.714   2.477   1.268
 4721SOL    HW115062   6.737   2.489   1.365
 4721SOL    HW215063   6.792   2.505   1.212
 4722SOL     OW15064   1.059   5.989   6.641
 4722SOL    HW115065   1.082   5.957   6.733
 4722SOL    HW215066   1.035   6.086   6.644
 4723SOL     OW15067   1.533   4.779   5.802
 4723SOL    HW115068   1.507   4.774   5.898
 4723SOL    HW215069   1.541   4.874   5.774
 4724SOL     OW15070   5.189   6.240   2.932
 4724SOL    HW115071   5.190   6.199   3.024
 4724SOL    HW215072   5.101   6.223   2.889
 4725SOL     OW15073   6.407   6.668   2.584
 4725SOL    HW115074   6.329   6.674   2.646
 4725SOL    HW215075   6.484   6.626   2.631
 4726SOL     OW15076   1.747   2.939   6.491
 4726SOL    HW115077   1.663   2.993   6.486
 4726SOL    HW215078   1.734   2.863   6.556
 4727SOL     OW15079   0.869   6.354   6.974
 4727SOL    HW115080   0.916   6.363   6.886
 4727SOL    HW215081   0.773   6.333   6.958
 4728SOL     OW15082   5.164   0.752   0.521
 4728SOL    HW115083   5.089   0.790   0.574
 4728SOL    HW215084   5.180   0.808   0.440
 4729SOL     OW15085   2.383   1.771   1.843
 4729SOL    HW115086   2.413   1.860   1.811
 4729SOL    HW215087   2.354   1.715   1.766
 4730SOL     OW15088   3.130   6.003   4.512
 4730SOL    HW115089   3.197   5.944   4.559
 4730SOL    HW215090   3.038   5.971   4.533
 4731SOL     OW15091   4.161   0.261   6.158
 4731SOL    HW115092   4.123   0.171   6.177
 4731SOL    HW215093   4.242   0.276   6.215
 4732SOL     OW15094   0.544   3.575   5.440
 4732SOL    HW115095   0.461   3.631   5.443
 4732SOL    HW215096   0.612   3.612   5.504
 4733SOL     OW15097   1.518   4.344   3.859
 4733SOL    HW115098   1.590   4.380   3.918
 4733SOL    HW215099   1.543   4.358   3.763
 4734SOL     OW15100   5.207   2.447   6.689
 4734SOL    HW115101   5.261   2.444   6.605
 4734SOL    HW215102   5.198   2.542   6.719
 4735SOL     OW15103   0.381   6.186   4.382
 4735SOL    HW115104   0.307   6.249   4.358
 4735SOL    HW215105   0.451   6.188   4.311
 4736SOL     OW15106   6.971   1.842   6.684
 4736SOL    HW115107   6.910   1.831   6.606
 4736SOL    HW215108   0.037   1.882   6.654
 4737SOL     OW15109   1.692   4.912   2.285
 4737SOL    HW115110   1.782   4.926   2.245
 4737SOL    HW215111   1.629   4.981   2.248
 4738SOL     OW15112   6.766   6.011   2.919
 4738SOL    HW115113   6.771   6.059   2.831
 4738SOL    HW215114   6.827   6.054   2.985
 4739SOL     OW15115   4.559   6.573   3.185
 4739SOL    HW115116   4.605   6.494   3.226
 4739SOL    HW215117   4.617   6.611   3.112
 4740SOL     OW15118   1.107   1.767   0.739
 4740SOL    HW115119   1.023   1.745   0.788
 4740SOL    HW215120   1.183   1.774   0.803
 4741SOL     OW15121   3.565   2.754   1.762
 4741SOL    HW115122   3.469   2.753   1.792
 4741SOL    HW215123   3.597   2.848   1.755
 4742SOL     OW15124   2.559   6.492   5.224
 4742SOL    HW115125   2.477   6.442   5.252
 4742SOL    HW215126   2.533   6.579   5.183
 4743SOL     OW15127   2.271   4.090   3.201
 4743SOL    HW115128   2.238   4.006   3.244
 4743SOL    HW215129   2.251   4.087   3.103
 4744SOL     OW15130   2.398   4.931   0.708
 4744SOL    HW115131   2.451   4.853   0.741
 4744SOL    HW215132   2.318   4.897   0.658
 4745SOL     OW15133   3.147   4.281   6.317
 4745SOL    HW115134   3.159   4.192   6.273
 4745SOL    HW215135   3.132   4.269   6.415
 4746SOL     OW15136   4.708   6.459   3.549
 4746SOL    HW115137   4.671   6.552   3.539
 4746SOL    HW215138   4.704   6.433   3.645
 4747SOL     OW15139   1.415   3.739   6.922
 4747SOL    HW115140   1.488   3.694   6.871
 4747SOL    HW215141   1.448   3.826   6.957
 4748SOL     OW15142   1.799   5.521   1.233
 4748SOL    HW115143   1.840   5.476   1.311
 4748SOL    HW215144   1.703   5.542   1.253
 4749SOL     OW15145   2.212   6.451   6.460
 4749SOL    HW115146   2.114   6.437   6.445
 4749SOL    HW215147   2.259   6.364   6.455
 4750SOL     OW15148   6.981   3.515   5.000
 4750SOL    HW115149   6.959   3.421   4.972
 4750SOL    HW215150   6.898   3.571   4.999
 4751SOL     OW15151   4.321   2.172   3.165
 4751SOL    HW115152   4.373   2.197   3.247
 4751SOL    HW215153   4.366   2.212   3.085
 4752SOL     OW15154   4.826   1.379   0.083
 4752SOL    HW115155   4.830   1.321   0.165
 4752SOL    HW215156   4.799   1.472   0.110
 4753SOL     OW15157   0.792   0.319   4.266
 4753SOL    HW115158   0.741   0.374   4.200
 4753SOL    HW215159   0.774   0.222   4.250
 4754SOL     OW15160   5.564   4.344   4.365
 4754SOL    HW115161   5.498   4.281   4.325
 4754SOL    HW215162   5.623   4.380   4.292
 4755SOL     OW15163   2.560   1.065   0.645
 4755SOL    HW115164   2.574   1.035   0.550
 4755SOL    HW215165   2.467   1.103   0.654
 4756SOL     OW15166   5.910   3.616   6.027
 4756SOL    HW115167   5.815   3.606   6.057
 4756SOL    HW215168   5.919   3.698   5.970
 4757SOL     OW15169   2.342   2.510   1.251
 4757SOL    HW115170   2.247   2.532   1.229
 4757SOL    HW215171   2.355   2.509   1.350
 4758SOL     OW15172   1.470   6.619   2.901
 4758SOL    HW115173   1.429   6.709   2.887
 4758SOL    HW215174   1.523   6.593   2.819
 4759SOL     OW15175   0.907   4.981   6.062
 4759SOL    HW115176   0.983   4.924   6.093
 4759SOL    HW215177   0.911   5.069   6.109
 4760SOL     OW15178   2.111   1.869   0.454
 4760SOL    HW115179   2.102   1.885   0.552
 4760SOL    HW215180   2.060   1.787   0.428
 4761SOL     OW15181   1.112   6.743   0.346
 4761SOL    HW115182   1.122   6.696   0.258
 4761SOL    HW215183   1.016   6.737   0.375
 4762SOL     OW15184   1.292   5.328   2.085
 4762SOL    HW115185   1.266   5.385   2.163
 4762SOL    HW215186   1.362   5.263   2.114
 4763SOL     OW15187   4.920   0.776   2.741
 4763SOL    HW115188   4.854   0.831   2.690
 4763SOL    HW215189   5.010   0.820   2.738
 4764SOL     OW15190   4.251   3.886   5.278
 4764SOL    HW115191   4.296   3.796   5.281
 4764SOL    HW215192   4.203   3.896   5.191
 4765SOL     OW15193   3.381   1.073   5.548
 4765SOL    HW115194   3.286   1.047   5.566
 4765SOL    HW215195   3.385   1.127   5.464
 4766SOL     OW15196   5.716   5.624   3.909
 4766SOL    HW115197   5.746   5.538   3.867
 4766SOL    HW215198   5.626   5.611   3.950
 4767SOL     OW15199   3.035   4.970   4.833
 4767SOL    HW115200   3.082   4.971   4.744
 4767SOL    HW215201   3.020   5.064   4.864
 4768SOL     OW15202   3.904   2.535   6.262
 4768SOL    HW115203   3.997   2.560   6.237
 4768SOL    HW215204   3.903   2.443   6.301
 4769SOL     OW15205   4.421   5.543   0.372
 4769SOL    HW115206   4.394   5.566   0.466
 4769SOL    HW215207   4.521   5.532   0.368
 4770SOL     OW15208   0.392   2.136   4.226
 4770SOL    HW115209   0.487   2.110   4.212
 4770SOL    HW215210   0.356   2.179   4.144
 4771SOL     OW15211   3.023   6.555   5.944
 4771SOL    HW115212   2.949   6.546   6.010
 4771SOL    HW215213   3.055   6.463   5.918
 4772SOL     OW15214   3.884   4.840   6.829
 4772SOL    HW115215   3.957   4.801   6.774
 4772SOL    HW215216   3.910   4.836   6.926
 4773SOL     OW15217   0.506   5.124   5.447
 4773SOL    HW115218   0.544   5.088   5.531
 4773SOL    HW215219   0.577   5.170   5.394
 4774SOL     OW15220   1.404   3.920   0.882
 4774SOL    HW115221   1.417   3.941   0.786
 4774SOL    HW215222   1.433   3.997   0.938
 4775SOL     OW15223   5.338   6.424   3.554
 4775SOL    HW115224   5.382   6.513   3.570
 4775SOL    HW215225   5.373   6.385   3.469
 4776SOL     OW15226   0.910   0.407   5.190
 4776SOL    HW115227   0.924   0.401   5.288
 4776SOL    HW215228   0.812   0.410   5.170
 4777SOL     OW15229   2.051   5.286   0.422
 4777SOL    HW115230   1.997   5.281   0.506
 4777SOL    HW215231   2.078   5.380   0.405
 4778SOL     OW15232   6.866   2.710   4.557
 4778SOL    HW115233   6.768   2.703   4.575
 4778SOL    HW215234   6.881   2.773   4.480
 4779SOL     OW15235   5.377   0.262   3.522
 4779SOL    HW115236   5.382   0.314   3.437
 4779SOL    HW215237   5.431   0.307   3.592
 4780SOL     OW15238   6.456   3.129   6.777
 4780SOL    HW115239   6.394   3.051   6.780
 4780SOL    HW215240   6.447   3.182   6.861
 4781SOL     OW15241   2.962   5.153   1.956
 4781SOL    HW115242   2.898   5.076   1.968
 4781SOL    HW215243   2.912   5.239   1.965
 4782SOL     OW15244   6.243   5.056   6.868
 4782SOL    HW115245   6.296   5.108   6.801
 4782SOL    HW215246   6.239   5.107   6.954
 4783SOL     OW15247   5.354   3.478   6.547
 4783SOL    HW115248   5.361   3.386   6.586
 4783SOL    HW215249   5.274   3.483   6.487
 4784SOL     OW15250   6.424   1.800   6.412
 4784SOL    HW115251   6.442   1.898   6.407
 4784SOL    HW215252   6.342   1.778   6.360
 4785SOL     OW15253   0.361   6.143   2.966
 4785SOL    HW115254   0.307   6.060   2.953
 4785SOL    HW215255   0.394   6.175   2.878
 4786SOL     OW15256   2.637   6.847   0.221
 4786SOL    HW115257   2.567   6.806   0.163
 4786SOL    HW215258   2.720   6.863   0.168
 4787SOL     OW15259   3.770   1.749   3.003
 4787SOL    HW115260   3.722   1.787   2.924
 4787SOL    HW215261   3.717   1.766   3.086
 4788SOL     OW15262   0.092   6.697   0.372
 4788SOL    HW115263   0.072   6.606   0.409
 4788SOL    HW215264   0.072   6.766   0.441
 4789SOL     OW15265   4.963   1.087   1.627
 4789SOL    HW115266   5.034   1.089   1.698
 4789SOL    HW215267   4.929   1.180   1.611
 4790SOL     OW15268   6.036   1.448   5.506
 4790SOL    HW115269   6.061   1.532   5.553
 4790SOL    HW215270   6.082   1.371   5.550
 4791SOL     OW15271   6.963   2.999   1.567
 4791SOL    HW115272   7.003   3.055   1.639
 4791SOL    HW215273   0.001   3.002   1.486
 4792SOL     OW15274   2.447   4.440   4.088
 4792SOL    HW115275   2.426   4.350   4.048
 4792SOL    HW215276   2.412   4.443   4.182
 4793SOL     OW15277   1.488   2.966   5.351
 4793SOL    HW115278   1.501   2.884   5.406
 4793SOL    HW215279   1.541   3.041   5.390
 4794SOL     OW15280   4.710   0.041   4.285
 4794SOL    HW115281   4.676   0.133   4.267
 4794SOL    HW215282   4.803   0.046   4.321
 4795SOL     OW15283   6.279   1.439   4.536
 4795SOL    HW115284   6.230   1.487   4.609
 4795SOL    HW215285   6.371   1.477   4.528
 4796SOL     OW15286   3.860   0.994   5.984
 4796SOL    HW115287   3.938   0.986   6.046
 4796SOL    HW215288   3.872   0.930   5.908
 4797SOL     OW15289   0.215   6.576   4.798
 4797SOL    HW115290   0.269   6.659   4.786
 4797SOL    HW215291   0.214   6.524   4.713
 4798SOL     OW15292   0.246   4.500   5.963
 4798SOL    HW115293   0.193   4.416   5.976
 4798SOL    HW215294   0.189   4.570   5.920
 4799SOL     OW15295   4.301   1.575   0.610
 4799SOL    HW115296   4.326   1.489   0.653
 4799SOL    HW215297   4.383   1.620   0.574
 4800SOL     OW15298   2.085   3.282   6.688
 4800SOL    HW115299   2.026   3.232   6.626
 4800SOL    HW215300   2.174   3.236   6.695
 4801SOL     OW15301   3.420   2.562   0.100
 4801SOL    HW115302   3.410   2.465   0.124
 4801SOL    HW215303   3.346   2.588   0.038
 4802SOL     OW15304   0.663   6.879   1.826
 4802SOL    HW115305   0.591   6.940   1.793
 4802SOL    HW215306   0.624   6.814   1.892
 4803SOL     OW15307   0.561   4.224   0.646
 4803SOL    HW115308   0.481   4.178   0.608
 4803SOL    HW215309   0.612   4.268   0.573
 4804SOL     OW15310   6.461   6.289   1.641
 4804SOL    HW115311   6.437   6.196   1.615
 4804SOL    HW215312   6.457   6.349   1.562
 4805SOL     OW15313   6.128   1.331   2.647
 4805SOL    HW115314   6.073   1.279   2.582
 4805SOL    HW215315   6.209   1.277   2.673
 4806SOL     OW15316   0.929   4.275   2.778
 4806SOL    HW115317   0.859   4.204   2.771
 4806SOL    HW215318   0.885   4.364   2.785
 4807SOL     OW15319   0.786   4.898   6.386
 4807SOL    HW115320   0.813   4.994   6.393
 4807SOL    HW215321   0.727   4.885   6.307
 4808SOL     OW15322   4.032   5.428   0.789
 4808SOL    HW115323   3.995   5.435   0.696
 4808SOL    HW215324   4.121   5.382   0.787
 4809SOL     OW15325   3.808   4.556   0.969
 4809SOL    HW115326   3.841   4.650   0.981
 4809SOL    HW215327   3.850   4.497   1.038
 4810SOL     OW15328   1.339   4.072   3.509
 4810SOL    HW115329   1.298   4.056   3.419
 4810SOL    HW215330   1.342   4.170   3.527
 4811SOL     OW15331   3.895   3.440   2.693
 4811SOL    HW115332   3.967   3.481   2.636
 4811SOL    HW215333   3.839   3.379   2.636
 4812SOL     OW15334   0.761   0.574   2.255
 4812SOL    HW115335   0.815   0.574   2.171
 4812SOL    HW215336   0.818   0.603   2.332
 4813SOL     OW15337   5.967   1.605   6.692
 4813SOL    HW115338   5.877   1.597   6.650
 4813SOL    HW215339   6.002   1.513   6.714
 4814SOL     OW15340   6.745   3.032   1.404
 4814SOL    HW115341   6.830   3.032   1.456
 4814SOL    HW215342   6.698   2.944   1.417
 4815SOL     OW15343   5.540   4.156   3.326
 4815SOL    HW115344   5.574   4.240   3.286
 4815SOL    HW215345   5.440   4.153   3.320
 4816SOL     OW15346   2.459   5.386   1.220
 4816SOL    HW115347   2.552   5.385   1.257
 4816SOL    HW215348   2.448   5.308   1.158
 4817SOL     OW15349   2.283   1.228   1.191
 4817SOL    HW115350   2.339   1.311   1.189
 4817SOL    HW215351   2.320   1.164   1.258
 4818SOL     OW15352   0.958   1.211   4.337
 4818SOL    HW115353   0.863   1.193   4.361
 4818SOL    HW215354   0.970   1.202   4.238
 4819SOL     OW15355   2.484   2.245   1.633
 4819SOL    HW115356   2.517   2.308   1.703
 4819SOL    HW215357   2.524   2.269   1.545
 4820SOL     OW15358   6.806   1.723   0.983
 4820SOL    HW115359   6.884   1.750   0.926
 4820SOL    HW215360   6.767   1.638   0.947
 4821SOL     OW15361   0.256   0.558   1.070
 4821SOL    HW115362   0.251   0.463   1.038
 4821SOL    HW215363   0.320   0.564   1.147
 4822SOL     OW15364   1.871   3.117   3.590
 4822SOL    HW115365   1.783   3.153   3.621
 4822SOL    HW215366   1.929   3.193   3.561
 4823SOL     OW15367   0.838   1.451   3.864
 4823SOL    HW115368   0.774   1.519   3.897
 4823SOL    HW215369   0.836   1.448   3.764
 4824SOL     OW15370   5.758   1.852   4.317
 4824SOL    HW115371   5.710   1.939   4.313
 4824SOL    HW215372   5.852   1.867   4.347
 4825SOL     OW15373   1.870   2.696   4.538
 4825SOL    HW115374   1.793   2.756   4.559
 4825SOL    HW215375   1.919   2.731   4.458
 4826SOL     OW15376   0.244   0.268   5.987
 4826SOL    HW115377   0.227   0.174   5.958
 4826SOL    HW215378   0.186   0.330   5.935
 4827SOL     OW15379   6.071   1.925   1.654
 4827SOL    HW115380   5.994   1.986   1.669
 4827SOL    HW215381   6.124   1.955   1.575
 4828SOL     OW15382   5.606   3.073   1.121
 4828SOL    HW115383   5.562   3.132   1.189
 4828SOL    HW215384   5.637   2.989   1.166
 4829SOL     OW15385   3.799   6.526   6.829
 4829SOL    HW115386   3.741   6.448   6.851
 4829SOL    HW215387   3.895   6.498   6.832
 4830SOL     OW15388   4.830   6.347   3.779
 4830SOL    HW115389   4.871   6.302   3.858
 4830SOL    HW215390   4.898   6.407   3.735
 4831SOL     OW15391   0.212   4.754   6.410
 4831SOL    HW115392   0.254   4.717   6.327
 4831SOL    HW215393   0.162   4.681   6.457
 4832SOL     OW15394   2.438   2.755   5.531
 4832SOL    HW115395   2.459   2.769   5.434
 4832SOL    HW215396   2.341   2.730   5.540
 4833SOL     OW15397   4.846   1.194   2.501
 4833SOL    HW115398   4.877   1.108   2.462
 4833SOL    HW215399   4.901   1.215   2.582
 4834SOL     OW15400   3.597   0.537   1.036
 4834SOL    HW115401   3.571   0.463   0.974
 4834SOL    HW215402   3.650   0.606   0.986
 4835SOL     OW15403   0.647   1.588   6.556
 4835SOL    HW115404   0.683   1.516   6.497
 4835SOL    HW215405   0.714   1.662   6.564
 4836SOL     OW15406   5.052   2.611   3.754
 4836SOL    HW115407   4.967   2.622   3.806
 4836SOL    HW215408   5.052   2.676   3.678
 4837SOL     OW15409   4.882   3.493   1.849
 4837SOL    HW115410   4.834   3.581   1.845
 4837SOL    HW215411   4.831   3.425   1.796
 4838SOL     OW15412   1.095   4.714   1.772
 4838SOL    HW115413   1.166   4.717   1.842
 4838SOL    HW215414   1.125   4.767   1.692
 4839SOL     OW15415   1.091   3.226   5.734
 4839SOL    HW115416   1.125   3.263   5.820
 4839SOL    HW215417   1.118   3.130   5.726
 4840SOL     OW15418   1.090   6.102   5.707
 4840SOL    HW115419   1.150   6.163   5.759
 4840SOL    HW215420   0.996   6.114   5.738
 4841SOL     OW15421   2.835   6.383   1.536
 4841SOL    HW115422   2.906   6.321   1.501
 4841SOL    HW215423   2.871   6.435   1.613
 4842SOL     OW15424   3.176   5.030   1.836
 4842SOL    HW115425   3.102   5.082   1.879
 4842SOL    HW215426   3.250   5.017   1.902
 4843SOL     OW15427   5.924   3.176   0.488
 4843SOL    HW115428   5.847   3.229   0.522
 4843SOL    HW215429   5.895   3.123   0.408
 4844SOL     OW15430   6.840   3.590   5.573
 4844SOL    HW115431   6.907   3.659   5.600
 4844SOL    HW215432   6.764   3.634   5.525
 4845SOL     OW15433   6.223   5.515   5.023
 4845SOL    HW115434   6.125   5.534   5.023
 4845SOL    HW215435   6.272   5.596   5.055
 4846SOL     OW15436   6.433   3.129   3.125
 4846SOL    HW115437   6.342   3.114   3.166
 4846SOL    HW215438   6.463   3.222   3.145
 4847SOL     OW15439   3.135   1.232   5.716
 4847SOL    HW115440   3.068   1.266   5.781
 4847SOL    HW215441   3.103   1.146   5.676
 4848SOL     OW15442   1.505   1.263   4.278
 4848SOL    HW115443   1.429   1.327   4.271
 4848SOL    HW215444   1.550   1.273   4.367
 4849SOL     OW15445   1.332   6.480   6.523
 4849SOL    HW115446   1.253   6.452   6.577
 4849SOL    HW215447   1.381   6.553   6.571
 4850SOL     OW15448   3.940   1.589   2.869
 4850SOL    HW115449   3.890   1.657   2.922
 4850SOL    HW215450   3.889   1.503   2.868
 4851SOL     OW15451   4.157   6.506   5.287
 4851SOL    HW115452   4.220   6.483   5.212
 4851SOL    HW215453   4.191   6.468   5.372
 4852SOL     OW15454   1.224   0.228   5.299
 4852SOL    HW115455   1.254   0.200   5.390
 4852SOL    HW215456   1.206   0.326   5.299
 4853SOL     OW15457   2.931   1.120   3.165
 4853SOL    HW115458   2.859   1.180   3.130
 4853SOL    HW215459   3.004   1.175   3.204
 4854SOL     OW15460   5.542   6.813   1.926
 4854SOL    HW115461   5.482   6.804   2.005
 4854SOL    HW215462   5.531   6.904   1.886
 4855SOL     OW15463   6.726   2.886   2.577
 4855SOL    HW115464   6.637   2.888   2.622
 4855SOL    HW215465   6.779   2.809   2.613
 4856SOL     OW15466   1.736   3.892   2.041
 4856SOL    HW115467   1.678   3.836   2.100
 4856SOL    HW215468   1.705   3.988   2.046
 4857SOL     OW15469   1.435   2.533   5.456
 4857SOL    HW115470   1.502   2.607   5.460
 4857SOL    HW215471   1.400   2.524   5.363
 4858SOL     OW15472   1.172   1.270   4.785
 4858SOL    HW115473   1.208   1.178   4.772
 4858SOL    HW215474   1.072   1.267   4.780
 4859SOL     OW15475   1.169   0.906   4.384
 4859SOL    HW115476   1.157   0.840   4.458
 4859SOL    HW215477   1.221   0.985   4.418
 4860SOL     OW15478   3.910   4.403   1.330
 4860SOL    HW115479   3.820   4.436   1.360
 4860SOL    HW215480   3.981   4.452   1.380
 4861SOL     OW15481   5.026   4.653   6.876
 4861SOL    HW115482   5.068   4.611   6.796
 4861SOL    HW215483   4.982   4.739   6.850
 4862SOL     OW15484   2.856   4.772   4.757
 4862SOL    HW115485   2.853   4.727   4.846
 4862SOL    HW215486   2.917   4.851   4.761
 4863SOL     OW15487   6.225   4.052   2.259
 4863SOL    HW115488   6.137   4.097   2.242
 4863SOL    HW215489   6.294   4.120   2.283
 4864SOL     OW15490   3.885   1.165   3.429
 4864SOL    HW115491   3.813   1.160   3.360
 4864SOL    HW215492   3.894   1.076   3.474
 4865SOL     OW15493   2.037   0.562   5.176
 4865SOL    HW115494   2.033   0.569   5.276
 4865SOL    HW215495   1.950   0.528   5.141
 4866SOL     OW15496   6.605   1.711   1.192
 4866SOL    HW115497   6.669   1.757   1.131
 4866SOL    HW215498   6.512   1.724   1.160
 4867SOL     OW15499   3.675   5.322   2.340
 4867SOL    HW115500   3.583   5.352   2.315
 4867SOL    HW215501   3.669   5.258   2.417
 4868SOL     OW15502   6.440   4.903   2.487
 4868SOL    HW115503   6.399   4.900   2.578
 4868SOL    HW215504   6.383   4.852   2.423
 4869SOL     OW15505   1.027   1.738   2.257
 4869SOL    HW115506   1.095   1.804   2.225
 4869SOL    HW215507   1.038   1.724   2.355
 4870SOL     OW15508   0.503   6.385   1.671
 4870SOL    HW115509   0.560   6.396   1.753
 4870SOL    HW215510   0.545   6.434   1.595
 4871SOL     OW15511   1.450   0.950   3.903
 4871SOL    HW115512   1.504   0.867   3.914
 4871SOL    HW215513   1.375   0.934   3.839
 4872SOL     OW15514   6.358   0.091   3.798
 4872SOL    HW115515   6.298   0.042   3.861
 4872SOL    HW215516   6.306   0.163   3.752
 4873SOL     OW15517   6.305   5.463   4.024
 4873SOL    HW115518   6.351   5.399   3.961
 4873SOL    HW215519   6.233   5.414   4.073
 4874SOL     OW15520   6.448   3.230   2.733
 4874SOL    HW115521   6.520   3.223   2.802
 4874SOL    HW215522   6.462   3.312   2.678
 4875SOL     OW15523   5.904   1.495   0.735
 4875SOL    HW115524   5.980   1.559   0.746
 4875SOL    HW215525   5.818   1.547   0.726
 4876SOL     OW15526   5.688   2.485   3.080
 4876SOL    HW115527   5.642   2.549   3.018
 4876SOL    HW215528   5.783   2.514   3.095
 4877SOL     OW15529   1.481   1.858   6.446
 4877SOL    HW115530   1.387   1.825   6.451
 4877SOL    HW215531   1.538   1.790   6.400
 4878SOL     OW15532   6.207   1.083   2.089
 4878SOL    HW115533   6.128   1.024   2.073
 4878SOL    HW215534   6.283   1.027   2.123
 4879SOL     OW15535   4.316   0.938   2.933
 4879SOL    HW115536   4.397   0.881   2.918
 4879SOL    HW215537   4.260   0.897   3.005
 4880SOL     OW15538   5.398   3.380   7.012
 4880SOL    HW115539   5.460   3.340   6.944
 4880SOL    HW215540   5.446   3.449   0.044
 4881SOL     OW15541   1.200   1.318   0.273
 4881SOL    HW115542   1.144   1.253   0.222
 4881SOL    HW215543   1.157   1.408   0.271
 4882SOL     OW15544   4.736   0.785   5.081
 4882SOL    HW115545   4.751   0.872   5.128
 4882SOL    HW215546   4.638   0.764   5.079
 4883SOL     OW15547   5.126   5.070   1.630
 4883SOL    HW115548   5.171   5.009   1.565
 4883SOL    HW215549   5.031   5.039   1.644
 4884SOL     OW15550   2.860   6.652   1.303
 4884SOL    HW115551   2.877   6.732   1.360
 4884SOL    HW215552   2.761   6.636   1.298
 4885SOL     OW15553   2.174   5.479   1.917
 4885SOL    HW115554   2.206   5.535   1.841
 4885SOL    HW215555   2.074   5.485   1.924
 4886SOL     OW15556   1.167   6.320   1.421
 4886SOL    HW115557   1.248   6.261   1.418
 4886SOL    HW215558   1.152   6.359   1.330
 4887SOL     OW15559   0.119   0.281   1.803
 4887SOL    HW115560   0.089   0.225   1.880
 4887SOL    HW215561   0.185   0.230   1.748
 4888SOL     OW15562   2.653   0.262   4.390
 4888SOL    HW115563   2.561   0.292   4.417
 4888SOL    HW215564   2.718   0.283   4.464
 4889SOL     OW15565   6.848   2.019   5.331
 4889SOL    HW115566   6.777   2.088   5.349
 4889SOL    HW215567   6.898   2.001   5.416
 4890SOL     OW15568   0.002   0.984   6.704
 4890SOL    HW115569   0.027   0.915   6.637
 4890SOL    HW215570   6.931   0.965   6.739
 4891SOL     OW15571   2.258   4.573   0.176
 4891SOL    HW115572   2.336   4.628   0.146
 4891SOL    HW215573   2.284   4.519   0.256
 4892SOL     OW15574   3.235   6.035   2.521
 4892SOL    HW115575   3.175   5.955   2.516
 4892SOL    HW215576   3.192   6.111   2.471
 4893SOL     OW15577   6.794   3.317   1.388
 4893SOL    HW115578   6.781   3.218   1.384
 4893SOL    HW215579   6.757   3.352   1.474
 4894SOL     OW15580   3.139   0.954   3.335
 4894SOL    HW115581   3.129   0.879   3.400
 4894SOL    HW215582   3.100   0.927   3.246
 4895SOL     OW15583   0.807   5.054   4.484
 4895SOL    HW115584   0.837   4.960   4.500
 4895SOL    HW215585   0.876   5.102   4.428
 4896SOL     OW15586   1.741   4.728   2.044
 4896SOL    HW115587   1.746   4.826   2.066
 4896SOL    HW215588   1.698   4.716   1.955
 4897SOL     OW15589   1.848   4.435   5.419
 4897SOL    HW115590   1.864   4.512   5.481
 4897SOL    HW215591   1.849   4.350   5.470
 4898SOL     OW15592   4.558   0.963   4.772
 4898SOL    HW115593   4.516   0.910   4.699
 4898SOL    HW215594   4.657   0.945   4.774
 4899SOL     OW15595   5.528   5.380   3.101
 4899SOL    HW115596   5.439   5.335   3.100
 4899SOL    HW215597   5.515   5.478   3.116
 4900SOL     OW15598   3.250   6.275   5.210
 4900SOL    HW115599   3.242   6.229   5.121
 4900SOL    HW215600   3.158   6.298   5.243
 4901SOL     OW15601   2.987   1.246   5.079
 4901SOL    HW115602   3.034   1.314   5.135
 4901SOL    HW215603   3.054   1.198   5.021
 4902SOL     OW15604   1.881   1.799   4.872
 4902SOL    HW115605   1.959   1.827   4.928
 4902SOL    HW215606   1.797   1.838   4.910
 4903SOL     OW15607   3.776   5.675   0.031
 4903SOL    HW115608   3.847   5.737   0.066
 4903SOL    HW215609   3.690   5.695   0.078
 4904SOL     OW15610   2.326   0.367   5.055
 4904SOL    HW115611   2.340   0.465   5.036
 4904SOL    HW215612   2.377   0.341   5.137
 4905SOL     OW15613   3.442   0.744   2.771
 4905SOL    HW115614   3.507   0.731   2.846
 4905SOL    HW215615   3.483   0.713   2.685
 4906SOL     OW15616   5.472   1.852   6.795
 4906SOL    HW115617   5.521   1.906   6.863
 4906SOL    HW215618   5.381   1.892   6.780
 4907SOL     OW15619   3.957   6.088   2.323
 4907SOL    HW115620   4.025   6.050   2.386
 4907SOL    HW215621   3.866   6.055   2.347
 4908SOL     OW15622   5.634   6.281   0.424
 4908SOL    HW115623   5.719   6.253   0.469
 4908SOL    HW215624   5.640   6.261   0.326
 4909SOL     OW15625   0.511   6.705   4.465
 4909SOL    HW115626   0.563   6.624   4.489
 4909SOL    HW215627   0.435   6.680   4.404
 4910SOL     OW15628   5.383   1.014   4.872
 4910SOL    HW115629   5.331   1.054   4.947
 4910SOL    HW215630   5.429   1.086   4.821
 4911SOL     OW15631   1.022   4.407   3.724
 4911SOL    HW115632   0.925   4.423   3.708
 4911SOL    HW215633   1.043   4.418   3.821
 4912SOL     OW15634   5.582   1.383   6.440
 4912SOL    HW115635   5.528   1.300   6.427
 4912SOL    HW215636   5.550   1.454   6.377
 4913SOL     OW15637   4.088   3.115   5.315
 4913SOL    HW115638   4.069   3.160   5.402
 4913SOL    HW215639   4.064   3.018   5.321
 4914SOL     OW15640   3.448   0.170   4.620
 4914SOL    HW115641   3.369   0.220   4.584
 4914SOL    HW215642   3.505   0.138   4.545
 4915SOL     OW15643   3.450   6.354   5.893
 4915SOL    HW115644   3.488   6.336   5.802
 4915SOL    HW215645   3.418   6.268   5.933
 4916SOL     OW15646   1.119   0.384   4.172
 4916SOL    HW115647   1.185   0.449   4.134
 4916SOL    HW215648   1.032   0.392   4.122
 4917SOL     OW15649   2.289   5.755   1.857
 4917SOL    HW115650   2.358   5.730   1.789
 4917SOL    HW215651   2.331   5.811   1.928
 4918SOL     OW15652   4.651   5.885   3.000
 4918SOL    HW115653   4.736   5.834   2.983
 4918SOL    HW215654   4.671   5.983   3.002
 4919SOL     OW15655   3.299   2.470   0.829
 4919SOL    HW115656   3.298   2.556   0.880
 4919SOL    HW215657   3.390   2.430   0.834
 4920SOL     OW15658   5.470   0.450   4.437
 4920SOL    HW115659   5.472   0.473   4.535
 4920SOL    HW215660   5.489   0.532   4.383
 4921SOL     OW15661   1.131   5.461   0.478
 4921SOL    HW115662   1.159   5.537   0.537
 4921SOL    HW215663   1.032   5.463   0.466
 4922SOL     OW15664   2.726   2.625   5.359
 4922SOL    HW115665   2.818   2.663   5.369
 4922SOL    HW215666   2.659   2.700   5.354
 4923SOL     OW15667   3.985   1.953   2.814
 4923SOL    HW115668   3.976   2.007   2.897
 4923SOL    HW215669   3.894   1.920   2.785
 4924SOL     OW15670   4.017   1.089   4.831
 4924SOL    HW115671   3.926   1.047   4.835
 4924SOL    HW215672   4.009   1.183   4.798
 4925SOL     OW15673   6.698   0.108   2.630
 4925SOL    HW115674   6.686   0.018   2.587
 4925SOL    HW215675   6.768   0.159   2.580
 4926SOL     OW15676   4.928   0.794   0.223
 4926SOL    HW115677   4.887   0.768   0.310
 4926SOL    HW215678   4.856   0.805   0.155
 4927SOL     OW15679   3.489   3.898   4.594
 4927SOL    HW115680   3.442   3.814   4.566
 4927SOL    HW215681   3.454   3.928   4.683
 4928SOL     OW15682   2.211   0.022   6.934
 4928SOL    HW115683   2.213   6.987   7.016
 4928SOL    HW215684   2.186   6.986   6.855
 4929SOL     OW15685   6.672   7.017   4.458
 4929SOL    HW115686   6.756   6.976   4.494
 4929SOL    HW215687   6.625   6.951   4.399
 4930SOL     OW15688   5.173   0.866   2.767
 4930SOL    HW115689   5.234   0.852   2.688
 4930SOL    HW215690   5.206   0.812   2.844
 4931SOL     OW15691   6.902   6.781   0.922
 4931SOL    HW115692   6.915   6.868   0.875
 4931SOL    HW215693   6.928   6.706   0.861
 4932SOL     OW15694   3.406   2.852   2.133
 4932SOL    HW115695   3.388   2.873   2.036
 4932SOL    HW215696   3.323   2.814   2.174
 4933SOL     OW15697   2.230   6.581   2.499
 4933SOL    HW115698   2.228   6.649   2.425
 4933SOL    HW215699   2.212   6.626   2.586
 4934SOL     OW15700   3.315   5.558   3.035
 4934SOL    HW115701   3.327   5.581   2.939
 4934SOL    HW215702   3.292   5.640   3.087
 4935SOL     OW15703   2.109   1.960   6.385
 4935SOL    HW115704   2.175   2.036   6.384
 4935SOL    HW215705   2.154   1.878   6.422
 4936SOL     OW15706   2.743   5.043   1.500
 4936SOL    HW115707   2.717   5.082   1.412
 4936SOL    HW215708   2.767   4.947   1.489
 4937SOL     OW15709   5.564   3.145   5.608
 4937SOL    HW115710   5.544   3.243   5.605
 4937SOL    HW215711   5.517   3.099   5.532
 4938SOL     OW15712   2.204   5.036   5.748
 4938SOL    HW115713   2.258   5.024   5.664
 4938SOL    HW215714   2.260   5.012   5.827
 4939SOL     OW15715   6.262   2.268   4.562
 4939SOL    HW115716   6.286   2.365   4.555
 4939SOL    HW215717   6.335   2.212   4.524
 4940SOL     OW15718   0.227   1.334   4.745
 4940SOL    HW115719   0.254   1.346   4.650
 4940SOL    HW215720   0.307   1.312   4.801
 4941SOL     OW15721   4.958   2.141   5.931
 4941SOL    HW115722   5.053   2.158   5.956
 4941SOL    HW215723   4.898   2.161   6.009
 4942SOL     OW15724   4.801   2.176   6.159
 4942SOL    HW115725   4.712   2.132   6.170
 4942SOL    HW215726   4.860   2.154   6.237
 4943SOL     OW15727   4.825   3.322   6.643
 4943SOL    HW115728   4.831   3.394   6.712
 4943SOL    HW215729   4.796   3.236   6.685
 4944SOL     OW15730   2.002   4.800   1.657
 4944SOL    HW115731   2.037   4.719   1.610
 4944SOL    HW215732   2.050   4.881   1.624
 4945SOL     OW15733   1.302   0.566   4.091
 4945SOL    HW115734   1.286   0.603   3.999
 4945SOL    HW215735   1.358   0.630   4.143
 4946SOL     OW15736   0.824   3.647   0.490
 4946SOL    HW115737   0.835   3.741   0.522
 4946SOL    HW215738   0.804   3.587   0.568
 4947SOL     OW15739   2.010   0.792   1.077
 4947SOL    HW115740   2.070   0.866   1.048
 4947SOL    HW215741   2.041   0.757   1.166
 4948SOL     OW15742   1.514   2.102   2.294
 4948SOL    HW115743   1.458   2.044   2.353
 4948SOL    HW215744   1.593   2.049   2.261
 4949SOL     OW15745   4.627   6.856   6.252
 4949SOL    HW115746   4.586   6.932   6.202
 4949SOL    HW215747   4.556   6.796   6.286
 4950SOL     OW15748   2.815   5.473   4.187
 4950SOL    HW115749   2.744   5.433   4.245
 4950SOL    HW215750   2.793   5.569   4.167
 4951SOL     OW15751   5.311   1.285   4.370
 4951SOL    HW115752   5.318   1.382   4.390
 4951SOL    HW215753   5.252   1.241   4.437
 4952SOL     OW15754   0.171   0.956   5.557
 4952SOL    HW115755   0.103   0.911   5.616
 4952SOL    HW215756   0.263   0.931   5.587
 4953SOL     OW15757   1.830   6.446   2.026
 4953SOL    HW115758   1.758   6.447   1.957
 4953SOL    HW215759   1.792   6.472   2.114
 4954SOL     OW15760   4.371   3.368   6.839
 4954SOL    HW115761   4.295   3.306   6.819
 4954SOL    HW215762   4.335   3.450   6.884
 4955SOL     OW15763   2.707   6.051   6.664
 4955SOL    HW115764   2.655   6.132   6.640
 4955SOL    HW215765   2.803   6.075   6.679
 4956SOL     OW15766   2.422   6.988   5.121
 4956SOL    HW115767   2.406   7.011   5.218
 4956SOL    HW215768   2.334   6.975   5.076
 4957SOL     OW15769   6.613   2.052   2.592
 4957SOL    HW115770   6.553   2.119   2.636
 4957SOL    HW215771   6.678   2.100   2.533
 4958SOL     OW15772   6.603   5.360   5.086
 4958SOL    HW115773   6.665   5.309   5.027
 4958SOL    HW215774   6.589   5.452   5.049
 4959SOL     OW15775   6.499   1.348   6.338
 4959SOL    HW115776   6.573   1.318   6.278
 4959SOL    HW215777   6.504   1.299   6.425
 4960SOL     OW15778   3.583   5.818   3.182
 4960SOL    HW115779   3.547   5.860   3.099
 4960SOL    HW215780   3.682   5.809   3.174
 4961SOL     OW15781   4.908   1.653   6.248
 4961SOL    HW115782   4.970   1.642   6.170
 4961SOL    HW215783   4.960   1.684   6.328
 4962SOL     OW15784   6.539   2.613   0.521
 4962SOL    HW115785   6.610   2.610   0.450
 4962SOL    HW215786   6.552   2.694   0.578
 4963SOL     OW15787   6.268   5.906   6.828
 4963SOL    HW115788   6.294   5.928   6.922
 4963SOL    HW215789   6.208   5.826   6.827
 4964SOL     OW15790   3.267   0.039   4.123
 4964SOL    HW115791   3.242   0.062   4.029
 4964SOL    HW215792   3.358   7.018   4.125
 4965SOL     OW15793   0.206   0.575   3.794
 4965SOL    HW115794   0.273   0.508   3.762
 4965SOL    HW215795   0.193   0.645   3.724
 4966SOL     OW15796   2.403   0.531   4.834
 4966SOL    HW115797   2.362   0.449   4.873
 4966SOL    HW215798   2.500   0.535   4.860
 4967SOL     OW15799   3.673   3.711   6.093
 4967SOL    HW115800   3.734   3.710   6.013
 4967SOL    HW215801   3.712   3.652   6.164
 4968SOL     OW15802   5.915   2.353   3.521
 4968SOL    HW115803   5.953   2.439   3.555
 4968SOL    HW215804   5.838   2.326   3.579
 4969SOL     OW15805   2.406   0.720   2.119
 4969SOL    HW115806   2.498   0.724   2.157
 4969SOL    HW215807   2.349   0.789   2.162
 4970SOL     OW15808   1.695   1.863   3.853
 4970SOL    HW115809   1.597   1.868   3.872
 4970SOL    HW215810   1.713   1.793   3.784
 4971SOL     OW15811   6.419   6.400   3.661
 4971SOL    HW115812   6.373   6.488   3.651
 4971SOL    HW215813   6.388   6.355   3.745
 4972SOL     OW15814   2.268   2.656   0.026
 4972SOL    HW115815   2.232   2.576   7.000
 4972SOL    HW215816   2.229   2.739   7.007
 4973SOL     OW15817   0.360   0.439   2.726
 4973SOL    HW115818   0.353   0.424   2.627
 4973SOL    HW215819   0.456   0.446   2.752
 4974SOL     OW15820   5.893   4.864   1.370
 4974SOL    HW115821   5.943   4.843   1.454
 4974SOL    HW215822   5.945   4.831   1.291
 4975SOL     OW15823   5.613   5.421   6.008
 4975SOL    HW115824   5.529   5.378   5.974
 4975SOL    HW215825   5.590   5.509   6.051
 4976SOL     OW15826   3.009   0.099   4.621
 4976SOL    HW115827   3.031   0.004   4.644
 4976SOL    HW215828   3.002   0.108   4.521
 4977SOL     OW15829   4.205   3.703   0.613
 4977SOL    HW115830   4.252   3.765   0.675
 4977SOL    HW215831   4.221   3.608   0.642
 4978SOL     OW15832   6.900   4.032   5.463
 4978SOL    HW115833   6.802   4.052   5.454
 4978SOL    HW215834   6.919   4.000   5.556
 4979SOL     OW15835   0.629   0.293   5.291
 4979SOL    HW115836   0.551   0.351   5.311
 4979SOL    HW215837   0.658   0.245   5.373
 4980SOL     OW15838   4.694   6.369   3.297
 4980SOL    HW115839   4.625   6.298   3.278
 4980SOL    HW215840   4.694   6.390   3.395
 4981SOL     OW15841   5.007   5.574   6.417
 4981SOL    HW115842   5.017   5.475   6.428
 4981SOL    HW215843   5.097   5.616   6.413
 4982SOL     OW15844   2.532   1.970   6.372
 4982SOL    HW115845   2.586   1.894   6.408
 4982SOL    HW215846   2.554   2.053   6.422
 4983SOL     OW15847   5.224   2.296   4.268
 4983SOL    HW115848   5.174   2.297   4.181
 4983SOL    HW215849   5.297   2.364   4.265
 4984SOL     OW15850   6.152   4.222   4.305
 4984SOL    HW115851   6.242   4.246   4.340
 4984SOL    HW215852   6.147   4.246   4.208
 4985SOL     OW15853   5.984   6.528   3.353
 4985SOL    HW115854   5.949   6.477   3.275
 4985SOL    HW215855   6.084   6.533   3.347
 4986SOL     OW15856   5.824   4.429   2.804
 4986SOL    HW115857   5.775   4.512   2.832
 4986SOL    HW215858   5.884   4.399   2.877
 4987SOL     OW15859   1.127   1.624   1.022
 4987SOL    HW115860   1.054   1.691   1.010
 4987SOL    HW215861   1.213   1.662   0.988
 4988SOL     OW15862   5.965   1.222   3.075
 4988SOL    HW115863   6.042   1.284   3.089
 4988SOL    HW215864   5.910   1.255   2.997
 4989SOL     OW15865   5.482   0.463   1.280
 4989SOL    HW115866   5.496   0.464   1.181
 4989SOL    HW215867   5.561   0.503   1.325
 4990SOL     OW15868   1.916   1.880   5.492
 4990SOL    HW115869   2.002   1.930   5.503
 4990SOL    HW215870   1.879   1.856   5.581
 4991SOL     OW15871   0.469   3.240   4.443
 4991SOL    HW115872   0.483   3.190   4.357
 4991SOL    HW215873   0.558   3.259   4.485
 4992SOL     OW15874   4.918   0.867   4.876
 4992SOL    HW115875   5.006   0.828   4.902
 4992SOL    HW215876   4.849   0.846   4.945
 4993SOL     OW15877   3.813   5.221   3.811
 4993SOL    HW115878   3.891   5.203   3.751
 4993SOL    HW215879   3.754   5.290   3.770
 4994SOL     OW15880   0.874   0.481   2.524
 4994SOL    HW115881   0.805   0.412   2.504
 4994SOL    HW215882   0.953   0.467   2.464
 4995SOL     OW15883   6.665   2.955   5.804
 4995SOL    HW115884   6.644   2.862   5.833
 4995SOL    HW215885   6.754   2.981   5.841
 4996SOL     OW15886   1.333   0.856   2.813
 4996SOL    HW115887   1.333   0.950   2.779
 4996SOL    HW215888   1.241   0.830   2.840
 4997SOL     OW15889   6.535   1.364   3.087
 4997SOL    HW115890   6.507   1.452   3.048
 4997SOL    HW215891   6.502   1.357   3.181
 4998SOL     OW15892   2.277   3.757   5.254
 4998SOL    HW115893   2.338   3.835   5.245
 4998SOL    HW215894   2.202   3.764   5.188
 4999SOL     OW15895   5.690   5.000   1.225
 4999SOL    HW115896   5.669   4.939   1.149
 4999SOL    HW215897   5.742   4.951   1.294
 5000SOL     OW15898   2.114   6.679   4.085
 5000SOL    HW115899   2.186   6.705   4.020
 5000SOL    HW215900   2.148   6.689   4.178
 5001SOL     OW15901   1.506   4.451   0.117
 5001SOL    HW115902   1.481   4.403   0.201
 5001SOL    HW215903   1.581   4.514   0.135
 5002SOL     OW15904   1.495   3.415   3.200
 5002SOL    HW115905   1.591   3.392   3.215
 5002SOL    HW215906   1.489   3.505   3.159
 5003SOL     OW15907   1.969   6.565   2.832
 5003SOL    HW115908   1.893   6.501   2.827
 5003SOL    HW215909   2.043   6.534   2.773
 5004SOL     OW15910   3.114   5.037   5.798
 5004SOL    HW115911   3.108   5.122   5.745
 5004SOL    HW215912   3.169   4.971   5.748
 5005SOL     OW15913   3.474   2.133   0.973
 5005SOL    HW115914   3.520   2.219   0.953
 5005SOL    HW215915   3.387   2.152   1.020
 5006SOL     OW15916   4.655   6.351   6.690
 5006SOL    HW115917   4.576   6.342   6.629
 5006SOL    HW215918   4.624   6.366   6.783
 5007SOL     OW15919   2.133   0.403   6.738
 5007SOL    HW115920   2.067   0.365   6.803
 5007SOL    HW215921   2.097   0.396   6.645
 5008SOL     OW15922   6.434   0.610   3.273
 5008SOL    HW115923   6.495   0.603   3.352
 5008SOL    HW215924   6.340   0.589   3.302
 5009SOL     OW15925   1.803   6.069   1.729
 5009SOL    HW115926   1.860   6.148   1.709
 5009SOL    HW215927   1.809   6.004   1.653
 5010SOL     OW15928   3.465   2.960   2.858
 5010SOL    HW115929   3.452   2.967   2.957
 5010SOL    HW215930   3.561   2.974   2.836
 5011SOL     OW15931   1.841   3.607   2.635
 5011SOL    HW115932   1.838   3.528   2.696
 5011SOL    HW215933   1.890   3.583   2.552
 5012SOL     OW15934   5.076   3.518   6.155
 5012SOL    HW115935   5.114   3.432   6.122
 5012SOL    HW215936   4.976   3.512   6.158
 5013SOL     OW15937   5.272   1.884   0.535
 5013SOL    HW115938   5.277   1.855   0.631
 5013SOL    HW215939   5.275   1.984   0.530
 5014SOL     OW15940   5.297   4.380   0.475
 5014SOL    HW115941   5.300   4.469   0.521
 5014SOL    HW215942   5.202   4.349   0.470
 5015SOL     OW15943   4.739   2.195   3.910
 5015SOL    HW115944   4.668   2.141   3.955
 5015SOL    HW215945   4.756   2.279   3.962
 5016SOL     OW15946   2.856   1.793   0.835
 5016SOL    HW115947   2.881   1.696   0.825
 5016SOL    HW215948   2.938   1.847   0.855
 5017SOL     OW15949   1.700   2.454   6.858
 5017SOL    HW115950   1.773   2.453   6.927
 5017SOL    HW215951   1.617   2.493   6.897
 5018SOL     OW15952   0.841   4.559   1.338
 5018SOL    HW115953   0.746   4.531   1.348
 5018SOL    HW215954   0.848   4.658   1.345
 5019SOL     OW15955   1.933   4.813   6.740
 5019SOL    HW115956   1.992   4.766   6.804
 5019SOL    HW215957   1.928   4.762   6.654
 5020SOL     OW15958   4.806   6.641   5.971
 5020SOL    HW115959   4.829   6.715   6.035
 5020SOL    HW215960   4.881   6.628   5.907
 5021SOL     OW15961   1.872   1.845   5.771
 5021SOL    HW115962   1.961   1.825   5.813
 5021SOL    HW215963   1.814   1.892   5.837
 5022SOL     OW15964   1.879   0.349   0.173
 5022SOL    HW115965   1.910   0.320   0.083
 5022SOL    HW215966   1.955   0.343   0.238
 5023SOL     OW15967   6.346   2.682   1.146
 5023SOL    HW115968   6.319   2.606   1.204
 5023SOL    HW215969   6.418   2.735   1.191
 5024SOL     OW15970   6.651   4.693   3.114
 5024SOL    HW115971   6.553   4.698   3.091
 5024SOL    HW215972   6.696   4.777   3.087
 5025SOL     OW15973   3.938   2.211   2.030
 5025SOL    HW115974   3.910   2.116   2.017
 5025SOL    HW215975   3.872   2.271   1.985
 5026SOL     OW15976   5.613   6.239   6.354
 5026SOL    HW115977   5.710   6.215   6.367
 5026SOL    HW215978   5.581   6.201   6.268
 5027SOL     OW15979   0.157   0.057   2.301
 5027SOL    HW115980   0.175   7.001   2.363
 5027SOL    HW215981   0.231   0.063   2.234
 5028SOL     OW15982   0.340   6.596   3.215
 5028SOL    HW115983   0.425   6.643   3.238
 5028SOL    HW215984   0.327   6.518   3.277
 5029SOL     OW15985   6.559   3.700   3.696
 5029SOL    HW115986   6.570   3.799   3.707
 5029SOL    HW215987   6.588   3.654   3.780
 5030SOL     OW15988   6.959   0.408   6.667
 5030SOL    HW115989   6.936   0.441   6.759
 5030SOL    HW215990   0.025   0.448   6.638
 5031SOL     OW15991   5.221   0.886   4.557
 5031SOL    HW115992   5.181   0.796   4.541
 5031SOL    HW215993   5.320   0.878   4.562
 5032SOL     OW15994   1.442   4.477   1.413
 5032SOL    HW115995   1.355   4.428   1.414
 5032SOL    HW215996   1.431   4.565   1.459
 5033SOL     OW15997   1.607   4.670   6.357
 5033SOL    HW115998   1.623   4.582   6.400
 5033SOL    HW215999   1.694   4.710   6.328
 5034SOL     OW16000   6.501   2.513   2.882
 5034SOL    HW116001   6.501   2.433   2.821
 5034SOL    HW216002   6.478   2.483   2.975
 5035SOL     OW16003   6.243   4.285   0.737
 5035SOL    HW116004   6.327   4.260   0.785
 5035SOL    HW216005   6.169   4.224   0.765
 5036SOL     OW16006   0.004   4.622   0.336
 5036SOL    HW116007   0.026   4.646   0.241
 5036SOL    HW216008   6.940   4.569   0.337
 5037SOL     OW16009   4.889   2.118   2.339
 5037SOL    HW116010   4.806   2.065   2.359
 5037SOL    HW216011   4.949   2.063   2.280
 5038SOL     OW16012   1.893   5.090   5.269
 5038SOL    HW116013   1.832   5.012   5.282
 5038SOL    HW216014   1.975   5.062   5.219
 5039SOL     OW16015   1.903   3.798   5.517
 5039SOL    HW116016   1.903   3.881   5.462
 5039SOL    HW216017   1.983   3.743   5.495
 5040SOL     OW16018   1.876   4.359   6.269
 5040SOL    HW116019   1.936   4.438   6.251
 5040SOL    HW216020   1.932   4.279   6.291
 5041SOL     OW16021   1.534   3.234   1.386
 5041SOL    HW116022   1.441   3.264   1.407
 5041SOL    HW216023   1.543   3.223   1.287
 5042SOL     OW16024   6.724   3.050   0.184
 5042SOL    HW116025   6.802   3.106   0.158
 5042SOL    HW216026   6.739   3.011   0.275
 5043SOL     OW16027   2.990   1.324   5.908
 5043SOL    HW116028   2.955   1.266   5.981
 5043SOL    HW216029   2.984   1.420   5.935
 5044SOL     OW16030   6.057   6.868   2.496
 5044SOL    HW116031   6.104   6.876   2.583
 5044SOL    HW216032   5.965   6.907   2.503
 5045SOL     OW16033   5.495   3.003   0.116
 5045SOL    HW116034   5.429   2.981   0.044
 5045SOL    HW216035   5.456   3.072   0.177
 5046SOL     OW16036   3.296   4.152   5.077
 5046SOL    HW116037   3.299   4.229   5.141
 5046SOL    HW216038   3.358   4.170   5.001
 5047SOL     OW16039   0.307   2.479   2.368
 5047SOL    HW116040   0.220   2.431   2.384
 5047SOL    HW216041   0.332   2.530   2.449
 5048SOL     OW16042   6.865   1.074   1.302
 5048SOL    HW116043   6.872   1.125   1.388
 5048SOL    HW216044   6.956   1.068   1.260
 5049SOL     OW16045   6.520   1.477   4.356
 5049SOL    HW116046   6.526   1.576   4.369
 5049SOL    HW216047   6.534   1.455   4.260
 5050SOL     OW16048   1.056   1.383   1.859
 5050SOL    HW116049   0.958   1.393   1.877
 5050SOL    HW216050   1.108   1.403   1.943
 5051SOL     OW16051   4.271   3.435   0.201
 5051SOL    HW116052   4.321   3.356   0.164
 5051SOL    HW216053   4.177   3.434   0.167
 5052SOL     OW16054   2.471   5.246   5.853
 5052SOL    HW116055   2.468   5.150   5.825
 5052SOL    HW216056   2.478   5.252   5.953
 5053SOL     OW16057   1.628   4.087   3.376
 5053SOL    HW116058   1.536   4.062   3.404
 5053SOL    HW216059   1.632   4.185   3.359
 5054SOL     OW16060   3.514   5.478   5.333
 5054SOL    HW116061   3.530   5.395   5.387
 5054SOL    HW216062   3.419   5.478   5.301
 5055SOL     OW16063   0.738   0.903   5.282
 5055SOL    HW116064   0.810   0.973   5.281
 5055SOL    HW216065   0.674   0.922   5.357
 5056SOL     OW16066   6.182   3.659   0.775
 5056SOL    HW116067   6.166   3.570   0.817
 5056SOL    HW216068   6.277   3.687   0.790
 5057SOL     OW16069   0.817   5.634   4.066
 5057SOL    HW116070   0.850   5.728   4.074
 5057SOL    HW216071   0.721   5.629   4.094
 5058SOL     OW16072   2.550   4.177   6.365
 5058SOL    HW116073   2.483   4.146   6.297
 5058SOL    HW216074   2.607   4.100   6.394
 5059SOL     OW16075   5.455   3.584   3.840
 5059SOL    HW116076   5.541   3.635   3.845
 5059SOL    HW216077   5.403   3.597   3.924
 5060SOL     OW16078   0.116   2.666   5.299
 5060SOL    HW116079   0.208   2.676   5.338
 5060SOL    HW216080   0.123   2.666   5.199
 5061SOL     OW16081   3.123   3.011   3.988
 5061SOL    HW116082   3.066   3.068   4.046
 5061SOL    HW216083   3.101   3.027   3.892
 5062SOL     OW16084   4.979   1.239   2.746
 5062SOL    HW116085   4.915   1.235   2.823
 5062SOL    HW216086   5.059   1.183   2.766
 5063SOL     OW16087   1.123   6.080   1.704
 5063SOL    HW116088   1.053   6.125   1.648
 5063SOL    HW216089   1.158   6.000   1.655
 5064SOL     OW16090   4.950   4.442   1.532
 5064SOL    HW116091   5.012   4.519   1.546
 5064SOL    HW216092   4.855   4.475   1.530
 5065SOL     OW16093   1.348   1.904   2.785
 5065SOL    HW116094   1.259   1.936   2.818
 5065SOL    HW216095   1.398   1.862   2.860
 5066SOL     OW16096   3.153   4.095   1.867
 5066SOL    HW116097   3.098   4.096   1.783
 5066SOL    HW216098   3.226   4.163   1.861
 5067SOL     OW16099   3.619   0.960   2.672
 5067SOL    HW116100   3.550   0.962   2.745
 5067SOL    HW216101   3.624   0.868   2.634
 5068SOL     OW16102   3.339   4.831   0.162
 5068SOL    HW116103   3.365   4.755   0.103
 5068SOL    HW216104   3.420   4.869   0.205
 5069SOL     OW16105   1.680   2.949   6.188
 5069SOL    HW116106   1.658   2.934   6.284
 5069SOL    HW216107   1.730   2.870   6.152
 5070SOL     OW16108   5.225   4.955   5.102
 5070SOL    HW116109   5.316   4.986   5.075
 5070SOL    HW216110   5.170   4.938   5.020
 5071SOL     OW16111   4.153   2.162   4.004
 5071SOL    HW116112   4.156   2.096   4.079
 5071SOL    HW216113   4.060   2.197   3.994
 5072SOL     OW16114   1.591   1.456   1.446
 5072SOL    HW116115   1.579   1.402   1.529
 5072SOL    HW216116   1.537   1.415   1.372
 5073SOL     OW16117   1.936   5.031   1.114
 5073SOL    HW116118   1.912   4.991   1.202
 5073SOL    HW216119   2.010   5.097   1.125
 5074SOL     OW16120   3.720   2.073   2.222
 5074SOL    HW116121   3.715   2.117   2.133
 5074SOL    HW216122   3.632   2.030   2.243
 5075SOL     OW16123   1.083   1.844   0.010
 5075SOL    HW116124   0.988   1.867   7.011
 5075SOL    HW216125   1.129   1.817   6.946
 5076SOL     OW16126   5.557   6.939   0.601
 5076SOL    HW116127   5.561   6.977   0.509
 5076SOL    HW216128   5.617   6.991   0.662
 5077SOL     OW16129   0.822   4.189   6.487
 5077SOL    HW116130   0.729   4.195   6.523
 5077SOL    HW216131   0.822   4.131   6.406
 5078SOL     OW16132   0.558   1.184   3.738
 5078SOL    HW116133   0.470   1.155   3.700
 5078SOL    HW216134   0.582   1.127   3.816
 5079SOL     OW16135   2.518   2.786   5.262
 5079SOL    HW116136   2.496   2.877   5.226
 5079SOL    HW216137   2.512   2.719   5.188
 5080SOL     OW16138   6.207   5.999   5.433
 5080SOL    HW116139   6.182   5.943   5.354
 5080SOL    HW216140   6.277   6.065   5.406
 5081SOL     OW16141   3.055   4.478   6.132
 5081SOL    HW116142   3.084   4.410   6.198
 5081SOL    HW216143   2.999   4.434   6.061
 5082SOL     OW16144   5.272   0.404   0.801
 5082SOL    HW116145   5.259   0.424   0.703
 5082SOL    HW216146   5.188   0.366   0.838
 5083SOL     OW16147   2.868   0.294   2.164
 5083SOL    HW116148   2.925   0.326   2.241
 5083SOL    HW216149   2.868   0.194   2.163
 5084SOL     OW16150   0.908   5.141   3.819
 5084SOL    HW116151   0.834   5.085   3.783
 5084SOL    HW216152   0.871   5.222   3.863
 5085SOL     OW16153   6.776   2.647   5.521
 5085SOL    HW116154   6.823   2.735   5.526
 5085SOL    HW216155   6.829   2.583   5.466
 5086SOL     OW16156   1.318   4.539   2.825
 5086SOL    HW116157   1.234   4.579   2.788
 5086SOL    HW216158   1.299   4.495   2.912
 5087SOL     OW16159   0.246   5.338   1.464
 5087SOL    HW116160   0.292   5.386   1.390
 5087SOL    HW216161   0.161   5.385   1.487
 5088SOL     OW16162   5.227   0.080   3.675
 5088SOL    HW116163   5.301   0.048   3.735
 5088SOL    HW216164   5.247   0.172   3.642
 5089SOL     OW16165   6.315   4.625   4.256
 5089SOL    HW116166   6.373   4.633   4.175
 5089SOL    HW216167   6.372   4.622   4.338
 5090SOL     OW16168   1.852   1.699   2.591
 5090SOL    HW116169   1.837   1.729   2.685
 5090SOL    HW216170   1.845   1.778   2.529
 5091SOL     OW16171   6.538   1.034   1.936
 5091SOL    HW116172   6.585   1.108   1.985
 5091SOL    HW216173   6.586   1.016   1.850
 5092SOL     OW16174   3.607   3.330   3.701
 5092SOL    HW116175   3.608   3.297   3.607
 5092SOL    HW216176   3.691   3.302   3.748
 5093SOL     OW16177   3.543   1.323   0.673
 5093SOL    HW116178   3.476   1.397   0.671
 5093SOL    HW216179   3.620   1.345   0.613
 5094SOL     OW16180   2.544   5.976   6.014
 5094SOL    HW116181   2.632   5.929   6.008
 5094SOL    HW216182   2.470   5.909   6.004
 5095SOL     OW16183   0.018   2.552   2.989
 5095SOL    HW116184   0.005   2.609   3.070
 5095SOL    HW216185   0.035   2.457   3.018
 5096SOL     OW16186   4.625   5.051   6.716
 5096SOL    HW116187   4.699   5.075   6.653
 5096SOL    HW216188   4.596   5.133   6.766
 5097SOL     OW16189   0.577   6.750   6.752
 5097SOL    HW116190   0.602   6.843   6.779
 5097SOL    HW216191   0.488   6.727   6.791
 5098SOL     OW16192   2.498   1.145   1.889
 5098SOL    HW116193   2.505   1.244   1.902
 5098SOL    HW216194   2.546   1.097   1.963
 5099SOL     OW16195   0.585   6.873   1.385
 5099SOL    HW116196   0.551   6.785   1.352
 5099SOL    HW216197   0.648   6.858   1.461
 5100SOL     OW16198   3.457   5.346   4.756
 5100SOL    HW116199   3.491   5.369   4.664
 5100SOL    HW216200   3.366   5.386   4.768
 5101SOL     OW16201   4.122   6.898   6.004
 5101SOL    HW116202   4.152   6.807   5.976
 5101SOL    HW216203   4.085   6.947   5.925
 5102SOL     OW16204   5.195   6.894   4.229
 5102SOL    HW116205   5.280   6.841   4.226
 5102SOL    HW216206   5.118   6.833   4.245
 5103SOL     OW16207   0.067   1.489   3.974
 5103SOL    HW116208   0.120   1.452   4.051
 5103SOL    HW216209   7.010   1.541   4.010
 5104SOL     OW16210   1.877   6.940   1.792
 5104SOL    HW116211   1.824   6.950   1.876
 5104SOL    HW216212   1.940   7.017   1.783
 5105SOL     OW16213   3.354   2.719   0.302
 5105SOL    HW116214   3.399   2.661   0.234
 5105SOL    HW216215   3.319   2.801   0.257
 5106SOL     OW16216   4.572   1.368   1.063
 5106SOL    HW116217   4.540   1.302   0.995
 5106SOL    HW216218   4.653   1.331   1.110
 5107SOL     OW16219   4.635   2.824   1.464
 5107SOL    HW116220   4.649   2.732   1.427
 5107SOL    HW216221   4.624   2.889   1.389
 5108SOL     OW16222   3.918   3.976   5.243
 5108SOL    HW116223   3.915   4.062   5.192
 5108SOL    HW216224   3.862   3.907   5.196
 5109SOL     OW16225   0.916   2.109   0.046
 5109SOL    HW116226   0.887   2.105   0.142
 5109SOL    HW216227   0.891   2.023   0.001
 5110SOL     OW16228   0.269   0.356   6.258
 5110SOL    HW116229   0.359   0.316   6.279
 5110SOL    HW216230   0.221   0.297   6.193
 5111SOL     OW16231   1.612   1.051   4.446
 5111SOL    HW116232   1.691   1.113   4.451
 5111SOL    HW216233   1.614   1.002   4.359
 5112SOL     OW16234   0.915   0.314   2.793
 5112SOL    HW116235   0.857   0.336   2.872
 5112SOL    HW216236   0.942   0.398   2.747
 5113SOL     OW16237   2.197   5.440   1.267
 5113SOL    HW116238   2.176   5.536   1.286
 5113SOL    HW216239   2.296   5.428   1.258
 5114SOL     OW16240   3.901   0.105   6.474
 5114SOL    HW116241   3.989   0.114   6.522
 5114SOL    HW216242   3.916   0.064   6.384
 5115SOL     OW16243   1.399   5.424   3.499
 5115SOL    HW116244   1.369   5.475   3.419
 5115SOL    HW216245   1.379   5.477   3.582
 5116SOL     OW16246   1.187   6.352   0.568
 5116SOL    HW116247   1.101   6.332   0.615
 5116SOL    HW216248   1.206   6.450   0.575
 5117SOL     OW16249   1.483   3.858   4.164
 5117SOL    HW116250   1.393   3.815   4.173
 5117SOL    HW216251   1.473   3.958   4.166
 5118SOL     OW16252   5.357   1.013   0.028
 5118SOL    HW116253   5.409   1.099   0.031
 5118SOL    HW216254   5.273   1.027   6.997
 5119SOL     OW16255   4.374   0.944   2.403
 5119SOL    HW116256   4.339   0.886   2.476
 5119SOL    HW216257   4.454   0.994   2.436
 5120SOL     OW16258   3.888   0.279   4.593
 5120SOL    HW116259   3.826   0.251   4.667
 5120SOL    HW216260   3.835   0.319   4.519
 5121SOL     OW16261   3.759   3.085   6.919
 5121SOL    HW116262   3.707   3.004   6.893
 5121SOL    HW216263   3.748   3.156   6.850
 5122SOL     OW16264   3.658   6.128   3.298
 5122SOL    HW116265   3.566   6.088   3.298
 5122SOL    HW216266   3.672   6.180   3.214
 5123SOL     OW16267   4.871   1.813   4.251
 5123SOL    HW116268   4.844   1.719   4.271
 5123SOL    HW216269   4.923   1.850   4.328
 5124SOL     OW16270   1.634   5.950   4.997
 5124SOL    HW116271   1.644   5.856   5.029
 5124SOL    HW216272   1.568   5.954   4.922
 5125SOL     OW16273   6.204   3.428   3.589
 5125SOL    HW116274   6.200   3.372   3.507
 5125SOL    HW216275   6.226   3.371   3.668
 5126SOL     OW16276   6.546   5.924   6.781
 5126SOL    HW116277   6.451   5.902   6.803
 5126SOL    HW216278   6.600   5.840   6.781
 5127SOL     OW16279   0.037   3.826   0.234
 5127SOL    HW116280   6.961   3.826   0.260
 5127SOL    HW216281   0.056   3.908   0.179
 5128SOL     OW16282   0.085   6.809   6.578
 5128SOL    HW116283   0.034   6.877   6.525
 5128SOL    HW216284   0.023   6.761   6.639
 5129SOL     OW16285   6.431   6.820   2.928
 5129SOL    HW116286   6.358   6.752   2.925
 5129SOL    HW216287   6.518   6.777   2.903
 5130SOL     OW16288   0.179   5.359   3.373
 5130SOL    HW116289   0.268   5.375   3.330
 5130SOL    HW216290   0.177   5.403   3.462
 5131SOL     OW16291   2.284   4.488   3.747
 5131SOL    HW116292   2.285   4.415   3.816
 5131SOL    HW216293   2.196   4.487   3.700
 5132SOL     OW16294   3.950   2.913   6.653
 5132SOL    HW116295   3.978   2.933   6.559
 5132SOL    HW216296   3.877   2.976   6.680
 5133SOL     OW16297   1.824   4.914   0.112
 5133SOL    HW116298   1.846   4.997   0.164
 5133SOL    HW216299   1.815   4.937   0.015
 5134SOL     OW16300   0.236   3.203   2.086
 5134SOL    HW116301   0.308   3.235   2.025
 5134SOL    HW216302   0.149   3.201   2.037
 5135SOL     OW16303   6.175   2.632   4.842
 5135SOL    HW116304   6.140   2.555   4.789
 5135SOL    HW216305   6.098   2.686   4.878
 5136SOL     OW16306   4.166   0.896   6.311
 5136SOL    HW116307   4.163   0.948   6.225
 5136SOL    HW216308   4.246   0.925   6.364
 5137SOL     OW16309   5.546   3.510   5.789
 5137SOL    HW116310   5.606   3.584   5.760
 5137SOL    HW216311   5.507   3.532   5.879
 5138SOL     OW16312   3.128   2.886   5.742
 5138SOL    HW116313   3.132   2.979   5.779
 5138SOL    HW216314   3.178   2.882   5.656
 5139SOL     OW16315   2.077   0.677   3.066
 5139SOL    HW116316   2.070   0.601   3.001
 5139SOL    HW216317   2.146   0.741   3.035
 5140SOL     OW16318   4.076   2.032   0.354
 5140SOL    HW116319   4.138   1.957   0.380
 5140SOL    HW216320   4.003   1.997   0.296
 5141SOL     OW16321   6.554   3.664   0.155
 5141SOL    HW116322   6.503   3.685   0.071
 5141SOL    HW216323   6.642   3.623   0.131
 5142SOL     OW16324   6.355   0.305   4.067
 5142SOL    HW116325   6.438   0.251   4.055
 5142SOL    HW216326   6.282   0.248   4.105
 5143SOL     OW16327   6.797   4.291   4.586
 5143SOL    HW116328   6.782   4.284   4.487
 5143SOL    HW216329   6.890   4.325   4.603
 5144SOL     OW16330   1.001   4.631   6.066
 5144SOL    HW116331   1.073   4.700   6.077
 5144SOL    HW216332   1.039   4.549   6.024
 5145SOL     OW16333   2.317   5.075   5.476
 5145SOL    HW116334   2.252   5.019   5.424
 5145SOL    HW216335   2.404   5.027   5.482
 5146SOL     OW16336   3.874   4.205   5.096
 5146SOL    HW116337   3.911   4.199   5.003
 5146SOL    HW216338   3.774   4.208   5.091
 5147SOL     OW16339   6.602   4.958   2.832
 5147SOL    HW116340   6.651   4.964   2.918
 5147SOL    HW216341   6.621   5.039   2.777
 5148SOL     OW16342   0.478   6.390   1.275
 5148SOL    HW116343   0.516   6.424   1.361
 5148SOL    HW216344   0.443   6.298   1.288
 5149SOL     OW16345   6.568   5.893   3.403
 5149SOL    HW116346   6.500   5.901   3.330
 5149SOL    HW216347   6.594   5.984   3.436
 5150SOL     OW16348   2.077   4.920   2.358
 5150SOL    HW116349   1.981   4.901   2.336
 5150SOL    HW216350   2.102   5.009   2.320
 5151SOL     OW16351   5.705   2.420   1.019
 5151SOL    HW116352   5.660   2.506   1.042
 5151SOL    HW216353   5.720   2.416   0.920
 5152SOL     OW16354   2.116   5.040   0.034
 5152SOL    HW116355   2.035   5.066   0.086
 5152SOL    HW216356   2.170   4.974   0.086
 5153SOL     OW16357   2.364   0.397   0.032
 5153SOL    HW116358   2.376   0.473   6.989
 5153SOL    HW216359   2.315   0.429   0.113
 5154SOL     OW16360   0.954   3.436   6.292
 5154SOL    HW116361   0.970   3.519   6.239
 5154SOL    HW216362   1.024   3.367   6.269
 5155SOL     OW16363   4.242   6.542   2.040
 5155SOL    HW116364   4.235   6.458   2.094
 5155SOL    HW216365   4.257   6.620   2.101
 5156SOL     OW16366   6.396   3.385   5.965
 5156SOL    HW116367   6.352   3.330   6.036
 5156SOL    HW216368   6.327   3.425   5.906
 5157SOL     OW16369   4.402   1.701   3.656
 5157SOL    HW116370   4.382   1.778   3.716
 5157SOL    HW216371   4.331   1.631   3.667
 5158SOL     OW16372   3.801   0.893   1.816
 5158SOL    HW116373   3.785   0.945   1.900
 5158SOL    HW216374   3.869   0.822   1.832
 5159SOL     OW16375   6.983   3.496   3.650
 5159SOL    HW116376   6.941   3.572   3.600
 5159SOL    HW216377   0.039   3.530   3.704
 5160SOL     OW16378   0.034   4.465   3.259
 5160SOL    HW116379   6.962   4.458   3.223
 5160SOL    HW216380   0.054   4.561   3.281
 5161SOL     OW16381   1.400   4.149   5.037
 5161SOL    HW116382   1.497   4.172   5.044
 5161SOL    HW216383   1.383   4.060   5.080
 5162SOL     OW16384   1.188   5.617   3.039
 5162SOL    HW116385   1.187   5.713   3.067
 5162SOL    HW216386   1.138   5.607   2.953
 5163SOL     OW16387   3.928   6.173   0.366
 5163SOL    HW116388   3.990   6.167   0.288
 5163SOL    HW216389   3.846   6.119   0.348
 5164SOL     OW16390   4.546   2.451   6.731
 5164SOL    HW116391   4.469   2.407   6.685
 5164SOL    HW216392   4.581   2.525   6.674
 5165SOL     OW16393   5.766   4.539   5.548
 5165SOL    HW116394   5.691   4.551   5.613
 5165SOL    HW216395   5.821   4.623   5.544
 5166SOL     OW16396   0.413   5.405   3.059
 5166SOL    HW116397   0.389   5.313   3.089
 5166SOL    HW216398   0.340   5.468   3.082
 5167SOL     OW16399   6.395   5.665   5.649
 5167SOL    HW116400   6.403   5.611   5.565
 5167SOL    HW216401   6.438   5.754   5.635
 5168SOL     OW16402   4.933   3.507   2.976
 5168SOL    HW116403   4.985   3.504   2.890
 5168SOL    HW216404   4.912   3.413   3.005
 5169SOL     OW16405   4.541   1.607   4.731
 5169SOL    HW116406   4.546   1.535   4.801
 5169SOL    HW216407   4.588   1.688   4.764
 5170SOL     OW16408   0.399   4.279   5.195
 5170SOL    HW116409   0.425   4.375   5.188
 5170SOL    HW216410   0.350   4.263   5.281
 5171SOL     OW16411   1.489   5.825   4.104
 5171SOL    HW116412   1.546   5.900   4.071
 5171SOL    HW216413   1.418   5.805   4.036
 5172SOL     OW16414   0.365   2.368   2.662
 5172SOL    HW116415   0.332   2.455   2.698
 5172SOL    HW216416   0.397   2.311   2.737
 5173SOL     OW16417   5.643   5.012   6.247
 5173SOL    HW116418   5.670   5.096   6.201
 5173SOL    HW216419   5.612   5.033   6.340
 5174SOL     OW16420   2.455   4.498   2.801
 5174SOL    HW116421   2.452   4.455   2.891
 5174SOL    HW216422   2.394   4.577   2.800
 5175SOL     OW16423   2.002   3.610   6.987
 5175SOL    HW116424   2.012   3.706   7.015
 5175SOL    HW216425   1.906   3.591   6.967
 5176SOL     OW16426   4.952   3.299   6.421
 5176SOL    HW116427   4.887   3.314   6.495
 5176SOL    HW216428   5.023   3.369   6.424
 5177SOL     OW16429   5.127   0.058   0.075
 5177SOL    HW116430   5.141   0.141   0.129
 5177SOL    HW216431   5.047   0.009   0.109
 5178SOL     OW16432   1.313   3.736   1.374
 5178SOL    HW116433   1.404   3.719   1.335
 5178SOL    HW216434   1.313   3.823   1.423
 5179SOL     OW16435   4.304   6.044   4.486
 5179SOL    HW116436   4.266   5.952   4.494
 5179SOL    HW216437   4.272   6.100   4.563
 5180SOL     OW16438   3.291   3.030   0.451
 5180SOL    HW116439   3.231   3.109   0.434
 5180SOL    HW216440   3.239   2.958   0.497
 5181SOL     OW16441   5.085   1.969   2.151
 5181SOL    HW116442   5.009   1.948   2.090
 5181SOL    HW216443   5.122   2.060   2.130
 5182SOL     OW16444   3.978   4.449   1.668
 5182SOL    HW116445   3.938   4.540   1.661
 5182SOL    HW216446   4.075   4.457   1.693
 5183SOL     OW16447   4.215   1.603   2.774
 5183SOL    HW116448   4.124   1.610   2.815
 5183SOL    HW216449   4.235   1.687   2.725
 5184SOL     OW16450   0.708   2.527   4.223
 5184SOL    HW116451   0.764   2.460   4.273
 5184SOL    HW216452   0.738   2.619   4.245
 5185SOL     OW16453   5.272   0.895   2.290
 5185SOL    HW116454   5.327   0.812   2.291
 5185SOL    HW216455   5.327   0.972   2.257
 5186SOL     OW16456   5.889   2.875   0.671
 5186SOL    HW116457   5.965   2.905   0.728
 5186SOL    HW216458   5.914   2.790   0.624
 5187SOL     OW16459   0.288   0.186   3.850
 5187SOL    HW116460   0.219   0.246   3.892
 5187SOL    HW216461   0.243   0.117   3.794
 5188SOL     OW16462   0.635   5.634   0.399
 5188SOL    HW116463   0.719   5.617   0.347
 5188SOL    HW216464   0.635   5.728   0.432
 5189SOL     OW16465   4.901   4.875   0.992
 5189SOL    HW116466   4.962   4.829   1.057
 5189SOL    HW216467   4.917   4.840   0.900
 5190SOL     OW16468   0.021   3.159   4.175
 5190SOL    HW116469   6.963   3.215   4.201
 5190SOL    HW216470   0.036   3.167   4.076
 5191SOL     OW16471   3.957   0.367   1.650
 5191SOL    HW116472   3.954   0.270   1.628
 5191SOL    HW216473   3.940   0.380   1.748
 5192SOL     OW16474   2.684   5.443   3.180
 5192SOL    HW116475   2.664   5.345   3.177
 5192SOL    HW216476   2.758   5.464   3.116
 5193SOL     OW16477   5.369   4.150   4.581
 5193SOL    HW116478   5.413   4.115   4.499
 5193SOL    HW216479   5.432   4.141   4.659
 5194SOL     OW16480   3.676   1.151   6.977
 5194SOL    HW116481   3.643   1.176   0.047
 5194SOL    HW216482   3.767   1.109   6.985
 5195SOL     OW16483   6.394   5.790   4.174
 5195SOL    HW116484   6.417   5.698   4.207
 5195SOL    HW216485   6.467   5.853   4.199
 5196SOL     OW16486   1.988   4.147   0.642
 5196SOL    HW116487   1.982   4.183   0.549
 5196SOL    HW216488   2.068   4.088   0.650
 5197SOL     OW16489   2.322   5.408   4.962
 5197SOL    HW116490   2.234   5.389   5.004
 5197SOL    HW216491   2.362   5.490   5.002
 5198SOL     OW16492   4.398   6.802   3.192
 5198SOL    HW116493   4.439   6.852   3.268
 5198SOL    HW216494   4.449   6.717   3.177
 5199SOL     OW16495   1.409   6.350   0.051
 5199SOL    HW116496   1.336   6.413   0.079
 5199SOL    HW216497   1.493   6.372   0.101
 5200SOL     OW16498   1.550   1.831   5.541
 5200SOL    HW116499   1.533   1.753   5.601
 5200SOL    HW216500   1.622   1.888   5.581
 5201SOL     OW16501   6.268   6.145   4.195
 5201SOL    HW116502   6.214   6.061   4.194
 5201SOL    HW216503   6.223   6.215   4.140
 5202SOL     OW16504   5.841   4.806   5.939
 5202SOL    HW116505   5.788   4.853   5.869
 5202SOL    HW216506   5.792   4.809   6.026
 5203SOL     OW16507   2.264   0.737   0.081
 5203SOL    HW116508   2.349   0.761   0.034
 5203SOL    HW216509   2.194   0.717   0.012
 5204SOL     OW16510   4.074   6.454   6.851
 5204SOL    HW116511   4.151   6.511   6.821
 5204SOL    HW216512   4.040   6.401   6.773
 5205SOL     OW16513   6.659   5.879   0.190
 5205SOL    HW116514   6.636   5.866   0.093
 5205SOL    HW216515   6.597   5.824   0.246
 5206SOL     OW16516   0.260   4.698   6.825
 5206SOL    HW116517   0.260   4.789   6.866
 5206SOL    HW216518   0.335   4.692   6.759
 5207SOL     OW16519   1.418   6.682   4.033
 5207SOL    HW116520   1.404   6.701   3.935
 5207SOL    HW216521   1.502   6.726   4.063
 5208SOL     OW16522   4.759   2.096   6.995
 5208SOL    HW116523   4.676   2.112   0.028
 5208SOL    HW216524   4.830   2.161   0.001
 5209SOL     OW16525   5.678   0.574   1.417
 5209SOL    HW116526   5.767   0.597   1.377
 5209SOL    HW216527   5.681   0.587   1.516
 5210SOL     OW16528   4.582   3.414   0.495
 5210SOL    HW116529   4.509   3.481   0.487
 5210SOL    HW216530   4.565   3.339   0.431
 5211SOL     OW16531   4.335   1.986   5.145
 5211SOL    HW116532   4.249   1.971   5.192
 5211SOL    HW216533   4.342   2.082   5.117
 5212SOL     OW16534   1.455   3.627   0.931
 5212SOL    HW116535   1.485   3.723   0.929
 5212SOL    HW216536   1.358   3.623   0.957
 5213SOL     OW16537   4.501   3.460   1.071
 5213SOL    HW116538   4.452   3.432   0.989
 5213SOL    HW216539   4.527   3.556   1.064
 5214SOL     OW16540   5.825   2.726   6.306
 5214SOL    HW116541   5.801   2.805   6.251
 5214SOL    HW216542   5.792   2.738   6.399
 5215SOL     OW16543   1.143   4.699   4.212
 5215SOL    HW116544   1.128   4.741   4.302
 5215SOL    HW216545   1.062   4.647   4.186
 5216SOL     OW16546   4.744   4.950   1.406
 5216SOL    HW116547   4.796   4.997   1.334
 5216SOL    HW216548   4.669   4.898   1.364
 5217SOL     OW16549   3.504   5.685   4.460
 5217SOL    HW116550   3.444   5.612   4.491
 5217SOL    HW216551   3.481   5.710   4.365
 5218SOL     OW16552   0.682   1.212   1.196
 5218SOL    HW116553   0.673   1.162   1.110
 5218SOL    HW216554   0.779   1.227   1.216
 5219SOL     OW16555   3.470   1.579   4.989
 5219SOL    HW116556   3.434   1.602   5.079
 5219SOL    HW216557   3.554   1.631   4.972
 5220SOL     OW16558   1.118   5.558   2.781
 5220SOL    HW116559   1.172   5.511   2.711
 5220SOL    HW216560   1.021   5.549   2.760
 5221SOL     OW16561   6.680   0.722   3.184
 5221SOL    HW116562   6.672   0.800   3.122
 5221SOL    HW216563   6.613   0.652   3.158
 5222SOL     OW16564   3.919   6.670   2.008
 5222SOL    HW116565   3.923   6.586   1.955
 5222SOL    HW216566   4.005   6.720   1.999
 5223SOL     OW16567   0.078   2.584   6.943
 5223SOL    HW116568   0.064   2.674   6.984
 5223SOL    HW216569   0.022   2.516   6.991
 5224SOL     OW16570   6.549   3.246   4.524
 5224SOL    HW116571   6.455   3.241   4.558
 5224SOL    HW216572   6.548   3.285   4.432
 5225SOL     OW16573   6.770   1.153   3.818
 5225SOL    HW116574   6.782   1.244   3.857
 5225SOL    HW216575   6.781   1.084   3.890
 5226SOL     OW16576   0.418   6.854   4.735
 5226SOL    HW116577   0.367   6.936   4.760
 5226SOL    HW216578   0.486   6.876   4.666
 5227SOL     OW16579   0.508   3.888   5.991
 5227SOL    HW116580   0.526   3.813   6.055
 5227SOL    HW216581   0.518   3.854   5.897
 5228SOL     OW16582   0.545   2.275   0.121
 5228SOL    HW116583   0.453   2.314   0.132
 5228SOL    HW216584   0.545   2.208   0.047
 5229SOL     OW16585   3.193   6.793   0.633
 5229SOL    HW116586   3.292   6.807   0.631
 5229SOL    HW216587   3.172   6.703   0.594
 5230SOL     OW16588   6.775   6.108   1.884
 5230SOL    HW116589   6.690   6.056   1.872
 5230SOL    HW216590   6.777   6.183   1.818
 5231SOL     OW16591   4.492   2.531   3.905
 5231SOL    HW116592   4.407   2.522   3.957
 5231SOL    HW216593   4.498   2.456   3.839
 5232SOL     OW16594   1.090   3.983   6.161
 5232SOL    HW116595   1.108   3.886   6.177
 5232SOL    HW216596   0.996   3.995   6.129
 5233SOL     OW16597   3.752   1.349   2.792
 5233SOL    HW116598   3.660   1.368   2.758
 5233SOL    HW216599   3.755   1.256   2.829
 5234SOL     OW16600   2.806   2.484   6.105
 5234SOL    HW116601   2.719   2.436   6.114
 5234SOL    HW216602   2.864   2.436   6.039
 5235SOL     OW16603   1.841   2.297   0.861
 5235SOL    HW116604   1.847   2.367   0.789
 5235SOL    HW216605   1.778   2.225   0.833
 5236SOL     OW16606   3.765   5.857   2.174
 5236SOL    HW116607   3.791   5.923   2.103
 5236SOL    HW216608   3.710   5.902   2.243
 5237SOL     OW16609   0.801   0.817   4.850
 5237SOL    HW116610   0.761   0.872   4.923
 5237SOL    HW216611   0.878   0.764   4.886
 5238SOL     OW16612   1.028   5.095   0.264
 5238SOL    HW116613   0.996   5.000   0.254
 5238SOL    HW216614   0.951   5.157   0.250
 5239SOL     OW16615   3.757   2.568   6.626
 5239SOL    HW116616   3.739   2.575   6.724
 5239SOL    HW216617   3.690   2.506   6.584
 5240SOL     OW16618   3.324   2.332   5.452
 5240SOL    HW116619   3.392   2.264   5.425
 5240SOL    HW216620   3.272   2.361   5.372
 5241SOL     OW16621   0.449   6.081   3.997
 5241SOL    HW116622   0.352   6.063   4.008
 5241SOL    HW216623   0.462   6.165   3.945
 5242SOL     OW16624   6.341   6.867   1.060
 5242SOL    HW116625   6.347   6.852   1.159
 5242SOL    HW216626   6.260   6.922   1.040
 5243SOL     OW16627   2.033   5.810   1.905
 5243SOL    HW116628   2.122   5.784   1.868
 5243SOL    HW216629   2.017   5.907   1.889
 5244SOL     OW16630   3.649   4.528   6.526
 5244SOL    HW116631   3.593   4.445   6.528
 5244SOL    HW216632   3.704   4.532   6.609
 5245SOL     OW16633   3.776   4.373   0.235
 5245SOL    HW116634   3.808   4.279   0.247
 5245SOL    HW216635   3.843   4.436   0.274
 5246SOL     OW16636   6.432   2.657   1.517
 5246SOL    HW116637   6.384   2.583   1.564
 5246SOL    HW216638   6.367   2.705   1.457
 5247SOL     OW16639   2.725   0.112   6.395
 5247SOL    HW116640   2.633   0.138   6.425
 5247SOL    HW216641   2.788   0.119   6.472
 5248SOL     OW16642   6.175   1.626   3.040
 5248SOL    HW116643   6.174   1.726   3.051
 5248SOL    HW216644   6.156   1.603   2.944
 5249SOL     OW16645   0.488   5.554   6.251
 5249SOL    HW116646   0.396   5.575   6.285
 5249SOL    HW216647   0.547   5.529   6.327
 5250SOL     OW16648   1.750   5.818   6.988
 5250SOL    HW116649   1.700   5.826   6.902
 5250SOL    HW216650   1.693   5.852   0.042
 5251SOL     OW16651   0.967   3.188   6.665
 5251SOL    HW116652   0.879   3.144   6.647
 5251SOL    HW216653   0.979   3.266   6.604
 5252SOL     OW16654   2.866   6.702   0.858
 5252SOL    HW116655   2.785   6.745   0.819
 5252SOL    HW216656   2.855   6.692   0.957
 5253SOL     OW16657   0.074   3.533   4.706
 5253SOL    HW116658   0.090   3.614   4.649
 5253SOL    HW216659   0.045   3.562   4.797
 5254SOL     OW16660   4.714   0.972   2.928
 5254SOL    HW116661   4.745   1.067   2.937
 5254SOL    HW216662   4.724   0.925   3.016
 5255SOL     OW16663   5.519   2.498   4.926
 5255SOL    HW116664   5.420   2.487   4.935
 5255SOL    HW216665   5.548   2.582   4.971
 5256SOL     OW16666   5.224   1.732   4.008
 5256SOL    HW116667   5.133   1.764   3.982
 5256SOL    HW216668   5.215   1.657   4.074
 5257SOL     OW16669   5.469   7.015   1.350
 5257SOL    HW116670   5.560   6.986   1.319
 5257SOL    HW216671   5.472   0.090   1.376
 5258SOL     OW16672   5.850   3.145   1.777
 5258SOL    HW116673   5.808   3.060   1.808
 5258SOL    HW216674   5.827   3.160   1.681
 5259SOL     OW16675   4.718   6.439   2.292
 5259SOL    HW116676   4.669   6.468   2.374
 5259SOL    HW216677   4.718   6.514   2.226
 5260SOL     OW16678   5.077   3.541   0.850
 5260SOL    HW116679   5.034   3.526   0.939
 5260SOL    HW216680   5.008   3.570   0.784
 5261SOL     OW16681   0.116   4.108   5.876
 5261SOL    HW116682   0.211   4.124   5.848
 5261SOL    HW216683   0.070   4.051   5.808
 5262SOL     OW16684   2.246   1.256   3.903
 5262SOL    HW116685   2.313   1.214   3.964
 5262SOL    HW216686   2.154   1.241   3.939
 5263SOL     OW16687   1.799   1.019   3.260
 5263SOL    HW116688   1.748   0.984   3.181
 5263SOL    HW216689   1.735   1.043   3.333
 5264SOL     OW16690   6.853   2.073   2.238
 5264SOL    HW116691   6.829   2.097   2.332
 5264SOL    HW216692   6.873   2.157   2.186
 5265SOL     OW16693   6.117   3.930   3.858
 5265SOL    HW116694   6.127   3.949   3.761
 5265SOL    HW216695   6.145   3.835   3.876
 5266SOL     OW16696   3.612   4.904   6.775
 5266SOL    HW116697   3.593   4.852   6.691
 5266SOL    HW216698   3.708   4.892   6.800
 5267SOL     OW16699   5.268   2.450   5.063
 5267SOL    HW116700   5.287   2.476   5.158
 5267SOL    HW216701   5.175   2.476   5.039
 5268SOL     OW16702   5.456   1.022   0.474
 5268SOL    HW116703   5.472   0.954   0.403
 5268SOL    HW216704   5.358   1.030   0.493
 5269SOL     OW16705   0.774   6.680   2.669
 5269SOL    HW116706   0.760   6.588   2.706
 5269SOL    HW216707   0.823   6.736   2.735
 5270SOL     OW16708   5.629   0.995   1.543
 5270SOL    HW116709   5.635   1.032   1.450
 5270SOL    HW216710   5.538   0.959   1.559
 5271SOL     OW16711   6.670   5.207   5.837
 5271SOL    HW116712   6.667   5.115   5.799
 5271SOL    HW216713   6.577   5.237   5.858
 5272SOL     OW16714   3.315   6.550   1.613
 5272SOL    HW116715   3.228   6.526   1.657
 5272SOL    HW216716   3.305   6.542   1.514
 5273SOL     OW16717   0.218   3.103   3.606
 5273SOL    HW116718   0.246   3.023   3.552
 5273SOL    HW216719   0.142   3.149   3.560
 5274SOL     OW16720   6.091   0.074   2.822
 5274SOL    HW116721   6.004   0.075   2.774
 5274SOL    HW216722   6.150   0.003   2.783
 5275SOL     OW16723   3.415   1.820   0.945
 5275SOL    HW116724   3.362   1.786   0.868
 5275SOL    HW216725   3.438   1.916   0.931
 5276SOL     OW16726   1.460   7.010   0.483
 5276SOL    HW116727   1.382   0.045   0.510
 5276SOL    HW216728   1.545   0.039   0.503
 5277SOL     OW16729   2.224   1.170   1.939
 5277SOL    HW116730   2.323   1.156   1.937
 5277SOL    HW216731   2.200   1.248   1.882
 5278SOL     OW16732   5.973   6.233   3.498
 5278SOL    HW116733   5.938   6.139   3.507
 5278SOL    HW216734   5.896   6.297   3.502
 5279SOL     OW16735   2.457   5.221   6.413
 5279SOL    HW116736   2.397   5.211   6.492
 5279SOL    HW216737   2.533   5.157   6.420
 5280SOL     OW16738   3.262   5.584   4.603
 5280SOL    HW116739   3.221   5.599   4.513
 5280SOL    HW216740   3.205   5.520   4.655
 5281SOL     OW16741   0.380   1.832   2.497
 5281SOL    HW116742   0.281   1.821   2.506
 5281SOL    HW216743   0.405   1.926   2.518
 5282SOL     OW16744   3.667   1.800   3.781
 5282SOL    HW116745   3.743   1.805   3.846
 5282SOL    HW216746   3.690   1.735   3.708
 5283SOL     OW16747   4.247   6.205   1.509
 5283SOL    HW116748   4.178   6.134   1.520
 5283SOL    HW216749   4.219   6.267   1.435
 5284SOL     OW16750   4.855   3.750   3.209
 5284SOL    HW116751   4.936   3.735   3.152
 5284SOL    HW216752   4.775   3.712   3.163
 5285SOL     OW16753   2.093   4.755   3.780
 5285SOL    HW116754   2.151   4.767   3.699
 5285SOL    HW216755   2.141   4.792   3.860
 5286SOL     OW16756   1.765   4.617   0.534
 5286SOL    HW116757   1.753   4.605   0.632
 5286SOL    HW216758   1.848   4.670   0.516
 5287SOL     OW16759   3.191   0.383   6.728
 5287SOL    HW116760   3.252   0.462   6.725
 5287SOL    HW216761   3.229   0.309   6.673
 5288SOL     OW16762   2.790   0.034   2.114
 5288SOL    HW116763   2.714   0.060   2.054
 5288SOL    HW216764   2.753   0.001   2.200
 5289SOL     OW16765   2.207   5.374   6.627
 5289SOL    HW116766   2.296   5.417   6.641
 5289SOL    HW216767   2.190   5.306   6.699
 5290SOL     OW16768   2.791   5.725   4.887
 5290SOL    HW116769   2.738   5.649   4.850
 5290SOL    HW216770   2.728   5.794   4.924
 5291SOL     OW16771   2.560   5.982   5.701
 5291SOL    HW116772   2.504   5.967   5.782
 5291SOL    HW216773   2.638   5.920   5.702
 5292SOL     OW16774   6.300   2.854   6.784
 5292SOL    HW116775   6.329   2.765   6.750
 5292SOL    HW216776   6.242   2.842   6.864
 5293SOL     OW16777   0.432   0.829   4.895
 5293SOL    HW116778   0.494   0.870   4.962
 5293SOL    HW216779   0.339   0.860   4.913
 5294SOL     OW16780   4.747   3.667   5.809
 5294SOL    HW116781   4.702   3.687   5.722
 5294SOL    HW216782   4.846   3.662   5.795
 5295SOL     OW16783   6.544   1.190   2.370
 5295SOL    HW116784   6.588   1.138   2.444
 5295SOL    HW216785   6.448   1.206   2.394
 5296SOL     OW16786   2.126   5.519   6.419
 5296SOL    HW116787   2.028   5.538   6.417
 5296SOL    HW216788   2.148   5.458   6.495
 5297SOL     OW16789   1.844   2.128   1.254
 5297SOL    HW116790   1.831   2.123   1.353
 5297SOL    HW216791   1.758   2.156   1.210
 5298SOL     OW16792   7.004   6.019   1.621
 5298SOL    HW116793   6.997   6.098   1.683
 5298SOL    HW216794   0.077   6.010   1.590
 5299SOL     OW16795   2.993   1.983   0.393
 5299SOL    HW116796   2.905   1.994   0.439
 5299SOL    HW216797   3.000   2.050   0.319
 5300SOL     OW16798   0.030   5.477   2.790
 5300SOL    HW116799   0.012   5.410   2.862
 5300SOL    HW216800   0.128   5.478   2.769
 5301SOL     OW16801   4.359   1.165   0.214
 5301SOL    HW116802   4.370   1.126   0.305
 5301SOL    HW216803   4.269   1.208   0.206
 5302SOL     OW16804   5.849   5.058   3.601
 5302SOL    HW116805   5.750   5.044   3.591
 5302SOL    HW216806   5.892   5.060   3.511
 5303SOL     OW16807   6.980   6.652   3.951
 5303SOL    HW116808   7.002   6.721   3.882
 5303SOL    HW216809   0.027   6.656   4.025
 5304SOL     OW16810   6.434   2.663   6.305
 5304SOL    HW116811   6.440   2.641   6.208
 5304SOL    HW216812   6.341   2.646   6.337
 5305SOL     OW16813   1.680   6.800   4.194
 5305SOL    HW116814   1.648   6.820   4.287
 5305SOL    HW216815   1.652   6.874   4.133
 5306SOL     OW16816   1.936   6.467   5.049
 5306SOL    HW116817   1.993   6.407   5.104
 5306SOL    HW216818   1.854   6.418   5.019
 5307SOL     OW16819   4.195   6.376   6.570
 5307SOL    HW116820   4.101   6.343   6.580
 5307SOL    HW216821   4.195   6.464   6.524
 5308SOL     OW16822   0.617   0.177   4.616
 5308SOL    HW116823   0.640   0.080   4.605
 5308SOL    HW216824   0.659   0.212   4.699
 5309SOL     OW16825   3.848   3.850   3.389
 5309SOL    HW116826   3.836   3.930   3.448
 5309SOL    HW216827   3.758   3.812   3.367
 5310SOL     OW16828   5.231   2.452   2.175
 5310SOL    HW116829   5.150   2.447   2.233
 5310SOL    HW216830   5.271   2.543   2.182
 5311SOL     OW16831   0.467   5.735   0.154
 5311SOL    HW116832   0.502   5.747   0.061
 5311SOL    HW216833   0.540   5.754   0.220
 5312SOL     OW16834   6.875   4.579   2.358
 5312SOL    HW116835   6.875   4.482   2.379
 5312SOL    HW216836   6.961   4.620   2.387
 5313SOL     OW16837   1.059   5.488   7.007
 5313SOL    HW116838   1.016   5.564   6.958
 5313SOL    HW216839   1.084   5.518   0.078
 5314SOL     OW16840   4.707   5.149   0.884
 5314SOL    HW116841   4.700   5.079   0.954
 5314SOL    HW216842   4.782   5.127   0.822
 5315SOL     OW16843   4.600   4.527   1.882
 5315SOL    HW116844   4.657   4.548   1.961
 5315SOL    HW216845   4.572   4.431   1.885
 5316SOL     OW16846   6.763   5.317   4.462
 5316SOL    HW116847   6.720   5.328   4.552
 5316SOL    HW216848   6.796   5.406   4.429
 5317SOL     OW16849   5.956   1.319   4.531
 5317SOL    HW116850   6.019   1.244   4.552
 5317SOL    HW216851   5.994   1.405   4.565
 5318SOL     OW16852   6.943   2.098   4.785
 5318SOL    HW116853   6.924   2.146   4.871
 5318SOL    HW216854   6.928   2.000   4.799
 5319SOL     OW16855   4.582   6.672   6.841
 5319SOL    HW116856   4.664   6.728   6.848
 5319SOL    HW216857   4.537   6.667   6.930
 5320SOL     OW16858   5.994   5.194   6.798
 5320SOL    HW116859   6.047   5.276   6.777
 5320SOL    HW216860   6.051   5.130   6.849
 5321SOL     OW16861   0.685   4.872   2.864
 5321SOL    HW116862   0.636   4.903   2.782
 5321SOL    HW216863   0.777   4.911   2.865
 5322SOL     OW16864   3.479   6.802   6.385
 5322SOL    HW116865   3.557   6.744   6.407
 5322SOL    HW216866   3.444   6.778   6.294
 5323SOL     OW16867   4.350   3.056   0.922
 5323SOL    HW116868   4.400   3.133   0.882
 5323SOL    HW216869   4.340   2.984   0.854
 5324SOL     OW16870   3.513   2.294   1.398
 5324SOL    HW116871   3.514   2.198   1.368
 5324SOL    HW216872   3.504   2.297   1.498
 5325SOL     OW16873   5.747   0.125   3.730
 5325SOL    HW116874   5.756   0.224   3.741
 5325SOL    HW216875   5.658   0.104   3.688
 5326SOL     OW16876   5.919   5.239   2.599
 5326SOL    HW116877   5.906   5.235   2.500
 5326SOL    HW216878   5.993   5.177   2.626
 5327SOL     OW16879   0.413   6.073   5.644
 5327SOL    HW116880   0.389   6.102   5.737
 5327SOL    HW216881   0.462   5.986   5.647
 5328SOL     OW16882   3.669   2.332   5.692
 5328SOL    HW116883   3.644   2.402   5.760
 5328SOL    HW216884   3.586   2.285   5.661
 5329SOL     OW16885   0.264   3.721   0.342
 5329SOL    HW116886   0.254   3.622   0.337
 5329SOL    HW216887   0.174   3.763   0.352
 5330SOL     OW16888   3.451   3.904   6.643
 5330SOL    HW116889   3.378   3.836   6.635
 5330SOL    HW216890   3.455   3.938   6.737
 5331SOL     OW16891   5.080   1.645   1.241
 5331SOL    HW116892   5.145   1.719   1.256
 5331SOL    HW216893   5.125   1.571   1.191
 5332SOL     OW16894   6.289   4.201   0.118
 5332SOL    HW116895   6.335   4.201   0.207
 5332SOL    HW216896   6.278   4.107   0.086
 5333SOL     OW16897   1.686   0.972   3.676
 5333SOL    HW116898   1.750   0.897   3.693
 5333SOL    HW216899   1.679   1.029   3.758
 5334SOL     OW16900   4.274   5.296   4.662
 5334SOL    HW116901   4.270   5.200   4.634
 5334SOL    HW216902   4.281   5.354   4.581
 5335SOL     OW16903   0.026   4.405   1.926
 5335SOL    HW116904   0.074   4.413   1.838
 5335SOL    HW216905   6.979   4.478   1.934
 5336SOL     OW16906   2.174   2.079   3.577
 5336SOL    HW116907   2.218   1.992   3.554
 5336SOL    HW216908   2.075   2.069   3.570
 5337SOL     OW16909   5.576   5.074   2.309
 5337SOL    HW116910   5.636   5.006   2.349
 5337SOL    HW216911   5.482   5.059   2.341
 5338SOL     OW16912   5.815   2.397   6.839
 5338SOL    HW116913   5.865   2.479   6.867
 5338SOL    HW216914   5.867   2.316   6.867
 5339SOL     OW16915   5.638   1.923   1.925
 5339SOL    HW116916   5.577   1.990   1.883
 5339SOL    HW216917   5.585   1.858   1.979
 5340SOL     OW16918   5.534   3.551   1.339
 5340SOL    HW116919   5.440   3.583   1.323
 5340SOL    HW216920   5.559   3.485   1.268
 5341SOL     OW16921   4.000   4.922   4.674
 5341SOL    HW116922   3.933   4.886   4.739
 5341SOL    HW216923   3.982   5.019   4.657
 5342SOL     OW16924   5.113   6.467   4.808
 5342SOL    HW116925   5.088   6.387   4.863
 5342SOL    HW216926   5.079   6.550   4.851
 5343SOL     OW16927   3.820   3.369   4.706
 5343SOL    HW116928   3.786   3.353   4.613
 5343SOL    HW216929   3.910   3.328   4.716
 5344SOL     OW16930   0.707   1.423   6.770
 5344SOL    HW116931   0.668   1.413   6.679
 5344SOL    HW216932   0.638   1.461   6.832
 5345SOL     OW16933   4.729   0.868   0.047
 5345SOL    HW116934   4.671   0.947   0.071
 5345SOL    HW216935   4.677   0.784   0.061
 5346SOL     OW16936   2.939   4.981   3.930
 5346SOL    HW116937   2.843   4.958   3.920
 5346SOL    HW216938   2.964   4.981   4.027
 5347SOL     OW16939   7.017   3.260   3.519
 5347SOL    HW116940   6.983   3.274   3.426
 5347SOL    HW216941   7.020   3.348   3.567
 5348SOL     OW16942   0.419   1.190   5.641
 5348SOL    HW116943   0.349   1.155   5.579
 5348SOL    HW216944   0.396   1.283   5.667
 5349SOL     OW16945   2.271   2.982   1.657
 5349SOL    HW116946   2.300   3.076   1.674
 5349SOL    HW216947   2.309   2.951   1.570
 5350SOL     OW16948   2.397   6.217   5.872
 5350SOL    HW116949   2.473   6.245   5.813
 5350SOL    HW216950   2.431   6.190   5.962
 5351SOL     OW16951   0.450   4.613   1.741
 5351SOL    HW116952   0.350   4.606   1.746
 5351SOL    HW216953   0.475   4.705   1.712
 5352SOL     OW16954   2.234   4.269   3.410
 5352SOL    HW116955   2.264   4.193   3.353
 5352SOL    HW216956   2.172   4.328   3.357
 5353SOL     OW16957   3.738   5.256   2.969
 5353SOL    HW116958   3.830   5.230   2.941
 5353SOL    HW216959   3.710   5.202   3.048
 5354SOL     OW16960   2.754   4.037   6.850
 5354SOL    HW116961   2.767   4.127   6.808
 5354SOL    HW216962   2.689   3.984   6.796
 5355SOL     OW16963   5.118   5.139   5.288
 5355SOL    HW116964   5.158   5.057   5.246
 5355SOL    HW216965   5.149   5.147   5.383
 5356SOL     OW16966   6.976   3.354   1.785
 5356SOL    HW116967   6.905   3.309   1.730
 5356SOL    HW216968   0.035   3.370   1.728
 5357SOL     OW16969   4.129   4.715   1.959
 5357SOL    HW116970   4.204   4.660   1.993
 5357SOL    HW216971   4.124   4.707   1.859
 5358SOL     OW16972   4.566   2.111   0.830
 5358SOL    HW116973   4.589   2.086   0.736
 5358SOL    HW216974   4.470   2.091   0.848
 5359SOL     OW16975   2.421   1.864   6.751
 5359SOL    HW116976   2.453   1.841   6.844
 5359SOL    HW216977   2.436   1.785   6.691
 5360SOL     OW16978   5.505   5.643   3.192
 5360SOL    HW116979   5.573   5.696   3.243
 5360SOL    HW216980   5.482   5.691   3.108
 5361SOL     OW16981   2.744   6.713   3.308
 5361SOL    HW116982   2.648   6.721   3.333
 5361SOL    HW216983   2.801   6.744   3.384
 5362SOL     OW16984   6.266   6.911   2.689
 5362SOL    HW116985   6.324   6.964   2.627
 5362SOL    HW216986   6.318   6.888   2.772
 5363SOL     OW16987   5.388   6.320   5.160
 5363SOL    HW116988   5.335   6.405   5.162
 5363SOL    HW216989   5.475   6.334   5.207
 5364SOL     OW16990   5.769   0.443   2.424
 5364SOL    HW116991   5.857   0.432   2.469
 5364SOL    HW216992   5.730   0.353   2.403
 5365SOL     OW16993   2.968   3.361   2.261
 5365SOL    HW116994   2.911   3.392   2.186
 5365SOL    HW216995   3.064   3.357   2.232
 5366SOL     OW16996   0.006   0.521   2.060
 5366SOL    HW116997   0.075   0.448   2.065
 5366SOL    HW216998   0.051   0.608   2.042
 5367SOL     OW16999   6.238   0.271   0.958
 5367SOL    HW117000   6.242   0.203   1.031
 5367SOL    HW217001   6.145   0.275   0.921
 5368SOL     OW17002   6.988   5.941   1.940
 5368SOL    HW117003   6.928   6.015   1.909
 5368SOL    HW217004   0.061   5.960   1.912
 5369SOL     OW17005   2.598   5.917   1.681
 5369SOL    HW117006   2.536   5.838   1.677
 5369SOL    HW217007   2.643   5.928   1.592
 5370SOL     OW17008   4.327   3.422   1.707
 5370SOL    HW117009   4.418   3.460   1.696
 5370SOL    HW217010   4.278   3.472   1.779
 5371SOL     OW17011   0.201   5.149   4.990
 5371SOL    HW117012   0.261   5.112   5.061
 5371SOL    HW217013   0.208   5.249   4.990
 5372SOL     OW17014   1.207   6.900   2.440
 5372SOL    HW117015   1.189   6.994   2.471
 5372SOL    HW217016   1.178   6.890   2.345
 5373SOL     OW17017   3.734   0.188   5.971
 5373SOL    HW117018   3.830   0.215   5.966
 5373SOL    HW217019   3.691   0.200   5.882
 5374SOL     OW17020   2.144   4.099   1.148
 5374SOL    HW117021   2.144   4.072   1.245
 5374SOL    HW217022   2.050   4.108   1.116
 5375SOL     OW17023   0.760   5.911   5.425
 5375SOL    HW117024   0.716   5.897   5.514
 5375SOL    HW217025   0.859   5.897   5.434
 5376SOL     OW17026   1.561   2.685   1.879
 5376SOL    HW117027   1.475   2.736   1.885
 5376SOL    HW217028   1.638   2.747   1.891
 5377SOL     OW17029   1.742   1.452   2.877
 5377SOL    HW117030   1.681   1.397   2.933
 5377SOL    HW217031   1.780   1.527   2.932
 5378SOL     OW17032   6.549   0.670   1.443
 5378SOL    HW117033   6.636   0.696   1.486
 5378SOL    HW217034   6.519   0.743   1.381
 5379SOL     OW17035   1.281   3.132   5.047
 5379SOL    HW117036   1.201   3.177   5.087
 5379SOL    HW217037   1.355   3.199   5.036
 5380SOL     OW17038   3.369   0.050   1.284
 5380SOL    HW117039   3.431   0.067   1.208
 5380SOL    HW217040   3.378   0.123   1.351
 5381SOL     OW17041   5.861   5.990   2.794
 5381SOL    HW117042   5.908   5.903   2.803
 5381SOL    HW217043   5.822   5.997   2.702
 5382SOL     OW17044   3.466   2.062   2.641
 5382SOL    HW117045   3.459   1.967   2.609
 5382SOL    HW217046   3.453   2.124   2.564
 5383SOL     OW17047   1.383   3.331   4.379
 5383SOL    HW117048   1.325   3.310   4.457
 5383SOL    HW217049   1.476   3.352   4.410
 5384SOL     OW17050   4.483   5.633   4.958
 5384SOL    HW117051   4.485   5.558   5.024
 5384SOL    HW217052   4.388   5.660   4.941
 5385SOL     OW17053   6.458   2.735   5.347
 5385SOL    HW117054   6.476   2.697   5.438
 5385SOL    HW217055   6.359   2.740   5.332
 5386SOL     OW17056   6.027   1.854   3.791
 5386SOL    HW117057   5.956   1.813   3.735
 5386SOL    HW217058   6.023   1.816   3.883
 5387SOL     OW17059   2.857   6.338   3.555
 5387SOL    HW117060   2.873   6.259   3.496
 5387SOL    HW217061   2.895   6.321   3.645
 5388SOL     OW17062   1.751   6.383   3.091
 5388SOL    HW117063   1.708   6.323   3.158
 5388SOL    HW217064   1.836   6.341   3.059
 5389SOL     OW17065   4.416   2.450   4.440
 5389SOL    HW117066   4.326   2.409   4.453
 5389SOL    HW217067   4.447   2.433   4.346
 5390SOL     OW17068   5.196   4.041   4.150
 5390SOL    HW117069   5.222   3.947   4.128
 5390SOL    HW217070   5.228   4.064   4.242
 5391SOL     OW17071   2.976   2.142   0.184
 5391SOL    HW117072   2.930   2.226   0.153
 5391SOL    HW217073   3.062   2.131   0.135
 5392SOL     OW17074   4.776   2.931   2.512
 5392SOL    HW117075   4.850   2.984   2.554
 5392SOL    HW217076   4.787   2.931   2.413
 5393SOL     OW17077   4.647   0.819   5.462
 5393SOL    HW117078   4.607   0.753   5.398
 5393SOL    HW217079   4.577   0.849   5.527
 5394SOL     OW17080   0.431   6.169   0.804
 5394SOL    HW117081   0.472   6.079   0.791
 5394SOL    HW217082   0.494   6.225   0.858
 5395SOL     OW17083   4.718   1.077   1.059
 5395SOL    HW117084   4.731   0.999   1.120
 5395SOL    HW217085   4.780   1.151   1.087
 5396SOL     OW17086   5.223   6.034   2.402
 5396SOL    HW117087   5.284   6.033   2.323
 5396SOL    HW217088   5.173   5.948   2.407
 5397SOL     OW17089   0.050   2.136   1.798
 5397SOL    HW117090   0.099   2.075   1.737
 5397SOL    HW217091   0.030   2.089   1.884
 5398SOL     OW17092   3.657   2.093   3.761
 5398SOL    HW117093   3.657   1.995   3.779
 5398SOL    HW217094   3.568   2.122   3.727
 5399SOL     OW17095   2.636   6.416   5.837
 5399SOL    HW117096   2.697   6.488   5.801
 5399SOL    HW217097   2.554   6.458   5.876
 5400SOL     OW17098   3.734   3.185   0.978
 5400SOL    HW117099   3.823   3.232   0.979
 5400SOL    HW217100   3.724   3.132   1.063
 5401SOL     OW17101   5.270   4.105   2.992
 5401SOL    HW117102   5.348   4.062   2.945
 5401SOL    HW217103   5.233   4.042   3.060
 5402SOL     OW17104   3.474   6.144   0.646
 5402SOL    HW117105   3.542   6.114   0.712
 5402SOL    HW217106   3.512   6.218   0.590
 5403SOL     OW17107   5.410   2.582   6.321
 5403SOL    HW117108   5.452   2.673   6.320
 5403SOL    HW217109   5.442   2.531   6.401
 5404SOL     OW17110   0.430   0.481   0.755
 5404SOL    HW117111   0.412   0.573   0.789
 5404SOL    HW217112   0.520   0.450   0.787
 5405SOL     OW17113   5.869   4.748   7.009
 5405SOL    HW117114   5.872   4.678   0.059
 5405SOL    HW217115   5.899   4.835   0.026
 5406SOL     OW17116   1.906   1.258   5.256
 5406SOL    HW117117   1.989   1.203   5.263
 5406SOL    HW217118   1.840   1.225   5.324
 5407SOL     OW17119   2.862   1.542   1.281
 5407SOL    HW117120   2.935   1.563   1.217
 5407SOL    HW217121   2.781   1.598   1.261
 5408SOL     OW17122   3.698   2.062   4.938
 5408SOL    HW117123   3.746   2.107   4.863
 5408SOL    HW217124   3.603   2.092   4.941
 5409SOL     OW17125   6.412   2.018   2.399
 5409SOL    HW117126   6.417   2.021   2.300
 5409SOL    HW217127   6.501   2.043   2.438
 5410SOL     OW17128   0.602   2.838   0.491
 5410SOL    HW117129   0.681   2.882   0.450
 5410SOL    HW217130   0.593   2.745   0.456
 5411SOL     OW17131   5.216   4.313   6.937
 5411SOL    HW117132   5.260   4.274   7.017
 5411SOL    HW217133   5.117   4.301   6.944
 5412SOL     OW17134   2.075   1.416   6.479
 5412SOL    HW117135   2.100   1.320   6.492
 5412SOL    HW217136   2.050   1.431   6.383
 5413SOL     OW17137   0.116   6.857   5.771
 5413SOL    HW117138   0.032   6.910   5.757
 5413SOL    HW217139   0.148   6.823   5.683
 5414SOL     OW17140   6.788   4.785   5.425
 5414SOL    HW117141   6.710   4.837   5.391
 5414SOL    HW217142   6.857   4.848   5.460
 5415SOL     OW17143   3.004   5.634   0.545
 5415SOL    HW117144   2.922   5.671   0.503
 5415SOL    HW217145   3.021   5.542   0.510
 5416SOL     OW17146   3.149   5.346   4.688
 5416SOL    HW117147   3.082   5.331   4.761
 5416SOL    HW217148   3.117   5.303   4.604
 5417SOL     OW17149   3.991   6.870   4.189
 5417SOL    HW117150   4.070   6.900   4.242
 5417SOL    HW217151   3.909   6.872   4.246
 5418SOL     OW17152   5.362   5.124   4.800
 5418SOL    HW117153   5.389   5.170   4.716
 5418SOL    HW217154   5.333   5.030   4.779
 5419SOL     OW17155   3.978   6.510   0.207
 5419SOL    HW117156   3.964   6.496   0.305
 5419SOL    HW217157   3.982   6.421   0.161
 5420SOL     OW17158   1.793   1.892   1.585
 5420SOL    HW117159   1.767   1.852   1.497
 5420SOL    HW217160   1.728   1.964   1.609
 5421SOL     OW17161   2.970   5.607   2.214
 5421SOL    HW117162   2.876   5.623   2.245
 5421SOL    HW217163   3.022   5.692   2.222
 5422SOL     OW17164   2.128   5.724   3.955
 5422SOL    HW117165   2.071   5.685   4.027
 5422SOL    HW217166   2.225   5.710   3.977
 5423SOL     OW17167   6.284   5.196   1.739
 5423SOL    HW117168   6.377   5.199   1.702
 5423SOL    HW217169   6.281   5.131   1.815
 5424SOL     OW17170   4.834   3.935   4.269
 5424SOL    HW117171   4.820   3.844   4.308
 5424SOL    HW217172   4.837   4.003   4.343
 5425SOL     OW17173   6.339   2.798   4.494
 5425SOL    HW117174   6.374   2.777   4.585
 5425SOL    HW217175   6.390   2.874   4.455
 5426SOL     OW17176   4.621   5.528   2.367
 5426SOL    HW117177   4.522   5.540   2.364
 5426SOL    HW217178   4.665   5.614   2.390
 5427SOL     OW17179   4.310   2.808   0.147
 5427SOL    HW117180   4.351   2.791   0.058
 5427SOL    HW217181   4.256   2.728   0.175
 5428SOL     OW17182   5.222   6.539   2.796
 5428SOL    HW117183   5.321   6.545   2.809
 5428SOL    HW217184   5.203   6.514   2.701
 5429SOL     OW17185   2.685   6.897   5.127
 5429SOL    HW117186   2.589   6.924   5.115
 5429SOL    HW217187   2.715   6.922   5.219
 5430SOL     OW17188   1.311   2.905   5.885
 5430SOL    HW117189   1.242   2.929   5.816
 5430SOL    HW217190   1.402   2.906   5.843
 5431SOL     OW17191   3.546   4.767   6.519
 5431SOL    HW117192   3.447   4.763   6.507
 5431SOL    HW217193   3.584   4.675   6.509
 5432SOL     OW17194   5.641   5.634   0.418
 5432SOL    HW117195   5.721   5.681   0.455
 5432SOL    HW217196   5.602   5.575   0.488
 5433SOL     OW17197   1.029   6.798   0.966
 5433SOL    HW117198   0.980   6.846   0.893
 5433SOL    HW217199   0.964   6.745   1.021
 5434SOL     OW17200   5.149   1.176   5.064
 5434SOL    HW117201   5.232   1.222   5.032
 5434SOL    HW217202   5.134   1.197   5.160
 5435SOL     OW17203   6.241   3.363   0.840
 5435SOL    HW117204   6.149   3.353   0.801
 5435SOL    HW217205   6.233   3.393   0.935
 5436SOL     OW17206   0.173   5.509   4.167
 5436SOL    HW117207   0.086   5.544   4.133
 5436SOL    HW217208   0.226   5.583   4.208
 5437SOL     OW17209   3.119   4.748   6.166
 5437SOL    HW117210   3.157   4.768   6.256
 5437SOL    HW217211   3.095   4.651   6.160
 5438SOL     OW17212   5.306   5.002   2.196
 5438SOL    HW117213   5.268   4.983   2.105
 5438SOL    HW217214   5.246   4.961   2.266
 5439SOL     OW17215   1.153   4.082   0.282
 5439SOL    HW117216   1.217   4.005   0.272
 5439SOL    HW217217   1.159   4.141   0.202
 5440SOL     OW17218   5.920   6.961   3.288
 5440SOL    HW117219   5.970   6.974   3.202
 5440SOL    HW217220   5.964   7.012   3.361
 5441SOL     OW17221   5.388   3.212   3.361
 5441SOL    HW117222   5.326   3.136   3.339
 5441SOL    HW217223   5.464   3.213   3.296
 5442SOL     OW17224   3.795   0.562   3.140
 5442SOL    HW117225   3.857   0.485   3.149
 5442SOL    HW217226   3.748   0.577   3.228
 5443SOL     OW17227   4.447   6.627   4.003
 5443SOL    HW117228   4.471   6.616   4.100
 5443SOL    HW217229   4.387   6.552   3.975
 5444SOL     OW17230   6.995   2.503   4.000
 5444SOL    HW117231   0.023   2.497   4.087
 5444SOL    HW217232   0.039   2.492   3.924
 5445SOL     OW17233   5.240   4.415   4.568
 5445SOL    HW117234   5.162   4.368   4.525
 5445SOL    HW217235   5.321   4.356   4.563
 5446SOL     OW17236   6.474   4.578   4.471
 5446SOL    HW117237   6.444   4.483   4.461
 5446SOL    HW217238   6.479   4.601   4.569
 5447SOL     OW17239   2.460   1.446   1.154
 5447SOL    HW117240   2.428   1.498   1.075
 5447SOL    HW217241   2.466   1.506   1.234
 5448SOL     OW17242   4.750   5.417   4.188
 5448SOL    HW117243   4.762   5.514   4.209
 5448SOL    HW217244   4.837   5.369   4.200
 5449SOL     OW17245   2.804   1.532   1.929
 5449SOL    HW117246   2.847   1.479   1.857
 5449SOL    HW217247   2.761   1.614   1.890
 5450SOL     OW17248   3.817   6.123   1.330
 5450SOL    HW117249   3.761   6.066   1.269
 5450SOL    HW217250   3.810   6.218   1.302
 5451SOL     OW17251   1.754   6.866   3.231
 5451SOL    HW117252   1.804   6.811   3.299
 5451SOL    HW217253   1.744   6.815   3.146
 5452SOL     OW17254   2.161   4.509   0.961
 5452SOL    HW117255   2.105   4.429   0.941
 5452SOL    HW217256   2.208   4.496   1.048
 5453SOL     OW17257   4.980   4.191   1.672
 5453SOL    HW117258   4.975   4.246   1.589
 5453SOL    HW217259   4.902   4.212   1.731
 5454SOL     OW17260   5.791   6.158   2.133
 5454SOL    HW117261   5.776   6.256   2.139
 5454SOL    HW217262   5.878   6.135   2.177
 5455SOL     OW17263   0.779   1.352   3.006
 5455SOL    HW117264   0.828   1.358   2.919
 5455SOL    HW217265   0.765   1.255   3.029
 5456SOL     OW17266   4.520   0.632   6.857
 5456SOL    HW117267   4.547   0.545   6.815
 5456SOL    HW217268   4.550   0.633   6.953
 5457SOL     OW17269   6.353   1.933   0.536
 5457SOL    HW117270   6.392   1.857   0.485
 5457SOL    HW217271   6.411   1.955   0.614
 5458SOL     OW17272   6.742   5.188   1.407
 5458SOL    HW117273   6.838   5.170   1.384
 5458SOL    HW217274   6.702   5.247   1.337
 5459SOL     OW17275   2.124   4.623   5.427
 5459SOL    HW117276   2.089   4.563   5.356
 5459SOL    HW217277   2.190   4.687   5.387
 5460SOL     OW17278   2.457   1.068   1.599
 5460SOL    HW117279   2.459   1.043   1.696
 5460SOL    HW217280   2.488   1.163   1.589
 5461SOL     OW17281   1.065   1.653   5.673
 5461SOL    HW117282   1.067   1.753   5.665
 5461SOL    HW217283   1.147   1.614   5.630
 5462SOL     OW17284   5.103   6.153   6.742
 5462SOL    HW117285   5.197   6.185   6.738
 5462SOL    HW217286   5.084   6.095   6.663
 5463SOL     OW17287   6.619   1.913   6.619
 5463SOL    HW117288   6.532   1.902   6.570
 5463SOL    HW217289   6.602   1.911   6.717
 5464SOL     OW17290   6.637   5.294   5.527
 5464SOL    HW117291   6.681   5.218   5.575
 5464SOL    HW217292   6.672   5.298   5.433
 5465SOL     OW17293   6.879   0.110   3.021
 5465SOL    HW117294   6.933   0.117   2.937
 5465SOL    HW217295   6.870   0.201   3.062
 5466SOL     OW17296   5.588   2.891   5.242
 5466SOL    HW117297   5.629   2.843   5.319
 5466SOL    HW217298   5.642   2.973   5.221
 5467SOL     OW17299   5.687   3.742   3.802
 5467SOL    HW117300   5.732   3.789   3.878
 5467SOL    HW217301   5.749   3.737   3.724
 5468SOL     OW17302   6.629   2.691   3.623
 5468SOL    HW117303   6.721   2.670   3.589
 5468SOL    HW217304   6.609   2.788   3.608
 5469SOL     OW17305   2.584   6.682   6.436
 5469SOL    HW117306   2.505   6.652   6.488
 5469SOL    HW217307   2.655   6.714   6.498
 5470SOL     OW17308   4.037   5.360   3.626
 5470SOL    HW117309   4.046   5.459   3.638
 5470SOL    HW217310   4.108   5.314   3.679
 5471SOL     OW17311   5.669   0.128   2.500
 5471SOL    HW117312   5.720   0.160   2.421
 5471SOL    HW217313   5.571   0.129   2.479
 5472SOL     OW17314   3.430   2.973   6.300
 5472SOL    HW117315   3.358   3.038   6.326
 5472SOL    HW217316   3.421   2.950   6.203
 5473SOL     OW17317   2.185   4.855   0.290
 5473SOL    HW117318   2.231   4.772   0.261
 5473SOL    HW217319   2.244   4.907   0.352
 5474SOL     OW17320   0.766   5.767   3.722
 5474SOL    HW117321   0.760   5.844   3.784
 5474SOL    HW217322   0.677   5.751   3.680
 5475SOL     OW17323   1.874   1.570   1.033
 5475SOL    HW117324   1.960   1.519   1.041
 5475SOL    HW217325   1.800   1.515   1.071
 5476SOL     OW17326   2.586   5.007   5.518
 5476SOL    HW117327   2.658   5.074   5.536
 5476SOL    HW217328   2.610   4.919   5.560
 5477SOL     OW17329   1.886   3.908   3.087
 5477SOL    HW117330   1.845   3.950   3.006
 5477SOL    HW217331   1.836   3.824   3.108
 5478SOL     OW17332   5.328   5.867   5.878
 5478SOL    HW117333   5.271   5.790   5.909
 5478SOL    HW217334   5.269   5.945   5.857
 5479SOL     OW17335   4.915   1.319   4.965
 5479SOL    HW117336   4.942   1.387   4.897
 5479SOL    HW217337   4.996   1.275   5.003
 5480SOL     OW17338   5.874   5.294   4.795
 5480SOL    HW117339   5.967   5.307   4.832
 5480SOL    HW217340   5.874   5.217   4.732
 5481SOL     OW17341   4.899   1.222   4.678
 5481SOL    HW117342   4.885   1.254   4.771
 5481SOL    HW217343   4.847   1.137   4.664
 5482SOL     OW17344   3.145   4.017   2.826
 5482SOL    HW117345   3.152   4.024   2.925
 5482SOL    HW217346   3.208   4.081   2.783
 5483SOL     OW17347   6.168   2.671   5.305
 5483SOL    HW117348   6.148   2.596   5.242
 5483SOL    HW217349   6.156   2.640   5.399
 5484SOL     OW17350   6.215   0.528   3.452
 5484SOL    HW117351   6.123   0.561   3.473
 5484SOL    HW217352   6.212   0.430   3.433
 5485SOL     OW17353   3.073   6.852   4.627
 5485SOL    HW117354   2.998   6.852   4.561
 5485SOL    HW217355   3.057   6.780   4.695
 5486SOL     OW17356   2.373   6.596   3.654
 5486SOL    HW117357   2.309   6.636   3.588
 5486SOL    HW217358   2.433   6.531   3.607
 5487SOL     OW17359   5.489   3.706   6.580
 5487SOL    HW117360   5.516   3.735   6.671
 5487SOL    HW217361   5.445   3.616   6.585
 5488SOL     OW17362   4.988   1.396   0.928
 5488SOL    HW117363   5.076   1.441   0.936
 5488SOL    HW217364   4.918   1.450   0.975
 5489SOL     OW17365   0.946   4.128   1.760
 5489SOL    HW117366   0.852   4.102   1.739
 5489SOL    HW217367   1.006   4.101   1.685
 5490SOL     OW17368   3.639   0.108   0.740
 5490SOL    HW117369   3.718   0.117   0.679
 5490SOL    HW217370   3.561   0.074   0.688
 5491SOL     OW17371   1.388   4.019   5.912
 5491SOL    HW117372   1.327   4.079   5.963
 5491SOL    HW217373   1.458   3.981   5.972
 5492SOL     OW17374   1.149   1.695   6.293
 5492SOL    HW117375   1.175   1.769   6.354
 5492SOL    HW217376   1.229   1.665   6.240
 5493SOL     OW17377   4.010   3.617   4.482
 5493SOL    HW117378   4.019   3.635   4.384
 5493SOL    HW217379   4.024   3.520   4.499
 5494SOL     OW17380   6.075   2.734   0.233
 5494SOL    HW117381   6.172   2.736   0.211
 5494SOL    HW217382   6.034   2.649   0.201
 5495SOL     OW17383   2.944   2.614   1.699
 5495SOL    HW117384   2.854   2.630   1.657
 5495SOL    HW217385   2.935   2.542   1.768
 5496SOL     OW17386   2.600   6.723   2.990
 5496SOL    HW117387   2.561   6.708   2.899
 5496SOL    HW217388   2.700   6.729   2.982
 5497SOL     OW17389   6.931   1.952   3.381
 5497SOL    HW117390   6.960   1.871   3.432
 5497SOL    HW217391   6.831   1.961   3.387
 5498SOL     OW17392   5.216   0.104   1.180
 5498SOL    HW117393   5.227   0.124   1.083
 5498SOL    HW217394   5.220   0.005   1.194
 5499SOL     OW17395   1.233   0.963   3.685
 5499SOL    HW117396   1.279   0.995   3.602
 5499SOL    HW217397   1.228   0.863   3.684
 5500SOL     OW17398   2.261   5.908   0.238
 5500SOL    HW117399   2.247   5.836   0.169
 5500SOL    HW217400   2.177   5.919   0.291
 5501SOL     OW17401   3.554   0.261   1.138
 5501SOL    HW117402   3.554   0.264   1.038
 5501SOL    HW217403   3.473   0.307   1.173
 5502SOL     OW17404   5.486   4.286   6.438
 5502SOL    HW117405   5.580   4.252   6.429
 5502SOL    HW217406   5.448   4.303   6.347
 5503SOL     OW17407   0.179   4.480   2.856
 5503SOL    HW117408   0.111   4.526   2.914
 5503SOL    HW217409   0.264   4.532   2.858
 5504SOL     OW17410   3.632   1.757   5.638
 5504SOL    HW117411   3.700   1.810   5.587
 5504SOL    HW217412   3.679   1.697   5.703
 5505SOL     OW17413   2.615   5.385   4.334
 5505SOL    HW117414   2.588   5.462   4.392
 5505SOL    HW217415   2.552   5.309   4.346
 5506SOL     OW17416   6.860   0.850   6.061
 5506SOL    HW117417   6.832   0.855   6.157
 5506SOL    HW217418   6.856   0.941   6.020
 5507SOL     OW17419   2.029   6.961   2.678
 5507SOL    HW117420   2.056   7.017   2.756
 5507SOL    HW217421   2.065   7.001   2.593
 5508SOL     OW17422   2.082   1.522   0.280
 5508SOL    HW117423   2.166   1.568   0.307
 5508SOL    HW217424   2.043   1.568   0.201
 5509SOL     OW17425   1.048   6.395   0.333
 5509SOL    HW117426   1.109   6.366   0.406
 5509SOL    HW217427   1.010   6.315   0.287
 5510SOL     OW17428   5.353   6.000   0.855
 5510SOL    HW117429   5.374   6.031   0.762
 5510SOL    HW217430   5.428   6.024   0.916
 5511SOL     OW17431   2.378   0.040   4.406
 5511SOL    HW117432   2.350   0.031   4.501
 5511SOL    HW217433   2.478   0.035   4.400
 5512SOL     OW17434   5.838   2.074   1.585
 5512SOL    HW117435   5.900   2.149   1.612
 5512SOL    HW217436   5.744   2.107   1.585
 5513SOL     OW17437   3.305   4.009   5.818
 5513SOL    HW117438   3.260   3.995   5.906
 5513SOL    HW217439   3.237   4.033   5.749
 5514SOL     OW17440   4.347   5.534   2.380
 5514SOL    HW117441   4.282   5.458   2.380
 5514SOL    HW217442   4.327   5.595   2.303
 5515SOL     OW17443   0.609   4.431   1.353
 5515SOL    HW117444   0.542   4.362   1.325
 5515SOL    HW217445   0.601   4.448   1.451
 5516SOL     OW17446   1.207   3.156   7.005
 5516SOL    HW117447   1.171   3.213   0.058
 5516SOL    HW217448   1.168   3.064   7.012
 5517SOL     OW17449   2.387   2.654   2.390
 5517SOL    HW117450   2.335   2.737   2.410
 5517SOL    HW217451   2.384   2.636   2.292
 5518SOL     OW17452   6.375   6.828   6.335
 5518SOL    HW117453   6.292   6.807   6.385
 5518SOL    HW217454   6.453   6.830   6.398
 5519SOL     OW17455   5.252   3.219   3.014
 5519SOL    HW117456   5.294   3.310   3.012
 5519SOL    HW217457   5.263   3.179   3.105
 5520SOL     OW17458   6.710   5.515   2.581
 5520SOL    HW117459   6.792   5.475   2.541
 5520SOL    HW217460   6.734   5.569   2.662
 5521SOL     OW17461   4.032   6.629   2.401
 5521SOL    HW117462   4.108   6.687   2.372
 5521SOL    HW217463   3.946   6.678   2.389
 5522SOL     OW17464   0.785   4.972   0.524
 5522SOL    HW117465   0.848   5.050   0.522
 5522SOL    HW217466   0.692   5.004   0.508
 5523SOL     OW17467   2.696   0.005   3.159
 5523SOL    HW117468   2.654   6.962   3.095
 5523SOL    HW217469   2.654   7.015   3.250
 5524SOL     OW17470   6.445   5.058   4.804
 5524SOL    HW117471   6.414   5.078   4.897
 5524SOL    HW217472   6.535   5.099   4.789
 5525SOL     OW17473   0.139   3.697   0.006
 5525SOL    HW117474   0.116   3.734   0.096
 5525SOL    HW217475   0.126   3.598   0.007
 5526SOL     OW17476   5.267   4.117   4.977
 5526SOL    HW117477   5.233   4.072   4.895
 5526SOL    HW217478   5.209   4.196   4.998
 5527SOL     OW17479   0.851   3.742   3.799
 5527SOL    HW117480   0.921   3.733   3.728
 5527SOL    HW217481   0.889   3.789   3.878
 5528SOL     OW17482   1.169   1.753   6.761
 5528SOL    HW117483   1.256   1.713   6.732
 5528SOL    HW217484   1.096   1.687   6.749
 5529SOL     OW17485   2.179   6.923   4.282
 5529SOL    HW117486   2.175   6.823   4.291
 5529SOL    HW217487   2.252   6.959   4.340
 5530SOL     OW17488   0.333   2.665   2.570
 5530SOL    HW117489   0.358   2.724   2.647
 5530SOL    HW217490   0.254   2.703   2.524
 5531SOL     OW17491   3.963   3.863   2.787
 5531SOL    HW117492   3.896   3.913   2.842
 5531SOL    HW217493   4.006   3.793   2.843
 5532SOL     OW17494   1.609   1.534   1.123
 5532SOL    HW117495   1.624   1.529   1.024
 5532SOL    HW217496   1.521   1.490   1.145
 5533SOL     OW17497   3.336   1.372   2.913
 5533SOL    HW117498   3.293   1.308   2.849
 5533SOL    HW217499   3.274   1.390   2.989
 5534SOL     OW17500   0.664   2.595   5.713
 5534SOL    HW117501   0.735   2.665   5.710
 5534SOL    HW217502   0.657   2.558   5.806
 5535SOL     OW17503   0.543   2.992   3.723
 5535SOL    HW117504   0.623   3.003   3.664
 5535SOL    HW217505   0.499   3.080   3.736
 5536SOL     OW17506   3.581   1.310   4.261
 5536SOL    HW117507   3.518   1.287   4.335
 5536SOL    HW217508   3.529   1.338   4.180
 5537SOL     OW17509   2.873   1.067   4.425
 5537SOL    HW117510   2.830   1.114   4.501
 5537SOL    HW217511   2.894   0.973   4.452
 5538SOL     OW17512   3.314   6.943   4.619
 5538SOL    HW117513   3.219   6.915   4.606
 5538SOL    HW217514   3.318   0.022   4.631
 5539SOL     OW17515   1.432   2.757   0.280
 5539SOL    HW117516   1.460   2.663   0.297
 5539SOL    HW217517   1.332   2.763   0.279
 5540SOL     OW17518   6.171   3.674   3.110
 5540SOL    HW117519   6.252   3.686   3.053
 5540SOL    HW217520   6.187   3.715   3.200
 5541SOL     OW17521   5.833   2.048   6.697
 5541SOL    HW117522   5.872   2.006   6.615
 5541SOL    HW217523   5.876   2.010   6.779
 5542SOL     OW17524   5.502   6.520   6.325
 5542SOL    HW117525   5.405   6.518   6.298
 5542SOL    HW217526   5.535   6.427   6.338
 5543SOL     OW17527   2.457   5.201   6.127
 5543SOL    HW117528   2.520   5.124   6.120
 5543SOL    HW217529   2.413   5.200   6.217
 5544SOL     OW17530   5.139   5.819   6.220
 5544SOL    HW117531   5.117   5.769   6.136
 5544SOL    HW217532   5.181   5.907   6.197
 5545SOL     OW17533   4.517   1.309   3.521
 5545SOL    HW117534   4.511   1.404   3.549
 5545SOL    HW217535   4.427   1.265   3.529
 5546SOL     OW17536   1.344   6.720   3.722
 5546SOL    HW117537   1.263   6.666   3.697
 5546SOL    HW217538   1.427   6.672   3.692
 5547SOL     OW17539   3.802   0.642   4.990
 5547SOL    HW117540   3.896   0.666   5.015
 5547SOL    HW217541   3.804   0.569   4.921
 5548SOL     OW17542   5.830   3.432   4.858
 5548SOL    HW117543   5.753   3.388   4.812
 5548SOL    HW217544   5.884   3.484   4.792
 5549SOL     OW17545   3.897   4.812   0.964
 5549SOL    HW117546   3.810   4.844   1.000
 5549SOL    HW217547   3.909   4.846   0.870
 5550SOL     OW17548   2.172   4.272   2.250
 5550SOL    HW117549   2.103   4.225   2.194
 5550SOL    HW217550   2.136   4.361   2.278
 5551SOL     OW17551   1.454   6.271   3.113
 5551SOL    HW117552   1.464   6.370   3.130
 5551SOL    HW217553   1.405   6.229   3.189
 5552SOL     OW17554   6.883   6.717   6.736
 5552SOL    HW117555   6.839   6.642   6.785
 5552SOL    HW217556   6.884   6.698   6.638
 5553SOL     OW17557   4.826   6.202   0.246
 5553SOL    HW117558   4.871   6.227   0.332
 5553SOL    HW217559   4.895   6.190   0.175
 5554SOL     OW17560   4.677   1.890   6.831
 5554SOL    HW117561   4.750   1.889   6.763
 5554SOL    HW217562   4.694   1.964   6.897
 5555SOL     OW17563   1.177   4.158   2.829
 5555SOL    HW117564   1.083   4.191   2.816
 5555SOL    HW217565   1.222   4.213   2.899
 5556SOL     OW17566   6.612   1.576   3.499
 5556SOL    HW117567   6.648   1.511   3.432
 5556SOL    HW217568   6.571   1.654   3.452
 5557SOL     OW17569   3.400   0.061   2.843
 5557SOL    HW117570   3.391   6.985   2.820
 5557SOL    HW217571   3.487   0.077   2.889
 5558SOL     OW17572   3.558   3.442   5.582
 5558SOL    HW117573   3.507   3.485   5.508
 5558SOL    HW217574   3.633   3.502   5.610
 5559SOL     OW17575   1.165   0.528   1.374
 5559SOL    HW117576   1.148   0.433   1.399
 5559SOL    HW217577   1.086   0.564   1.325
 5560SOL     OW17578   0.372   5.306   2.401
 5560SOL    HW117579   0.353   5.385   2.459
 5560SOL    HW217580   0.459   5.264   2.427
 5561SOL     OW17581   1.744   1.418   4.047
 5561SOL    HW117582   1.798   1.468   3.979
 5561SOL    HW217583   1.654   1.397   4.009
 5562SOL     OW17584   4.030   2.547   6.571
 5562SOL    HW117585   4.086   2.595   6.504
 5562SOL    HW217586   3.940   2.591   6.577
 5563SOL     OW17587   3.705   5.247   2.035
 5563SOL    HW117588   3.609   5.233   2.014
 5563SOL    HW217589   3.718   5.338   2.073
 5564SOL     OW17590   4.819   0.204   1.124
 5564SOL    HW117591   4.752   0.186   1.196
 5564SOL    HW217592   4.849   0.117   1.085
 5565SOL     OW17593   4.728   1.839   6.136
 5565SOL    HW117594   4.776   1.768   6.188
 5565SOL    HW217595   4.775   1.853   6.049
 5566SOL     OW17596   1.484   4.533   6.164
 5566SOL    HW117597   1.554   4.495   6.103
 5566SOL    HW217598   1.523   4.609   6.216
 5567SOL     OW17599   0.110   2.200   1.084
 5567SOL    HW117600   0.048   2.269   1.122
 5567SOL    HW217601   0.197   2.243   1.062
 5568SOL     OW17602   4.768   1.787   3.752
 5568SOL    HW117603   4.751   1.762   3.847
 5568SOL    HW217604   4.721   1.874   3.732
 5569SOL     OW17605   1.774   2.212   2.585
 5569SOL    HW117606   1.733   2.250   2.502
 5569SOL    HW217607   1.717   2.136   2.617
 5570SOL     OW17608   6.772   4.397   5.202
 5570SOL    HW117609   6.690   4.448   5.228
 5570SOL    HW217610   6.852   4.457   5.211
 5571SOL     OW17611   0.180   5.819   0.529
 5571SOL    HW117612   0.151   5.914   0.519
 5571SOL    HW217613   0.170   5.771   0.442
 5572SOL     OW17614   1.379   2.154   5.300
 5572SOL    HW117615   1.341   2.062   5.299
 5572SOL    HW217616   1.387   2.186   5.394
 5573SOL     OW17617   2.564   4.557   4.468
 5573SOL    HW117618   2.477   4.606   4.462
 5573SOL    HW217619   2.632   4.603   4.411
 5574SOL     OW17620   0.516   2.048   2.655
 5574SOL    HW117621   0.513   2.108   2.735
 5574SOL    HW217622   0.587   2.081   2.592
 5575SOL     OW17623   6.659   1.007   1.131
 5575SOL    HW117624   6.682   0.917   1.169
 5575SOL    HW217625   6.742   1.062   1.126
 5576SOL     OW17626   1.068   4.975   1.634
 5576SOL    HW117627   0.989   5.032   1.610
 5576SOL    HW217628   1.143   4.994   1.571
 5577SOL     OW17629   3.342   3.656   5.905
 5577SOL    HW117630   3.244   3.672   5.896
 5577SOL    HW217631   3.389   3.685   5.822
 5578SOL     OW17632   3.843   3.662   0.833
 5578SOL    HW117633   3.775   3.598   0.868
 5578SOL    HW217634   3.824   3.683   0.737
 5579SOL     OW17635   0.725   3.335   0.156
 5579SOL    HW117636   0.755   3.425   0.125
 5579SOL    HW217637   0.804   3.277   0.172
 5580SOL     OW17638   5.723   2.709   5.477
 5580SOL    HW117639   5.744   2.659   5.394
 5580SOL    HW217640   5.798   2.773   5.498
 5581SOL     OW17641   1.128   6.866   1.486
 5581SOL    HW117642   1.218   6.909   1.479
 5581SOL    HW217643   1.071   6.895   1.409
 5582SOL     OW17644   2.878   3.789   5.117
 5582SOL    HW117645   2.894   3.693   5.140
 5582SOL    HW217646   2.791   3.818   5.158
 5583SOL     OW17647   4.875   0.283   2.628
 5583SOL    HW117648   4.937   0.208   2.649
 5583SOL    HW217649   4.783   0.248   2.612
 5584SOL     OW17650   5.661   4.707   4.120
 5584SOL    HW117651   5.652   4.768   4.198
 5584SOL    HW217652   5.643   4.757   4.036
 5585SOL     OW17653   5.480   6.219   4.056
 5585SOL    HW117654   5.417   6.239   3.981
 5585SOL    HW217655   5.548   6.152   4.026
 5586SOL     OW17656   0.184   2.066   6.783
 5586SOL    HW117657   0.161   2.062   6.685
 5586SOL    HW217658   0.273   2.110   6.794
 5587SOL     OW17659   4.205   6.624   1.570
 5587SOL    HW117660   4.183   6.699   1.632
 5587SOL    HW217661   4.232   6.544   1.622
 5588SOL     OW17662   1.606   5.625   2.717
 5588SOL    HW117663   1.562   5.656   2.801
 5588SOL    HW217664   1.700   5.597   2.737
 5589SOL     OW17665   6.268   3.966   5.266
 5589SOL    HW117666   6.176   3.927   5.260
 5589SOL    HW217667   6.327   3.922   5.198
 5590SOL     OW17668   6.945   5.861   4.238
 5590SOL    HW117669   6.940   5.955   4.205
 5590SOL    HW217670   6.859   5.837   4.284
 5591SOL     OW17671   5.188   1.677   0.391
 5591SOL    HW117672   5.259   1.609   0.408
 5591SOL    HW217673   5.223   1.768   0.414
 5592SOL     OW17674   6.762   4.866   2.575
 5592SOL    HW117675   6.677   4.835   2.618
 5592SOL    HW217676   6.747   4.873   2.476
 5593SOL     OW17677   0.530   3.228   6.495
 5593SOL    HW117678   0.512   3.285   6.575
 5593SOL    HW217679   0.566   3.285   6.421
 5594SOL     OW17680   3.833   1.408   6.879
 5594SOL    HW117681   3.808   1.406   6.976
 5594SOL    HW217682   3.785   1.484   6.834
 5595SOL     OW17683   6.435   0.357   5.080
 5595SOL    HW117684   6.520   0.355   5.133
 5595SOL    HW217685   6.427   0.446   5.035
 5596SOL     OW17686   4.698   0.415   3.289
 5596SOL    HW117687   4.696   0.418   3.389
 5596SOL    HW217688   4.746   0.332   3.259
 5597SOL     OW17689   5.453   2.781   4.751
 5597SOL    HW117690   5.538   2.747   4.711
 5597SOL    HW217691   5.474   2.842   4.828
 5598SOL     OW17692   5.991   3.503   3.864
 5598SOL    HW117693   6.031   3.575   3.920
 5598SOL    HW217694   5.893   3.496   3.882
 5599SOL     OW17695   0.499   2.702   1.428
 5599SOL    HW117696   0.473   2.620   1.479
 5599SOL    HW217697   0.582   2.741   1.468
 5600SOL     OW17698   2.397   0.681   1.837
 5600SOL    HW117699   2.400   0.662   1.935
 5600SOL    HW217700   2.302   0.698   1.810
 5601SOL     OW17701   2.673   1.165   6.437
 5601SOL    HW117702   2.610   1.194   6.365
 5601SOL    HW217703   2.703   1.071   6.420
 5602SOL     OW17704   0.022   1.499   1.296
 5602SOL    HW117705   6.946   1.491   1.318
 5602SOL    HW217706   0.047   1.596   1.293
 5603SOL     OW17707   5.945   2.512   0.164
 5603SOL    HW117708   5.846   2.515   0.173
 5603SOL    HW217709   5.970   2.445   0.094
 5604SOL     OW17710   6.370   1.892   4.311
 5604SOL    HW117711   6.413   1.808   4.279
 5604SOL    HW217712   6.305   1.870   4.384
 5605SOL     OW17713   6.645   1.502   4.992
 5605SOL    HW117714   6.585   1.424   4.976
 5605SOL    HW217715   6.721   1.473   5.050
 5606SOL     OW17716   4.648   6.302   0.478
 5606SOL    HW117717   4.747   6.303   0.482
 5606SOL    HW217718   4.614   6.395   0.465
 5607SOL     OW17719   6.243   1.078   3.136
 5607SOL    HW117720   6.210   1.157   3.084
 5607SOL    HW217721   6.305   1.024   3.079
 5608SOL     OW17722   6.020   0.393   3.885
 5608SOL    HW117723   5.939   0.414   3.941
 5608SOL    HW217724   6.097   0.450   3.915
 5609SOL     OW17725   3.616   5.782   1.367
 5609SOL    HW117726   3.517   5.778   1.381
 5609SOL    HW217727   3.662   5.759   1.452
 5610SOL     OW17728   4.690   5.515   1.114
 5610SOL    HW117729   4.618   5.524   1.046
 5610SOL    HW217730   4.654   5.471   1.197
 5611SOL     OW17731   0.590   5.728   3.036
 5611SOL    HW117732   0.627   5.636   3.045
 5611SOL    HW217733   0.507   5.736   3.090
 5612SOL     OW17734   4.261   2.511   5.967
 5612SOL    HW117735   4.196   2.584   5.987
 5612SOL    HW217736   4.354   2.549   5.969
 5613SOL     OW17737   6.503   5.698   4.531
 5613SOL    HW117738   6.421   5.738   4.490
 5613SOL    HW217739   6.478   5.614   4.580
 5614SOL     OW17740   4.619   2.623   4.583
 5614SOL    HW117741   4.608   2.574   4.670
 5614SOL    HW217742   4.547   2.594   4.519
 5615SOL     OW17743   6.557   1.412   4.081
 5615SOL    HW117744   6.506   1.356   4.014
 5615SOL    HW217745   6.651   1.422   4.050
 5616SOL     OW17746   2.655   2.332   5.016
 5616SOL    HW117747   2.726   2.262   5.008
 5616SOL    HW217748   2.648   2.362   5.112
 5617SOL     OW17749   2.746   5.792   5.644
 5617SOL    HW117750   2.825   5.812   5.586
 5617SOL    HW217751   2.717   5.698   5.630
 5618SOL     OW17752   0.018   4.296   4.284
 5618SOL    HW117753   0.038   4.343   4.370
 5618SOL    HW217754   6.940   4.294   4.268
 5619SOL     OW17755   3.914   4.049   4.862
 5619SOL    HW117756   3.953   4.004   4.782
 5619SOL    HW217757   3.877   3.981   4.925
 5620SOL     OW17758   4.255   3.474   1.402
 5620SOL    HW117759   4.269   3.402   1.334
 5620SOL    HW217760   4.297   3.446   1.489
 5621SOL     OW17761   2.677   2.634   0.184
 5621SOL    HW117762   2.622   2.638   0.268
 5621SOL    HW217763   2.664   2.718   0.132
 5622SOL     OW17764   4.990   0.706   5.839
 5622SOL    HW117765   4.968   0.674   5.931
 5622SOL    HW217766   5.032   0.797   5.846
 5623SOL     OW17767   3.957   5.854   5.321
 5623SOL    HW117768   3.881   5.809   5.369
 5623SOL    HW217769   4.021   5.892   5.388
 5624SOL     OW17770   0.730   4.461   3.450
 5624SOL    HW117771   0.734   4.366   3.480
 5624SOL    HW217772   0.675   4.514   3.514
 5625SOL     OW17773   6.706   6.951   5.481
 5625SOL    HW117774   6.623   6.998   5.513
 5625SOL    HW217775   6.777   6.956   5.551
 5626SOL     OW17776   2.251   5.930   4.475
 5626SOL    HW117777   2.336   5.938   4.425
 5626SOL    HW217778   2.209   6.020   4.485
 5627SOL     OW17779   0.554   4.996   6.805
 5627SOL    HW117780   0.495   5.059   6.854
 5627SOL    HW217781   0.644   4.994   6.848
 5628SOL     OW17782   2.038   2.265   2.664
 5628SOL    HW117783   2.088   2.322   2.598
 5628SOL    HW217784   1.950   2.239   2.626
 5629SOL     OW17785   3.864   3.650   1.820
 5629SOL    HW117786   3.816   3.643   1.732
 5629SOL    HW217787   3.841   3.570   1.876
 5630SOL     OW17788   1.683   3.670   6.120
 5630SOL    HW117789   1.756   3.636   6.178
 5630SOL    HW217790   1.695   3.635   6.027
 5631SOL     OW17791   4.531   1.824   2.045
 5631SOL    HW117792   4.555   1.802   2.139
 5631SOL    HW217793   4.534   1.923   2.032
 5632SOL     OW17794   2.928   2.336   5.923
 5632SOL    HW117795   2.983   2.355   5.842
 5632SOL    HW217796   2.962   2.253   5.968
 5633SOL     OW17797   6.158   4.921   4.385
 5633SOL    HW117798   6.183   4.865   4.464
 5633SOL    HW217799   6.210   4.890   4.305
 5634SOL     OW17800   2.408   5.180   4.353
 5634SOL    HW117801   2.337   5.158   4.286
 5634SOL    HW217802   2.366   5.219   4.435
 5635SOL     OW17803   1.827   5.296   6.246
 5635SOL    HW117804   1.844   5.240   6.165
 5635SOL    HW217805   1.895   5.276   6.316
 5636SOL     OW17806   4.830   6.823   4.806
 5636SOL    HW117807   4.899   6.784   4.744
 5636SOL    HW217808   4.810   6.917   4.778
 5637SOL     OW17809   5.660   6.999   3.220
 5637SOL    HW117810   5.753   7.006   3.256
 5637SOL    HW217811   5.597   6.982   3.295
 5638SOL     OW17812   6.677   4.010   1.106
 5638SOL    HW117813   6.624   4.047   1.029
 5638SOL    HW217814   6.633   3.927   1.139
 5639SOL     OW17815   1.328   0.590   2.528
 5639SOL    HW117816   1.320   0.687   2.504
 5639SOL    HW217817   1.356   0.583   2.624
 5640SOL     OW17818   3.340   0.363   3.987
 5640SOL    HW117819   3.438   0.360   4.008
 5640SOL    HW217820   3.309   0.271   3.961
 5641SOL     OW17821   0.814   5.082   5.014
 5641SOL    HW117822   0.867   5.158   5.052
 5641SOL    HW217823   0.871   5.030   4.951
 5642SOL     OW17824   1.950   6.812   4.570
 5642SOL    HW117825   1.893   6.743   4.527
 5642SOL    HW217826   2.003   6.770   4.644
 5643SOL     OW17827   4.251   1.580   4.448
 5643SOL    HW117828   4.335   1.621   4.414
 5643SOL    HW217829   4.172   1.627   4.407
 5644SOL     OW17830   2.958   0.163   4.979
 5644SOL    HW117831   3.005   0.154   5.066
 5644SOL    HW217832   2.945   0.072   4.939
 5645SOL     OW17833   6.303   4.861   3.584
 5645SOL    HW117834   6.214   4.870   3.541
 5645SOL    HW217835   6.330   4.765   3.587
 5646SOL     OW17836   1.749   5.668   3.830
 5646SOL    HW117837   1.776   5.619   3.748
 5646SOL    HW217838   1.724   5.603   3.902
 5647SOL     OW17839   4.584   5.603   0.733
 5647SOL    HW117840   4.543   5.531   0.789
 5647SOL    HW217841   4.682   5.585   0.722
 5648SOL     OW17842   1.831   0.253   3.053
 5648SOL    HW117843   1.788   0.337   3.085
 5648SOL    HW217844   1.927   0.252   3.082
 5649SOL     OW17845   0.879   0.868   4.313
 5649SOL    HW117846   0.979   0.867   4.312
 5649SOL    HW217847   0.846   0.907   4.399
 5650SOL     OW17848   0.413   5.546   0.540
 5650SOL    HW117849   0.472   5.588   0.470
 5650SOL    HW217850   0.396   5.450   0.517
 5651SOL     OW17851   1.773   1.046   1.432
 5651SOL    HW117852   1.853   1.076   1.381
 5651SOL    HW217853   1.743   0.957   1.399
 5652SOL     OW17854   6.247   0.179   2.068
 5652SOL    HW117855   6.205   0.125   1.995
 5652SOL    HW217856   6.346   0.171   2.062
 5653SOL     OW17857   6.389   6.619   6.559
 5653SOL    HW117858   6.363   6.650   6.650
 5653SOL    HW217859   6.476   6.660   6.533
 5654SOL     OW17860   6.872   6.490   5.251
 5654SOL    HW117861   6.868   6.502   5.151
 5654SOL    HW217862   6.807   6.552   5.295
 5655SOL     OW17863   0.748   3.662   4.193
 5655SOL    HW117864   0.730   3.616   4.107
 5655SOL    HW217865   0.661   3.679   4.241
 5656SOL     OW17866   0.136   4.083   6.664
 5656SOL    HW117867   0.172   4.041   6.747
 5656SOL    HW217868   0.170   4.177   6.656
 5657SOL     OW17869   6.007   2.272   0.370
 5657SOL    HW117870   5.986   2.361   0.330
 5657SOL    HW217871   6.106   2.258   0.370
 5658SOL     OW17872   3.632   4.012   6.469
 5658SOL    HW117873   3.617   4.024   6.371
 5658SOL    HW217874   3.562   3.950   6.506
 5659SOL     OW17875   3.843   3.316   5.253
 5659SOL    HW117876   3.917   3.380   5.274
 5659SOL    HW217877   3.815   3.327   5.157
 5660SOL     OW17878   4.663   6.703   0.211
 5660SOL    HW117879   4.622   6.689   0.121
 5660SOL    HW217880   4.590   6.716   0.279
 5661SOL     OW17881   1.481   6.188   5.142
 5661SOL    HW117882   1.420   6.250   5.092
 5661SOL    HW217883   1.507   6.112   5.083
 5662SOL     OW17884   2.687   5.667   3.515
 5662SOL    HW117885   2.749   5.598   3.476
 5662SOL    HW217886   2.603   5.622   3.546
 5663SOL     OW17887   1.894   2.934   6.888
 5663SOL    HW117888   1.873   2.894   6.977
 5663SOL    HW217889   1.897   2.862   6.819
 5664SOL     OW17890   6.713   3.833   4.581
 5664SOL    HW117891   6.805   3.871   4.586
 5664SOL    HW217892   6.658   3.869   4.657
 5665SOL     OW17893   1.832   1.016   0.493
 5665SOL    HW117894   1.848   0.923   0.462
 5665SOL    HW217895   1.910   1.048   0.546
 5666SOL     OW17896   6.084   6.981   3.085
 5666SOL    HW117897   6.076   0.018   3.005
 5666SOL    HW217898   6.175   6.940   3.088
 5667SOL     OW17899   1.321   5.254   4.590
 5667SOL    HW117900   1.408   5.301   4.578
 5667SOL    HW217901   1.299   5.204   4.506
 5668SOL     OW17902   5.244   2.749   3.904
 5668SOL    HW117903   5.318   2.748   3.837
 5668SOL    HW217904   5.172   2.685   3.877
 5669SOL     OW17905   0.224   3.431   0.400
 5669SOL    HW117906   0.286   3.457   0.474
 5669SOL    HW217907   0.276   3.386   0.328
 5670SOL     OW17908   0.707   3.625   3.604
 5670SOL    HW117909   0.762   3.657   3.681
 5670SOL    HW217910   0.619   3.671   3.603
 5671SOL     OW17911   6.107   6.355   6.382
 5671SOL    HW117912   6.196   6.370   6.340
 5671SOL    HW217913   6.085   6.431   6.443
 5672SOL     OW17914   4.359   3.955   0.001
 5672SOL    HW117915   4.323   3.942   6.929
 5672SOL    HW217916   4.289   3.928   0.067
 5673SOL     OW17917   1.448   0.184   1.352
 5673SOL    HW117918   1.403   0.234   1.426
 5673SOL    HW217919   1.393   0.191   1.268
 5674SOL     OW17920   0.255   4.638   5.074
 5674SOL    HW117921   0.265   4.568   5.003
 5674SOL    HW217922   0.159   4.643   5.102
 5675SOL     OW17923   4.073   2.958   6.413
 5675SOL    HW117924   4.006   2.969   6.341
 5675SOL    HW217925   4.102   3.048   6.447
 5676SOL     OW17926   2.735   2.358   2.619
 5676SOL    HW117927   2.788   2.301   2.682
 5676SOL    HW217928   2.688   2.300   2.553
 5677SOL     OW17929   0.573   1.399   0.511
 5677SOL    HW117930   0.499   1.336   0.535
 5677SOL    HW217931   0.650   1.385   0.574
 5678SOL     OW17932   4.095   6.483   2.647
 5678SOL    HW117933   4.071   6.539   2.567
 5678SOL    HW217934   4.159   6.533   2.705
 5679SOL     OW17935   6.634   1.086   4.213
 5679SOL    HW117936   6.630   1.183   4.191
 5679SOL    HW217937   6.692   1.039   4.146
 5680SOL     OW17938   1.845   5.096   6.073
 5680SOL    HW117939   1.748   5.073   6.062
 5680SOL    HW217940   1.901   5.026   6.026
 5681SOL     OW17941   0.696   4.230   0.872
 5681SOL    HW117942   0.727   4.135   0.878
 5681SOL    HW217943   0.666   4.250   0.779
 5682SOL     OW17944   2.098   5.323   5.093
 5682SOL    HW117945   2.088   5.358   5.186
 5682SOL    HW217946   2.091   5.224   5.094
 5683SOL     OW17947   4.322   1.149   5.948
 5683SOL    HW117948   4.315   1.236   5.998
 5683SOL    HW217949   4.350   1.168   5.854
 5684SOL     OW17950   2.706   3.590   5.720
 5684SOL    HW117951   2.719   3.604   5.818
 5684SOL    HW217952   2.654   3.506   5.706
 5685SOL     OW17953   1.861   2.121   3.042
 5685SOL    HW117954   1.930   2.099   3.111
 5685SOL    HW217955   1.899   2.186   2.976
 5686SOL     OW17956   2.755   1.805   6.528
 5686SOL    HW117957   2.827   1.829   6.594
 5686SOL    HW217958   2.790   1.814   6.435
 5687SOL     OW17959   0.987   5.246   6.897
 5687SOL    HW117960   0.992   5.335   6.943
 5687SOL    HW217961   1.063   5.188   6.928
 5688SOL     OW17962   0.761   2.530   1.719
 5688SOL    HW117963   0.849   2.550   1.676
 5688SOL    HW217964   0.758   2.434   1.747
 5689SOL     OW17965   3.272   1.504   1.223
 5689SOL    HW117966   3.228   1.432   1.277
 5689SOL    HW217967   3.319   1.463   1.145
 5690SOL     OW17968   2.402   5.955   6.817
 5690SOL    HW117969   2.481   5.941   6.877
 5690SOL    HW217970   2.434   5.980   6.725
 5691SOL     OW17971   3.386   0.295   2.494
 5691SOL    HW117972   3.363   0.320   2.588
 5691SOL    HW217973   3.449   0.218   2.495
 5692SOL     OW17974   5.914   3.801   0.507
 5692SOL    HW117975   5.974   3.862   0.455
 5692SOL    HW217976   5.925   3.818   0.604
 5693SOL     OW17977   5.004   1.575   3.310
 5693SOL    HW117978   5.058   1.659   3.303
 5693SOL    HW217979   4.955   1.560   3.225
 5694SOL     OW17980   1.258   1.246   3.029
 5694SOL    HW117981   1.283   1.171   2.968
 5694SOL    HW217982   1.196   1.309   2.981
 5695SOL     OW17983   1.709   1.638   3.702
 5695SOL    HW117984   1.759   1.616   3.618
 5695SOL    HW217985   1.611   1.630   3.686
 5696SOL     OW17986   0.893   1.060   3.688
 5696SOL    HW117987   0.935   1.143   3.650
 5696SOL    HW217988   0.953   0.982   3.672
 5697SOL     OW17989   6.066   2.449   1.387
 5697SOL    HW117990   6.161   2.437   1.356
 5697SOL    HW217991   6.044   2.547   1.387
 5698SOL     OW17992   1.385   5.159   4.165
 5698SOL    HW117993   1.350   5.105   4.241
 5698SOL    HW217994   1.396   5.100   4.085
 5699SOL     OW17995   0.723   2.493   2.888
 5699SOL    HW117996   0.807   2.453   2.850
 5699SOL    HW217997   0.748   2.566   2.952
 5700SOL     OW17998   6.488   6.992   3.577
 5700SOL    HW117999   6.475   0.038   3.504
 5700SOL    HW218000   6.430   7.015   3.654
 5701SOL     OW18001   1.118   0.296   1.513
 5701SOL    HW118002   1.208   0.281   1.554
 5701SOL    HW218003   1.057   0.220   1.537
 5702SOL     OW18004   2.686   5.311   3.996
 5702SOL    HW118005   2.682   5.334   3.899
 5702SOL    HW218006   2.723   5.389   4.047
 5703SOL     OW18007   6.026   4.769   1.593
 5703SOL    HW118008   6.057   4.676   1.574
 5703SOL    HW218009   6.008   4.779   1.690
 5704SOL     OW18010   4.845   3.933   2.930
 5704SOL    HW118011   4.829   3.938   2.832
 5704SOL    HW218012   4.916   3.865   2.949
 5705SOL     OW18013   4.902   6.539   0.216
 5705SOL    HW118014   4.909   6.506   0.122
 5705SOL    HW218015   4.816   6.589   0.227
 5706SOL     OW18016   0.329   3.977   1.576
 5706SOL    HW118017   0.346   3.899   1.637
 5706SOL    HW218018   0.287   3.944   1.491
 5707SOL     OW18019   0.227   6.394   0.223
 5707SOL    HW118020   0.177   6.428   0.143
 5707SOL    HW218021   0.283   6.468   0.261
 5708SOL     OW18022   5.242   5.487   2.079
 5708SOL    HW118023   5.182   5.553   2.123
 5708SOL    HW218024   5.219   5.394   2.109
 5709SOL     OW18025   1.310   0.844   2.465
 5709SOL    HW118026   1.361   0.909   2.409
 5709SOL    HW218027   1.212   0.866   2.460
 5710SOL     OW18028   2.900   2.814   1.133
 5710SOL    HW118029   2.938   2.728   1.167
 5710SOL    HW218030   2.845   2.857   1.205
 5711SOL     OW18031   4.898   0.899   3.145
 5711SOL    HW118032   4.995   0.921   3.135
 5711SOL    HW218033   4.865   0.930   3.234
 5712SOL     OW18034   6.389   0.454   6.549
 5712SOL    HW118035   6.430   0.482   6.462
 5712SOL    HW218036   6.395   0.528   6.615
 5713SOL     OW18037   3.628   3.067   1.698
 5713SOL    HW118038   3.701   3.089   1.633
 5713SOL    HW218039   3.644   3.114   1.784
 5714SOL     OW18040   0.209   4.923   0.565
 5714SOL    HW118041   0.262   4.917   0.480
 5714SOL    HW218042   0.185   5.018   0.583
 5715SOL     OW18043   1.016   0.757   2.465
 5715SOL    HW118044   1.031   0.659   2.458
 5715SOL    HW218045   0.979   0.778   2.556
 5716SOL     OW18046   1.578   5.014   6.071
 5716SOL    HW118047   1.568   4.915   6.060
 5716SOL    HW218048   1.487   5.056   6.071
 5717SOL     OW18049   1.746   5.097   0.939
 5717SOL    HW118050   1.710   5.190   0.951
 5717SOL    HW218051   1.823   5.083   1.001
 5718SOL     OW18052   0.545   3.422   6.291
 5718SOL    HW118053   0.513   3.419   6.196
 5718SOL    HW218054   0.494   3.492   6.341
 5719SOL     OW18055   2.507   2.708   6.517
 5719SOL    HW118056   2.575   2.672   6.581
 5719SOL    HW218057   2.522   2.668   6.427
 5720SOL     OW18058   2.335   6.006   4.762
 5720SOL    HW118059   2.312   6.014   4.665
 5720SOL    HW218060   2.416   6.062   4.782
 5721SOL     OW18061   6.480   3.227   0.807
 5721SOL    HW118062   6.569   3.248   0.846
 5721SOL    HW218063   6.417   3.303   0.824
 5722SOL     OW18064   6.896   2.196   5.042
 5722SOL    HW118065   6.949   2.114   5.065
 5722SOL    HW218066   6.932   2.274   5.093
 5723SOL     OW18067   4.863   3.213   0.027
 5723SOL    HW118068   4.821   3.289   6.998
 5723SOL    HW218069   4.962   3.226   0.030
 5724SOL     OW18070   5.351   3.174   4.189
 5724SOL    HW118071   5.263   3.128   4.200
 5724SOL    HW218072   5.425   3.108   4.196
 5725SOL     OW18073   5.579   5.082   4.435
 5725SOL    HW118074   5.661   5.052   4.484
 5725SOL    HW218075   5.527   5.146   4.492
 5726SOL     OW18076   6.850   5.262   4.019
 5726SOL    HW118077   6.779   5.287   4.084
 5726SOL    HW218078   6.848   5.163   4.003
 5727SOL     OW18079   0.053   2.140   4.236
 5727SOL    HW118080   0.092   2.227   4.267
 5727SOL    HW218081   7.020   2.156   4.153
 5728SOL     OW18082   3.835   0.562   6.213
 5728SOL    HW118083   3.819   0.637   6.277
 5728SOL    HW218084   3.934   0.551   6.199
 5729SOL     OW18085   1.456   0.388   0.656
 5729SOL    HW118086   1.554   0.371   0.646
 5729SOL    HW218087   1.442   0.461   0.723
 5730SOL     OW18088   5.228   4.779   6.345
 5730SOL    HW118089   5.294   4.825   6.285
 5730SOL    HW218090   5.152   4.745   6.290
 5731SOL     OW18091   0.585   6.730   3.706
 5731SOL    HW118092   0.609   6.651   3.648
 5731SOL    HW218093   0.500   6.771   3.673
 5732SOL     OW18094   0.007   5.251   4.450
 5732SOL    HW118095   0.055   5.295   4.526
 5732SOL    HW218096   6.930   5.269   4.457
 5733SOL     OW18097   4.373   6.629   5.532
 5733SOL    HW118098   4.329   6.706   5.577
 5733SOL    HW218099   4.456   6.659   5.486
 5734SOL     OW18100   1.050   6.880   5.387
 5734SOL    HW118101   1.004   6.967   5.371
 5734SOL    HW218102   1.122   6.892   5.456
 5735SOL     OW18103   4.018   1.956   1.612
 5735SOL    HW118104   3.960   1.879   1.589
 5735SOL    HW218105   3.983   2.039   1.567
 5736SOL     OW18106   6.250   3.183   0.613
 5736SOL    HW118107   6.170   3.241   0.628
 5736SOL    HW218108   6.332   3.232   0.641
 5737SOL     OW18109   5.769   6.628   1.093
 5737SOL    HW118110   5.735   6.534   1.092
 5737SOL    HW218111   5.776   6.662   1.000
 5738SOL     OW18112   2.195   2.640   5.665
 5738SOL    HW118113   2.154   2.730   5.649
 5738SOL    HW218114   2.214   2.629   5.762
 5739SOL     OW18115   1.406   0.382   5.978
 5739SOL    HW118116   1.425   0.444   6.055
 5739SOL    HW218117   1.344   0.310   6.008
 5740SOL     OW18118   4.567   3.729   0.941
 5740SOL    HW118119   4.664   3.706   0.935
 5740SOL    HW218120   4.552   3.787   1.021
 5741SOL     OW18121   0.848   4.786   4.535
 5741SOL    HW118122   0.799   4.741   4.460
 5741SOL    HW218123   0.849   4.726   4.615
 5742SOL     OW18124   5.381   6.756   2.148
 5742SOL    HW118125   5.346   6.665   2.127
 5742SOL    HW218126   5.335   6.792   2.230
 5743SOL     OW18127   2.773   5.730   5.304
 5743SOL    HW118128   2.847   5.691   5.249
 5743SOL    HW218129   2.774   5.691   5.395
 5744SOL     OW18130   5.008   0.406   2.097
 5744SOL    HW118131   4.908   0.405   2.092
 5744SOL    HW218132   5.040   0.501   2.107
 5745SOL     OW18133   3.044   0.970   3.914
 5745SOL    HW118134   3.133   0.939   3.881
 5745SOL    HW218135   3.040   1.070   3.911
 5746SOL     OW18136   5.932   6.619   1.687
 5746SOL    HW118137   5.876   6.632   1.605
 5746SOL    HW218138   5.878   6.641   1.768
 5747SOL     OW18139   6.463   4.726   2.786
 5747SOL    HW118140   6.377   4.755   2.742
 5747SOL    HW218141   6.532   4.797   2.773
 5748SOL     OW18142   2.159   6.161   0.862
 5748SOL    HW118143   2.101   6.234   0.825
 5748SOL    HW218144   2.103   6.103   0.921
 5749SOL     OW18145   1.660   0.537   4.566
 5749SOL    HW118146   1.583   0.586   4.607
 5749SOL    HW218147   1.634   0.502   4.476
 5750SOL     OW18148   5.372   5.918   4.489
 5750SOL    HW118149   5.331   5.987   4.550
 5750SOL    HW218150   5.371   5.829   4.534
 5751SOL     OW18151   2.337   2.900   4.553
 5751SOL    HW118152   2.418   2.842   4.548
 5751SOL    HW218153   2.293   2.889   4.643
 5752SOL     OW18154   6.228   0.821   6.549
 5752SOL    HW118155   6.129   0.817   6.567
 5752SOL    HW218156   6.244   0.802   6.452
 5753SOL     OW18157   3.414   3.798   5.686
 5753SOL    HW118158   3.368   3.878   5.727
 5753SOL    HW218159   3.509   3.796   5.716
 5754SOL     OW18160   5.564   4.711   1.768
 5754SOL    HW118161   5.535   4.654   1.845
 5754SOL    HW218162   5.591   4.802   1.802
 5755SOL     OW18163   2.205   3.943   5.902
 5755SOL    HW118164   2.128   3.907   5.955
 5755SOL    HW218165   2.179   3.952   5.806
 5756SOL     OW18166   6.134   6.045   3.274
 5756SOL    HW118167   6.178   6.109   3.336
 5756SOL    HW218168   6.098   6.094   3.195
 5757SOL     OW18169   6.620   6.647   2.829
 5757SOL    HW118170   6.587   6.564   2.783
 5757SOL    HW218171   6.720   6.647   2.831
 5758SOL     OW18172   2.812   1.224   4.175
 5758SOL    HW118173   2.717   1.256   4.177
 5758SOL    HW218174   2.836   1.187   4.265
 5759SOL     OW18175   4.982   1.957   6.908
 5759SOL    HW118176   4.894   2.004   6.910
 5759SOL    HW218177   5.055   2.021   6.935
 5760SOL     OW18178   1.061   4.863   1.160
 5760SOL    HW118179   1.118   4.906   1.090
 5760SOL    HW218180   1.005   4.793   1.117
 5761SOL     OW18181   5.764   0.024   6.273
 5761SOL    HW118182   5.861   0.020   6.251
 5761SOL    HW218183   5.717   6.965   6.234
 5762SOL     OW18184   4.507   6.525   0.829
 5762SOL    HW118185   4.522   6.544   0.732
 5762SOL    HW218186   4.595   6.531   0.878
 5763SOL     OW18187   7.017   0.377   0.394
 5763SOL    HW118188   6.942   0.406   0.454
 5763SOL    HW218189   6.982   0.319   0.321
 5764SOL     OW18190   4.846   4.764   6.524
 5764SOL    HW118191   4.910   4.716   6.464
 5764SOL    HW218192   4.802   4.698   6.585
 5765SOL     OW18193   6.472   4.405   6.641
 5765SOL    HW118194   6.425   4.470   6.582
 5765SOL    HW218195   6.498   4.450   6.727
 5766SOL     OW18196   2.590   2.640   0.697
 5766SOL    HW118197   2.612   2.545   0.717
 5766SOL    HW218198   2.580   2.691   0.782
 5767SOL     OW18199   2.269   6.286   0.397
 5767SOL    HW118200   2.239   6.309   0.304
 5767SOL    HW218201   2.267   6.368   0.454
 5768SOL     OW18202   6.919   6.621   2.894
 5768SOL    HW118203   7.016   6.622   2.870
 5768SOL    HW218204   6.886   6.715   2.902
 5769SOL     OW18205   2.678   6.499   4.397
 5769SOL    HW118206   2.656   6.589   4.360
 5769SOL    HW218207   2.686   6.433   4.322
 5770SOL     OW18208   6.594   0.209   0.125
 5770SOL    HW118209   6.570   0.296   0.167
 5770SOL    HW218210   6.617   0.223   0.028
 5771SOL     OW18211   0.438   6.040   2.718
 5771SOL    HW118212   0.534   6.026   2.692
 5771SOL    HW218213   0.409   6.132   2.691
 5772SOL     OW18214   6.270   2.677   0.762
 5772SOL    HW118215   6.229   2.594   0.724
 5772SOL    HW218216   6.241   2.756   0.708
 5773SOL     OW18217   4.798   0.629   4.161
 5773SOL    HW118218   4.724   0.564   4.140
 5773SOL    HW218219   4.765   0.722   4.147
 5774SOL     OW18220   2.924   5.452   3.780
 5774SOL    HW118221   2.980   5.379   3.819
 5774SOL    HW218222   2.850   5.412   3.726
 5775SOL     OW18223   1.544   0.088   1.690
 5775SOL    HW118224   1.482   0.032   1.745
 5775SOL    HW218225   1.597   0.149   1.750
 5776SOL     OW18226   6.512   1.064   6.084
 5776SOL    HW118227   6.517   1.024   6.176
 5776SOL    HW218228   6.582   1.135   6.075
 5777SOL     OW18229   5.964   0.219   4.402
 5777SOL    HW118230   6.016   0.301   4.427
 5777SOL    HW218231   5.869   0.244   4.384
 5778SOL     OW18232   1.314   6.736   1.038
 5778SOL    HW118233   1.356   6.813   0.991
 5778SOL    HW218234   1.215   6.747   1.037
 5779SOL     OW18235   4.242   0.975   0.959
 5779SOL    HW118236   4.254   0.876   0.966
 5779SOL    HW218237   4.164   0.995   0.899
 5780SOL     OW18238   5.703   5.836   2.989
 5780SOL    HW118239   5.752   5.911   2.946
 5780SOL    HW218240   5.607   5.838   2.960
 5781SOL     OW18241   1.509   4.200   4.399
 5781SOL    HW118242   1.457   4.183   4.315
 5781SOL    HW218243   1.484   4.133   4.468
 5782SOL     OW18244   1.350   0.831   0.765
 5782SOL    HW118245   1.360   0.921   0.807
 5782SOL    HW218246   1.414   0.822   0.690
 5783SOL     OW18247   2.099   1.443   1.143
 5783SOL    HW118248   2.090   1.343   1.148
 5783SOL    HW218249   2.074   1.482   1.232
 5784SOL     OW18250   0.108   6.475   7.016
 5784SOL    HW118251   0.140   6.424   6.936
 5784SOL    HW218252   0.118   6.573   7.000
 5785SOL     OW18253   2.097   2.321   1.256
 5785SOL    HW118254   2.015   2.264   1.260
 5785SOL    HW218255   2.157   2.297   1.332
 5786SOL     OW18256   1.189   4.503   0.934
 5786SOL    HW118257   1.195   4.454   0.847
 5786SOL    HW218258   1.209   4.440   1.009
 5787SOL     OW18259   4.755   2.513   4.843
 5787SOL    HW118260   4.797   2.473   4.761
 5787SOL    HW218261   4.701   2.444   4.891
 5788SOL     OW18262   2.682   0.379   1.728
 5788SOL    HW118263   2.762   0.369   1.669
 5788SOL    HW218264   2.659   0.475   1.736
 5789SOL     OW18265   2.716   2.917   6.600
 5789SOL    HW118266   2.708   2.970   6.515
 5789SOL    HW218267   2.809   2.926   6.636
 5790SOL     OW18268   6.656   5.718   5.410
 5790SOL    HW118269   6.719   5.641   5.417
 5790SOL    HW218270   6.705   5.804   5.427
 5791SOL     OW18271   2.648   1.957   2.377
 5791SOL    HW118272   2.651   1.898   2.297
 5791SOL    HW218273   2.708   2.036   2.363
 5792SOL     OW18274   5.048   3.739   2.980
 5792SOL    HW118275   5.015   3.646   2.964
 5792SOL    HW218276   5.104   3.739   3.063
 5793SOL     OW18277   5.811   0.702   5.319
 5793SOL    HW118278   5.738   0.673   5.380
 5793SOL    HW218279   5.862   0.778   5.361
 5794SOL     OW18280   3.485   0.327   6.935
 5794SOL    HW118281   3.502   0.412   6.885
 5794SOL    HW218282   3.565   0.268   6.928
 5795SOL     OW18283   0.227   6.756   0.703
 5795SOL    HW118284   0.258   6.695   0.631
 5795SOL    HW218285   0.210   6.703   0.787
 5796SOL     OW18286   4.690   0.496   6.456
 5796SOL    HW118287   4.606   0.533   6.416
 5796SOL    HW218288   4.742   0.570   6.498
 5797SOL     OW18289   5.208   1.059   0.540
 5797SOL    HW118290   5.164   1.143   0.573
 5797SOL    HW218291   5.152   1.018   0.469
 5798SOL     OW18292   0.259   3.611   4.328
 5798SOL    HW118293   0.352   3.635   4.356
 5798SOL    HW218294   0.246   3.512   4.335
 5799SOL     OW18295   0.288   0.023   3.614
 5799SOL    HW118296   0.353   0.079   3.564
 5799SOL    HW218297   0.196   0.061   3.604
 5800SOL     OW18298   0.579   0.240   1.507
 5800SOL    HW118299   0.570   0.226   1.606
 5800SOL    HW218300   0.504   0.297   1.474
 5801SOL     OW18301   2.465   2.636   3.605
 5801SOL    HW118302   2.410   2.716   3.627
 5801SOL    HW218303   2.444   2.562   3.670
 5802SOL     OW18304   6.169   3.235   2.267
 5802SOL    HW118305   6.075   3.229   2.299
 5802SOL    HW218306   6.181   3.317   2.211
 5803SOL     OW18307   0.805   4.488   3.903
 5803SOL    HW118308   0.851   4.475   3.991
 5803SOL    HW218309   0.770   4.582   3.898
 5804SOL     OW18310   6.939   6.091   3.723
 5804SOL    HW118311   6.899   6.147   3.650
 5804SOL    HW218312   6.872   6.081   3.797
 5805SOL     OW18313   1.670   2.621   0.606
 5805SOL    HW118314   1.662   2.710   0.561
 5805SOL    HW218315   1.585   2.569   0.592
 5806SOL     OW18316   7.014   4.607   5.366
 5806SOL    HW118317   6.935   4.632   5.422
 5806SOL    HW218318   0.026   4.517   5.394
 5807SOL     OW18319   1.569   5.759   1.095
 5807SOL    HW118320   1.540   5.717   1.180
 5807SOL    HW218321   1.558   5.858   1.101
 5808SOL     OW18322   6.996   6.886   5.137
 5808SOL    HW118323   7.019   6.944   5.058
 5808SOL    HW218324   6.907   6.843   5.122
 5809SOL     OW18325   6.387   2.378   5.389
 5809SOL    HW118326   6.448   2.424   5.454
 5809SOL    HW218327   6.366   2.286   5.422
 5810SOL     OW18328   3.895   1.121   5.100
 5810SOL    HW118329   3.862   1.028   5.117
 5810SOL    HW218330   3.963   1.119   5.026
 5811SOL     OW18331   2.972   2.123   5.461
 5811SOL    HW118332   3.012   2.213   5.477
 5811SOL    HW218333   2.872   2.128   5.474
 5812SOL     OW18334   5.391   3.949   5.977
 5812SOL    HW118335   5.456   4.018   5.946
 5812SOL    HW218336   5.368   3.966   6.073
 5813SOL     OW18337   3.129   6.369   0.990
 5813SOL    HW118338   3.110   6.428   1.068
 5813SOL    HW218339   3.056   6.380   0.922
 5814SOL     OW18340   6.886   2.620   2.087
 5814SOL    HW118341   6.939   2.666   2.157
 5814SOL    HW218342   6.931   2.632   1.998
 5815SOL     OW18343   5.109   1.553   4.206
 5815SOL    HW118344   5.028   1.508   4.244
 5815SOL    HW218345   5.137   1.627   4.267
 5816SOL     OW18346   6.351   4.934   1.302
 5816SOL    HW118347   6.383   4.998   1.371
 5816SOL    HW218348   6.252   4.920   1.312
 5817SOL     OW18349   6.453   5.337   5.920
 5817SOL    HW118350   6.377   5.345   5.855
 5817SOL    HW218351   6.416   5.325   6.012
 5818SOL     OW18352   0.271   5.770   4.924
 5818SOL    HW118353   0.251   5.815   4.837
 5818SOL    HW218354   0.362   5.796   4.955
 5819SOL     OW18355   2.900   5.221   6.430
 5819SOL    HW118356   2.957   5.141   6.414
 5819SOL    HW218357   2.872   5.224   6.526
 5820SOL     OW18358   4.079   4.730   2.351
 5820SOL    HW118359   4.165   4.783   2.356
 5820SOL    HW218360   4.099   4.633   2.364
 5821SOL     OW18361   6.449   1.178   1.679
 5821SOL    HW118362   6.434   1.208   1.773
 5821SOL    HW218363   6.400   1.092   1.664
 5822SOL     OW18364   1.748   2.622   2.365
 5822SOL    HW118365   1.714   2.696   2.307
 5822SOL    HW218366   1.821   2.573   2.317
 5823SOL     OW18367   2.688   6.796   4.654
 5823SOL    HW118368   2.611   6.746   4.616
 5823SOL    HW218369   2.676   6.894   4.638
 5824SOL     OW18370   0.880   6.880   3.665
 5824SOL    HW118371   0.917   6.804   3.720
 5824SOL    HW218372   0.953   6.921   3.611
 5825SOL     OW18373   7.021   5.741   4.971
 5825SOL    HW118374   0.097   5.763   4.973
 5825SOL    HW218375   6.983   5.747   5.063
 5826SOL     OW18376   0.660   6.742   6.050
 5826SOL    HW118377   0.666   6.825   5.994
 5826SOL    HW218378   0.567   6.705   6.045
 5827SOL     OW18379   0.966   3.788   4.650
 5827SOL    HW118380   0.983   3.689   4.647
 5827SOL    HW218381   0.991   3.823   4.741
 5828SOL     OW18382   4.667   0.722   3.390
 5828SOL    HW118383   4.723   0.642   3.365
 5828SOL    HW218384   4.724   0.804   3.387
 5829SOL     OW18385   1.463   0.599   4.760
 5829SOL    HW118386   1.371   0.595   4.800
 5829SOL    HW218387   1.514   0.674   4.801
 5830SOL     OW18388   4.290   6.854   5.294
 5830SOL    HW118389   4.224   6.929   5.286
 5830SOL    HW218390   4.243   6.767   5.277
 5831SOL     OW18391   1.514   1.880   6.035
 5831SOL    HW118392   1.491   1.932   5.952
 5831SOL    HW218393   1.612   1.859   6.034
 5832SOL     OW18394   3.484   4.195   0.589
 5832SOL    HW118395   3.545   4.226   0.662
 5832SOL    HW218396   3.390   4.189   0.624
 5833SOL     OW18397   4.057   3.278   5.543
 5833SOL    HW118398   3.966   3.242   5.564
 5833SOL    HW218399   4.058   3.377   5.557
 5834SOL     OW18400   6.629   3.912   6.608
 5834SOL    HW118401   6.560   3.981   6.625
 5834SOL    HW218402   6.617   3.835   6.670
 5835SOL     OW18403   6.182   1.979   2.554
 5835SOL    HW118404   6.277   1.984   2.524
 5835SOL    HW218405   6.170   1.898   2.612
 5836SOL     OW18406   2.553   6.781   1.853
 5836SOL    HW118407   2.573   6.756   1.758
 5836SOL    HW218408   2.477   6.725   1.887
 5837SOL     OW18409   4.088   3.268   6.548
 5837SOL    HW118410   4.066   3.328   6.625
 5837SOL    HW218411   4.182   3.236   6.557
 5838SOL     OW18412   3.564   1.435   1.376
 5838SOL    HW118413   3.493   1.457   1.443
 5838SOL    HW218414   3.624   1.363   1.412
 5839SOL     OW18415   0.401   2.514   0.754
 5839SOL    HW118416   0.317   2.564   0.776
 5839SOL    HW218417   0.430   2.539   0.662
 5840SOL     OW18418   0.496   3.733   0.468
 5840SOL    HW118419   0.515   3.638   0.443
 5840SOL    HW218420   0.405   3.759   0.435
 5841SOL     OW18421   5.218   0.170   1.441
 5841SOL    HW118422   5.145   0.126   1.494
 5841SOL    HW218423   5.226   0.125   1.352
 5842SOL     OW18424   4.382   2.210   1.723
 5842SOL    HW118425   4.384   2.122   1.771
 5842SOL    HW218426   4.374   2.284   1.789
 5843SOL     OW18427   1.547   3.621   1.204
 5843SOL    HW118428   1.612   3.546   1.208
 5843SOL    HW218429   1.481   3.605   1.130
 5844SOL     OW18430   1.307   6.197   5.395
 5844SOL    HW118431   1.382   6.250   5.356
 5844SOL    HW218432   1.293   6.114   5.340
 5845SOL     OW18433   1.090   0.458   2.374
 5845SOL    HW118434   1.103   0.462   2.275
 5845SOL    HW218435   1.176   0.480   2.420
 5846SOL     OW18436   6.141   3.738   5.534
 5846SOL    HW118437   6.154   3.835   5.512
 5846SOL    HW218438   6.057   3.706   5.491
 5847SOL     OW18439   2.639   2.476   1.910
 5847SOL    HW118440   2.602   2.427   1.989
 5847SOL    HW218441   2.739   2.465   1.908
 5848SOL     OW18442   1.903   5.886   3.878
 5848SOL    HW118443   1.990   5.867   3.832
 5848SOL    HW218444   1.842   5.808   3.868
 5849SOL     OW18445   1.987   6.947   5.235
 5849SOL    HW118446   2.010   6.884   5.308
 5849SOL    HW218447   2.041   6.925   5.154
 5850SOL     OW18448   0.218   3.303   1.690
 5850SOL    HW118449   0.258   3.391   1.718
 5850SOL    HW218450   0.239   3.286   1.594
 5851SOL     OW18451   5.137   3.445   3.870
 5851SOL    HW118452   5.227   3.418   3.907
 5851SOL    HW218453   5.150   3.490   3.782
 5852SOL     OW18454   4.556   6.090   2.433
 5852SOL    HW118455   4.521   6.180   2.460
 5852SOL    HW218456   4.487   6.043   2.379
 5853SOL     OW18457   4.534   5.833   5.855
 5853SOL    HW118458   4.564   5.919   5.896
 5853SOL    HW218459   4.443   5.810   5.888
 5854SOL     OW18460   4.063   4.426   5.621
 5854SOL    HW118461   4.142   4.374   5.588
 5854SOL    HW218462   4.038   4.495   5.553
 5855SOL     OW18463   1.588   2.327   4.615
 5855SOL    HW118464   1.685   2.306   4.624
 5855SOL    HW218465   1.564   2.404   4.674
 5856SOL     OW18466   1.152   6.645   2.534
 5856SOL    HW118467   1.127   6.735   2.497
 5856SOL    HW218468   1.248   6.627   2.515
 5857SOL     OW18469   6.548   3.576   5.180
 5857SOL    HW118470   6.587   3.487   5.203
 5857SOL    HW218471   6.449   3.570   5.178
 5858SOL     OW18472   2.499   2.572   3.152
 5858SOL    HW118473   2.521   2.521   3.068
 5858SOL    HW218474   2.583   2.611   3.189
 5859SOL     OW18475   6.263   5.968   1.351
 5859SOL    HW118476   6.252   5.894   1.285
 5859SOL    HW218477   6.229   6.054   1.312
 5860SOL     OW18478   0.669   4.723   3.083
 5860SOL    HW118479   0.710   4.632   3.096
 5860SOL    HW218480   0.659   4.742   2.985
 5861SOL     OW18481   4.746   0.538   4.738
 5861SOL    HW118482   4.839   0.564   4.762
 5861SOL    HW218483   4.709   0.604   4.672
 5862SOL     OW18484   6.385   5.563   1.691
 5862SOL    HW118485   6.378   5.597   1.785
 5862SOL    HW218486   6.482   5.555   1.666
 5863SOL     OW18487   3.139   1.816   4.760
 5863SOL    HW118488   3.230   1.774   4.756
 5863SOL    HW218489   3.148   1.915   4.751
 5864SOL     OW18490   3.565   3.737   2.506
 5864SOL    HW118491   3.641   3.801   2.512
 5864SOL    HW218492   3.540   3.705   2.598
 5865SOL     OW18493   5.519   0.586   5.369
 5865SOL    HW118494   5.490   0.673   5.408
 5865SOL    HW218495   5.440   0.526   5.357
 5866SOL     OW18496   3.250   2.693   0.992
 5866SOL    HW118497   3.285   2.663   1.081
 5866SOL    HW218498   3.290   2.782   0.969
 5867SOL     OW18499   1.810   2.971   1.624
 5867SOL    HW118500   1.753   2.961   1.542
 5867SOL    HW218501   1.834   3.067   1.636
 5868SOL     OW18502   1.069   1.920   5.678
 5868SOL    HW118503   1.128   1.993   5.645
 5868SOL    HW218504   0.993   1.959   5.729
 5869SOL     OW18505   1.938   4.155   3.155
 5869SOL    HW118506   1.950   4.059   3.130
 5869SOL    HW218507   1.859   4.165   3.215
 5870SOL     OW18508   4.160   6.142   5.377
 5870SOL    HW118509   4.137   6.231   5.336
 5870SOL    HW218510   4.221   6.157   5.454
 5871SOL     OW18511   4.056   3.249   2.057
 5871SOL    HW118512   4.025   3.198   1.977
 5871SOL    HW218513   4.060   3.188   2.136
 5872SOL     OW18514   4.020   6.687   0.902
 5872SOL    HW118515   3.960   6.686   0.822
 5872SOL    HW218516   4.100   6.629   0.884
 5873SOL     OW18517   3.013   6.703   2.301
 5873SOL    HW118518   2.925   6.666   2.329
 5873SOL    HW218519   3.087   6.650   2.341
 5874SOL     OW18520   2.231   4.516   4.560
 5874SOL    HW118521   2.282   4.591   4.518
 5874SOL    HW218522   2.288   4.472   4.630
 5875SOL     OW18523   3.679   2.311   0.616
 5875SOL    HW118524   3.778   2.314   0.601
 5875SOL    HW218525   3.654   2.223   0.656
 5876SOL     OW18526   4.090   3.522   1.920
 5876SOL    HW118527   4.013   3.482   1.870
 5876SOL    HW218528   4.127   3.454   1.983
 5877SOL     OW18529   6.044   6.347   0.990
 5877SOL    HW118530   5.951   6.338   0.956
 5877SOL    HW218531   6.050   6.427   1.050
 5878SOL     OW18532   0.528   6.320   3.859
 5878SOL    HW118533   0.469   6.400   3.865
 5878SOL    HW218534   0.621   6.345   3.887
 5879SOL     OW18535   1.322   3.482   0.034
 5879SOL    HW118536   1.357   3.562   7.006
 5879SOL    HW218537   1.305   3.408   6.990
 5880SOL     OW18538   3.467   4.350   0.366
 5880SOL    HW118539   3.548   4.403   0.340
 5880SOL    HW218540   3.487   4.299   0.449
 5881SOL     OW18541   6.900   5.574   3.070
 5881SOL    HW118542   6.878   5.527   2.985
 5881SOL    HW218543   6.818   5.582   3.126
 5882SOL     OW18544   6.839   6.225   1.029
 5882SOL    HW118545   6.926   6.177   1.041
 5882SOL    HW218546   6.823   6.287   1.106
 5883SOL     OW18547   0.631   1.850   6.833
 5883SOL    HW118548   0.706   1.857   6.767
 5883SOL    HW218549   0.551   1.809   6.789
 5884SOL     OW18550   2.554   1.557   3.862
 5884SOL    HW118551   2.455   1.558   3.879
 5884SOL    HW218552   2.576   1.627   3.794
 5885SOL     OW18553   0.039   0.481   2.466
 5885SOL    HW118554   0.036   0.543   2.545
 5885SOL    HW218555   6.989   0.507   2.401
 5886SOL     OW18556   0.573   1.919   5.041
 5886SOL    HW118557   0.580   1.952   4.947
 5886SOL    HW218558   0.556   1.820   5.041
 5887SOL     OW18559   3.240   1.166   3.650
 5887SOL    HW118560   3.203   1.085   3.695
 5887SOL    HW218561   3.338   1.154   3.633
 5888SOL     OW18562   3.040   0.880   2.275
 5888SOL    HW118563   2.970   0.899   2.343
 5888SOL    HW218564   3.120   0.839   2.319
 5889SOL     OW18565   0.918   6.113   1.225
 5889SOL    HW118566   1.017   6.132   1.226
 5889SOL    HW218567   0.884   6.121   1.132
 5890SOL     OW18568   1.671   6.998   4.935
 5890SOL    HW118569   1.592   6.939   4.920
 5890SOL    HW218570   1.709   0.006   4.847
 5891SOL     OW18571   2.957   3.156   6.417
 5891SOL    HW118572   2.881   3.126   6.475
 5891SOL    HW218573   3.023   3.081   6.408
 5892SOL     OW18574   0.481   5.610   1.271
 5892SOL    HW118575   0.452   5.515   1.260
 5892SOL    HW218576   0.557   5.614   1.336
 5893SOL     OW18577   1.746   4.079   4.355
 5893SOL    HW118578   1.665   4.139   4.359
 5893SOL    HW218579   1.775   4.069   4.260
 5894SOL     OW18580   0.329   5.710   4.245
 5894SOL    HW118581   0.282   5.794   4.216
 5894SOL    HW218582   0.412   5.735   4.295
 5895SOL     OW18583   5.538   3.359   4.283
 5895SOL    HW118584   5.615   3.341   4.345
 5895SOL    HW218585   5.466   3.292   4.299
 5896SOL     OW18586   4.100   1.166   0.662
 5896SOL    HW118587   4.122   1.204   0.752
 5896SOL    HW218588   4.110   1.236   0.592
 5897SOL     OW18589   3.906   0.673   1.425
 5897SOL    HW118590   3.896   0.578   1.398
 5897SOL    HW218591   3.917   0.730   1.344
 5898SOL     OW18592   2.585   6.377   2.977
 5898SOL    HW118593   2.525   6.356   3.055
 5898SOL    HW218594   2.534   6.366   2.892
 5899SOL     OW18595   5.128   6.748   5.886
 5899SOL    HW118596   5.213   6.764   5.837
 5899SOL    HW218597   5.134   6.662   5.937
 5900SOL     OW18598   5.085   5.335   3.376
 5900SOL    HW118599   4.991   5.311   3.400
 5900SOL    HW218600   5.108   5.425   3.414
 5901SOL     OW18601   2.877   0.343   0.034
 5901SOL    HW118602   2.787   0.376   0.062
 5901SOL    HW218603   2.942   0.355   0.109
 5902SOL     OW18604   6.731   2.186   6.541
 5902SOL    HW118605   6.690   2.095   6.539
 5902SOL    HW218606   6.826   2.180   6.511
 5903SOL     OW18607   4.116   3.490   1.120
 5903SOL    HW118608   4.142   3.504   1.215
 5903SOL    HW218609   4.140   3.570   1.066
 5904SOL     OW18610   1.096   3.564   1.638
 5904SOL    HW118611   1.046   3.514   1.709
 5904SOL    HW218612   1.071   3.661   1.641
 5905SOL     OW18613   5.905   6.381   3.135
 5905SOL    HW118614   5.923   6.289   3.100
 5905SOL    HW218615   5.834   6.425   3.080
 5906SOL     OW18616   4.549   2.004   3.939
 5906SOL    HW118617   4.554   1.981   3.842
 5906SOL    HW218618   4.474   1.953   3.982
 5907SOL     OW18619   1.701   5.167   1.701
 5907SOL    HW118620   1.726   5.168   1.604
 5907SOL    HW218621   1.603   5.188   1.711
 5908SOL     OW18622   0.443   2.687   6.905
 5908SOL    HW118623   0.455   2.611   6.840
 5908SOL    HW218624   0.418   2.770   6.855
 5909SOL     OW18625   6.848   5.270   1.016
 5909SOL    HW118626   6.918   5.201   0.995
 5909SOL    HW218627   6.868   5.312   1.104
 5910SOL     OW18628   0.612   2.915   3.371
 5910SOL    HW118629   0.627   2.957   3.282
 5910SOL    HW218630   0.685   2.943   3.434
 5911SOL     OW18631   6.143   6.764   6.456
 5911SOL    HW118632   6.048   6.767   6.489
 5911SOL    HW218633   6.190   6.685   6.497
 5912SOL     OW18634   0.009   0.411   5.499
 5912SOL    HW118635   0.073   0.339   5.472
 5912SOL    HW218636   6.957   0.372   5.555
 5913SOL     OW18637   4.777   2.685   6.443
 5913SOL    HW118638   4.822   2.620   6.504
 5913SOL    HW218639   4.707   2.736   6.495
 5914SOL     OW18640   1.267   5.474   6.825
 5914SOL    HW118641   1.200   5.467   6.899
 5914SOL    HW218642   1.326   5.393   6.826
 5915SOL     OW18643   4.833   6.138   1.623
 5915SOL    HW118644   4.781   6.052   1.628
 5915SOL    HW218645   4.797   6.203   1.689
 5916SOL     OW18646   6.404   5.908   3.195
 5916SOL    HW118647   6.451   5.949   3.117
 5916SOL    HW218648   6.306   5.921   3.185
 5917SOL     OW18649   3.159   3.914   4.499
 5917SOL    HW118650   3.082   3.854   4.520
 5917SOL    HW218651   3.185   3.902   4.403
 5918SOL     OW18652   2.277   4.824   5.302
 5918SOL    HW118653   2.253   4.804   5.207
 5918SOL    HW218654   2.375   4.844   5.308
 5919SOL     OW18655   3.073   3.102   3.093
 5919SOL    HW118656   3.066   3.125   2.996
 5919SOL    HW218657   3.158   3.052   3.109
 5920SOL     OW18658   5.059   0.854   6.260
 5920SOL    HW118659   5.047   0.943   6.216
 5920SOL    HW218660   5.024   0.858   6.353
 5921SOL     OW18661   4.337   5.126   6.593
 5921SOL    HW118662   4.407   5.088   6.653
 5921SOL    HW218663   4.381   5.177   6.519
 5922SOL     OW18664   5.911   4.116   4.449
 5922SOL    HW118665   5.954   4.136   4.361
 5922SOL    HW218666   5.821   4.160   4.453
 5923SOL     OW18667   6.839   1.934   1.824
 5923SOL    HW118668   6.878   1.933   1.732
 5923SOL    HW218669   6.877   1.858   1.877
 5924SOL     OW18670   6.500   0.283   2.671
 5924SOL    HW118671   6.545   0.209   2.622
 5924SOL    HW218672   6.484   0.255   2.766
 5925SOL     OW18673   3.177   6.765   1.908
 5925SOL    HW118674   3.106   6.811   1.961
 5925SOL    HW218675   3.165   6.784   1.811
 5926SOL     OW18676   3.616   4.924   2.481
 5926SOL    HW118677   3.646   4.853   2.544
 5926SOL    HW218678   3.674   5.005   2.493
 5927SOL     OW18679   0.958   5.339   2.274
 5927SOL    HW118680   1.030   5.328   2.343
 5927SOL    HW218681   0.976   5.277   2.198
 5928SOL     OW18682   3.411   0.008   0.649
 5928SOL    HW118683   3.374   0.003   0.742
 5928SOL    HW218684   3.371   0.087   0.601
 5929SOL     OW18685   6.330   0.379   5.806
 5929SOL    HW118686   6.319   0.297   5.750
 5929SOL    HW218687   6.259   0.381   5.877
 5930SOL     OW18688   0.130   3.574   3.398
 5930SOL    HW118689   0.046   3.562   3.346
 5930SOL    HW218690   0.109   3.619   3.485
 5931SOL     OW18691   6.347   6.299   3.205
 5931SOL    HW118692   6.328   6.291   3.302
 5931SOL    HW218693   6.443   6.325   3.192
 5932SOL     OW18694   3.343   0.216   0.233
 5932SOL    HW118695   3.403   0.294   0.249
 5932SOL    HW218696   3.255   0.247   0.198
 5933SOL     OW18697   6.558   5.067   4.264
 5933SOL    HW118698   6.589   5.025   4.350
 5933SOL    HW218699   6.463   5.097   4.274
 5934SOL     OW18700   3.804   2.874   5.010
 5934SOL    HW118701   3.889   2.830   5.038
 5934SOL    HW218702   3.762   2.919   5.089
 5935SOL     OW18703   6.994   4.850   6.294
 5935SOL    HW118704   0.012   4.801   6.372
 5935SOL    HW218705   0.025   4.933   6.277
 5936SOL     OW18706   3.187   3.160   1.485
 5936SOL    HW118707   3.189   3.201   1.576
 5936SOL    HW218708   3.278   3.167   1.444
 5937SOL     OW18709   5.778   3.408   1.813
 5937SOL    HW118710   5.800   3.463   1.732
 5937SOL    HW218711   5.828   3.322   1.809
 5938SOL     OW18712   6.167   5.543   3.699
 5938SOL    HW118713   6.146   5.570   3.605
 5938SOL    HW218714   6.226   5.611   3.742
 5939SOL     OW18715   2.502   5.639   3.745
 5939SOL    HW118716   2.409   5.605   3.755
 5939SOL    HW218717   2.500   5.735   3.719
 5940SOL     OW18718   4.494   5.037   2.835
 5940SOL    HW118719   4.579   4.997   2.803
 5940SOL    HW218720   4.453   5.091   2.762
 5941SOL     OW18721   5.687   3.239   2.173
 5941SOL    HW118722   5.708   3.336   2.165
 5941SOL    HW218723   5.592   3.227   2.202
 5942SOL     OW18724   5.292   3.826   6.710
 5942SOL    HW118725   5.365   3.823   6.641
 5942SOL    HW218726   5.264   3.921   6.724
 5943SOL     OW18727   3.192   4.025   6.054
 5943SOL    HW118728   3.118   3.958   6.042
 5943SOL    HW218729   3.264   3.985   6.111
 5944SOL     OW18730   6.904   2.219   0.207
 5944SOL    HW118731   6.894   2.125   0.176
 5944SOL    HW218732   6.861   2.229   0.297
 5945SOL     OW18733   6.887   4.875   4.992
 5945SOL    HW118734   6.788   4.868   5.003
 5945SOL    HW218735   6.914   4.971   4.996
 5946SOL     OW18736   3.185   3.808   6.316
 5946SOL    HW118737   3.259   3.833   6.253
 5946SOL    HW218738   3.173   3.881   6.384
 5947SOL     OW18739   3.127   3.595   3.184
 5947SOL    HW118740   3.059   3.651   3.137
 5947SOL    HW218741   3.147   3.514   3.128
 5948SOL     OW18742   3.754   4.853   2.697
 5948SOL    HW118743   3.668   4.890   2.732
 5948SOL    HW218744   3.828   4.878   2.759
 5949SOL     OW18745   5.173   4.621   1.577
 5949SOL    HW118746   5.165   4.654   1.671
 5949SOL    HW218747   5.267   4.632   1.546
 5950SOL     OW18748   5.786   1.741   4.597
 5950SOL    HW118749   5.788   1.839   4.581
 5950SOL    HW218750   5.728   1.697   4.529
 5951SOL     OW18751   1.065   5.594   4.451
 5951SOL    HW118752   1.067   5.588   4.351
 5951SOL    HW218753   0.989   5.539   4.486
 5952SOL     OW18754   5.161   6.039   3.457
 5952SOL    HW118755   5.193   6.051   3.551
 5952SOL    HW218756   5.138   5.944   3.441
 5953SOL     OW18757   6.842   4.189   5.003
 5953SOL    HW118758   6.802   4.236   5.081
 5953SOL    HW218759   6.893   4.254   4.947
 5954SOL     OW18760   6.769   5.363   5.298
 5954SOL    HW118761   6.705   5.388   5.225
 5954SOL    HW218762   6.830   5.291   5.265
 5955SOL     OW18763   4.432   5.772   1.945
 5955SOL    HW118764   4.493   5.699   1.978
 5955SOL    HW218765   4.425   5.766   1.845
 5956SOL     OW18766   5.464   1.800   4.122
 5956SOL    HW118767   5.487   1.897   4.121
 5956SOL    HW218768   5.396   1.781   4.051
 5957SOL     OW18769   3.203   1.576   4.499
 5957SOL    HW118770   3.194   1.507   4.570
 5957SOL    HW218771   3.247   1.657   4.537
 5958SOL     OW18772   4.288   6.929   2.473
 5958SOL    HW118773   4.365   6.980   2.436
 5958SOL    HW218774   4.321   6.862   2.540
 5959SOL     OW18775   4.488   2.887   5.788
 5959SOL    HW118776   4.400   2.906   5.743
 5959SOL    HW218777   4.563   2.915   5.727
 5960SOL     OW18778   3.464   5.864   4.971
 5960SOL    HW118779   3.444   5.961   4.965
 5960SOL    HW218780   3.445   5.820   4.883
 5961SOL     OW18781   4.778   1.886   2.956
 5961SOL    HW118782   4.746   1.979   2.976
 5961SOL    HW218783   4.723   1.821   3.008
 5962SOL     OW18784   5.633   6.337   6.600
 5962SOL    HW118785   5.637   6.432   6.628
 5962SOL    HW218786   5.629   6.331   6.500
 5963SOL     OW18787   2.904   3.811   6.395
 5963SOL    HW118788   2.913   3.791   6.297
 5963SOL    HW218789   2.995   3.824   6.434
 5964SOL     OW18790   1.499   6.764   4.917
 5964SOL    HW118791   1.460   6.704   4.987
 5964SOL    HW218792   1.451   6.751   4.831
 5965SOL     OW18793   2.021   1.661   0.043
 5965SOL    HW118794   1.930   1.690   0.072
 5965SOL    HW218795   2.020   1.645   6.965
 5966SOL     OW18796   2.495   6.235   6.677
 5966SOL    HW118797   2.447   6.246   6.590
 5966SOL    HW218798   2.450   6.290   6.747
 5967SOL     OW18799   2.302   0.522   5.805
 5967SOL    HW118800   2.349   0.434   5.800
 5967SOL    HW218801   2.341   0.584   5.737
 5968SOL     OW18802   5.437   2.572   0.461
 5968SOL    HW118803   5.438   2.641   0.533
 5968SOL    HW218804   5.471   2.486   0.497
 5969SOL     OW18805   6.146   0.547   6.811
 5969SOL    HW118806   6.135   0.458   6.856
 5969SOL    HW218807   6.239   0.580   6.827
 5970SOL     OW18808   6.871   4.595   1.911
 5970SOL    HW118809   6.866   4.654   1.831
 5970SOL    HW218810   6.883   4.651   1.993
 5971SOL     OW18811   0.201   0.912   1.785
 5971SOL    HW118812   0.223   1.009   1.787
 5971SOL    HW218813   0.180   0.881   1.878
 5972SOL     OW18814   4.605   5.842   6.275
 5972SOL    HW118815   4.594   5.895   6.359
 5972SOL    HW218816   4.697   5.804   6.271
 5973SOL     OW18817   1.803   2.594   2.637
 5973SOL    HW118818   1.841   2.602   2.545
 5973SOL    HW218819   1.708   2.563   2.631
 5974SOL     OW18820   5.240   6.072   0.304
 5974SOL    HW118821   5.328   6.043   0.266
 5974SOL    HW218822   5.191   5.992   0.339
 5975SOL     OW18823   3.679   6.913   0.931
 5975SOL    HW118824   3.687   6.831   0.875
 5975SOL    HW218825   3.678   6.994   0.873
 5976SOL     OW18826   4.002   2.943   5.701
 5976SOL    HW118827   3.937   3.018   5.692
 5976SOL    HW218828   3.953   2.856   5.695
 5977SOL     OW18829   1.216   6.078   0.771
 5977SOL    HW118830   1.197   6.033   0.684
 5977SOL    HW218831   1.310   6.114   0.770
 5978SOL     OW18832   3.283   5.549   1.668
 5978SOL    HW118833   3.361   5.521   1.612
 5978SOL    HW218834   3.258   5.474   1.729
 5979SOL     OW18835   6.764   0.708   2.868
 5979SOL    HW118836   6.693   0.670   2.927
 5979SOL    HW218837   6.723   0.769   2.800
 5980SOL     OW18838   3.952   4.103   1.356
 5980SOL    HW118839   3.934   4.199   1.333
 5980SOL    HW218840   3.867   4.058   1.382
 5981SOL     OW18841   5.002   1.674   0.621
 5981SOL    HW118842   4.954   1.590   0.595
 5981SOL    HW218843   5.063   1.702   0.546
 5982SOL     OW18844   6.418   2.068   2.863
 5982SOL    HW118845   6.366   2.008   2.802
 5982SOL    HW218846   6.412   2.162   2.829
 5983SOL     OW18847   0.884   1.311   4.643
 5983SOL    HW118848   0.928   1.294   4.555
 5983SOL    HW218849   0.834   1.398   4.639
 5984SOL     OW18850   5.445   6.316   3.289
 5984SOL    HW118851   5.526   6.269   3.324
 5984SOL    HW218852   5.464   6.354   3.199
 5985SOL     OW18853   6.672   2.940   3.370
 5985SOL    HW118854   6.628   2.892   3.294
 5985SOL    HW218855   6.634   3.032   3.377
 5986SOL     OW18856   2.965   3.873   4.858
 5986SOL    HW118857   2.929   3.842   4.946
 5986SOL    HW218858   2.917   3.826   4.784
 5987SOL     OW18859   5.095   0.370   4.616
 5987SOL    HW118860   5.091   0.319   4.530
 5987SOL    HW218861   5.159   0.325   4.678
 5988SOL     OW18862   4.474   0.910   5.646
 5988SOL    HW118863   4.447   0.827   5.695
 5988SOL    HW218864   4.416   0.986   5.675
 5989SOL     OW18865   1.947   5.599   6.044
 5989SOL    HW118866   1.866   5.541   6.046
 5989SOL    HW218867   1.955   5.642   5.954
 5990SOL     OW18868   4.005   3.184   0.546
 5990SOL    HW118869   3.941   3.254   0.515
 5990SOL    HW218870   3.974   3.147   0.633
 5991SOL     OW18871   3.814   5.635   6.785
 5991SOL    HW118872   3.736   5.590   6.741
 5991SOL    HW218873   3.793   5.652   6.881
 5992SOL     OW18874   3.134   0.046   2.016
 5992SOL    HW118875   3.111   6.969   2.020
 5992SOL    HW218876   3.151   0.080   2.108
 5993SOL     OW18877   3.996   3.970   5.735
 5993SOL    HW118878   3.994   4.028   5.653
 5993SOL    HW218879   3.907   3.925   5.746
 5994SOL     OW18880   6.764   2.245   0.450
 5994SOL    HW118881   6.677   2.250   0.400
 5994SOL    HW218882   6.769   2.159   0.501
 5995SOL     OW18883   4.923   2.988   2.237
 5995SOL    HW118884   4.966   3.074   2.267
 5995SOL    HW218885   4.876   3.003   2.151
 5996SOL     OW18886   0.300   6.526   0.546
 5996SOL    HW118887   0.332   6.445   0.595
 5996SOL    HW218888   0.210   6.508   0.508
 5997SOL     OW18889   0.345   5.205   2.825
 5997SOL    HW118890   0.367   5.178   2.918
 5997SOL    HW218891   0.429   5.223   2.774
 5998SOL     OW18892   6.397   1.510   2.270
 5998SOL    HW118893   6.319   1.548   2.221
 5998SOL    HW218894   6.365   1.460   2.350
 5999SOL     OW18895   3.037   3.444   1.404
 5999SOL    HW118896   3.022   3.356   1.449
 5999SOL    HW218897   3.069   3.511   1.472
 6000SOL     OW18898   1.919   6.035   6.914
 6000SOL    HW118899   1.849   5.971   6.945
 6000SOL    HW218900   1.971   6.068   6.993
 6001SOL     OW18901   6.974   4.893   6.724
 6001SOL    HW118902   6.986   4.926   6.818
 6001SOL    HW218903   0.034   4.842   6.696
 6002SOL     OW18904   5.500   6.922   0.010
 6002SOL    HW118905   5.583   6.974   7.012
 6002SOL    HW218906   5.523   6.825   0.021
 6003SOL     OW18907   5.463   2.110   5.048
 6003SOL    HW118908   5.451   2.137   5.143
 6003SOL    HW218909   5.533   2.038   5.042
 6004SOL     OW18910   6.570   3.849   3.188
 6004SOL    HW118911   6.515   3.921   3.232
 6004SOL    HW218912   6.510   3.788   3.136
 6005SOL     OW18913   5.380   5.447   4.804
 6005SOL    HW118914   5.480   5.450   4.809
 6005SOL    HW218915   5.347   5.361   4.842
 6006SOL     OW18916   2.130   1.085   5.205
 6006SOL    HW118917   2.229   1.097   5.201
 6006SOL    HW218918   2.107   0.988   5.196
 6007SOL     OW18919   6.170   3.540   5.860
 6007SOL    HW118920   6.153   3.572   5.953
 6007SOL    HW218921   6.154   3.614   5.795
 6008SOL     OW18922   2.834   5.107   5.579
 6008SOL    HW118923   2.898   5.066   5.515
 6008SOL    HW218924   2.865   5.091   5.672
 6009SOL     OW18925   3.304   0.472   3.731
 6009SOL    HW118926   3.319   0.437   3.823
 6009SOL    HW218927   3.346   0.562   3.722
 6010SOL     OW18928   1.402   4.707   4.142
 6010SOL    HW118929   1.451   4.684   4.226
 6010SOL    HW218930   1.304   4.697   4.157
 6011SOL     OW18931   5.959   3.131   3.513
 6011SOL    HW118932   5.935   3.176   3.599
 6011SOL    HW218933   5.916   3.040   3.510
 6012SOL     OW18934   5.793   0.881   0.791
 6012SOL    HW118935   5.798   0.946   0.867
 6012SOL    HW218936   5.839   0.920   0.712
 6013SOL     OW18937   4.673   0.896   2.664
 6013SOL    HW118938   4.681   0.933   2.756
 6013SOL    HW218939   4.680   0.970   2.598
 6014SOL     OW18940   3.789   4.058   3.542
 6014SOL    HW118941   3.770   4.043   3.639
 6014SOL    HW218942   3.708   4.097   3.498
 6015SOL     OW18943   5.758   4.440   4.616
 6015SOL    HW118944   5.664   4.431   4.584
 6015SOL    HW218945   5.758   4.451   4.716
 6016SOL     OW18946   6.673   1.861   6.114
 6016SOL    HW118947   6.659   1.922   6.192
 6016SOL    HW218948   6.684   1.767   6.146
 6017SOL     OW18949   6.260   4.938   4.140
 6017SOL    HW118950   6.194   4.882   4.089
 6017SOL    HW218951   6.340   4.955   4.083
 6018SOL     OW18952   3.562   1.197   6.170
 6018SOL    HW118953   3.537   1.276   6.227
 6018SOL    HW218954   3.575   1.117   6.229
 6019SOL     OW18955   0.841   2.502   4.940
 6019SOL    HW118956   0.747   2.484   4.969
 6019SOL    HW218957   0.877   2.580   4.991
 6020SOL     OW18958   0.574   5.040   0.159
 6020SOL    HW118959   0.586   4.945   0.128
 6020SOL    HW218960   0.555   5.099   0.081
 6021SOL     OW18961   4.468   0.784   3.165
 6021SOL    HW118962   4.540   0.756   3.228
 6021SOL    HW218963   4.465   0.720   3.088
 6022SOL     OW18964   6.868   1.643   3.572
 6022SOL    HW118965   6.770   1.627   3.562
 6022SOL    HW218966   6.917   1.596   3.499
 6023SOL     OW18967   5.190   1.098   1.793
 6023SOL    HW118968   5.224   1.012   1.753
 6023SOL    HW218969   5.255   1.171   1.775
 6024SOL     OW18970   1.350   4.575   1.684
 6024SOL    HW118971   1.295   4.508   1.734
 6024SOL    HW218972   1.293   4.620   1.616
 6025SOL     OW18973   3.084   1.831   3.438
 6025SOL    HW118974   3.031   1.799   3.360
 6025SOL    HW218975   3.034   1.814   3.523
 6026SOL     OW18976   0.317   5.312   5.459
 6026SOL    HW118977   0.384   5.238   5.458
 6026SOL    HW218978   0.321   5.359   5.547
 6027SOL     OW18979   0.165   3.552   6.029
 6027SOL    HW118980   0.170   3.628   6.095
 6027SOL    HW218981   0.167   3.589   5.936
 6028SOL     OW18982   5.762   4.731   0.879
 6028SOL    HW118983   5.818   4.801   0.835
 6028SOL    HW218984   5.821   4.661   0.920
 6029SOL     OW18985   2.663   6.157   3.937
 6029SOL    HW118986   2.605   6.232   3.905
 6029SOL    HW218987   2.756   6.170   3.903
 6030SOL     OW18988   4.494   4.824   3.047
 6030SOL    HW118989   4.433   4.856   2.974
 6030SOL    HW218990   4.445   4.827   3.135
 6031SOL     OW18991   3.438   5.330   4.152
 6031SOL    HW118992   3.523   5.345   4.204
 6031SOL    HW218993   3.447   5.373   4.062
 6032SOL     OW18994   2.230   4.699   2.331
 6032SOL    HW118995   2.295   4.733   2.263
 6032SOL    HW218996   2.182   4.776   2.372
 6033SOL     OW18997   2.086   2.576   3.286
 6033SOL    HW118998   2.165   2.614   3.334
 6033SOL    HW218999   2.116   2.505   3.223
 6034SOL     OW19000   1.185   0.799   5.170
 6034SOL    HW119001   1.125   0.840   5.101
 6034SOL    HW219002   1.280   0.813   5.144
 6035SOL     OW19003   0.975   1.145   1.597
 6035SOL    HW119004   1.016   1.236   1.595
 6035SOL    HW219005   0.877   1.152   1.617
 6036SOL     OW19006   5.045   5.431   2.675
 6036SOL    HW119007   5.113   5.361   2.697
 6036SOL    HW219008   5.060   5.510   2.734
 6037SOL     OW19009   3.930   0.478   0.572
 6037SOL    HW119010   3.930   0.487   0.672
 6037SOL    HW219011   3.855   0.420   0.544
 6038SOL     OW19012   1.403   3.036   6.165
 6038SOL    HW119013   1.496   2.999   6.153
 6038SOL    HW219014   1.342   2.993   6.099
 6039SOL     OW19015   3.623   3.194   3.076
 6039SOL    HW119016   3.688   3.131   3.032
 6039SOL    HW219017   3.673   3.271   3.116
 6040SOL     OW19018   1.601   2.228   1.174
 6040SOL    HW119019   1.523   2.277   1.213
 6040SOL    HW219020   1.569   2.148   1.125
 6041SOL     OW19021   3.136   1.379   5.271
 6041SOL    HW119022   3.192   1.297   5.275
 6041SOL    HW219023   3.088   1.392   5.358
 6042SOL     OW19024   4.403   6.808   2.707
 6042SOL    HW119025   4.356   6.737   2.759
 6042SOL    HW219026   4.402   6.894   2.759
 6043SOL     OW19027   1.180   6.344   5.581
 6043SOL    HW119028   1.223   6.289   5.509
 6043SOL    HW219029   1.081   6.335   5.575
 6044SOL     OW19030   1.623   2.545   1.309
 6044SOL    HW119031   1.658   2.523   1.400
 6044SOL    HW219032   1.536   2.498   1.294
 6045SOL     OW19033   5.830   4.007   2.924
 6045SOL    HW119034   5.876   3.923   2.893
 6045SOL    HW219035   5.732   4.001   2.902
 6046SOL     OW19036   3.338   2.542   1.508
 6046SOL    HW119037   3.288   2.543   1.595
 6046SOL    HW219038   3.343   2.447   1.475
 6047SOL     OW19039   5.104   1.938   1.795
 6047SOL    HW119040   5.155   2.020   1.820
 6047SOL    HW219041   5.007   1.953   1.814
 6048SOL     OW19042   4.692   5.293   5.257
 6048SOL    HW119043   4.738   5.352   5.190
 6048SOL    HW219044   4.747   5.211   5.272
 6049SOL     OW19045   4.548   3.726   0.009
 6049SOL    HW119046   4.516   3.821   0.006
 6049SOL    HW219047   4.471   3.664   0.000
 6050SOL     OW19048   2.725   4.657   6.146
 6050SOL    HW119049   2.800   4.668   6.212
 6050SOL    HW219050   2.761   4.664   6.053
 6051SOL     OW19051   2.084   0.223   3.172
 6051SOL    HW119052   2.122   0.162   3.242
 6051SOL    HW219053   2.066   0.313   3.213
 6052SOL     OW19054   5.136   1.171   0.984
 6052SOL    HW119055   5.083   1.247   0.947
 6052SOL    HW219056   5.150   1.102   0.913
 6053SOL     OW19057   4.027   1.334   6.019
 6053SOL    HW119058   3.958   1.381   5.964
 6053SOL    HW219059   3.987   1.306   6.106
 6054SOL     OW19060   2.707   3.455   0.177
 6054SOL    HW119061   2.773   3.390   0.215
 6054SOL    HW219062   2.693   3.530   0.241
 6055SOL     OW19063   5.339   0.023   5.481
 6055SOL    HW119064   5.419   0.012   5.541
 6055SOL    HW219065   5.329   6.963   5.425
 6056SOL     OW19066   4.929   3.580   5.327
 6056SOL    HW119067   4.938   3.482   5.344
 6056SOL    HW219068   4.868   3.594   5.249
 6057SOL     OW19069   0.042   0.980   2.247
 6057SOL    HW119070   6.964   0.987   2.260
 6057SOL    HW219071   0.083   1.069   2.263
 6058SOL     OW19072   5.731   4.173   1.150
 6058SOL    HW119073   5.785   4.157   1.067
 6058SOL    HW219074   5.682   4.260   1.142
 6059SOL     OW19075   4.741   5.400   6.514
 6059SOL    HW119076   4.772   5.426   6.422
 6059SOL    HW219077   4.763   5.304   6.530
 6060SOL     OW19078   2.918   3.383   5.726
 6060SOL    HW119079   2.968   3.443   5.788
 6060SOL    HW219080   2.979   3.353   5.652
 6061SOL     OW19081   5.188   3.477   0.567
 6061SOL    HW119082   5.123   3.501   0.639
 6061SOL    HW219083   5.149   3.404   0.510
 6062SOL     OW19084   2.451   1.389   5.610
 6062SOL    HW119085   2.508   1.457   5.655
 6062SOL    HW219086   2.482   1.297   5.636
 6063SOL     OW19087   4.317   2.405   6.260
 6063SOL    HW119088   4.378   2.460   6.203
 6063SOL    HW219089   4.368   2.327   6.297
 6064SOL     OW19090   1.103   0.448   0.827
 6064SOL    HW119091   1.044   0.494   0.894
 6064SOL    HW219092   1.194   0.436   0.865
 6065SOL     OW19093   1.099   6.121   2.842
 6065SOL    HW119094   1.114   6.023   2.836
 6065SOL    HW219095   1.088   6.148   2.938
 6066SOL     OW19096   5.418   1.684   5.217
 6066SOL    HW119097   5.385   1.707   5.125
 6066SOL    HW219098   5.455   1.591   5.216
 6067SOL     OW19099   5.157   0.940   5.853
 6067SOL    HW119100   5.197   0.949   5.944
 6067SOL    HW219101   5.123   1.029   5.823
 6068SOL     OW19102   4.757   2.822   4.446
 6068SOL    HW119103   4.688   2.790   4.510
 6068SOL    HW219104   4.839   2.766   4.453
 6069SOL     OW19105   5.756   2.988   4.877
 6069SOL    HW119106   5.736   3.042   4.795
 6069SOL    HW219107   5.811   3.043   4.940
 6070SOL     OW19108   2.696   2.490   1.181
 6070SOL    HW119109   2.655   2.565   1.130
 6070SOL    HW219110   2.712   2.518   1.276
 6071SOL     OW19111   6.936   5.770   5.226
 6071SOL    HW119112   6.847   5.753   5.268
 6071SOL    HW219113   7.006   5.714   5.272
 6072SOL     OW19114   0.339   0.454   1.788
 6072SOL    HW119115   0.261   0.391   1.785
 6072SOL    HW219116   0.424   0.403   1.774
 6073SOL     OW19117   5.383   2.988   0.987
 6073SOL    HW119118   5.417   2.908   0.938
 6073SOL    HW219119   5.459   3.051   1.004
 6074SOL     OW19120   0.978   5.675   2.293
 6074SOL    HW119121   0.935   5.617   2.363
 6074SOL    HW219122   1.070   5.641   2.274
 6075SOL     OW19123   4.575   0.121   5.814
 6075SOL    HW119124   4.596   0.046   5.877
 6075SOL    HW219125   4.650   0.187   5.813
 6076SOL     OW19126   3.585   5.252   3.242
 6076SOL    HW119127   3.489   5.268   3.218
 6076SOL    HW219128   3.636   5.337   3.231
 6077SOL     OW19129   6.499   5.271   1.567
 6077SOL    HW119130   6.523   5.351   1.621
 6077SOL    HW219131   6.579   5.213   1.555
 6078SOL     OW19132   5.023   5.364   0.478
 6078SOL    HW119133   5.118   5.391   0.496
 6078SOL    HW219134   5.019   5.268   0.452
 6079SOL     OW19135   5.080   3.783   5.459
 6079SOL    HW119136   5.032   3.701   5.428
 6079SOL    HW219137   5.165   3.757   5.504
 6080SOL     OW19138   0.126   6.026   0.803
 6080SOL    HW119139   0.190   6.100   0.784
 6080SOL    HW219140   0.140   5.993   0.897
 6081SOL     OW19141   6.673   2.928   5.398
 6081SOL    HW119142   6.593   2.873   5.374
 6081SOL    HW219143   6.747   2.868   5.429
 6082SOL     OW19144   2.655   0.304   3.263
 6082SOL    HW119145   2.656   0.217   3.313
 6082SOL    HW219146   2.596   0.295   3.182
 6083SOL     OW19147   6.175   6.105   0.573
 6083SOL    HW119148   6.181   6.126   0.476
 6083SOL    HW219149   6.208   6.183   0.626
 6084SOL     OW19150   0.995   6.783   2.846
 6084SOL    HW119151   1.034   6.764   2.756
 6084SOL    HW219152   1.017   6.708   2.908
 6085SOL     OW19153   0.234   6.852   0.074
 6085SOL    HW119154   0.138   6.826   0.082
 6085SOL    HW219155   0.249   6.941   0.117
 6086SOL     OW19156   2.796   1.383   5.451
 6086SOL    HW119157   2.730   1.456   5.435
 6086SOL    HW219158   2.886   1.422   5.472
 6087SOL     OW19159   3.674   5.953   1.176
 6087SOL    HW119160   3.587   5.976   1.133
 6087SOL    HW219161   3.659   5.887   1.249
 6088SOL     OW19162   5.597   6.318   4.915
 6088SOL    HW119163   5.541   6.278   4.987
 6088SOL    HW219164   5.689   6.335   4.950
 6089SOL     OW19165   5.288   2.412   2.722
 6089SOL    HW119166   5.272   2.347   2.648
 6089SOL    HW219167   5.278   2.505   2.687
 6090SOL     OW19168   2.860   5.696   4.401
 6090SOL    HW119169   2.831   5.730   4.312
 6090SOL    HW219170   2.917   5.615   4.389
 6091SOL     OW19171   2.224   1.450   0.026
 6091SOL    HW119172   2.164   1.523   0.059
 6091SOL    HW219173   2.308   1.449   0.080
 6092SOL     OW19174   4.018   0.606   2.748
 6092SOL    HW119175   3.999   0.555   2.664
 6092SOL    HW219176   4.116   0.620   2.758
 6093SOL     OW19177   2.182   3.089   2.276
 6093SOL    HW119178   2.181   3.185   2.249
 6093SOL    HW219179   2.151   3.032   2.199
 6094SOL     OW19180   1.429   5.894   2.810
 6094SOL    HW119181   1.424   5.855   2.718
 6094SOL    HW219182   1.440   5.993   2.803
 6095SOL     OW19183   5.026   4.670   0.132
 6095SOL    HW119184   5.054   4.621   0.050
 6095SOL    HW219185   4.961   4.742   0.107
 6096SOL     OW19186   6.184   0.269   3.403
 6096SOL    HW119187   6.193   0.257   3.305
 6096SOL    HW219188   6.127   0.196   3.441
 6097SOL     OW19189   1.924   5.818   2.304
 6097SOL    HW119190   2.008   5.824   2.249
 6097SOL    HW219191   1.844   5.827   2.244
 6098SOL     OW19192   0.352   1.466   5.620
 6098SOL    HW119193   0.334   1.518   5.537
 6098SOL    HW219194   0.424   1.511   5.673
 6099SOL     OW19195   5.338   6.353   6.620
 6099SOL    HW119196   5.436   6.374   6.618
 6099SOL    HW219197   5.285   6.437   6.629
 6100SOL     OW19198   5.337   6.122   1.644
 6100SOL    HW119199   5.262   6.126   1.711
 6100SOL    HW219200   5.416   6.173   1.679
 6101SOL     OW19201   6.957   3.258   3.227
 6101SOL    HW119202   0.031   3.272   3.201
 6101SOL    HW219203   6.925   3.169   3.194
 6102SOL     OW19204   3.432   5.895   2.965
 6102SOL    HW119205   3.472   5.974   2.919
 6102SOL    HW219206   3.362   5.854   2.907
 6103SOL     OW19207   5.932   1.325   2.141
 6103SOL    HW119208   5.904   1.255   2.206
 6103SOL    HW219209   6.028   1.348   2.155
 6104SOL     OW19210   5.414   0.275   5.360
 6104SOL    HW119211   5.381   0.332   5.435
 6104SOL    HW219212   5.402   0.178   5.384
 6105SOL     OW19213   2.812   5.690   6.476
 6105SOL    HW119214   2.869   5.614   6.508
 6105SOL    HW219215   2.728   5.693   6.529
 6106SOL     OW19216   1.177   4.862   6.125
 6106SOL    HW119217   1.196   4.866   6.223
 6106SOL    HW219218   1.229   4.933   6.078
 6107SOL     OW19219   4.796   6.171   5.027
 6107SOL    HW119220   4.784   6.091   5.086
 6107SOL    HW219221   4.713   6.185   4.973
 6108SOL     OW19222   2.238   2.887   2.448
 6108SOL    HW119223   2.274   2.923   2.534
 6108SOL    HW219224   2.193   2.960   2.397
 6109SOL     OW19225   5.660   1.913   5.046
 6109SOL    HW119226   5.719   1.959   5.111
 6109SOL    HW219227   5.684   1.816   5.041
 6110SOL     OW19228   2.719   4.000   1.087
 6110SOL    HW119229   2.814   3.979   1.066
 6110SOL    HW219230   2.670   4.024   1.003
 6111SOL     OW19231   1.336   3.200   2.422
 6111SOL    HW119232   1.290   3.176   2.337
 6111SOL    HW219233   1.430   3.229   2.402
 6112SOL     OW19234   2.796   6.997   2.835
 6112SOL    HW119235   2.697   6.985   2.848
 6112SOL    HW219236   2.844   6.919   2.875
 6113SOL     OW19237   3.263   2.320   6.131
 6113SOL    HW119238   3.316   2.386   6.079
 6113SOL    HW219239   3.208   2.368   6.200
 6114SOL     OW19240   5.139   4.567   2.405
 6114SOL    HW119241   5.153   4.572   2.504
 6114SOL    HW219242   5.041   4.558   2.386
 6115SOL     OW19243   5.754   0.161   4.593
 6115SOL    HW119244   5.687   0.089   4.616
 6115SOL    HW219245   5.808   0.183   4.675
 6116SOL     OW19246   4.625   1.942   6.369
 6116SOL    HW119247   4.668   1.917   6.282
 6116SOL    HW219248   4.687   2.000   6.421
 6117SOL     OW19249   1.693   1.166   3.462
 6117SOL    HW119250   1.734   1.095   3.519
 6117SOL    HW219251   1.662   1.242   3.520
 6118SOL     OW19252   6.243   1.004   1.048
 6118SOL    HW119253   6.280   0.974   1.136
 6118SOL    HW219254   6.259   1.102   1.036
 6119SOL     OW19255   0.862   3.691   0.040
 6119SOL    HW119256   0.900   3.675   6.970
 6119SOL    HW219257   0.787   3.756   0.034
 6120SOL     OW19258   3.313   6.483   5.696
 6120SOL    HW119259   3.241   6.427   5.656
 6120SOL    HW219260   3.328   6.457   5.791
 6121SOL     OW19261   0.868   3.466   5.099
 6121SOL    HW119262   0.931   3.423   5.035
 6121SOL    HW219263   0.865   3.412   5.183
 6122SOL     OW19264   4.107   5.154   0.479
 6122SOL    HW119265   4.078   5.212   0.403
 6122SOL    HW219266   4.026   5.116   0.524
 6123SOL     OW19267   5.145   6.820   6.488
 6123SOL    HW119268   5.121   6.845   6.394
 6123SOL    HW219269   5.108   6.887   6.552
 6124SOL     OW19270   1.419   6.874   5.840
 6124SOL    HW119271   1.513   6.855   5.811
 6124SOL    HW219272   1.399   6.825   5.924
 6125SOL     OW19273   2.186   4.211   0.206
 6125SOL    HW119274   2.127   4.193   0.127
 6125SOL    HW219275   2.277   4.173   0.189
 6126SOL     OW19276   0.107   0.731   3.993
 6126SOL    HW119277   0.171   0.661   3.962
 6126SOL    HW219278   0.046   0.756   3.917
 6127SOL     OW19279   3.303   7.010   0.890
 6127SOL    HW119280   3.205   6.996   0.879
 6127SOL    HW219281   3.336   6.951   0.964
 6128SOL     OW19282   6.394   4.748   0.826
 6128SOL    HW119283   6.479   4.707   0.793
 6128SOL    HW219284   6.316   4.699   0.787
 6129SOL     OW19285   6.929   3.192   2.000
 6129SOL    HW119286   6.918   3.102   1.958
 6129SOL    HW219287   6.913   3.262   1.930
 6130SOL     OW19288   5.172   2.752   2.402
 6130SOL    HW119289   5.234   2.722   2.330
 6130SOL    HW219290   5.149   2.849   2.387
 6131SOL     OW19291   0.338   1.689   3.524
 6131SOL    HW119292   0.379   1.745   3.453
 6131SOL    HW219293   0.407   1.627   3.562
 6132SOL     OW19294   4.419   1.792   6.866
 6132SOL    HW119295   4.396   1.709   6.816
 6132SOL    HW219296   4.516   1.814   6.852
 6133SOL     OW19297   2.088   3.544   3.235
 6133SOL    HW119298   2.031   3.552   3.154
 6133SOL    HW219299   2.058   3.466   3.290
 6134SOL     OW19300   4.165   5.297   0.039
 6134SOL    HW119301   4.120   5.217   7.021
 6134SOL    HW219302   4.128   5.380   7.018
 6135SOL     OW19303   6.898   0.216   0.203
 6135SOL    HW119304   6.801   0.189   0.203
 6135SOL    HW219305   6.955   0.135   0.201
 6136SOL     OW19306   1.050   3.419   1.908
 6136SOL    HW119307   1.015   3.399   1.999
 6136SOL    HW219308   1.149   3.408   1.907
 6137SOL     OW19309   0.039   3.879   2.214
 6137SOL    HW119310   0.112   3.868   2.281
 6137SOL    HW219311   6.990   3.810   2.230
 6138SOL     OW19312   3.682   6.965   2.616
 6138SOL    HW119313   3.646   6.972   2.523
 6138SOL    HW219314   3.723   6.875   2.630
 6139SOL     OW19315   1.539   6.796   6.193
 6139SOL    HW119316   1.533   6.894   6.174
 6139SOL    HW219317   1.461   6.749   6.152
 6140SOL     OW19318   1.041   0.462   1.899
 6140SOL    HW119319   1.054   0.528   1.825
 6140SOL    HW219320   1.065   0.370   1.866
 6141SOL     OW19321   0.606   0.085   6.170
 6141SOL    HW119322   0.580   0.135   6.087
 6141SOL    HW219323   0.536   0.016   6.190
 6142SOL     OW19324   0.337   6.063   6.368
 6142SOL    HW119325   0.436   6.071   6.357
 6142SOL    HW219326   0.317   6.002   6.444
 6143SOL     OW19327   6.617   3.117   1.188
 6143SOL    HW119328   6.657   3.067   1.265
 6143SOL    HW219329   6.686   3.129   1.116
 6144SOL     OW19330   4.765   4.801   4.776
 6144SOL    HW119331   4.700   4.877   4.782
 6144SOL    HW219332   4.750   4.751   4.690
 6145SOL     OW19333   5.191   4.941   4.412
 6145SOL    HW119334   5.224   4.878   4.482
 6145SOL    HW219335   5.262   5.008   4.391
 6146SOL     OW19336   3.357   5.466   3.591
 6146SOL    HW119337   3.454   5.443   3.585
 6146SOL    HW219338   3.315   5.413   3.665
 6147SOL     OW19339   2.147   2.239   5.058
 6147SOL    HW119340   2.077   2.303   5.088
 6147SOL    HW219341   2.110   2.146   5.061
 6148SOL     OW19342   4.532   6.971   5.332
 6148SOL    HW119343   4.546   6.947   5.428
 6148SOL    HW219344   4.451   6.922   5.298
 6149SOL     OW19345   2.574   6.910   1.332
 6149SOL    HW119346   2.535   6.955   1.251
 6149SOL    HW219347   2.574   6.811   1.319
 6150SOL     OW19348   5.915   5.008   0.712
 6150SOL    HW119349   5.935   5.029   0.808
 6150SOL    HW219350   5.967   4.928   0.683
 6151SOL     OW19351   6.417   5.184   6.516
 6151SOL    HW119352   6.441   5.257   6.452
 6151SOL    HW219353   6.458   5.098   6.487
 6152SOL     OW19354   6.851   5.982   4.612
 6152SOL    HW119355   6.942   6.007   4.643
 6152SOL    HW219356   6.851   5.887   4.581
 6153SOL     OW19357   5.379   4.598   1.038
 6153SOL    HW119358   5.332   4.674   1.083
 6153SOL    HW219359   5.386   4.617   0.940
 6154SOL     OW19360   6.354   2.565   2.566
 6154SOL    HW119361   6.260   2.532   2.568
 6154SOL    HW219362   6.385   2.583   2.660
 6155SOL     OW19363   1.550   1.299   3.019
 6155SOL    HW119364   1.543   1.317   3.117
 6155SOL    HW219365   1.461   1.311   2.975
 6156SOL     OW19366   4.383   4.612   2.061
 6156SOL    HW119367   4.419   4.610   2.154
 6156SOL    HW219368   4.452   4.578   1.997
 6157SOL     OW19369   6.845   1.892   4.237
 6157SOL    HW119370   6.899   1.893   4.321
 6157SOL    HW219371   6.833   1.986   4.203
 6158SOL     OW19372   3.838   1.971   6.907
 6158SOL    HW119373   3.765   1.948   6.971
 6158SOL    HW219374   3.799   1.983   6.815
 6159SOL     OW19375   4.470   2.118   1.286
 6159SOL    HW119376   4.550   2.063   1.312
 6159SOL    HW219377   4.422   2.074   1.211
 6160SOL     OW19378   5.137   0.737   6.693
 6160SOL    HW119379   5.236   0.751   6.695
 6160SOL    HW219380   5.112   0.671   6.764
 6161SOL     OW19381   5.794   1.867   6.105
 6161SOL    HW119382   5.723   1.843   6.038
 6161SOL    HW219383   5.796   1.797   6.177
 6162SOL     OW19384   6.668   6.491   3.635
 6162SOL    HW119385   6.604   6.416   3.651
 6162SOL    HW219386   6.746   6.458   3.582
 6163SOL     OW19387   6.042   6.277   1.498
 6163SOL    HW119388   5.954   6.259   1.540
 6163SOL    HW219389   6.083   6.358   1.540
 6164SOL     OW19390   3.571   3.808   3.753
 6164SOL    HW119391   3.621   3.894   3.742
 6164SOL    HW219392   3.510   3.814   3.832
 6165SOL     OW19393   4.417   1.574   6.706
 6165SOL    HW119394   4.445   1.590   6.612
 6165SOL    HW219395   4.338   1.512   6.707
 6166SOL     OW19396   5.997   2.009   6.322
 6166SOL    HW119397   5.961   1.959   6.402
 6166SOL    HW219398   5.987   1.952   6.241
 6167SOL     OW19399   1.066   5.088   3.195
 6167SOL    HW119400   0.998   5.016   3.186
 6167SOL    HW219401   1.158   5.048   3.188
 6168SOL     OW19402   1.599   3.351   2.678
 6168SOL    HW119403   1.612   3.370   2.581
 6168SOL    HW219404   1.547   3.266   2.689
 6169SOL     OW19405   1.127   2.069   0.406
 6169SOL    HW119406   1.154   2.016   0.326
 6169SOL    HW219407   1.103   2.162   0.378
 6170SOL     OW19408   2.487   4.048   5.494
 6170SOL    HW119409   2.473   4.056   5.395
 6170SOL    HW219410   2.434   4.119   5.541
 6171SOL     OW19411   1.747   3.649   0.951
 6171SOL    HW119412   1.725   3.554   0.976
 6171SOL    HW219413   1.765   3.702   1.033
 6172SOL     OW19414   1.895   1.521   3.488
 6172SOL    HW119415   1.962   1.455   3.454
 6172SOL    HW219416   1.915   1.611   3.451
 6173SOL     OW19417   6.380   5.024   2.165
 6173SOL    HW119418   6.336   5.024   2.075
 6173SOL    HW219419   6.410   5.117   2.188
 6174SOL     OW19420   5.305   5.257   3.517
 6174SOL    HW119421   5.228   5.273   3.456
 6174SOL    HW219422   5.332   5.161   3.512
 6175SOL     OW19423   4.492   0.616   3.564
 6175SOL    HW119424   4.557   0.666   3.507
 6175SOL    HW219425   4.512   0.518   3.559
 6176SOL     OW19426   5.706   3.053   6.958
 6176SOL    HW119427   5.668   3.140   6.928
 6176SOL    HW219428   5.664   3.026   0.024
 6177SOL     OW19429   5.767   0.744   1.062
 6177SOL    HW119430   5.691   0.784   1.114
 6177SOL    HW219431   5.800   0.811   0.995
 6178SOL     OW19432   4.652   4.487   3.299
 6178SOL    HW119433   4.651   4.428   3.380
 6178SOL    HW219434   4.729   4.550   3.304
 6179SOL     OW19435   6.797   4.667   4.143
 6179SOL    HW119436   6.820   4.764   4.149
 6179SOL    HW219437   6.706   4.652   4.182
 6180SOL     OW19438   3.928   4.962   0.062
 6180SOL    HW119439   4.007   4.904   0.083
 6180SOL    HW219440   3.856   4.946   0.129
 6181SOL     OW19441   3.566   6.812   0.548
 6181SOL    HW119442   3.649   6.861   0.521
 6181SOL    HW219443   3.493   6.878   0.564
 6182SOL     OW19444   5.367   3.345   5.675
 6182SOL    HW119445   5.438   3.400   5.718
 6182SOL    HW219446   5.340   3.387   5.589
 6183SOL     OW19447   2.244   1.194   3.063
 6183SOL    HW119448   2.233   1.289   3.034
 6183SOL    HW219449   2.341   1.172   3.070
 6184SOL     OW19450   1.976   6.716   5.952
 6184SOL    HW119451   1.943   6.632   5.995
 6184SOL    HW219452   2.015   6.776   6.023
 6185SOL     OW19453   6.921   4.214   6.723
 6185SOL    HW119454   7.016   4.212   6.690
 6185SOL    HW219455   6.900   4.305   6.759
 6186SOL     OW19456   6.495   6.636   5.798
 6186SOL    HW119457   6.428   6.602   5.864
 6186SOL    HW219458   6.581   6.588   5.811
 6187SOL     OW19459   4.682   4.610   2.975
 6187SOL    HW119460   4.643   4.524   3.008
 6187SOL    HW219461   4.643   4.686   3.026
 6188SOL     OW19462   2.401   0.241   0.856
 6188SOL    HW119463   2.466   0.222   0.783
 6188SOL    HW219464   2.441   0.307   0.920
 6189SOL     OW19465   4.932   4.215   3.721
 6189SOL    HW119466   5.016   4.188   3.769
 6189SOL    HW219467   4.916   4.313   3.734
 6190SOL     OW19468   7.009   3.915   5.732
 6190SOL    HW119469   0.060   3.845   5.733
 6190SOL    HW219470   6.944   3.896   5.806
 6191SOL     OW19471   4.069   2.030   0.002
 6191SOL    HW119472   3.982   1.988   6.997
 6191SOL    HW219473   4.093   2.002   0.095
 6192SOL     OW19474   4.262   2.884   6.632
 6192SOL    HW119475   4.225   2.811   6.690
 6192SOL    HW219476   4.197   2.904   6.559
 6193SOL     OW19477   5.082   1.340   2.321
 6193SOL    HW119478   4.983   1.345   2.337
 6193SOL    HW219479   5.099   1.320   2.224
 6194SOL     OW19480   1.189   0.040   0.562
 6194SOL    HW119481   1.167   6.974   0.517
 6194SOL    HW219482   1.112   0.103   0.552
 6195SOL     OW19483   4.670   6.623   5.472
 6195SOL    HW119484   4.739   6.593   5.538
 6195SOL    HW219485   4.688   6.583   5.383
 6196SOL     OW19486   5.873   2.456   1.752
 6196SOL    HW119487   5.868   2.395   1.831
 6196SOL    HW219488   5.940   2.420   1.686
 6197SOL     OW19489   4.409   4.717   0.832
 6197SOL    HW119490   4.332   4.672   0.877
 6197SOL    HW219491   4.484   4.728   0.898
 6198SOL     OW19492   3.785   6.238   2.142
 6198SOL    HW119493   3.823   6.146   2.147
 6198SOL    HW219494   3.851   6.303   2.181
 6199SOL     OW19495   0.698   0.449   0.826
 6199SOL    HW119496   0.737   0.357   0.829
 6199SOL    HW219497   0.767   0.513   0.792
 6200SOL     OW19498   1.382   1.077   5.440
 6200SOL    HW119499   1.335   1.058   5.526
 6200SOL    HW219500   1.442   1.156   5.451
 6201SOL     OW19501   0.853   3.324   5.349
 6201SOL    HW119502   0.761   3.360   5.332
 6201SOL    HW219503   0.907   3.392   5.398
 6202SOL     OW19504   3.973   1.631   2.381
 6202SOL    HW119505   3.936   1.723   2.364
 6202SOL    HW219506   3.901   1.563   2.366
 6203SOL     OW19507   6.442   6.826   3.337
 6203SOL    HW119508   6.460   6.893   3.409
 6203SOL    HW219509   6.529   6.795   3.298
 6204SOL     OW19510   0.938   5.690   4.808
 6204SOL    HW119511   0.973   5.656   4.722
 6204SOL    HW219512   1.007   5.679   4.879
 6205SOL     OW19513   6.262   6.243   0.332
 6205SOL    HW119514   6.313   6.157   0.324
 6205SOL    HW219515   6.324   6.316   0.361
 6206SOL     OW19516   0.313   1.052   3.125
 6206SOL    HW119517   0.307   1.152   3.124
 6206SOL    HW219518   0.247   1.014   3.061
 6207SOL     OW19519   1.564   5.047   4.795
 6207SOL    HW119520   1.500   4.992   4.849
 6207SOL    HW219521   1.657   5.032   4.829
 6208SOL     OW19522   5.908   1.669   6.286
 6208SOL    HW119523   5.919   1.712   6.376
 6208SOL    HW219524   5.995   1.672   6.238
 6209SOL     OW19525   4.638   5.716   0.017
 6209SOL    HW119526   4.648   5.722   6.939
 6209SOL    HW219527   4.661   5.624   0.048
 6210SOL     OW19528   4.874   3.256   3.483
 6210SOL    HW119529   4.970   3.230   3.488
 6210SOL    HW219530   4.847   3.268   3.388
 6211SOL     OW19531   3.100   6.366   5.544
 6211SOL    HW119532   3.032   6.296   5.520
 6211SOL    HW219533   3.059   6.457   5.536
 6212SOL     OW19534   1.902   5.269   3.831
 6212SOL    HW119535   1.811   5.292   3.866
 6212SOL    HW219536   1.898   5.261   3.731
 6213SOL     OW19537   5.514   0.143   0.136
 6213SOL    HW119538   5.586   0.127   0.069
 6213SOL    HW219539   5.447   0.069   0.130
 6214SOL     OW19540   4.946   4.907   4.961
 6214SOL    HW119541   4.890   4.942   5.036
 6214SOL    HW219542   4.890   4.846   4.903
 6215SOL     OW19543   4.417   1.327   0.722
 6215SOL    HW119544   4.512   1.357   0.733
 6215SOL    HW219545   4.409   1.231   0.748
 6216SOL     OW19546   6.175   1.269   2.285
 6216SOL    HW119547   6.209   1.245   2.194
 6216SOL    HW219548   6.125   1.192   2.322
 6217SOL     OW19549   0.084   3.464   2.065
 6217SOL    HW119550   0.113   3.436   2.157
 6217SOL    HW219551   0.011   3.404   2.034
 6218SOL     OW19552   4.072   5.378   6.079
 6218SOL    HW119553   3.986   5.429   6.078
 6218SOL    HW219554   4.122   5.398   6.162
 6219SOL     OW19555   0.540   2.820   4.063
 6219SOL    HW119556   0.482   2.812   4.143
 6219SOL    HW219557   0.495   2.776   3.985
 6220SOL     OW19558   1.647   2.249   5.282
 6220SOL    HW119559   1.555   2.244   5.321
 6220SOL    HW219560   1.713   2.266   5.354
 6221SOL     OW19561   5.823   5.561   6.884
 6221SOL    HW119562   5.789   5.469   6.901
 6221SOL    HW219563   5.805   5.618   6.965
 6222SOL     OW19564   0.422   6.994   1.724
 6222SOL    HW119565   0.370   7.003   1.639
 6222SOL    HW219566   0.360   6.977   1.800
 6223SOL     OW19567   0.449   5.146   4.284
 6223SOL    HW119568   0.351   5.128   4.274
 6223SOL    HW219569   0.491   5.153   4.194
 6224SOL     OW19570   2.457   1.663   6.246
 6224SOL    HW119571   2.432   1.754   6.213
 6224SOL    HW219572   2.556   1.655   6.249
 6225SOL     OW19573   3.817   4.073   6.671
 6225SOL    HW119574   3.742   4.047   6.611
 6225SOL    HW219575   3.899   4.020   6.648
 6226SOL     OW19576   6.747   1.404   5.386
 6226SOL    HW119577   6.777   1.401   5.291
 6226SOL    HW219578   6.805   1.466   5.438
 6227SOL     OW19579   3.605   5.977   5.435
 6227SOL    HW119580   3.625   5.883   5.410
 6227SOL    HW219581   3.511   5.983   5.469
 6228SOL     OW19582   1.250   2.430   3.362
 6228SOL    HW119583   1.295   2.374   3.432
 6228SOL    HW219584   1.236   2.523   3.397
 6229SOL     OW19585   0.312   2.238   3.313
 6229SOL    HW119586   0.247   2.171   3.349
 6229SOL    HW219587   0.398   2.192   3.290
 6230SOL     OW19588   1.339   1.665   3.715
 6230SOL    HW119589   1.339   1.647   3.617
 6230SOL    HW219590   1.246   1.657   3.750
 6231SOL     OW19591   6.093   5.386   1.303
 6231SOL    HW119592   6.152   5.307   1.319
 6231SOL    HW219593   6.057   5.382   1.210
 6232SOL     OW19594   6.595   0.563   1.098
 6232SOL    HW119595   6.632   0.542   1.007
 6232SOL    HW219596   6.528   0.637   1.091
 6233SOL     OW19597   6.367   0.713   1.023
 6233SOL    HW119598   6.284   0.710   1.078
 6233SOL    HW219599   6.365   0.641   0.954
 6234SOL     OW19600   6.185   1.266   5.599
 6234SOL    HW119601   6.260   1.230   5.544
 6234SOL    HW219602   6.222   1.310   5.681
 6235SOL     OW19603   1.009   6.620   1.489
 6235SOL    HW119604   1.043   6.708   1.454
 6235SOL    HW219605   0.975   6.565   1.412
 6236SOL     OW19606   0.844   3.457   0.727
 6236SOL    HW119607   0.840   3.516   0.807
 6236SOL    HW219608   0.849   3.361   0.757
 6237SOL     OW19609   3.086   6.761   6.781
 6237SOL    HW119610   3.170   6.762   6.835
 6237SOL    HW219611   3.100   6.705   6.699
 6238SOL     OW19612   4.031   4.776   2.626
 6238SOL    HW119613   3.941   4.761   2.668
 6238SOL    HW219614   4.022   4.780   2.527
 6239SOL     OW19615   2.038   0.583   1.960
 6239SOL    HW119616   2.060   0.680   1.956
 6239SOL    HW219617   2.090   0.539   2.033
 6240SOL     OW19618   2.062   3.211   5.733
 6240SOL    HW119619   2.037   3.201   5.830
 6240SOL    HW219620   2.140   3.153   5.713
 6241SOL     OW19621   3.942   0.084   1.659
 6241SOL    HW119622   3.866   0.049   1.605
 6241SOL    HW219623   3.913   0.095   1.754
 6242SOL     OW19624   4.592   0.363   3.583
 6242SOL    HW119625   4.686   0.345   3.613
 6242SOL    HW219626   4.551   0.278   3.550
 6243SOL     OW19627   6.360   6.617   4.375
 6243SOL    HW119628   6.434   6.585   4.316
 6243SOL    HW219629   6.274   6.616   4.325
 6244SOL     OW19630   0.062   2.617   1.883
 6244SOL    HW119631   0.077   2.518   1.882
 6244SOL    HW219632   0.147   2.663   1.909
 6245SOL     OW19633   1.565   3.997   0.339
 6245SOL    HW119634   1.619   4.052   0.275
 6245SOL    HW219635   1.581   4.031   0.432
 6246SOL     OW19636   2.537   2.002   5.604
 6246SOL    HW119637   2.594   2.075   5.566
 6246SOL    HW219638   2.442   2.015   5.577
 6247SOL     OW19639   1.156   6.191   4.563
 6247SOL    HW119640   1.153   6.256   4.639
 6247SOL    HW219641   1.062   6.161   4.543
 6248SOL     OW19642   3.974   2.904   0.291
 6248SOL    HW119643   3.992   2.973   0.361
 6248SOL    HW219644   4.030   2.823   0.307
 6249SOL     OW19645   1.046   3.971   0.960
 6249SOL    HW119646   1.022   4.048   1.019
 6249SOL    HW219647   1.025   3.995   0.865
 6250SOL     OW19648   6.721   6.676   0.212
 6250SOL    HW119649   6.684   6.712   0.126
 6250SOL    HW219650   6.767   6.589   0.194
 6251SOL     OW19651   4.140   5.321   6.633
 6251SOL    HW119652   4.168   5.226   6.642
 6251SOL    HW219653   4.221   5.379   6.623
 6252SOL     OW19654   1.509   6.573   5.570
 6252SOL    HW119655   1.444   6.650   5.572
 6252SOL    HW219656   1.529   6.549   5.475
 6253SOL     OW19657   2.128   4.349   3.159
 6253SOL    HW119658   2.079   4.263   3.149
 6253SOL    HW219659   2.071   4.415   3.209
 6254SOL     OW19660   5.436   1.561   1.311
 6254SOL    HW119661   5.422   1.546   1.213
 6254SOL    HW219662   5.508   1.629   1.324
 6255SOL     OW19663   3.445   0.504   1.361
 6255SOL    HW119664   3.534   0.512   1.317
 6255SOL    HW219665   3.393   0.429   1.320
 6256SOL     OW19666   3.461   5.305   1.881
 6256SOL    HW119667   3.410   5.323   1.966
 6256SOL    HW219668   3.396   5.289   1.807
 6257SOL     OW19669   5.085   2.168   0.766
 6257SOL    HW119670   5.171   2.153   0.717
 6257SOL    HW219671   5.009   2.141   0.707
 6258SOL     OW19672   3.796   6.854   3.765
 6258SOL    HW119673   3.806   6.755   3.776
 6258SOL    HW219674   3.841   6.901   3.841
 6259SOL     OW19675   2.527   2.712   0.419
 6259SOL    HW119676   2.431   2.703   0.392
 6259SOL    HW219677   2.540   2.675   0.511
 6260SOL     OW19678   3.191   5.356   6.901
 6260SOL    HW119679   3.244   5.398   6.975
 6260SOL    HW219680   3.199   5.257   6.905
 6261SOL     OW19681   3.874   0.948   6.681
 6261SOL    HW119682   3.943   0.930   6.611
 6261SOL    HW219683   3.846   1.044   6.677
 6262SOL     OW19684   2.652   6.235   1.129
 6262SOL    HW119685   2.610   6.148   1.102
 6262SOL    HW219686   2.657   6.240   1.229
 6263SOL     OW19687   6.548   0.712   5.254
 6263SOL    HW119688   6.577   0.726   5.159
 6263SOL    HW219689   6.626   0.683   5.309
 6264SOL     OW19690   1.419   6.656   2.262
 6264SOL    HW119691   1.380   6.702   2.182
 6264SOL    HW219692   1.499   6.707   2.294
 6265SOL     OW19693   3.676   3.959   0.340
 6265SOL    HW119694   3.745   3.932   0.407
 6265SOL    HW219695   3.588   3.972   0.386
 6266SOL     OW19696   4.108   0.870   4.685
 6266SOL    HW119697   4.031   0.806   4.690
 6266SOL    HW219698   4.088   0.951   4.740
 6267SOL     OW19699   2.454   0.266   6.229
 6267SOL    HW119700   2.504   0.353   6.229
 6267SOL    HW219701   2.430   0.241   6.322
 6268SOL     OW19702   2.820   0.437   3.433
 6268SOL    HW119703   2.764   0.374   3.381
 6268SOL    HW219704   2.808   0.530   3.397
 6269SOL     OW19705   7.010   6.537   1.662
 6269SOL    HW119706   0.071   6.497   1.703
 6269SOL    HW219707   7.003   6.508   1.567
 6270SOL     OW19708   1.679   0.326   5.266
 6270SOL    HW119709   1.702   0.367   5.178
 6270SOL    HW219710   1.711   0.231   5.268
 6271SOL     OW19711   6.535   2.289   0.159
 6271SOL    HW119712   6.445   2.247   0.152
 6271SOL    HW219713   6.593   2.257   0.084
 6272SOL     OW19714   0.302   2.456   0.065
 6272SOL    HW119715   0.374   2.525   0.056
 6272SOL    HW219716   0.228   2.478   0.001
 6273SOL     OW19717   1.415   6.604   2.524
 6273SOL    HW119718   1.421   6.614   2.425
 6273SOL    HW219719   1.437   6.509   2.549
 6274SOL     OW19720   3.420   5.697   5.718
 6274SOL    HW119721   3.383   5.690   5.626
 6274SOL    HW219722   3.362   5.646   5.782
 6275SOL     OW19723   2.349   6.568   6.232
 6275SOL    HW119724   2.428   6.609   6.278
 6275SOL    HW219725   2.290   6.523   6.300
 6276SOL     OW19726   1.528   4.034   3.108
 6276SOL    HW119727   1.478   3.951   3.086
 6276SOL    HW219728   1.607   4.012   3.165
 6277SOL     OW19729   5.742   3.520   2.176
 6277SOL    HW119730   5.831   3.563   2.191
 6277SOL    HW219731   5.700   3.558   2.094
 6278SOL     OW19732   5.263   6.185   4.965
 6278SOL    HW119733   5.329   6.199   5.038
 6278SOL    HW219734   5.175   6.226   4.991
 6279SOL     OW19735   3.663   0.140   6.901
 6279SOL    HW119736   3.749   0.150   6.951
 6279SOL    HW219737   3.637   0.043   6.898
 6280SOL     OW19738   0.973   2.099   5.403
 6280SOL    HW119739   0.886   2.056   5.425
 6280SOL    HW219740   0.957   2.175   5.339
 6281SOL     OW19741   0.932   5.528   3.811
 6281SOL    HW119742   1.029   5.536   3.833
 6281SOL    HW219743   0.881   5.601   3.857
 6282SOL     OW19744   1.174   5.924   5.247
 6282SOL    HW119745   1.160   5.946   5.150
 6282SOL    HW219746   1.272   5.923   5.267
 6283SOL     OW19747   6.024   3.362   5.509
 6283SOL    HW119748   6.033   3.280   5.566
 6283SOL    HW219749   6.115   3.390   5.477
 6284SOL     OW19750   1.217   5.607   4.862
 6284SOL    HW119751   1.261   5.576   4.946
 6284SOL    HW219752   1.178   5.529   4.813
 6285SOL     OW19753   0.474   3.583   4.630
 6285SOL    HW119754   0.467   3.636   4.714
 6285SOL    HW219755   0.413   3.504   4.635
 6286SOL     OW19756   5.884   1.665   3.659
 6286SOL    HW119757   5.952   1.638   3.590
 6286SOL    HW219758   5.887   1.601   3.735
 6287SOL     OW19759   3.705   5.091   4.042
 6287SOL    HW119760   3.743   5.159   3.980
 6287SOL    HW219761   3.651   5.025   3.990
 6288SOL     OW19762   4.753   4.183   2.953
 6288SOL    HW119763   4.776   4.095   2.912
 6288SOL    HW219764   4.771   4.180   3.051
 6289SOL     OW19765   2.185   4.792   1.097
 6289SOL    HW119766   2.088   4.773   1.113
 6289SOL    HW219767   2.238   4.709   1.116
 6290SOL     OW19768   0.151   5.009   5.589
 6290SOL    HW119769   0.137   4.984   5.493
 6290SOL    HW219770   0.077   5.068   5.620
 6291SOL     OW19771   4.067   3.374   4.565
 6291SOL    HW119772   4.166   3.363   4.550
 6291SOL    HW219773   4.031   3.294   4.613
 6292SOL     OW19774   1.614   2.189   4.260
 6292SOL    HW119775   1.630   2.286   4.247
 6292SOL    HW219776   1.516   2.170   4.259
 6293SOL     OW19777   3.544   1.196   0.202
 6293SOL    HW119778   3.571   1.103   0.226
 6293SOL    HW219779   3.569   1.258   0.276
 6294SOL     OW19780   4.410   5.643   4.136
 6294SOL    HW119781   4.446   5.696   4.212
 6294SOL    HW219782   4.435   5.687   4.049
 6295SOL     OW19783   5.310   4.535   6.431
 6295SOL    HW119784   5.288   4.533   6.529
 6295SOL    HW219785   5.251   4.602   6.385
 6296SOL     OW19786   0.546   6.613   5.716
 6296SOL    HW119787   0.646   6.612   5.719
 6296SOL    HW219788   0.515   6.702   5.683
 6297SOL     OW19789   4.398   7.003   3.758
 6297SOL    HW119790   4.475   6.950   3.794
 6297SOL    HW219791   4.360   0.039   3.830
 6298SOL     OW19792   1.330   2.754   6.529
 6298SOL    HW119793   1.377   2.795   6.607
 6298SOL    HW219794   1.299   2.827   6.467
 6299SOL     OW19795   5.600   2.277   0.122
 6299SOL    HW119796   5.588   2.361   0.070
 6299SOL    HW219797   5.517   2.256   0.172
 6300SOL     OW19798   6.162   0.700   0.590
 6300SOL    HW119799   6.121   0.706   0.499
 6300SOL    HW219800   6.102   0.648   0.650
 6301SOL     OW19801   3.541   0.026   0.169
 6301SOL    HW119802   3.488   0.098   0.213
 6301SOL    HW219803   3.495   7.020   0.084
 6302SOL     OW19804   2.171   0.953   2.970
 6302SOL    HW119805   2.208   1.041   2.998
 6302SOL    HW219806   2.105   0.966   2.896
 6303SOL     OW19807   1.746   1.549   4.276
 6303SOL    HW119808   1.726   1.641   4.241
 6303SOL    HW219809   1.727   1.481   4.205
 6304SOL     OW19810   2.300   0.543   1.450
 6304SOL    HW119811   2.217   0.487   1.452
 6304SOL    HW219812   2.379   0.488   1.475
 6305SOL     OW19813   6.340   6.795   1.327
 6305SOL    HW119814   6.243   6.770   1.329
 6305SOL    HW219815   6.360   6.855   1.404
 6306SOL     OW19816   0.567   4.302   3.974
 6306SOL    HW119817   0.537   4.334   4.063
 6306SOL    HW219818   0.630   4.368   3.934
 6307SOL     OW19819   3.452   4.155   5.524
 6307SOL    HW119820   3.468   4.057   5.524
 6307SOL    HW219821   3.376   4.177   5.463
 6308SOL     OW19822   2.062   2.178   4.545
 6308SOL    HW119823   2.069   2.080   4.528
 6308SOL    HW219824   2.148   2.212   4.583
 6309SOL     OW19825   5.404   4.655   5.697
 6309SOL    HW119826   5.355   4.571   5.677
 6309SOL    HW219827   5.502   4.637   5.699
 6310SOL     OW19828   1.640   6.043   2.598
 6310SOL    HW119829   1.691   6.043   2.684
 6310SOL    HW219830   1.704   6.044   2.521
 6311SOL     OW19831   4.560   0.942   6.016
 6311SOL    HW119832   4.471   0.989   6.011
 6311SOL    HW219833   4.603   0.944   5.926
 6312SOL     OW19834   6.098   6.045   5.691
 6312SOL    HW119835   6.156   6.042   5.610
 6312SOL    HW219836   6.112   5.962   5.745
 6313SOL     OW19837   1.083   6.383   4.821
 6313SOL    HW119838   1.081   6.482   4.834
 6313SOL    HW219839   0.990   6.348   4.813
 6314SOL     OW19840   3.710   6.604   1.524
 6314SOL    HW119841   3.624   6.635   1.566
 6314SOL    HW219842   3.739   6.518   1.566
 6315SOL     OW19843   1.838   2.515   5.729
 6315SOL    HW119844   1.839   2.560   5.640
 6315SOL    HW219845   1.910   2.447   5.733
 6316SOL     OW19846   4.923   1.506   6.789
 6316SOL    HW119847   4.856   1.565   6.743
 6316SOL    HW219848   4.878   1.421   6.817
 6317SOL     OW19849   4.552   5.578   1.656
 6317SOL    HW119850   4.582   5.505   1.718
 6317SOL    HW219851   4.455   5.594   1.668
 6318SOL     OW19852   3.682   1.171   5.323
 6318SOL    HW119853   3.714   1.206   5.235
 6318SOL    HW219854   3.592   1.129   5.312
 6319SOL     OW19855   6.436   1.063   4.752
 6319SOL    HW119856   6.490   0.995   4.704
 6319SOL    HW219857   6.370   1.105   4.689
 6320SOL     OW19858   5.698   5.896   5.405
 6320SOL    HW119859   5.686   5.954   5.325
 6320SOL    HW219860   5.612   5.850   5.427
 6321SOL     OW19861   3.245   3.190   1.025
 6321SOL    HW119862   3.160   3.142   1.046
 6321SOL    HW219863   3.260   3.262   1.093
 6322SOL     OW19864   1.807   2.488   0.166
 6322SOL    HW119865   1.866   2.444   0.098
 6322SOL    HW219866   1.861   2.553   0.219
 6323SOL     OW19867   3.268   2.870   1.840
 6323SOL    HW119868   3.188   2.922   1.871
 6323SOL    HW219869   3.272   2.872   1.740
 6324SOL     OW19870   5.144   0.097   6.832
 6324SOL    HW119871   5.226   0.050   6.798
 6324SOL    HW219872   5.133   0.079   6.930
 6325SOL     OW19873   1.715   1.941   2.202
 6325SOL    HW119874   1.686   1.867   2.141
 6325SOL    HW219875   1.772   1.903   2.275
 6326SOL     OW19876   4.868   5.480   1.532
 6326SOL    HW119877   4.910   5.431   1.455
 6326SOL    HW219878   4.817   5.414   1.588
 6327SOL     OW19879   6.715   0.612   4.537
 6327SOL    HW119880   6.673   0.537   4.486
 6327SOL    HW219881   6.782   0.575   4.601
 6328SOL     OW19882   3.410   3.291   0.662
 6328SOL    HW119883   3.322   3.306   0.707
 6328SOL    HW219884   3.464   3.226   0.716
 6329SOL     OW19885   1.913   2.300   3.904
 6329SOL    HW119886   1.952   2.388   3.877
 6329SOL    HW219887   1.972   2.257   3.973
 6330SOL     OW19888   5.071   0.628   1.048
 6330SOL    HW119889   4.975   0.608   1.065
 6330SOL    HW219890   5.119   0.544   1.025
 6331SOL     OW19891   6.403   3.107   5.903
 6331SOL    HW119892   6.469   3.056   5.848
 6331SOL    HW219893   6.439   3.199   5.920
 6332SOL     OW19894   0.026   3.760   1.526
 6332SOL    HW119895   0.006   3.857   1.509
 6332SOL    HW219896   0.027   3.710   1.440
 6333SOL     OW19897   4.704   5.999   5.243
 6333SOL    HW119898   4.650   6.001   5.327
 6333SOL    HW219899   4.685   5.915   5.193
 6334SOL     OW19900   3.040   0.499   2.036
 6334SOL    HW119901   2.980   0.464   2.107
 6334SOL    HW219902   2.998   0.579   1.992
 6335SOL     OW19903   3.727   0.854   0.496
 6335SOL    HW119904   3.767   0.940   0.527
 6335SOL    HW219905   3.801   0.788   0.481
 6336SOL     OW19906   0.649   2.275   5.907
 6336SOL    HW119907   0.618   2.367   5.933
 6336SOL    HW219908   0.743   2.262   5.937
 6337SOL     OW19909   5.176   4.434   6.008
 6337SOL    HW119910   5.236   4.514   6.001
 6337SOL    HW219911   5.081   4.463   6.000
 6338SOL     OW19912   3.724   1.835   4.683
 6338SOL    HW119913   3.740   1.934   4.681
 6338SOL    HW219914   3.630   1.817   4.712
 6339SOL     OW19915   1.306   3.837   3.046
 6339SOL    HW119916   1.224   3.794   3.085
 6339SOL    HW219917   1.291   3.853   2.948
 6340SOL     OW19918   1.483   5.093   2.627
 6340SOL    HW119919   1.506   4.998   2.604
 6340SOL    HW219920   1.566   5.149   2.623
 6341SOL     OW19921   0.875   4.395   4.496
 6341SOL    HW119922   0.964   4.419   4.533
 6341SOL    HW219923   0.817   4.477   4.490
 6342SOL     OW19924   1.824   1.425   1.998
 6342SOL    HW119925   1.793   1.398   1.907
 6342SOL    HW219926   1.811   1.349   2.061
 6343SOL     OW19927   5.161   2.121   0.018
 6343SOL    HW119928   5.245   2.142   6.988
 6343SOL    HW219929   5.185   2.088   0.109
 6344SOL     OW19930   5.901   3.453   4.609
 6344SOL    HW119931   5.843   3.438   4.529
 6344SOL    HW219932   5.951   3.369   4.630
 6345SOL     OW19933   5.830   2.684   2.136
 6345SOL    HW119934   5.891   2.664   2.213
 6345SOL    HW219935   5.884   2.704   2.055
 6346SOL     OW19936   6.555   5.531   3.774
 6346SOL    HW119937   6.540   5.443   3.817
 6346SOL    HW219938   6.468   5.578   3.761
 6347SOL     OW19939   2.196   0.023   0.405
 6347SOL    HW119940   2.238   6.975   0.345
 6347SOL    HW219941   2.102   0.039   0.376
 6348SOL     OW19942   0.718   3.671   5.640
 6348SOL    HW119943   0.750   3.577   5.652
 6348SOL    HW219944   0.760   3.729   5.709
 6349SOL     OW19945   2.301   0.322   1.697
 6349SOL    HW119946   2.327   0.299   1.603
 6349SOL    HW219947   2.229   0.392   1.695
 6350SOL     OW19948   1.276   5.449   3.921
 6350SOL    HW119949   1.292   5.458   4.020
 6350SOL    HW219950   1.212   5.373   3.905
 6351SOL     OW19951   6.235   3.970   3.619
 6351SOL    HW119952   6.282   4.035   3.560
 6351SOL    HW219953   6.276   3.879   3.609
 6352SOL     OW19954   3.728   6.085   4.921
 6352SOL    HW119955   3.816   6.124   4.892
 6352SOL    HW219956   3.742   6.026   5.000
 6353SOL     OW19957   0.726   0.127   5.757
 6353SOL    HW119958   0.761   0.218   5.780
 6353SOL    HW219959   0.801   0.061   5.761
 6354SOL     OW19960   2.032   5.690   2.866
 6354SOL    HW119961   2.127   5.695   2.898
 6354SOL    HW219962   2.020   5.751   2.788
 6355SOL     OW19963   0.818   5.179   6.332
 6355SOL    HW119964   0.782   5.226   6.413
 6355SOL    HW219965   0.782   5.221   6.249
 6356SOL     OW19966   4.285   5.510   1.771
 6356SOL    HW119967   4.297   5.433   1.834
 6356SOL    HW219968   4.209   5.566   1.802
 6357SOL     OW19969   5.859   3.492   2.754
 6357SOL    HW119970   5.883   3.421   2.820
 6357SOL    HW219971   5.762   3.513   2.762
 6358SOL     OW19972   0.817   2.184   6.575
 6358SOL    HW119973   0.731   2.207   6.528
 6358SOL    HW219974   0.845   2.260   6.632
 6359SOL     OW19975   5.315   6.724   6.830
 6359SOL    HW119976   5.407   6.693   6.856
 6359SOL    HW219977   5.300   6.816   6.865
 6360SOL     OW19978   1.100   4.146   3.766
 6360SOL    HW119979   1.183   4.141   3.821
 6360SOL    HW219980   1.079   4.242   3.746
 6361SOL     OW19981   0.104   7.014   1.604
 6361SOL    HW119982   0.185   6.980   1.556
 6361SOL    HW219983   0.063   0.067   1.551
 6362SOL     OW19984   6.866   6.469   0.164
 6362SOL    HW119985   6.851   6.397   0.096
 6362SOL    HW219986   6.964   6.482   0.176
 6363SOL     OW19987   1.734   4.633   3.467
 6363SOL    HW119988   1.766   4.666   3.556
 6363SOL    HW219989   1.781   4.682   3.394
 6364SOL     OW19990   2.848   1.182   6.126
 6364SOL    HW119991   2.864   1.173   6.224
 6364SOL    HW219992   2.784   1.110   6.096
 6365SOL     OW19993   5.806   0.109   4.091
 6365SOL    HW119994   5.827   0.200   4.127
 6365SOL    HW219995   5.709   0.089   4.106
 6366SOL     OW19996   0.822   6.158   5.690
 6366SOL    HW119997   0.862   6.238   5.645
 6366SOL    HW219998   0.766   6.187   5.768
 6367SOL     OW19999   4.477   1.536   5.537
 6367SOL    HW120000   4.388   1.581   5.527
 6367SOL    HW220001   4.475   1.448   5.491
 6368SOL     OW20002   3.729   4.893   3.383
 6368SOL    HW120003   3.718   4.984   3.423
 6368SOL    HW220004   3.761   4.901   3.289
 6369SOL     OW20005   2.026   5.683   3.335
 6369SOL    HW120006   2.024   5.780   3.312
 6369SOL    HW220007   1.934   5.655   3.365
 6370SOL     OW20008   0.629   3.458   3.257
 6370SOL    HW120009   0.617   3.405   3.341
 6370SOL    HW220010   0.570   3.539   3.260
 6371SOL     OW20011   5.289   4.462   4.091
 6371SOL    HW120012   5.374   4.409   4.080
 6371SOL    HW220013   5.287   4.535   4.024
 6372SOL     OW20014   2.065   0.540   2.409
 6372SOL    HW120015   2.118   0.539   2.324
 6372SOL    HW220016   1.984   0.596   2.397
 6373SOL     OW20017   5.049   3.478   2.747
 6373SOL    HW120018   4.983   3.437   2.684
 6373SOL    HW220019   5.072   3.570   2.715
 6374SOL     OW20020   3.226   3.816   3.737
 6374SOL    HW120021   3.127   3.806   3.728
 6374SOL    HW220022   3.247   3.880   3.810
 6375SOL     OW20023   6.972   2.085   3.681
 6375SOL    HW120024   6.918   2.144   3.741
 6375SOL    HW220025   0.008   2.142   3.621
 6376SOL     OW20026   6.465   2.528   4.911
 6376SOL    HW120027   6.506   2.521   5.002
 6376SOL    HW220028   6.368   2.551   4.921
 6377SOL     OW20029   6.008   2.181   5.619
 6377SOL    HW120030   5.987   2.241   5.542
 6377SOL    HW220031   5.997   2.231   5.705
 6378SOL     OW20032   4.537   5.430   4.030
 6378SOL    HW120033   4.483   5.497   4.081
 6378SOL    HW220034   4.620   5.409   4.082
 6379SOL     OW20035   1.816   3.837   4.139
 6379SOL    HW120036   1.886   3.907   4.123
 6379SOL    HW220037   1.742   3.849   4.073
 6380SOL     OW20038   0.201   1.817   5.591
 6380SOL    HW120039   0.223   1.760   5.671
 6380SOL    HW220040   0.281   1.870   5.565
 6381SOL     OW20041   3.952   3.329   1.747
 6381SOL    HW120042   3.947   3.232   1.770
 6381SOL    HW220043   3.981   3.339   1.652
 6382SOL     OW20044   1.505   1.987   1.023
 6382SOL    HW120045   1.528   1.909   1.081
 6382SOL    HW220046   1.413   2.019   1.045
 6383SOL     OW20047   1.519   1.601   2.826
 6383SOL    HW120048   1.505   1.665   2.902
 6383SOL    HW220049   1.600   1.546   2.843
 6384SOL     OW20050   6.000   4.131   1.821
 6384SOL    HW120051   5.980   4.201   1.889
 6384SOL    HW220052   6.097   4.106   1.826
 6385SOL     OW20053   0.231   4.598   3.936
 6385SOL    HW120054   0.144   4.569   3.975
 6385SOL    HW220055   0.237   4.567   3.841
 6386SOL     OW20056   2.133   4.328   6.068
 6386SOL    HW120057   2.155   4.419   6.103
 6386SOL    HW220058   2.076   4.336   5.986
 6387SOL     OW20059   0.127   1.560   6.588
 6387SOL    HW120060   0.068   1.571   6.508
 6387SOL    HW220061   0.197   1.631   6.589
 6388SOL     OW20062   3.531   5.003   1.546
 6388SOL    HW120063   3.519   5.081   1.485
 6388SOL    HW220064   3.627   4.997   1.574
 6389SOL     OW20065   0.624   5.761   2.431
 6389SOL    HW120066   0.527   5.773   2.452
 6389SOL    HW220067   0.639   5.774   2.333
 6390SOL     OW20068   0.739   1.212   5.849
 6390SOL    HW120069   0.758   1.287   5.913
 6390SOL    HW220070   0.740   1.247   5.756
 6391SOL     OW20071   2.183   0.073   5.913
 6391SOL    HW120072   2.238   0.032   5.987
 6391SOL    HW220073   2.179   0.172   5.926
 6392SOL     OW20074   2.649   5.697   2.722
 6392SOL    HW120075   2.616   5.736   2.636
 6392SOL    HW220076   2.672   5.770   2.786
 6393SOL     OW20077   6.776   0.002   2.207
 6393SOL    HW120078   6.838   0.035   2.136
 6393SOL    HW220079   6.697   6.980   2.165
 6394SOL     OW20080   2.108   5.185   0.879
 6394SOL    HW120081   2.099   5.269   0.933
 6394SOL    HW220082   2.148   5.113   0.935
 6395SOL     OW20083   6.828   2.113   0.901
 6395SOL    HW120084   6.892   2.171   0.852
 6395SOL    HW220085   6.877   2.040   0.947
 6396SOL     OW20086   4.861   3.236   6.183
 6396SOL    HW120087   4.869   3.138   6.166
 6396SOL    HW220088   4.885   3.255   6.278
 6397SOL     OW20089   5.549   2.546   6.580
 6397SOL    HW120090   5.561   2.485   6.658
 6397SOL    HW220091   5.486   2.620   6.604
 6398SOL     OW20092   2.370   6.938   0.761
 6398SOL    HW120093   2.320   6.939   0.675
 6398SOL    HW220094   2.307   6.917   0.836
 6399SOL     OW20095   1.633   6.184   6.654
 6399SOL    HW120096   1.621   6.239   6.572
 6399SOL    HW220097   1.723   6.139   6.651
 6400SOL     OW20098   2.238   6.816   2.300
 6400SOL    HW120099   2.328   6.861   2.299
 6400SOL    HW220100   2.225   6.768   2.213
 6401SOL     OW20101   5.929   4.935   3.818
 6401SOL    HW120102   5.969   5.003   3.879
 6401SOL    HW220103   5.909   4.977   3.729
 6402SOL     OW20104   3.738   2.124   3.228
 6402SOL    HW120105   3.782   2.152   3.314
 6402SOL    HW220106   3.669   2.055   3.247
 6403SOL     OW20107   6.781   6.245   6.529
 6403SOL    HW120108   6.805   6.148   6.543
 6403SOL    HW220109   6.861   6.294   6.495
 6404SOL     OW20110   4.247   1.784   2.130
 6404SOL    HW120111   4.180   1.840   2.081
 6404SOL    HW220112   4.328   1.771   2.073
 6405SOL     OW20113   2.996   0.540   3.995
 6405SOL    HW120114   2.914   0.550   4.051
 6405SOL    HW220115   3.078   0.550   4.052
 6406SOL     OW20116   1.169   2.471   3.119
 6406SOL    HW120117   1.075   2.503   3.131
 6406SOL    HW220118   1.211   2.455   3.208
 6407SOL     OW20119   3.001   5.952   4.065
 6407SOL    HW120120   2.957   5.889   4.001
 6407SOL    HW220121   3.062   6.012   4.014
 6408SOL     OW20122   5.801   2.127   0.178
 6408SOL    HW120123   5.858   2.177   0.243
 6408SOL    HW220124   5.733   2.189   0.140
 6409SOL     OW20125   0.101   4.704   3.372
 6409SOL    HW120126   0.175   4.718   3.437
 6409SOL    HW220127   0.092   4.785   3.314
 6410SOL     OW20128   1.553   1.804   0.663
 6410SOL    HW120129   1.566   1.761   0.574
 6410SOL    HW220130   1.621   1.876   0.676
 6411SOL     OW20131   0.957   2.566   3.438
 6411SOL    HW120132   1.014   2.648   3.450
 6411SOL    HW220133   0.982   2.499   3.508
 6412SOL     OW20134   0.597   2.241   5.198
 6412SOL    HW120135   0.576   2.179   5.122
 6412SOL    HW220136   0.524   2.235   5.266
 6413SOL     OW20137   4.257   4.899   3.923
 6413SOL    HW120138   4.229   4.871   4.015
 6413SOL    HW220139   4.357   4.899   3.917
 6414SOL     OW20140   5.922   0.987   0.576
 6414SOL    HW120141   5.938   1.085   0.579
 6414SOL    HW220142   5.918   0.956   0.481
 6415SOL     OW20143   1.570   2.789   3.155
 6415SOL    HW120144   1.589   2.885   3.135
 6415SOL    HW220145   1.654   2.745   3.187
 6416SOL     OW20146   0.909   1.294   6.257
 6416SOL    HW120147   0.829   1.286   6.317
 6416SOL    HW220148   0.975   1.223   6.280
 6417SOL     OW20149   6.839   5.320   1.631
 6417SOL    HW120150   6.841   5.230   1.590
 6417SOL    HW220151   6.861   5.313   1.728
 6418SOL     OW20152   4.618   4.287   1.636
 6418SOL    HW120153   4.687   4.263   1.704
 6418SOL    HW220154   4.528   4.292   1.680
 6419SOL     OW20155   1.906   4.749   3.274
 6419SOL    HW120156   1.970   4.826   3.268
 6419SOL    HW220157   1.849   4.747   3.193
 6420SOL     OW20158   3.205   4.970   4.603
 6420SOL    HW120159   3.257   4.935   4.526
 6420SOL    HW220160   3.266   5.012   4.670
 6421SOL     OW20161   4.865   0.642   2.967
 6421SOL    HW120162   4.888   0.672   2.874
 6421SOL    HW220163   4.875   0.719   3.030
 6422SOL     OW20164   0.457   0.970   4.186
 6422SOL    HW120165   0.480   0.876   4.160
 6422SOL    HW220166   0.541   1.023   4.194
 6423SOL     OW20167   4.412   5.682   2.596
 6423SOL    HW120168   4.462   5.768   2.600
 6423SOL    HW220169   4.380   5.666   2.503
 6424SOL     OW20170   0.078   5.974   6.173
 6424SOL    HW120171   7.007   5.952   6.205
 6424SOL    HW220172   0.100   6.069   6.196
 6425SOL     OW20173   6.482   5.982   2.940
 6425SOL    HW120174   6.577   6.004   2.915
 6425SOL    HW220175   6.425   5.982   2.858
 6426SOL     OW20176   1.129   5.014   2.715
 6426SOL    HW120177   1.196   4.942   2.731
 6426SOL    HW220178   1.176   5.099   2.692
 6427SOL     OW20179   3.695   3.173   4.934
 6427SOL    HW120180   3.739   3.108   4.872
 6427SOL    HW220181   3.735   3.264   4.921
 6428SOL     OW20182   5.888   3.347   6.398
 6428SOL    HW120183   5.891   3.353   6.298
 6428SOL    HW220184   5.796   3.371   6.430
 6429SOL     OW20185   2.129   1.834   6.147
 6429SOL    HW120186   2.226   1.821   6.130
 6429SOL    HW220187   2.115   1.889   6.229
 6430SOL     OW20188   5.969   0.929   1.994
 6430SOL    HW120189   5.989   0.867   1.918
 6430SOL    HW220190   5.896   0.890   2.051
 6431SOL     OW20191   5.123   6.909   3.510
 6431SOL    HW120192   5.097   6.817   3.540
 6431SOL    HW220193   5.161   6.960   3.588
 6432SOL     OW20194   4.151   4.118   6.624
 6432SOL    HW120195   4.221   4.159   6.565
 6432SOL    HW220196   4.106   4.043   6.575
 6433SOL     OW20197   2.280   4.124   6.654
 6433SOL    HW120198   2.223   4.205   6.668
 6433SOL    HW220199   2.373   4.152   6.632
 6434SOL     OW20200   2.006   4.362   0.345
 6434SOL    HW120201   2.038   4.443   0.394
 6434SOL    HW220202   2.083   4.319   0.297
 6435SOL     OW20203   4.465   6.600   0.053
 6435SOL    HW120204   4.494   6.507   0.074
 6435SOL    HW220205   4.394   6.629   0.117
 6436SOL     OW20206   2.111   3.292   3.597
 6436SOL    HW120207   2.137   3.273   3.503
 6436SOL    HW220208   2.179   3.254   3.659
 6437SOL     OW20209   2.451   1.777   0.999
 6437SOL    HW120210   2.433   1.839   1.076
 6437SOL    HW220211   2.381   1.706   0.996
 6438SOL     OW20212   6.651   4.547   6.434
 6438SOL    HW120213   6.673   4.607   6.357
 6438SOL    HW220214   6.718   4.561   6.507
 6439SOL     OW20215   5.337   0.912   1.657
 6439SOL    HW120216   5.335   0.873   1.565
 6439SOL    HW220217   5.370   0.844   1.722
 6440SOL     OW20218   2.235   1.534   6.666
 6440SOL    HW120219   2.176   1.493   6.597
 6440SOL    HW220220   2.182   1.601   6.719
 6441SOL     OW20221   0.228   6.438   1.786
 6441SOL    HW120222   0.230   6.473   1.880
 6441SOL    HW220223   0.321   6.412   1.759
 6442SOL     OW20224   2.452   0.815   4.450
 6442SOL    HW120225   2.523   0.753   4.484
 6442SOL    HW220226   2.427   0.790   4.357
 6443SOL     OW20227   3.924   2.514   5.345
 6443SOL    HW120228   3.988   2.555   5.280
 6443SOL    HW220229   3.898   2.423   5.313
 6444SOL     OW20230   6.549   3.016   4.094
 6444SOL    HW120231   6.599   2.970   4.020
 6444SOL    HW220232   6.451   3.004   4.080
 6445SOL     OW20233   4.236   3.517   5.511
 6445SOL    HW120234   4.213   3.524   5.608
 6445SOL    HW220235   4.332   3.541   5.497
 6446SOL     OW20236   1.581   1.485   6.186
 6446SOL    HW120237   1.595   1.392   6.220
 6446SOL    HW220238   1.628   1.496   6.098
 6447SOL     OW20239   5.649   5.146   3.035
 6447SOL    HW120240   5.680   5.119   2.944
 6447SOL    HW220241   5.612   5.239   3.032
 6448SOL     OW20242   3.996   5.710   2.116
 6448SOL    HW120243   3.912   5.744   2.158
 6448SOL    HW220244   4.046   5.786   2.074
 6449SOL     OW20245   2.650   4.713   0.735
 6449SOL    HW120246   2.582   4.662   0.786
 6449SOL    HW220247   2.695   4.780   0.796
 6450SOL     OW20248   1.356   3.938   0.613
 6450SOL    HW120249   1.309   3.850   0.624
 6450SOL    HW220250   1.291   4.005   0.576
 6451SOL     OW20251   2.681   0.614   4.826
 6451SOL    HW120252   2.724   0.534   4.868
 6451SOL    HW220253   2.705   0.695   4.878
 6452SOL     OW20254   3.805   6.539   4.539
 6452SOL    HW120255   3.825   6.593   4.458
 6452SOL    HW220256   3.767   6.598   4.610
 6453SOL     OW20257   2.466   5.865   1.396
 6453SOL    HW120258   2.464   5.817   1.308
 6453SOL    HW220259   2.545   5.926   1.398
 6454SOL     OW20260   2.315   2.303   3.545
 6454SOL    HW120261   2.349   2.297   3.451
 6454SOL    HW220262   2.269   2.218   3.569
 6455SOL     OW20263   0.104   2.858   3.709
 6455SOL    HW120264   0.157   2.935   3.743
 6455SOL    HW220265   0.011   2.888   3.689
 6456SOL     OW20266   1.713   0.652   3.553
 6456SOL    HW120267   1.786   0.712   3.586
 6456SOL    HW220268   1.679   0.596   3.628
 6457SOL     OW20269   5.222   1.549   1.007
 6457SOL    HW120270   5.240   1.648   1.003
 6457SOL    HW220271   5.309   1.500   1.018
 6458SOL     OW20272   0.927   6.690   3.859
 6458SOL    HW120273   0.972   6.772   3.895
 6458SOL    HW220274   0.988   6.612   3.869
 6459SOL     OW20275   6.214   3.928   0.346
 6459SOL    HW120276   6.226   3.832   0.369
 6459SOL    HW220277   6.221   3.940   0.247
 6460SOL     OW20278   5.035   6.224   6.021
 6460SOL    HW120279   4.955   6.180   5.980
 6460SOL    HW220280   5.005   6.285   6.095
 6461SOL     OW20281   2.445   4.940   5.891
 6461SOL    HW120282   2.427   4.846   5.862
 6461SOL    HW220283   2.513   4.941   5.963
 6462SOL     OW20284   2.449   2.569   4.989
 6462SOL    HW120285   2.537   2.521   4.983
 6462SOL    HW220286   2.409   2.577   4.898
 6463SOL     OW20287   6.677   3.420   6.932
 6463SOL    HW120288   6.666   3.442   6.835
 6463SOL    HW220289   6.711   3.326   6.941
 6464SOL     OW20290   1.501   5.587   4.281
 6464SOL    HW120291   1.416   5.536   4.271
 6464SOL    HW220292   1.505   5.661   4.213
 6465SOL     OW20293   6.510   2.785   2.914
 6465SOL    HW120294   6.524   2.687   2.896
 6465SOL    HW220295   6.497   2.833   2.828
 6466SOL     OW20296   1.401   1.687   6.183
 6466SOL    HW120297   1.456   1.764   6.151
 6466SOL    HW220298   1.455   1.603   6.175
 6467SOL     OW20299   2.802   1.396   6.841
 6467SOL    HW120300   2.712   1.412   6.881
 6467SOL    HW220301   2.820   1.297   6.839
 6468SOL     OW20302   3.646   6.016   0.274
 6468SOL    HW120303   3.579   6.090   0.267
 6468SOL    HW220304   3.710   6.021   0.197
 6469SOL     OW20305   5.196   0.825   4.899
 6469SOL    HW120306   5.232   0.870   4.980
 6469SOL    HW220307   5.228   0.872   4.817
 6470SOL     OW20308   5.996   4.052   0.449
 6470SOL    HW120309   5.956   4.139   0.422
 6470SOL    HW220310   6.088   4.044   0.411
 6471SOL     OW20311   6.397   6.458   5.600
 6471SOL    HW120312   6.421   6.368   5.638
 6471SOL    HW220313   6.417   6.529   5.667
 6472SOL     OW20314   0.942   5.766   0.974
 6472SOL    HW120315   0.973   5.823   1.051
 6472SOL    HW220316   0.993   5.680   0.975
 6473SOL     OW20317   3.387   1.418   4.693
 6473SOL    HW120318   3.481   1.449   4.674
 6473SOL    HW220319   3.357   1.458   4.780
 6474SOL     OW20320   2.141   4.394   5.571
 6474SOL    HW120321   2.109   4.323   5.509
 6474SOL    HW220322   2.166   4.475   5.519
 6475SOL     OW20323   6.171   5.276   4.178
 6475SOL    HW120324   6.231   5.227   4.241
 6475SOL    HW220325   6.132   5.212   4.112
 6476SOL     OW20326   4.709   3.550   1.362
 6476SOL    HW120327   4.686   3.483   1.291
 6476SOL    HW220328   4.803   3.537   1.392
 6477SOL     OW20329   6.296   5.220   1.364
 6477SOL    HW120330   6.370   5.269   1.410
 6477SOL    HW220331   6.273   5.138   1.416
 6478SOL     OW20332   3.449   6.421   2.223
 6478SOL    HW120333   3.490   6.418   2.132
 6478SOL    HW220334   3.413   6.513   2.241
 6479SOL     OW20335   4.466   5.774   3.872
 6479SOL    HW120336   4.493   5.698   3.812
 6479SOL    HW220337   4.384   5.818   3.835
 6480SOL     OW20338   3.124   2.913   6.088
 6480SOL    HW120339   3.045   2.971   6.070
 6480SOL    HW220340   3.208   2.965   6.072
 6481SOL     OW20341   3.787   2.039   1.814
 6481SOL    HW120342   3.719   2.101   1.853
 6481SOL    HW220343   3.849   2.091   1.755
 6482SOL     OW20344   0.188   0.671   5.858
 6482SOL    HW120345   0.172   0.652   5.955
 6482SOL    HW220346   0.239   0.595   5.817
 6483SOL     OW20347   0.697   6.148   1.395
 6483SOL    HW120348   0.769   6.127   1.328
 6483SOL    HW220349   0.608   6.142   1.351
 6484SOL     OW20350   3.268   0.034   1.632
 6484SOL    HW120351   3.290   0.087   1.714
 6484SOL    HW220352   3.281   6.957   1.651
 6485SOL     OW20353   1.903   5.261   3.532
 6485SOL    HW120354   1.971   5.241   3.461
 6485SOL    HW220355   1.814   5.279   3.489
 6486SOL     OW20356   2.446   5.124   3.844
 6486SOL    HW120357   2.466   5.116   3.941
 6486SOL    HW220358   2.523   5.090   3.791
 6487SOL     OW20359   6.902   6.518   4.965
 6487SOL    HW120360   6.996   6.506   4.998
 6487SOL    HW220361   6.903   6.539   4.868
 6488SOL     OW20362   3.856   6.150   4.477
 6488SOL    HW120363   3.877   6.139   4.380
 6488SOL    HW220364   3.900   6.233   4.512
 6489SOL     OW20365   2.992   2.623   6.982
 6489SOL    HW120366   3.089   2.620   7.006
 6489SOL    HW220367   2.979   2.575   6.895
 6490SOL     OW20368   4.358   1.121   6.317
 6490SOL    HW120369   4.426   1.052   6.293
 6490SOL    HW220370   4.336   1.177   6.237
 6491SOL     OW20371   3.858   1.081   0.614
 6491SOL    HW120372   3.954   1.108   0.623
 6491SOL    HW220373   3.800   1.153   0.653
 6492SOL     OW20374   5.139   5.059   0.784
 6492SOL    HW120375   5.190   5.103   0.710
 6492SOL    HW220376   5.070   4.998   0.746
 6493SOL     OW20377   1.129   5.394   4.719
 6493SOL    HW120378   1.206   5.358   4.667
 6493SOL    HW220379   1.061   5.323   4.732
 6494SOL     OW20380   0.255   0.944   3.388
 6494SOL    HW120381   0.285   0.964   3.294
 6494SOL    HW220382   0.155   0.948   3.392
 6495SOL     OW20383   5.435   6.492   4.778
 6495SOL    HW120384   5.511   6.434   4.810
 6495SOL    HW220385   5.352   6.468   4.827
 6496SOL     OW20386   6.978   0.875   2.930
 6496SOL    HW120387   7.011   0.839   3.017
 6496SOL    HW220388   6.903   0.818   2.896
 6497SOL     OW20389   2.249   3.013   1.167
 6497SOL    HW120390   2.266   2.995   1.070
 6497SOL    HW220391   2.151   3.013   1.184
 6498SOL     OW20392   2.343   4.256   3.892
 6498SOL    HW120393   2.369   4.208   3.808
 6498SOL    HW220394   2.277   4.201   3.943
 6499SOL     OW20395   5.063   2.946   4.935
 6499SOL    HW120396   5.000   3.009   4.980
 6499SOL    HW220397   5.015   2.894   4.865
 6500SOL     OW20398   6.947   4.095   4.018
 6500SOL    HW120399   6.953   4.079   4.117
 6500SOL    HW220400   7.020   4.157   3.990
 6501SOL     OW20401   6.626   2.165   6.918
 6501SOL    HW120402   6.588   2.089   6.970
 6501SOL    HW220403   6.707   2.133   6.868
 6502SOL     OW20404   6.315   2.940   1.820
 6502SOL    HW120405   6.415   2.941   1.818
 6502SOL    HW220406   6.283   2.857   1.867
 6503SOL     OW20407   4.552   1.056   3.203
 6503SOL    HW120408   4.506   0.973   3.170
 6503SOL    HW220409   4.485   1.129   3.214
 6504SOL     OW20410   4.787   6.355   5.701
 6504SOL    HW120411   4.698   6.400   5.708
 6504SOL    HW220412   4.858   6.423   5.683
 6505SOL     OW20413   5.537   6.237   1.774
 6505SOL    HW120414   5.524   6.329   1.811
 6505SOL    HW220415   5.559   6.175   1.849
 6506SOL     OW20416   6.475   2.522   1.805
 6506SOL    HW120417   6.517   2.472   1.728
 6506SOL    HW220418   6.377   2.505   1.806
 6507SOL     OW20419   2.416   5.329   5.422
 6507SOL    HW120420   2.513   5.334   5.448
 6507SOL    HW220421   2.385   5.235   5.427
 6508SOL     OW20422   1.632   0.562   2.541
 6508SOL    HW120423   1.562   0.582   2.609
 6508SOL    HW220424   1.591   0.512   2.465
 6509SOL     OW20425   3.252   2.049   4.665
 6509SOL    HW120426   3.195   2.116   4.712
 6509SOL    HW220427   3.251   2.068   4.567
 6510SOL     OW20428   0.153   4.610   0.072
 6510SOL    HW120429   0.216   4.564   0.009
 6510SOL    HW220430   0.194   4.694   0.105
 6511SOL     OW20431   4.538   1.199   4.437
 6511SOL    HW120432   4.456   1.225   4.488
 6511SOL    HW220433   4.573   1.112   4.472
 6512SOL     OW20434   4.535   6.431   1.600
 6512SOL    HW120435   4.544   6.333   1.618
 6512SOL    HW220436   4.623   6.467   1.568
 6513SOL     OW20437   3.343   5.319   3.129
 6513SOL    HW120438   3.337   5.409   3.085
 6513SOL    HW220439   3.258   5.268   3.113
 6514SOL     OW20440   5.392   0.912   3.863
 6514SOL    HW120441   5.385   1.012   3.852
 6514SOL    HW220442   5.457   0.876   3.796
 6515SOL     OW20443   0.320   5.382   4.396
 6515SOL    HW120444   0.262   5.416   4.322
 6515SOL    HW220445   0.383   5.313   4.359
 6516SOL     OW20446   0.163   3.058   1.771
 6516SOL    HW120447   0.233   3.007   1.821
 6516SOL    HW220448   0.193   3.153   1.760
 6517SOL     OW20449   6.292   0.418   0.578
 6517SOL    HW120450   6.303   0.340   0.516
 6517SOL    HW220451   6.206   0.465   0.557
 6518SOL     OW20452   6.680   6.499   6.604
 6518SOL    HW120453   6.686   6.544   6.693
 6518SOL    HW220454   6.669   6.400   6.618
 6519SOL     OW20455   2.407   1.590   3.550
 6519SOL    HW120456   2.411   1.607   3.452
 6519SOL    HW220457   2.354   1.507   3.568
 6520SOL     OW20458   5.083   5.706   2.388
 6520SOL    HW120459   5.092   5.706   2.289
 6520SOL    HW220460   5.017   5.637   2.416
 6521SOL     OW20461   2.138   3.395   4.600
 6521SOL    HW120462   2.106   3.422   4.509
 6521SOL    HW220463   2.154   3.297   4.603
 6522SOL     OW20464   3.985   4.549   0.274
 6522SOL    HW120465   4.024   4.548   0.182
 6522SOL    HW220466   4.057   4.559   0.342
 6523SOL     OW20467   3.813   1.198   6.691
 6523SOL    HW120468   3.842   1.267   6.757
 6523SOL    HW220469   3.718   1.215   6.664
 6524SOL     OW20470   2.599   3.951   1.590
 6524SOL    HW120471   2.626   3.963   1.495
 6524SOL    HW220472   2.667   3.897   1.638
 6525SOL     OW20473   1.535   4.567   2.674
 6525SOL    HW120474   1.449   4.562   2.725
 6525SOL    HW220475   1.612   4.562   2.737
 6526SOL     OW20476   2.155   0.167   6.467
 6526SOL    HW120477   2.108   0.080   6.484
 6526SOL    HW220478   2.239   0.170   6.520
 6527SOL     OW20479   0.572   2.869   4.439
 6527SOL    HW120480   0.635   2.941   4.467
 6527SOL    HW220481   0.587   2.788   4.495
 6528SOL     OW20482   6.927   1.006   4.345
 6528SOL    HW120483   6.915   1.104   4.355
 6528SOL    HW220484   6.838   0.962   4.335
 6529SOL     OW20485   1.214   1.507   2.902
 6529SOL    HW120486   1.309   1.526   2.875
 6529SOL    HW220487   1.165   1.467   2.824
 6530SOL     OW20488   0.057   3.619   0.983
 6530SOL    HW120489   0.012   3.566   0.912
 6530SOL    HW220490   7.008   3.663   1.040
 6531SOL     OW20491   5.751   3.743   4.634
 6531SOL    HW120492   5.824   3.794   4.588
 6531SOL    HW220493   5.790   3.667   4.685
 6532SOL     OW20494   6.207   0.503   0.252
 6532SOL    HW120495   6.272   0.461   0.189
 6532SOL    HW220496   6.227   0.601   0.260
 6533SOL     OW20497   4.694   6.780   1.389
 6533SOL    HW120498   4.678   6.808   1.295
 6533SOL    HW220499   4.607   6.765   1.435
 6534SOL     OW20500   3.284   4.157   1.517
 6534SOL    HW120501   3.352   4.083   1.510
 6534SOL    HW220502   3.291   4.216   1.437
 6535SOL     OW20503   6.388   3.943   4.552
 6535SOL    HW120504   6.425   4.023   4.600
 6535SOL    HW220505   6.384   3.865   4.616
 6536SOL     OW20506   0.776   1.648   5.636
 6536SOL    HW120507   0.769   1.609   5.544
 6536SOL    HW220508   0.869   1.636   5.671
 6537SOL     OW20509   6.520   5.005   0.207
 6537SOL    HW120510   6.531   5.063   0.127
 6537SOL    HW220511   6.600   4.945   0.216
 6538SOL     OW20512   2.524   3.472   6.971
 6538SOL    HW120513   2.596   3.446   0.014
 6538SOL    HW220514   2.525   3.571   6.957
 6539SOL     OW20515   3.405   0.620   6.322
 6539SOL    HW120516   3.498   0.603   6.356
 6539SOL    HW220517   3.387   0.719   6.324
 6540SOL     OW20518   5.106   1.286   5.305
 6540SOL    HW120519   5.045   1.283   5.384
 6540SOL    HW220520   5.197   1.316   5.335
 6541SOL     OW20521   4.739   1.606   5.546
 6541SOL    HW120522   4.645   1.571   5.537
 6541SOL    HW220523   4.742   1.701   5.518
 6542SOL     OW20524   6.561   4.255   4.180
 6542SOL    HW120525   6.576   4.349   4.150
 6542SOL    HW220526   6.558   4.195   4.101
 6543SOL     OW20527   5.692   3.020   5.795
 6543SOL    HW120528   5.691   3.087   5.869
 6543SOL    HW220529   5.652   3.060   5.712
 6544SOL     OW20530   0.604   6.457   2.774
 6544SOL    HW120531   0.533   6.511   2.820
 6544SOL    HW220532   0.685   6.451   2.834
 6545SOL     OW20533   5.114   2.132   0.307
 6545SOL    HW120534   5.031   2.101   0.260
 6545SOL    HW220535   5.127   2.078   0.391
 6546SOL     OW20536   3.869   4.443   6.992
 6546SOL    HW120537   3.836   4.446   0.065
 6546SOL    HW220538   3.820   4.372   6.942
 6547SOL     OW20539   4.715   1.384   5.983
 6547SOL    HW120540   4.626   1.397   5.939
 6547SOL    HW220541   4.787   1.403   5.916
 6548SOL     OW20542   1.237   4.241   6.700
 6548SOL    HW120543   1.284   4.178   6.762
 6548SOL    HW220544   1.158   4.195   6.660
 6549SOL     OW20545   4.605   0.500   1.237
 6549SOL    HW120546   4.546   0.547   1.302
 6549SOL    HW220547   4.614   0.404   1.262
 6550SOL     OW20548   0.742   6.498   4.242
 6550SOL    HW120549   0.727   6.597   4.242
 6550SOL    HW220550   0.741   6.463   4.149
 6551SOL     OW20551   1.196   4.797   3.003
 6551SOL    HW120552   1.244   4.815   2.917
 6551SOL    HW220553   1.253   4.827   3.080
 6552SOL     OW20554   2.063   6.826   5.466
 6552SOL    HW120555   2.055   6.878   5.551
 6552SOL    HW220556   2.116   6.743   5.483
 6553SOL     OW20557   0.232   1.812   3.034
 6553SOL    HW120558   0.274   1.875   3.099
 6553SOL    HW220559   0.269   1.720   3.048
 6554SOL     OW20560   5.819   0.955   4.940
 6554SOL    HW120561   5.841   0.989   5.032
 6554SOL    HW220562   5.831   1.029   4.874
 6555SOL     OW20563   0.111   1.972   2.009
 6555SOL    HW120564   0.039   1.914   2.049
 6555SOL    HW220565   0.179   1.993   2.079
 6556SOL     OW20566   4.902   4.211   5.218
 6556SOL    HW120567   4.933   4.156   5.296
 6556SOL    HW220568   4.807   4.238   5.232
 6557SOL     OW20569   3.221   5.947   1.231
 6557SOL    HW120570   3.307   5.967   1.183
 6557SOL    HW220571   3.144   5.981   1.178
 6558SOL     OW20572   6.246   4.580   0.361
 6558SOL    HW120573   6.213   4.526   0.283
 6558SOL    HW220574   6.252   4.676   0.334
 6559SOL     OW20575   0.512   4.293   6.064
 6559SOL    HW120576   0.470   4.342   5.988
 6559SOL    HW220577   0.596   4.340   6.092
 6560SOL     OW20578   4.143   4.663   0.975
 6560SOL    HW120579   4.123   4.569   1.001
 6560SOL    HW220580   4.059   4.708   0.944
 6561SOL     OW20581   3.736   3.986   2.488
 6561SOL    HW120582   3.701   4.041   2.563
 6561SOL    HW220583   3.681   4.002   2.406
 6562SOL     OW20584   5.709   4.022   0.923
 6562SOL    HW120585   5.621   4.054   0.959
 6562SOL    HW220586   5.711   4.035   0.824
 6563SOL     OW20587   6.517   6.550   0.333
 6563SOL    HW120588   6.465   6.613   0.390
 6563SOL    HW220589   6.604   6.592   0.308
 6564SOL     OW20590   6.985   4.146   2.921
 6564SOL    HW120591   7.014   4.226   2.974
 6564SOL    HW220592   0.043   4.108   2.872
 6565SOL     OW20593   6.497   2.629   3.875
 6565SOL    HW120594   6.505   2.632   3.775
 6565SOL    HW220595   6.576   2.580   3.913
 6566SOL     OW20596   3.235   6.297   2.932
 6566SOL    HW120597   3.174   6.301   3.011
 6566SOL    HW220598   3.193   6.241   2.861
 6567SOL     OW20599   3.851   1.727   1.585
 6567SOL    HW120600   3.924   1.663   1.558
 6567SOL    HW220601   3.773   1.716   1.524
 6568SOL     OW20602   4.208   0.612   3.686
 6568SOL    HW120603   4.247   0.573   3.769
 6568SOL    HW220604   4.265   0.586   3.607
 6569SOL     OW20605   2.799   3.612   6.593
 6569SOL    HW120606   2.805   3.659   6.505
 6569SOL    HW220607   2.845   3.523   6.586
 6570SOL     OW20608   4.021   6.981   2.560
 6570SOL    HW120609   3.975   7.001   2.473
 6570SOL    HW220610   4.119   6.976   2.545
 6571SOL     OW20611   2.331   5.571   2.148
 6571SOL    HW120612   2.264   5.640   2.176
 6571SOL    HW220613   2.326   5.557   2.049
 6572SOL     OW20614   6.829   5.059   5.566
 6572SOL    HW120615   6.795   5.045   5.473
 6572SOL    HW220616   6.775   5.004   5.630
 6573SOL     OW20617   2.577   1.390   1.981
 6573SOL    HW120618   2.584   1.360   2.076
 6573SOL    HW220619   2.662   1.435   1.953
 6574SOL     OW20620   3.117   6.116   2.759
 6574SOL    HW120621   3.101   6.028   2.805
 6574SOL    HW220622   3.167   6.100   2.674
 6575SOL     OW20623   1.408   0.640   2.219
 6575SOL    HW120624   1.410   0.657   2.317
 6575SOL    HW220625   1.342   0.702   2.176
 6576SOL     OW20626   2.317   6.192   6.424
 6576SOL    HW120627   2.228   6.146   6.424
 6576SOL    HW220628   2.351   6.199   6.330
 6577SOL     OW20629   0.927   1.226   4.031
 6577SOL    HW120630   0.993   1.160   3.994
 6577SOL    HW220631   0.895   1.285   3.958
 6578SOL     OW20632   0.952   4.222   3.079
 6578SOL    HW120633   0.978   4.242   2.984
 6578SOL    HW220634   1.022   4.258   3.141
 6579SOL     OW20635   0.344   3.380   4.761
 6579SOL    HW120636   0.357   3.284   4.737
 6579SOL    HW220637   0.246   3.401   4.763
 6580SOL     OW20638   6.347   1.795   1.093
 6580SOL    HW120639   6.331   1.884   1.052
 6580SOL    HW220640   6.279   1.778   1.165
 6581SOL     OW20641   2.442   1.280   0.346
 6581SOL    HW120642   2.352   1.254   0.311
 6581SOL    HW220643   2.438   1.289   0.446
 6582SOL     OW20644   1.291   1.324   1.372
 6582SOL    HW120645   1.254   1.362   1.457
 6582SOL    HW220646   1.313   1.228   1.386
 6583SOL     OW20647   4.201   0.118   5.220
 6583SOL    HW120648   4.165   0.161   5.137
 6583SOL    HW220649   4.224   0.189   5.287
 6584SOL     OW20650   4.662   1.695   0.020
 6584SOL    HW120651   4.756   1.722   7.018
 6584SOL    HW220652   4.598   1.758   6.997
 6585SOL     OW20653   6.785   6.903   0.344
 6585SOL    HW120654   6.807   6.895   0.441
 6585SOL    HW220655   6.760   6.813   0.308
 6586SOL     OW20656   6.361   1.904   5.805
 6586SOL    HW120657   6.387   1.880   5.899
 6586SOL    HW220658   6.420   1.856   5.741
 6587SOL     OW20659   2.936   6.046   5.159
 6587SOL    HW120660   2.852   6.007   5.121
 6587SOL    HW220661   3.001   6.062   5.085
 6588SOL     OW20662   1.320   3.951   2.197
 6588SOL    HW120663   1.304   3.854   2.175
 6588SOL    HW220664   1.232   3.996   2.215
 6589SOL     OW20665   5.271   0.498   0.500
 6589SOL    HW120666   5.207   0.431   0.462
 6589SOL    HW220667   5.228   0.588   0.501
 6590SOL     OW20668   0.856   1.494   5.397
 6590SOL    HW120669   0.898   1.551   5.326
 6590SOL    HW220670   0.923   1.429   5.432
 6591SOL     OW20671   5.347   6.171   2.172
 6591SOL    HW120672   5.255   6.183   2.134
 6591SOL    HW220673   5.410   6.143   2.099
 6592SOL     OW20674   6.045   6.811   3.854
 6592SOL    HW120675   6.105   6.876   3.902
 6592SOL    HW220676   6.095   6.726   3.836
 6593SOL     OW20677   2.755   1.700   3.149
 6593SOL    HW120678   2.836   1.755   3.168
 6593SOL    HW220679   2.717   1.726   3.060
 6594SOL     OW20680   3.871   1.935   0.226
 6594SOL    HW120681   3.832   1.856   0.271
 6594SOL    HW220682   3.806   2.012   0.229
 6595SOL     OW20683   0.930   3.156   0.199
 6595SOL    HW120684   1.030   3.155   0.209
 6595SOL    HW220685   0.905   3.120   0.109
 6596SOL     OW20686   3.383   6.524   4.333
 6596SOL    HW120687   3.369   6.556   4.426
 6596SOL    HW220688   3.476   6.490   4.323
 6597SOL     OW20689   2.286   6.298   2.113
 6597SOL    HW120690   2.310   6.370   2.048
 6597SOL    HW220691   2.325   6.319   2.202
 6598SOL     OW20692   1.017   6.545   4.237
 6598SOL    HW120693   0.976   6.636   4.235
 6598SOL    HW220694   0.946   6.476   4.251
 6599SOL     OW20695   4.900   6.581   5.625
 6599SOL    HW120696   4.986   6.539   5.595
 6599SOL    HW220697   4.912   6.680   5.632
 6600SOL     OW20698   5.303   5.147   6.062
 6600SOL    HW120699   5.216   5.144   6.110
 6600SOL    HW220700   5.356   5.226   6.093
 6601SOL     OW20701   1.281   1.934   5.400
 6601SOL    HW120702   1.345   1.880   5.454
 6601SOL    HW220703   1.191   1.931   5.442
 6602SOL     OW20704   0.626   1.841   1.447
 6602SOL    HW120705   0.676   1.771   1.396
 6602SOL    HW220706   0.537   1.805   1.475
 6603SOL     OW20707   0.638   2.743   3.746
 6603SOL    HW120708   0.582   2.821   3.718
 6603SOL    HW220709   0.695   2.713   3.670
 6604SOL     OW20710   2.204   6.467   0.791
 6604SOL    HW120711   2.227   6.465   0.889
 6604SOL    HW220712   2.128   6.531   0.776
 6605SOL     OW20713   6.076   4.062   1.450
 6605SOL    HW120714   6.076   4.095   1.355
 6605SOL    HW220715   5.981   4.052   1.482
 6606SOL     OW20716   6.797   6.131   2.678
 6606SOL    HW120717   6.835   6.212   2.723
 6606SOL    HW220718   6.701   6.147   2.656
 6607SOL     OW20719   1.666   2.874   2.584
 6607SOL    HW120720   1.765   2.881   2.597
 6607SOL    HW220721   1.645   2.795   2.526
 6608SOL     OW20722   5.971   6.446   2.103
 6608SOL    HW120723   6.053   6.412   2.148
 6608SOL    HW220724   5.904   6.475   2.172
 6609SOL     OW20725   4.925   1.157   5.867
 6609SOL    HW120726   4.840   1.109   5.847
 6609SOL    HW220727   4.926   1.245   5.820
 6610SOL     OW20728   2.442   0.981   6.688
 6610SOL    HW120729   2.413   1.020   6.776
 6610SOL    HW220730   2.424   1.047   6.616
 6611SOL     OW20731   6.200   2.984   3.861
 6611SOL    HW120732   6.204   2.979   3.761
 6611SOL    HW220733   6.253   3.063   3.892
 6612SOL     OW20734   6.250   2.052   6.656
 6612SOL    HW120735   6.174   2.098   6.609
 6612SOL    HW220736   6.333   2.108   6.648
 6613SOL     OW20737   6.504   6.680   5.245
 6613SOL    HW120738   6.427   6.632   5.204
 6613SOL    HW220739   6.496   6.676   5.345
 6614SOL     OW20740   5.685   5.906   0.518
 6614SOL    HW120741   5.715   5.874   0.608
 6614SOL    HW220742   5.754   5.969   0.481
 6615SOL     OW20743   0.780   4.519   2.806
 6615SOL    HW120744   0.769   4.530   2.905
 6615SOL    HW220745   0.689   4.510   2.764
 6616SOL     OW20746   3.850   1.224   6.237
 6616SOL    HW120747   3.754   1.217   6.209
 6616SOL    HW220748   3.868   1.160   6.312
 6617SOL     OW20749   3.532   5.262   2.770
 6617SOL    HW120750   3.592   5.272   2.850
 6617SOL    HW220751   3.437   5.274   2.798
 6618SOL     OW20752   1.050   3.020   2.589
 6618SOL    HW120753   1.147   2.997   2.597
 6618SOL    HW220754   0.995   2.937   2.597
 6619SOL     OW20755   6.271   0.067   4.520
 6619SOL    HW120756   6.180   0.041   4.486
 6619SOL    HW220757   6.263   0.100   4.614
 6620SOL     OW20758   1.575   2.750   5.524
 6620SOL    HW120759   1.671   2.726   5.535
 6620SOL    HW220760   1.539   2.784   5.610
 6621SOL     OW20761   2.293   3.252   6.364
 6621SOL    HW120762   2.305   3.204   6.451
 6621SOL    HW220763   2.307   3.350   6.379
 6622SOL     OW20764   5.799   0.106   1.677
 6622SOL    HW120765   5.802   0.140   1.583
 6622SOL    HW220766   5.891   0.107   1.716
 6623SOL     OW20767   2.177   2.744   6.367
 6623SOL    HW120768   2.180   2.808   6.444
 6623SOL    HW220769   2.083   2.710   6.355
 6624SOL     OW20770   1.173   6.165   4.283
 6624SOL    HW120771   1.182   6.066   4.270
 6624SOL    HW220772   1.182   6.187   4.380
 6625SOL     OW20773   5.174   1.727   5.695
 6625SOL    HW120774   5.077   1.713   5.715
 6625SOL    HW220775   5.183   1.771   5.606
 6626SOL     OW20776   4.535   5.650   5.416
 6626SOL    HW120777   4.436   5.642   5.419
 6626SOL    HW220778   4.566   5.656   5.321
 6627SOL     OW20779   2.318   0.469   5.390
 6627SOL    HW120780   2.331   0.568   5.393
 6627SOL    HW220781   2.236   0.445   5.441
 6628SOL     OW20782   4.447   4.658   4.546
 6628SOL    HW120783   4.453   4.648   4.645
 6628SOL    HW220784   4.536   4.685   4.509
 6629SOL     OW20785   4.201   6.081   0.237
 6629SOL    HW120786   4.169   5.997   0.281
 6629SOL    HW220787   4.264   6.129   0.298
 6630SOL     OW20788   4.093   1.090   1.700
 6630SOL    HW120789   4.058   1.006   1.741
 6630SOL    HW220790   4.039   1.168   1.733
 6631SOL     OW20791   2.461   6.316   2.719
 6631SOL    HW120792   2.366   6.290   2.700
 6631SOL    HW220793   2.521   6.240   2.697
 6632SOL     OW20794   0.615   5.840   1.637
 6632SOL    HW120795   0.620   5.939   1.652
 6632SOL    HW220796   0.560   5.799   1.710
 6633SOL     OW20797   0.914   4.526   6.792
 6633SOL    HW120798   0.895   4.481   6.705
 6633SOL    HW220799   0.926   4.624   6.778
 6634SOL     OW20800   6.283   2.350   4.263
 6634SOL    HW120801   6.375   2.388   4.273
 6634SOL    HW220802   6.290   2.254   4.235
 6635SOL     OW20803   4.238   4.780   2.841
 6635SOL    HW120804   4.237   4.792   2.741
 6635SOL    HW220805   4.270   4.688   2.862
 6636SOL     OW20806   4.967   2.151   5.659
 6636SOL    HW120807   4.954   2.146   5.758
 6636SOL    HW220808   4.892   2.204   5.619
 6637SOL     OW20809   1.388   6.951   6.502
 6637SOL    HW120810   1.405   6.962   6.404
 6637SOL    HW220811   1.408   6.857   6.530
 6638SOL     OW20812   3.326   4.036   4.161
 6638SOL    HW120813   3.257   3.973   4.197
 6638SOL    HW220814   3.375   4.079   4.237
 6639SOL     OW20815   5.997   4.788   6.370
 6639SOL    HW120816   6.083   4.780   6.320
 6639SOL    HW220817   5.995   4.874   6.420
 6640SOL     OW20818   1.279   1.756   5.154
 6640SOL    HW120819   1.376   1.750   5.179
 6640SOL    HW220820   1.248   1.851   5.164
 6641SOL     OW20821   2.393   2.282   6.908
 6641SOL    HW120822   2.470   2.329   6.951
 6641SOL    HW220823   2.427   2.219   6.838
 6642SOL     OW20824   3.173   5.068   6.326
 6642SOL    HW120825   3.147   5.082   6.230
 6642SOL    HW220826   3.221   5.149   6.359
 6643SOL     OW20827   6.842   5.490   0.153
 6643SOL    HW120828   6.755   5.513   0.197
 6643SOL    HW220829   6.854   5.548   0.073
 6644SOL     OW20830   2.625   4.606   2.217
 6644SOL    HW120831   2.717   4.575   2.241
 6644SOL    HW220832   2.559   4.534   2.236
 6645SOL     OW20833   6.491   4.909   0.520
 6645SOL    HW120834   6.424   4.934   0.589
 6645SOL    HW220835   6.444   4.869   0.441
 6646SOL     OW20836   3.800   0.327   5.147
 6646SOL    HW120837   3.897   0.335   5.122
 6646SOL    HW220838   3.771   0.232   5.137
 6647SOL     OW20839   4.016   1.164   2.028
 6647SOL    HW120840   4.094   1.136   2.083
 6647SOL    HW220841   4.040   1.246   1.975
 6648SOL     OW20842   3.863   6.748   2.650
 6648SOL    HW120843   3.926   6.813   2.608
 6648SOL    HW220844   3.910   6.699   2.724
 6649SOL     OW20845   5.733   1.012   6.614
 6649SOL    HW120846   5.730   1.071   6.694
 6649SOL    HW220847   5.645   0.965   6.604
 6650SOL     OW20848   3.337   1.607   5.221
 6650SOL    HW120849   3.273   1.531   5.233
 6650SOL    HW220850   3.345   1.657   5.307
 6651SOL     OW20851   2.056   1.539   6.235
 6651SOL    HW120852   2.085   1.630   6.265
 6651SOL    HW220853   2.128   1.497   6.180
 6652SOL     OW20854   0.075   4.078   0.802
 6652SOL    HW120855   0.116   3.995   0.764
 6652SOL    HW220856   7.009   4.055   0.846
 6653SOL     OW20857   3.638   2.898   2.476
 6653SOL    HW120858   3.630   2.855   2.386
 6653SOL    HW220859   3.557   2.878   2.531
 6654SOL     OW20860   1.588   3.681   1.483
 6654SOL    HW120861   1.673   3.679   1.535
 6654SOL    HW220862   1.608   3.665   1.386
 6655SOL     OW20863   1.753   7.001   2.034
 6655SOL    HW120864   1.822   7.017   2.105
 6655SOL    HW220865   1.676   0.041   2.050
 6656SOL     OW20866   5.527   1.680   2.037
 6656SOL    HW120867   5.605   1.623   2.062
 6656SOL    HW220868   5.469   1.696   2.116
 6657SOL     OW20869   5.890   6.149   6.408
 6657SOL    HW120870   5.964   6.216   6.399
 6657SOL    HW220871   5.896   6.105   6.497
 6658SOL     OW20872   6.097   1.561   4.958
 6658SOL    HW120873   6.089   1.649   5.005
 6658SOL    HW220874   6.010   1.514   4.962
 6659SOL     OW20875   2.248   2.575   0.631
 6659SOL    HW120876   2.248   2.574   0.731
 6659SOL    HW220877   2.259   2.481   0.597
 6660SOL     OW20878   0.861   5.414   0.499
 6660SOL    HW120879   0.811   5.371   0.423
 6660SOL    HW220880   0.797   5.437   0.572
 6661SOL     OW20881   1.464   6.288   4.739
 6661SOL    HW120882   1.406   6.288   4.657
 6661SOL    HW220883   1.508   6.377   4.749
 6662SOL     OW20884   0.849   1.240   0.396
 6662SOL    HW120885   0.932   1.288   0.368
 6662SOL    HW220886   0.863   1.201   0.487
 6663SOL     OW20887   0.088   5.373   3.825
 6663SOL    HW120888   0.031   5.400   3.903
 6663SOL    HW220889   0.129   5.283   3.842
 6664SOL     OW20890   2.607   6.201   0.303
 6664SOL    HW120891   2.585   6.238   0.393
 6664SOL    HW220892   2.523   6.190   0.250
 6665SOL     OW20893   1.393   0.024   3.432
 6665SOL    HW120894   1.441   6.991   3.501
 6665SOL    HW220895   1.445   0.023   3.346
 6666SOL     OW20896   5.499   6.967   5.960
 6666SOL    HW120897   5.421   6.994   6.015
 6666SOL    HW220898   5.578   6.949   6.019
 6667SOL     OW20899   6.456   5.961   6.505
 6667SOL    HW120900   6.430   6.049   6.464
 6667SOL    HW220901   6.501   5.977   6.592
 6668SOL     OW20902   6.915   5.687   2.053
 6668SOL    HW120903   6.968   5.661   2.133
 6668SOL    HW220904   6.932   5.784   2.031
 6669SOL     OW20905   1.762   2.698   3.961
 6669SOL    HW120906   1.835   2.632   3.941
 6669SOL    HW220907   1.676   2.666   3.922
 6670SOL     OW20908   3.791   2.555   5.591
 6670SOL    HW120909   3.761   2.470   5.634
 6670SOL    HW220910   3.863   2.535   5.525
 6671SOL     OW20911   5.767   5.617   1.312
 6671SOL    HW120912   5.816   5.650   1.231
 6671SOL    HW220913   5.724   5.529   1.292
 6672SOL     OW20914   6.983   1.827   5.989
 6672SOL    HW120915   7.014   1.839   5.895
 6672SOL    HW220916   6.883   1.834   5.993
 6673SOL     OW20917   5.249   6.039   3.742
 6673SOL    HW120918   5.210   5.999   3.825
 6673SOL    HW220919   5.283   6.131   3.762
 6674SOL     OW20920   1.406   4.573   5.387
 6674SOL    HW120921   1.375   4.487   5.346
 6674SOL    HW220922   1.351   4.649   5.350
 6675SOL     OW20923   4.580   3.502   1.690
 6675SOL    HW120924   4.656   3.562   1.667
 6675SOL    HW220925   4.611   3.408   1.695
 6676SOL     OW20926   6.694   4.555   5.584
 6676SOL    HW120927   6.601   4.573   5.619
 6676SOL    HW220928   6.722   4.630   5.524
 6677SOL     OW20929   0.867   1.960   6.292
 6677SOL    HW120930   0.947   2.005   6.333
 6677SOL    HW220931   0.897   1.903   6.216
 6678SOL     OW20932   2.735   3.172   6.781
 6678SOL    HW120933   2.834   3.165   6.778
 6678SOL    HW220934   2.700   3.193   6.689
 6679SOL     OW20935   2.132   1.864   3.898
 6679SOL    HW120936   2.158   1.809   3.820
 6679SOL    HW220937   2.056   1.925   3.873
 6680SOL     OW20938   4.386   0.336   6.328
 6680SOL    HW120939   4.341   0.365   6.413
 6680SOL    HW220940   4.447   0.408   6.296
 6681SOL     OW20941   4.246   5.229   0.845
 6681SOL    HW120942   4.294   5.175   0.776
 6681SOL    HW220943   4.289   5.214   0.934
 6682SOL     OW20944   1.733   4.417   3.107
 6682SOL    HW120945   1.743   4.509   3.067
 6682SOL    HW220946   1.777   4.350   3.048
 6683SOL     OW20947   5.677   3.151   5.181
 6683SOL    HW120948   5.749   3.169   5.114
 6683SOL    HW220949   5.709   3.176   5.272
 6684SOL     OW20950   2.605   6.555   1.291
 6684SOL    HW120951   2.506   6.560   1.286
 6684SOL    HW220952   2.633   6.460   1.308
 6685SOL     OW20953   5.870   2.827   5.863
 6685SOL    HW120954   5.822   2.908   5.829
 6685SOL    HW220955   5.909   2.848   5.953
 6686SOL     OW20956   5.305   5.813   4.840
 6686SOL    HW120957   5.253   5.755   4.903
 6686SOL    HW220958   5.385   5.851   4.888
 6687SOL     OW20959   1.161   2.875   0.268
 6687SOL    HW120960   1.101   2.803   0.301
 6687SOL    HW220961   1.136   2.898   0.173
 6688SOL     OW20962   0.062   4.374   1.625
 6688SOL    HW120963   0.160   4.363   1.607
 6688SOL    HW220964   0.020   4.426   1.551
 6689SOL     OW20965   4.448   3.264   0.090
 6689SOL    HW120966   4.382   3.189   0.078
 6689SOL    HW220967   4.465   3.308   0.002
 6690SOL     OW20968   2.258   0.749   1.285
 6690SOL    HW120969   2.284   0.708   1.198
 6690SOL    HW220970   2.276   0.685   1.359
 6691SOL     OW20971   3.049   6.529   1.191
 6691SOL    HW120972   2.972   6.578   1.230
 6691SOL    HW220973   3.098   6.480   1.263
 6692SOL     OW20974   4.024   4.094   5.475
 6692SOL    HW120975   4.005   4.190   5.452
 6692SOL    HW220976   3.996   4.036   5.399
 6693SOL     OW20977   4.440   3.836   5.824
 6693SOL    HW120978   4.485   3.787   5.750
 6693SOL    HW220979   4.505   3.850   5.899
 6694SOL     OW20980   5.269   5.043   1.012
 6694SOL    HW120981   5.229   5.064   0.922
 6694SOL    HW220982   5.200   4.999   1.069
 6695SOL     OW20983   2.370   1.330   6.775
 6695SOL    HW120984   2.331   1.417   6.745
 6695SOL    HW220985   2.321   1.298   6.856
 6696SOL     OW20986   1.048   3.016   6.077
 6696SOL    HW120987   0.949   3.012   6.063
 6696SOL    HW220988   1.094   2.962   6.007
 6697SOL     OW20989   4.648   2.682   2.843
 6697SOL    HW120990   4.631   2.656   2.938
 6697SOL    HW220991   4.659   2.600   2.787
 6698SOL     OW20992   3.024   2.703   0.798
 6698SOL    HW120993   2.946   2.641   0.808
 6698SOL    HW220994   3.090   2.684   0.871
 6699SOL     OW20995   3.114   5.152   6.066
 6699SOL    HW120996   3.026   5.198   6.076
 6699SOL    HW220997   3.115   5.100   5.981
 6700SOL     OW20998   6.934   6.836   0.576
 6700SOL    HW120999   6.947   6.906   0.646
 6700SOL    HW221000   6.960   6.747   0.613
 6701SOL     OW21001   5.463   2.512   1.615
 6701SOL    HW121002   5.442   2.582   1.684
 6701SOL    HW221003   5.508   2.434   1.659
 6702SOL     OW21004   2.787   2.466   1.460
 6702SOL    HW121005   2.856   2.428   1.522
 6702SOL    HW221006   2.732   2.533   1.508
 6703SOL     OW21007   6.293   2.167   0.146
 6703SOL    HW121008   6.293   2.185   0.244
 6703SOL    HW221009   6.252   2.077   0.129
 6704SOL     OW21010   3.873   2.154   2.989
 6704SOL    HW121011   3.815   2.186   2.915
 6704SOL    HW221012   3.817   2.137   3.070
 6705SOL     OW21013   6.528   2.054   1.073
 6705SOL    HW121014   6.598   1.987   1.097
 6705SOL    HW221015   6.503   2.043   0.976
 6706SOL     OW21016   1.106   3.791   1.896
 6706SOL    HW121017   1.052   3.808   1.814
 6706SOL    HW221018   1.044   3.772   1.973
 6707SOL     OW21019   0.170   6.240   3.651
 6707SOL    HW121020   0.159   6.278   3.743
 6707SOL    HW221021   0.113   6.159   3.642
 6708SOL     OW21022   0.372   5.636   2.182
 6708SOL    HW121023   0.465   5.603   2.168
 6708SOL    HW221024   0.332   5.593   2.263
 6709SOL     OW21025   2.520   6.995   2.009
 6709SOL    HW121026   2.499   0.055   1.954
 6709SOL    HW221027   2.532   6.916   1.949
 6710SOL     OW21028   2.848   0.946   5.519
 6710SOL    HW121029   2.860   0.889   5.600
 6710SOL    HW221030   2.779   0.904   5.459
 6711SOL     OW21031   5.036   5.109   0.358
 6711SOL    HW121032   4.981   5.026   0.351
 6711SOL    HW221033   5.007   5.173   0.287
 6712SOL     OW21034   4.560   5.290   0.531
 6712SOL    HW121035   4.584   5.276   0.435
 6712SOL    HW221036   4.580   5.385   0.557
 6713SOL     OW21037   2.434   1.467   1.773
 6713SOL    HW121038   2.486   1.439   1.853
 6713SOL    HW221039   2.477   1.431   1.690
 6714SOL     OW21040   6.177   1.166   6.980
 6714SOL    HW121041   6.223   1.118   6.905
 6714SOL    HW221042   6.143   1.099   0.025
 6715SOL     OW21043   0.128   0.077   6.423
 6715SOL    HW121044   0.202   0.038   6.477
 6715SOL    HW221045   0.144   0.058   6.326
 6716SOL     OW21046   0.732   5.812   1.941
 6716SOL    HW121047   0.704   5.864   1.860
 6716SOL    HW221048   0.832   5.813   1.948
 6717SOL     OW21049   4.592   2.585   0.630
 6717SOL    HW121050   4.563   2.679   0.647
 6717SOL    HW221051   4.514   2.524   0.634
 6718SOL     OW21052   4.664   0.312   6.054
 6718SOL    HW121053   4.700   0.302   5.961
 6718SOL    HW221054   4.570   0.280   6.057
 6719SOL     OW21055   1.542   0.064   6.191
 6719SOL    HW121056   1.442   0.063   6.181
 6719SOL    HW221057   1.567   0.118   6.271
 6720SOL     OW21058   0.776   5.463   3.589
 6720SOL    HW121059   0.840   5.490   3.661
 6720SOL    HW221060   0.745   5.545   3.540
 6721SOL     OW21061   6.452   0.559   5.502
 6721SOL    HW121062   6.444   0.629   5.431
 6721SOL    HW221063   6.408   0.592   5.586
 6722SOL     OW21064   6.689   3.767   1.587
 6722SOL    HW121065   6.631   3.789   1.666
 6722SOL    HW221066   6.720   3.852   1.544
 6723SOL     OW21067   1.763   7.014   2.942
 6723SOL    HW121068   1.664   6.997   2.940
 6723SOL    HW221069   1.781   0.085   2.977
 6724SOL     OW21070   1.098   3.849   5.865
 6724SOL    HW121071   1.183   3.806   5.833
 6724SOL    HW221072   1.107   3.871   5.962
 6725SOL     OW21073   1.211   3.760   0.933
 6725SOL    HW121074   1.294   3.801   0.894
 6725SOL    HW221075   1.137   3.827   0.929
 6726SOL     OW21076   0.610   2.284   4.666
 6726SOL    HW121077   0.564   2.266   4.579
 6726SOL    HW221078   0.709   2.279   4.654
 6727SOL     OW21079   6.529   3.839   5.862
 6727SOL    HW121080   6.479   3.794   5.787
 6727SOL    HW221081   6.501   3.799   5.949
 6728SOL     OW21082   4.537   1.295   4.178
 6728SOL    HW121083   4.542   1.251   4.267
 6728SOL    HW221084   4.619   1.274   4.125
 6729SOL     OW21085   0.081   1.608   2.108
 6729SOL    HW121086   0.027   1.690   2.094
 6729SOL    HW221087   0.021   1.532   2.132
 6730SOL     OW21088   2.666   6.173   6.929
 6730SOL    HW121089   2.673   6.156   6.830
 6730SOL    HW221090   2.596   6.242   6.945
 6731SOL     OW21091   1.451   5.193   1.359
 6731SOL    HW121092   1.536   5.237   1.388
 6731SOL    HW221093   1.470   5.133   1.280
 6732SOL     OW21094   4.441   5.186   5.789
 6732SOL    HW121095   4.491   5.215   5.870
 6732SOL    HW221096   4.472   5.240   5.710
 6733SOL     OW21097   3.955   5.116   0.842
 6733SOL    HW121098   3.971   5.210   0.813
 6733SOL    HW221099   4.015   5.055   0.792
 6734SOL     OW21100   6.954   2.567   4.766
 6734SOL    HW121101   6.925   2.593   4.673
 6734SOL    HW221102   6.881   2.518   4.812
 6735SOL     OW21103   6.885   4.589   4.509
 6735SOL    HW121104   6.978   4.621   4.495
 6735SOL    HW221105   6.853   4.614   4.600
 6736SOL     OW21106   3.155   3.489   0.407
 6736SOL    HW121107   3.087   3.422   0.438
 6736SOL    HW221108   3.246   3.450   0.417
 6737SOL     OW21109   2.440   2.825   0.934
 6737SOL    HW121110   2.412   2.863   0.846
 6737SOL    HW221111   2.540   2.826   0.941
 6738SOL     OW21112   2.016   3.980   2.742
 6738SOL    HW121113   1.926   3.981   2.786
 6738SOL    HW221114   2.073   3.910   2.785
 6739SOL     OW21115   3.618   4.753   5.664
 6739SOL    HW121116   3.580   4.660   5.660
 6739SOL    HW221117   3.716   4.748   5.682
 6740SOL     OW21118   1.816   1.394   4.708
 6740SOL    HW121119   1.776   1.473   4.663
 6740SOL    HW221120   1.901   1.422   4.754
 6741SOL     OW21121   4.505   1.466   5.793
 6741SOL    HW121122   4.520   1.515   5.707
 6741SOL    HW221123   4.471   1.530   5.862
 6742SOL     OW21124   6.276   5.555   2.689
 6742SOL    HW121125   6.262   5.583   2.784
 6742SOL    HW221126   6.192   5.570   2.637
 6743SOL     OW21127   4.357   4.285   0.825
 6743SOL    HW121128   4.316   4.265   0.914
 6743SOL    HW221129   4.454   4.260   0.826
 6744SOL     OW21130   4.927   5.560   6.020
 6744SOL    HW121131   4.899   5.607   5.937
 6744SOL    HW221132   4.916   5.461   6.008
 6745SOL     OW21133   0.790   6.624   2.147
 6745SOL    HW121134   0.781   6.707   2.093
 6745SOL    HW221135   0.803   6.648   2.243
 6746SOL     OW21136   1.184   0.983   3.351
 6746SOL    HW121137   1.241   1.041   3.409
 6746SOL    HW221138   1.228   0.971   3.262
 6747SOL     OW21139   5.277   0.267   4.830
 6747SOL    HW121140   5.305   0.302   4.919
 6747SOL    HW221141   5.328   0.183   4.809
 6748SOL     OW21142   1.086   0.386   3.053
 6748SOL    HW121143   1.141   0.348   3.127
 6748SOL    HW221144   0.990   0.391   3.081
 6749SOL     OW21145   3.035   5.874   6.995
 6749SOL    HW121146   2.955   5.920   0.010
 6749SOL    HW221147   3.037   5.779   0.006
 6750SOL     OW21148   4.538   1.103   5.205
 6750SOL    HW121149   4.480   1.058   5.137
 6750SOL    HW221150   4.632   1.108   5.172
 6751SOL     OW21151   3.894   1.411   3.731
 6751SOL    HW121152   3.938   1.420   3.642
 6751SOL    HW221153   3.795   1.421   3.721
 6752SOL     OW21154   7.011   3.120   2.805
 6752SOL    HW121155   0.082   3.158   2.809
 6752SOL    HW221156   6.964   3.153   2.723
 6753SOL     OW21157   4.514   0.875   6.278
 6753SOL    HW121158   4.582   0.922   6.335
 6753SOL    HW221159   4.544   0.879   6.182
 6754SOL     OW21160   6.759   1.160   6.755
 6754SOL    HW121161   6.751   1.065   6.727
 6754SOL    HW221162   6.794   1.215   6.678
 6755SOL     OW21163   4.532   1.703   3.183
 6755SOL    HW121164   4.550   1.716   3.281
 6755SOL    HW221165   4.535   1.606   3.162
 6756SOL     OW21166   4.514   4.477   4.355
 6756SOL    HW121167   4.468   4.514   4.274
 6756SOL    HW221168   4.493   4.535   4.434
 6757SOL     OW21169   4.798   6.977   1.540
 6757SOL    HW121170   4.758   6.912   1.475
 6757SOL    HW221171   4.729   0.023   1.567
 6758SOL     OW21172   6.553   3.435   1.213
 6758SOL    HW121173   6.629   3.376   1.241
 6758SOL    HW221174   6.475   3.420   1.274
 6759SOL     OW21175   0.757   3.567   4.728
 6759SOL    HW121176   0.720   3.521   4.809
 6759SOL    HW221177   0.682   3.610   4.677
 6760SOL     OW21178   6.869   4.952   4.215
 6760SOL    HW121179   6.842   4.998   4.130
 6760SOL    HW221180   6.825   4.997   4.292
 6761SOL     OW21181   6.106   2.832   6.580
 6761SOL    HW121182   6.162   2.837   6.662
 6761SOL    HW221183   6.117   2.916   6.527
 6762SOL     OW21184   6.654   5.497   3.314
 6762SOL    HW121185   6.737   5.443   3.328
 6762SOL    HW221186   6.679   5.589   3.284
 6763SOL     OW21187   6.723   6.074   3.880
 6763SOL    HW121188   6.679   6.115   3.960
 6763SOL    HW221189   6.655   6.065   3.806
 6764SOL     OW21190   2.986   4.959   6.480
 6764SOL    HW121191   3.014   4.983   6.573
 6764SOL    HW221192   3.065   4.968   6.418
 6765SOL     OW21193   4.935   4.995   3.596
 6765SOL    HW121194   4.851   4.944   3.582
 6765SOL    HW221195   4.925   5.087   3.558
 6766SOL     OW21196   4.174   6.857   6.426
 6766SOL    HW121197   4.150   6.880   6.332
 6766SOL    HW221198   4.152   6.934   6.486
 6767SOL     OW21199   0.690   2.569   0.791
 6767SOL    HW121200   0.749   2.489   0.799
 6767SOL    HW221201   0.594   2.541   0.802
 6768SOL     OW21202   0.790   6.358   4.020
 6768SOL    HW121203   0.813   6.419   3.944
 6768SOL    HW221204   0.868   6.301   4.042
 6769SOL     OW21205   3.134   0.789   5.262
 6769SOL    HW121206   3.173   0.777   5.353
 6769SOL    HW221207   3.206   0.819   5.199
 6770SOL     OW21208   6.784   2.374   3.477
 6770SOL    HW121209   6.722   2.321   3.418
 6770SOL    HW221210   6.813   2.456   3.428
 6771SOL     OW21211   3.456   1.832   3.005
 6771SOL    HW121212   3.498   1.920   2.980
 6771SOL    HW221213   3.497   1.759   2.950
 6772SOL     OW21214   5.499   1.742   2.570
 6772SOL    HW121215   5.489   1.781   2.479
 6772SOL    HW221216   5.493   1.815   2.638
 6773SOL     OW21217   6.901   6.873   1.443
 6773SOL    HW121218   6.897   6.973   1.454
 6773SOL    HW221219   6.993   6.847   1.413
 6774SOL     OW21220   1.862   2.313   4.673
 6774SOL    HW121221   1.920   2.257   4.614
 6774SOL    HW221222   1.861   2.274   4.765
 6775SOL     OW21223   0.544   2.121   3.553
 6775SOL    HW121224   0.533   2.032   3.597
 6775SOL    HW221225   0.466   2.179   3.577
 6776SOL     OW21226   3.919   3.595   1.447
 6776SOL    HW121227   3.999   3.622   1.500
 6776SOL    HW221228   3.900   3.664   1.378
 6777SOL     OW21229   4.186   5.446   1.063
 6777SOL    HW121230   4.260   5.379   1.060
 6777SOL    HW221231   4.190   5.504   0.982
 6778SOL     OW21232   5.906   3.190   2.332
 6778SOL    HW121233   5.893   3.156   2.425
 6778SOL    HW221234   5.818   3.218   2.293
 6779SOL     OW21235   5.234   4.869   6.594
 6779SOL    HW121236   5.301   4.943   6.600
 6779SOL    HW221237   5.224   4.840   6.499
 6780SOL     OW21238   1.944   3.576   3.014
 6780SOL    HW121239   1.934   3.514   2.936
 6780SOL    HW221240   1.853   3.599   3.050
 6781SOL     OW21241   6.765   0.928   3.353
 6781SOL    HW121242   6.715   0.850   3.315
 6781SOL    HW221243   6.746   0.936   3.451
 6782SOL     OW21244   0.964   0.788   3.686
 6782SOL    HW121245   0.883   0.731   3.685
 6782SOL    HW221246   1.000   0.795   3.779
 6783SOL     OW21247   0.718   3.919   4.742
 6783SOL    HW121248   0.752   4.006   4.708
 6783SOL    HW221249   0.780   3.845   4.713
 6784SOL     OW21250   2.312   4.113   2.065
 6784SOL    HW121251   2.307   4.172   2.145
 6784SOL    HW221252   2.371   4.155   1.995
 6785SOL     OW21253   5.768   5.426   5.797
 6785SOL    HW121254   5.837   5.492   5.827
 6785SOL    HW221255   5.698   5.417   5.867
 6786SOL     OW21256   6.702   3.137   6.930
 6786SOL    HW121257   6.699   3.064   6.998
 6786SOL    HW221258   6.653   3.109   6.848
 6787SOL     OW21259   2.917   2.310   1.183
 6787SOL    HW121260   2.886   2.216   1.192
 6787SOL    HW221261   2.839   2.372   1.192
 6788SOL     OW21262   0.094   4.051   2.567
 6788SOL    HW121263   0.082   4.147   2.594
 6788SOL    HW221264   0.013   3.999   2.593
 6789SOL     OW21265   0.077   4.806   4.225
 6789SOL    HW121266   0.062   4.755   4.310
 6789SOL    HW221267   7.020   4.866   4.208
 6790SOL     OW21268   0.389   4.211   6.831
 6790SOL    HW121269   0.402   4.260   6.918
 6790SOL    HW221270   0.378   4.278   6.757
 6791SOL     OW21271   4.201   1.700   3.067
 6791SOL    HW121272   4.118   1.699   3.012
 6791SOL    HW221273   4.262   1.772   3.035
 6792SOL     OW21274   4.554   6.907   5.595
 6792SOL    HW121275   4.460   6.940   5.605
 6792SOL    HW221276   4.593   6.891   5.685
 6793SOL     OW21277   3.260   1.897   0.008
 6793SOL    HW121278   3.234   1.994   0.005
 6793SOL    HW221279   3.197   1.844   6.973
 6794SOL     OW21280   4.884   1.407   5.771
 6794SOL    HW121281   4.900   1.505   5.786
 6794SOL    HW221282   4.885   1.389   5.672
 6795SOL     OW21283   0.724   6.756   0.001
 6795SOL    HW121284   0.747   6.838   6.969
 6795SOL    HW221285   0.641   6.774   0.055
 6796SOL     OW21286   5.619   0.795   2.438
 6796SOL    HW121287   5.539   0.740   2.462
 6796SOL    HW221288   5.590   0.889   2.419
 6797SOL     OW21289   6.981   1.914   0.704
 6797SOL    HW121290   0.008   1.862   0.634
 6797SOL    HW221291   0.023   1.935   0.779
 6798SOL     OW21292   6.084   6.978   1.625
 6798SOL    HW121293   6.057   6.901   1.567
 6798SOL    HW221294   6.176   7.008   1.600
 6799SOL     OW21295   5.368   0.714   2.597
 6799SOL    HW121296   5.332   0.638   2.650
 6799SOL    HW221297   5.414   0.779   2.658
 6800SOL     OW21298   2.218   2.659   1.643
 6800SOL    HW121299   2.121   2.637   1.651
 6800SOL    HW221300   2.228   2.748   1.597
 6801SOL     OW21301   0.678   6.800   3.973
 6801SOL    HW121302   0.639   6.759   3.890
 6801SOL    HW221303   0.777   6.803   3.965
 6802SOL     OW21304   3.566   5.762   0.194
 6802SOL    HW121305   3.536   5.852   0.226
 6802SOL    HW221306   3.493   5.719   0.141
 6803SOL     OW21307   4.858   3.843   6.962
 6803SOL    HW121308   4.917   3.763   6.954
 6803SOL    HW221309   4.765   3.819   6.932
 6804SOL     OW21310   3.151   4.851   2.392
 6804SOL    HW121311   3.163   4.865   2.294
 6804SOL    HW221312   3.230   4.886   2.441
 6805SOL     OW21313   0.704   5.383   6.926
 6805SOL    HW121314   0.747   5.471   6.948
 6805SOL    HW221315   0.701   5.372   6.826
 6806SOL     OW21316   6.819   0.963   4.043
 6806SOL    HW121317   6.814   0.863   4.041
 6806SOL    HW221318   6.914   0.992   4.040
 6807SOL     OW21319   3.513   3.555   3.030
 6807SOL    HW121320   3.600   3.547   3.079
 6807SOL    HW221321   3.502   3.476   2.969
 6808SOL     OW21322   5.664   0.776   5.097
 6808SOL    HW121323   5.729   0.751   5.170
 6808SOL    HW221324   5.696   0.858   5.050
 6809SOL     OW21325   6.574   3.736   1.129
 6809SOL    HW121326   6.620   3.662   1.178
 6809SOL    HW221327   6.478   3.740   1.158
 6810SOL     OW21328   3.653   1.182   3.290
 6810SOL    HW121329   3.612   1.239   3.219
 6810SOL    HW221330   3.635   1.085   3.270
 6811SOL     OW21331   6.699   3.061   2.358
 6811SOL    HW121332   6.701   2.995   2.433
 6811SOL    HW221333   6.608   3.060   2.316
 6812SOL     OW21334   3.515   3.566   4.494
 6812SOL    HW121335   3.605   3.597   4.526
 6812SOL    HW221336   3.451   3.567   4.571
 6813SOL     OW21337   5.557   3.478   2.642
 6813SOL    HW121338   5.558   3.577   2.629
 6813SOL    HW221339   5.519   3.434   2.561
 6814SOL     OW21340   4.730   1.623   6.605
 6814SOL    HW121341   4.721   1.722   6.599
 6814SOL    HW221342   4.648   1.580   6.568
 6815SOL     OW21343   1.673   5.495   6.521
 6815SOL    HW121344   1.602   5.521   6.586
 6815SOL    HW221345   1.700   5.400   6.537
 6816SOL     OW21346   6.862   1.543   4.262
 6816SOL    HW121347   6.822   1.561   4.352
 6816SOL    HW221348   6.923   1.618   4.237
 6817SOL     OW21349   2.565   2.407   4.514
 6817SOL    HW121350   2.597   2.327   4.464
 6817SOL    HW221351   2.609   2.410   4.604
 6818SOL     OW21352   1.936   6.400   6.405
 6818SOL    HW121353   1.944   6.312   6.358
 6818SOL    HW221354   1.839   6.423   6.415
 6819SOL     OW21355   4.688   7.011   2.332
 6819SOL    HW121356   4.604   0.040   2.353
 6819SOL    HW221357   4.664   6.926   2.284
 6820SOL     OW21358   1.508   5.554   1.278
 6820SOL    HW121359   1.493   5.571   1.375
 6820SOL    HW221360   1.505   5.455   1.260
 6821SOL     OW21361   4.531   2.633   5.920
 6821SOL    HW121362   4.626   2.616   5.894
 6821SOL    HW221363   4.498   2.715   5.874
 6822SOL     OW21364   6.779   2.536   6.830
 6822SOL    HW121365   6.783   2.634   6.848
 6822SOL    HW221366   6.851   2.489   6.882
 6823SOL     OW21367   5.237   4.240   6.550
 6823SOL    HW121368   5.336   4.244   6.537
 6823SOL    HW221369   5.191   4.289   6.477
 6824SOL     OW21370   1.554   1.563   0.050
 6824SOL    HW121371   1.544   1.499   0.127
 6824SOL    HW221372   1.487   1.540   7.001
 6825SOL     OW21373   6.378   5.933   0.665
 6825SOL    HW121374   6.316   6.004   0.632
 6825SOL    HW221375   6.473   5.961   0.649
 6826SOL     OW21376   0.942   3.507   3.513
 6826SOL    HW121377   0.859   3.549   3.550
 6826SOL    HW221378   0.951   3.414   3.549
 6827SOL     OW21379   4.802   5.207   5.780
 6827SOL    HW121380   4.772   5.227   5.687
 6827SOL    HW221381   4.880   5.266   5.804
 6828SOL     OW21382   3.627   1.600   2.334
 6828SOL    HW121383   3.621   1.655   2.250
 6828SOL    HW221384   3.635   1.661   2.413
 6829SOL     OW21385   5.639   0.213   5.204
 6829SOL    HW121386   5.569   0.258   5.259
 6829SOL    HW221387   5.729   0.252   5.224
 6830SOL     OW21388   6.105   1.426   3.373
 6830SOL    HW121389   6.121   1.517   3.409
 6830SOL    HW221390   6.193   1.382   3.354
 6831SOL     OW21391   1.298   1.464   5.853
 6831SOL    HW121392   1.253   1.522   5.921
 6831SOL    HW221393   1.233   1.397   5.818
 6832SOL     OW21394   2.493   3.308   0.377
 6832SOL    HW121395   2.516   3.374   0.305
 6832SOL    HW221396   2.577   3.275   0.420
 6833SOL     OW21397   3.411   5.262   5.756
 6833SOL    HW121398   3.467   5.333   5.713
 6833SOL    HW221399   3.417   5.271   5.856
 6834SOL     OW21400   4.890   6.991   0.984
 6834SOL    HW121401   4.843   7.011   0.897
 6834SOL    HW221402   4.981   6.956   0.965
 6835SOL     OW21403   4.260   1.678   4.745
 6835SOL    HW121404   4.353   1.641   4.745
 6835SOL    HW221405   4.227   1.685   4.651
 6836SOL     OW21406   1.627   4.088   6.282
 6836SOL    HW121407   1.538   4.085   6.327
 6836SOL    HW221408   1.698   4.102   6.351
 6837SOL     OW21409   0.923   0.943   2.684
 6837SOL    HW121410   0.969   1.018   2.636
 6837SOL    HW221411   0.912   0.968   2.780
 6838SOL     OW21412   2.470   4.351   5.384
 6838SOL    HW121413   2.566   4.328   5.369
 6838SOL    HW221414   2.461   4.408   5.465
 6839SOL     OW21415   5.860   2.211   3.905
 6839SOL    HW121416   5.796   2.225   3.829
 6839SOL    HW221417   5.832   2.131   3.958
 6840SOL     OW21418   2.768   6.420   5.404
 6840SOL    HW121419   2.710   6.371   5.470
 6840SOL    HW221420   2.715   6.438   5.321
 6841SOL     OW21421   3.786   4.923   1.294
 6841SOL    HW121422   3.769   4.850   1.360
 6841SOL    HW221423   3.737   4.905   1.210
 6842SOL     OW21424   1.498   2.129   6.533
 6842SOL    HW121425   1.527   2.141   6.628
 6842SOL    HW221426   1.538   2.046   6.496
 6843SOL     OW21427   4.756   0.914   1.625
 6843SOL    HW121428   4.719   0.913   1.718
 6843SOL    HW221429   4.840   0.969   1.623
 6844SOL     OW21430   5.540   5.958   3.996
 6844SOL    HW121431   5.507   5.954   3.901
 6844SOL    HW221432   5.535   5.867   4.037
 6845SOL     OW21433   5.026   3.999   2.329
 6845SOL    HW121434   4.985   3.922   2.378
 6845SOL    HW221435   5.078   3.965   2.251
 6846SOL     OW21436   4.031   3.305   1.464
 6846SOL    HW121437   4.036   3.398   1.428
 6846SOL    HW221438   4.122   3.263   1.459
 6847SOL     OW21439   5.681   3.874   2.223
 6847SOL    HW121440   5.618   3.812   2.269
 6847SOL    HW221441   5.630   3.943   2.172
 6848SOL     OW21442   1.768   5.765   3.062
 6848SOL    HW121443   1.860   5.791   3.033
 6848SOL    HW221444   1.714   5.848   3.079
 6849SOL     OW21445   3.747   5.504   3.942
 6849SOL    HW121446   3.655   5.468   3.956
 6849SOL    HW221447   3.798   5.500   4.029
 6850SOL     OW21448   5.566   2.671   2.899
 6850SOL    HW121449   5.506   2.750   2.887
 6850SOL    HW221450   5.571   2.619   2.814
 6851SOL     OW21451   1.418   3.951   4.528
 6851SOL    HW121452   1.379   3.960   4.619
 6851SOL    HW221453   1.498   3.891   4.531
 6852SOL     OW21454   1.042   4.878   0.804
 6852SOL    HW121455   1.018   4.967   0.765
 6852SOL    HW221456   1.106   4.891   0.879
 6853SOL     OW21457   6.454   3.744   6.930
 6853SOL    HW121458   6.543   3.750   6.886
 6853SOL    HW221459   6.385   3.719   6.862
 6854SOL     OW21460   5.843   1.051   5.939
 6854SOL    HW121461   5.872   1.105   6.018
 6854SOL    HW221462   5.881   0.959   5.946
 6855SOL     OW21463   3.484   6.363   2.607
 6855SOL    HW121464   3.476   6.264   2.603
 6855SOL    HW221465   3.576   6.390   2.579
 6856SOL     OW21466   4.724   4.336   5.525
 6856SOL    HW121467   4.709   4.312   5.430
 6856SOL    HW221468   4.708   4.256   5.583
 6857SOL     OW21469   3.253   1.358   6.667
 6857SOL    HW121470   3.229   1.453   6.645
 6857SOL    HW221471   3.214   1.333   6.755
 6858SOL     OW21472   4.065   3.201   5.048
 6858SOL    HW121473   4.096   3.296   5.042
 6858SOL    HW221474   4.057   3.175   5.144
 6859SOL     OW21475   1.096   6.400   1.159
 6859SOL    HW121476   1.115   6.342   1.079
 6859SOL    HW221477   1.129   6.492   1.142
 6860SOL     OW21478   5.854   5.125   1.965
 6860SOL    HW121479   5.914   5.184   2.019
 6860SOL    HW221480   5.760   5.135   1.997
 6861SOL     OW21481   5.758   4.554   1.690
 6861SOL    HW121482   5.719   4.646   1.698
 6861SOL    HW221483   5.837   4.557   1.629
 6862SOL     OW21484   2.010   4.205   4.580
 6862SOL    HW121485   1.922   4.227   4.622
 6862SOL    HW221486   2.080   4.267   4.615
 6863SOL     OW21487   5.629   1.632   4.404
 6863SOL    HW121488   5.623   1.708   4.339
 6863SOL    HW221489   5.704   1.571   4.377
 6864SOL     OW21490   3.678   5.768   3.684
 6864SOL    HW121491   3.606   5.807   3.627
 6864SOL    HW221492   3.640   5.736   3.770
 6865SOL     OW21493   6.119   5.257   3.225
 6865SOL    HW121494   6.184   5.212   3.287
 6865SOL    HW221495   6.144   5.353   3.216
 6866SOL     OW21496   5.944   3.972   2.137
 6866SOL    HW121497   5.855   3.947   2.175
 6866SOL    HW221498   6.011   3.900   2.158
 6867SOL     OW21499   1.279   4.936   1.296
 6867SOL    HW121500   1.192   4.919   1.250
 6867SOL    HW221501   1.352   4.944   1.228
 6868SOL     OW21502   1.835   5.463   5.041
 6868SOL    HW121503   1.840   5.446   5.139
 6868SOL    HW221504   1.927   5.471   5.004
 6869SOL     OW21505   5.795   2.646   5.224
 6869SOL    HW121506   5.767   2.719   5.161
 6869SOL    HW221507   5.825   2.567   5.171
 6870SOL     OW21508   6.553   3.498   2.604
 6870SOL    HW121509   6.514   3.477   2.514
 6870SOL    HW221510   6.653   3.493   2.599
 6871SOL     OW21511   5.779   4.903   2.363
 6871SOL    HW121512   5.802   4.837   2.291
 6871SOL    HW221513   5.752   4.854   2.446
 6872SOL     OW21514   1.618   3.226   0.812
 6872SOL    HW121515   1.571   3.170   0.880
 6872SOL    HW221516   1.677   3.169   0.756
 6873SOL     OW21517   5.838   3.532   5.393
 6873SOL    HW121518   5.895   3.466   5.443
 6873SOL    HW221519   5.813   3.493   5.305
 6874SOL     OW21520   0.314   4.550   3.249
 6874SOL    HW121521   0.381   4.624   3.251
 6874SOL    HW221522   0.229   4.581   3.292
 6875SOL     OW21523   1.566   2.423   3.391
 6875SOL    HW121524   1.662   2.446   3.382
 6875SOL    HW221525   1.510   2.505   3.375
 6876SOL     OW21526   4.183   5.084   5.857
 6876SOL    HW121527   4.274   5.114   5.827
 6876SOL    HW221528   4.113   5.122   5.796
 6877SOL     OW21529   2.290   3.926   6.483
 6877SOL    HW121530   2.294   4.011   6.536
 6877SOL    HW221531   2.233   3.940   6.402
 6878SOL     OW21532   2.346   2.396   5.306
 6878SOL    HW121533   2.325   2.477   5.251
 6878SOL    HW221534   2.274   2.381   5.373
 6879SOL     OW21535   0.990   1.499   0.253
 6879SOL    HW121536   0.956   1.540   0.168
 6879SOL    HW221537   0.914   1.489   0.318
 6880SOL     OW21538   2.148   3.404   5.174
 6880SOL    HW121539   2.070   3.379   5.231
 6880SOL    HW221540   2.154   3.342   5.096
 6881SOL     OW21541   6.727   3.745   2.473
 6881SOL    HW121542   6.627   3.745   2.469
 6881SOL    HW221543   6.764   3.727   2.382
 6882SOL     OW21544   2.441   0.306   5.761
 6882SOL    HW121545   2.516   0.315   5.695
 6882SOL    HW221546   2.476   0.263   5.844
 6883SOL     OW21547   3.774   1.371   1.602
 6883SOL    HW121548   3.816   1.395   1.689
 6883SOL    HW221549   3.720   1.288   1.613
 6884SOL     OW21550   1.593   3.405   4.532
 6884SOL    HW121551   1.680   3.373   4.569
 6884SOL    HW221552   1.574   3.498   4.563
 6885SOL     OW21553   3.699   5.402   4.248
 6885SOL    HW121554   3.756   5.325   4.276
 6885SOL    HW221555   3.757   5.482   4.232
 6886SOL     OW21556   0.129   1.098   2.880
 6886SOL    HW121557   0.191   1.081   2.803
 6886SOL    HW221558   0.071   1.018   2.893
 6887SOL     OW21559   4.998   6.833   5.612
 6887SOL    HW121560   5.022   6.920   5.570
 6887SOL    HW221561   5.080   6.794   5.655
 6888SOL     OW21562   5.587   6.598   6.700
 6888SOL    HW121563   5.577   6.683   6.647
 6888SOL    HW221564   5.621   6.620   6.791
 6889SOL     OW21565   0.582   2.536   5.983
 6889SOL    HW121566   0.626   2.552   6.071
 6889SOL    HW221567   0.510   2.605   5.969
 6890SOL     OW21568   3.013   6.124   1.081
 6890SOL    HW121569   3.056   6.204   1.039
 6890SOL    HW221570   2.964   6.153   1.164
 6891SOL     OW21571   2.145   3.882   4.810
 6891SOL    HW121572   2.115   3.791   4.838
 6891SOL    HW221573   2.198   3.923   4.884
 6892SOL     OW21574   3.585   0.955   3.675
 6892SOL    HW121575   3.627   1.043   3.694
 6892SOL    HW221576   3.529   0.961   3.592
 6893SOL     OW21577   5.748   5.857   0.773
 6893SOL    HW121578   5.811   5.926   0.736
 6893SOL    HW221579   5.688   5.899   0.841
 6894SOL     OW21580   6.433   5.542   6.738
 6894SOL    HW121581   6.420   5.443   6.744
 6894SOL    HW221582   6.480   5.575   6.820
 6895SOL     OW21583   2.833   4.993   6.882
 6895SOL    HW121584   2.735   4.982   6.866
 6895SOL    HW221585   2.847   5.049   6.963
 6896SOL     OW21586   2.940   0.038   4.340
 6896SOL    HW121587   3.000   6.980   4.337
 6896SOL    HW221588   2.947   0.089   4.254
 6897SOL     OW21589   2.330   3.521   0.146
 6897SOL    HW121590   2.370   3.468   0.072
 6897SOL    HW221591   2.280   3.460   0.207
 6898SOL     OW21592   3.404   1.705   1.926
 6898SOL    HW121593   3.444   1.712   1.835
 6898SOL    HW221594   3.305   1.691   1.917
 6899SOL     OW21595   4.641   6.884   0.699
 6899SOL    HW121596   4.735   6.886   0.664
 6899SOL    HW221597   4.628   6.804   0.756
 6900SOL     OW21598   6.081   0.516   6.238
 6900SOL    HW121599   6.094   0.499   6.335
 6900SOL    HW221600   6.038   0.605   6.225
 6901SOL     OW21601   0.932   0.034   6.118
 6901SOL    HW121602   0.854   7.014   6.165
 6901SOL    HW221603   0.924   0.019   6.020
 6902SOL     OW21604   0.263   6.238   0.569
 6902SOL    HW121605   0.189   6.173   0.551
 6902SOL    HW221606   0.318   6.205   0.646
 6903SOL     OW21607   4.167   4.645   5.792
 6903SOL    HW121608   4.262   4.651   5.822
 6903SOL    HW221609   4.151   4.557   5.747
 6904SOL     OW21610   6.248   1.389   4.195
 6904SOL    HW121611   6.295   1.358   4.277
 6904SOL    HW221612   6.289   1.475   4.163
 6905SOL     OW21613   6.203   6.629   0.018
 6905SOL    HW121614   6.206   6.717   0.066
 6905SOL    HW221615   6.229   6.642   6.944
 6906SOL     OW21616   4.171   0.853   3.877
 6906SOL    HW121617   4.181   0.778   3.812
 6906SOL    HW221618   4.074   0.870   3.895
 6907SOL     OW21619   4.823   0.561   1.089
 6907SOL    HW121620   4.799   0.548   0.993
 6907SOL    HW221621   4.754   0.519   1.147
 6908SOL     OW21622   1.052   6.555   5.235
 6908SOL    HW121623   0.997   6.585   5.313
 6908SOL    HW221624   1.096   6.468   5.257
 6909SOL     OW21625   5.386   4.801   1.257
 6909SOL    HW121626   5.413   4.738   1.330
 6909SOL    HW221627   5.467   4.828   1.205
 6910SOL     OW21628   6.490   2.509   3.209
 6910SOL    HW121629   6.480   2.422   3.161
 6910SOL    HW221630   6.460   2.498   3.304
 6911SOL     OW21631   3.751   6.824   3.081
 6911SOL    HW121632   3.763   6.794   3.176
 6911SOL    HW221633   3.728   6.745   3.024
 6912SOL     OW21634   4.687   4.508   1.493
 6912SOL    HW121635   4.660   4.414   1.515
 6912SOL    HW221636   4.618   4.551   1.436
 6913SOL     OW21637   4.792   4.952   5.923
 6913SOL    HW121638   4.867   4.904   5.878
 6913SOL    HW221639   4.774   5.038   5.876
 6914SOL     OW21640   6.193   4.658   7.021
 6914SOL    HW121641   6.163   4.701   6.936
 6914SOL    HW221642   6.152   4.567   0.007
 6915SOL     OW21643   6.744   4.438   1.690
 6915SOL    HW121644   6.816   4.435   1.621
 6915SOL    HW221645   6.779   4.483   1.772
 6916SOL     OW21646   5.894   4.172   0.116
 6916SOL    HW121647   5.964   4.211   0.176
 6916SOL    HW221648   5.838   4.246   0.078
 6917SOL     OW21649   3.194   4.884   0.406
 6917SOL    HW121650   3.239   4.877   0.317
 6917SOL    HW221651   3.248   4.834   0.475
 6918SOL     OW21652   0.846   4.138   4.588
 6918SOL    HW121653   0.913   4.086   4.534
 6918SOL    HW221654   0.822   4.222   4.539
 6919SOL     OW21655   0.706   5.642   3.339
 6919SOL    HW121656   0.692   5.572   3.269
 6919SOL    HW221657   0.631   5.638   3.405
 6920SOL     OW21658   3.866   5.598   6.096
 6920SOL    HW121659   3.822   5.665   6.036
 6920SOL    HW221660   3.910   5.645   6.172
 6921SOL     OW21661   4.851   5.590   3.300
 6921SOL    HW121662   4.937   5.611   3.254
 6921SOL    HW221663   4.868   5.582   3.398
 6922SOL     OW21664   1.896   5.610   0.102
 6922SOL    HW121665   1.907   5.646   0.194
 6922SOL    HW221666   1.840   5.674   0.048
 6923SOL     OW21667   5.528   6.719   3.160
 6923SOL    HW121668   5.443   6.686   3.202
 6923SOL    HW221669   5.597   6.735   3.230
 6924SOL     OW21670   0.660   4.094   6.902
 6924SOL    HW121671   0.756   4.081   6.876
 6924SOL    HW221672   0.626   4.178   6.862
 6925SOL     OW21673   3.573   6.124   4.484
 6925SOL    HW121674   3.655   6.180   4.494
 6925SOL    HW221675   3.585   6.039   4.536
 6926SOL     OW21676   3.128   3.107   2.132
 6926SOL    HW121677   3.047   3.141   2.179
 6926SOL    HW221678   3.101   3.069   2.043
 6927SOL     OW21679   5.929   3.818   5.846
 6927SOL    HW121680   5.851   3.850   5.792
 6927SOL    HW221681   6.013   3.861   5.813
 6928SOL     OW21682   6.299   6.363   0.600
 6928SOL    HW121683   6.297   6.331   0.694
 6928SOL    HW221684   6.272   6.459   0.597
 6929SOL     OW21685   4.986   5.519   0.908
 6929SOL    HW121686   4.893   5.519   0.943
 6929SOL    HW221687   5.000   5.601   0.852
 6930SOL     OW21688   6.682   6.719   1.512
 6930SOL    HW121689   6.665   6.714   1.610
 6930SOL    HW221690   6.760   6.778   1.494
 6931SOL     OW21691   1.262   0.810   2.060
 6931SOL    HW121692   1.268   0.908   2.077
 6931SOL    HW221693   1.279   0.791   1.963
 6932SOL     OW21694   4.002   0.953   0.855
 6932SOL    HW121695   3.957   1.011   0.786
 6932SOL    HW221696   3.940   0.940   0.932
 6933SOL     OW21697   3.908   6.363   4.771
 6933SOL    HW121698   3.912   6.416   4.686
 6933SOL    HW221699   3.874   6.421   4.845
 6934SOL     OW21700   4.679   4.249   5.956
 6934SOL    HW121701   4.623   4.180   5.911
 6934SOL    HW221702   4.756   4.206   6.003
 6935SOL     OW21703   4.236   6.147   3.108
 6935SOL    HW121704   4.227   6.164   3.010
 6935SOL    HW221705   4.185   6.064   3.132
 6936SOL     OW21706   6.752   2.581   2.547
 6936SOL    HW121707   6.776   2.571   2.643
 6936SOL    HW221708   6.660   2.545   2.532
 6937SOL     OW21709   6.134   6.276   6.858
 6937SOL    HW121710   6.055   6.264   6.918
 6937SOL    HW221711   6.217   6.249   6.906
 6938SOL     OW21712   5.334   3.861   5.277
 6938SOL    HW121713   5.259   3.887   5.338
 6938SOL    HW221714   5.353   3.764   5.287
 6939SOL     OW21715   6.857   4.731   1.600
 6939SOL    HW121716   6.811   4.816   1.575
 6939SOL    HW221717   6.863   4.672   1.520
 6940SOL     OW21718   4.879   1.413   0.566
 6940SOL    HW121719   4.832   1.349   0.627
 6940SOL    HW221720   4.813   1.458   0.506
 6941SOL     OW21721   3.745   2.937   2.879
 6941SOL    HW121722   3.793   2.951   2.966
 6941SOL    HW221723   3.802   2.884   2.817
 6942SOL     OW21724   6.553   2.836   0.710
 6942SOL    HW121725   6.632   2.892   0.686
 6942SOL    HW221726   6.473   2.895   0.721
 6943SOL     OW21727   4.545   6.347   0.136
 6943SOL    HW121728   4.618   6.288   0.170
 6943SOL    HW221729   4.504   6.306   0.054
 6944SOL     OW21730   0.910   4.538   5.732
 6944SOL    HW121731   0.948   4.517   5.642
 6944SOL    HW221732   0.982   4.529   5.802
 6945SOL     OW21733   6.224   3.023   6.406
 6945SOL    HW121734   6.305   3.075   6.434
 6945SOL    HW221735   6.247   2.969   6.325
 6946SOL     OW21736   6.641   5.906   2.315
 6946SOL    HW121737   6.637   5.905   2.415
 6946SOL    HW221738   6.729   5.943   2.285
 6947SOL     OW21739   3.088   6.900   5.025
 6947SOL    HW121740   3.053   6.949   5.105
 6947SOL    HW221741   3.012   6.868   4.969
 6948SOL     OW21742   6.271   0.787   0.243
 6948SOL    HW121743   6.273   0.838   0.329
 6948SOL    HW221744   6.190   0.812   0.190
 6949SOL     OW21745   5.541   0.200   4.086
 6949SOL    HW121746   5.538   0.287   4.036
 6949SOL    HW221747   5.456   0.188   4.137
 6950SOL     OW21748   2.494   0.364   3.510
 6950SOL    HW121749   2.569   0.309   3.547
 6950SOL    HW221750   2.520   0.461   3.510
 6951SOL     OW21751   5.773   6.422   5.988
 6951SOL    HW121752   5.716   6.457   5.914
 6951SOL    HW221753   5.829   6.346   5.955
 6952SOL     OW21754   6.883   5.779   3.802
 6952SOL    HW121755   6.867   5.686   3.767
 6952SOL    HW221756   6.808   5.838   3.773
 6953SOL     OW21757   5.010   0.339   6.774
 6953SOL    HW121758   5.049   0.254   6.811
 6953SOL    HW221759   4.990   0.327   6.677
 6954SOL     OW21760   0.529   3.396   4.036
 6954SOL    HW121761   0.466   3.472   4.054
 6954SOL    HW221762   0.581   3.414   3.952
 6955SOL     OW21763   6.905   0.489   2.760
 6955SOL    HW121764   6.874   0.563   2.819
 6955SOL    HW221765   6.839   0.474   2.686
 6956SOL     OW21766   4.795   6.659   2.162
 6956SOL    HW121767   4.707   6.707   2.156
 6956SOL    HW221768   4.819   6.623   2.072
 6957SOL     OW21769   5.661   4.986   1.797
 6957SOL    HW121770   5.708   5.019   1.714
 6957SOL    HW221771   5.596   5.055   1.827
 6958SOL     OW21772   2.890   4.114   5.265
 6958SOL    HW121773   2.880   4.053   5.344
 6958SOL    HW221774   2.849   4.071   5.185
 6959SOL     OW21775   2.777   1.169   4.644
 6959SOL    HW121776   2.850   1.197   4.707
 6959SOL    HW221777   2.689   1.171   4.692
 6960SOL     OW21778   1.321   5.361   1.119
 6960SOL    HW121779   1.312   5.301   1.199
 6960SOL    HW221780   1.272   5.321   1.042
 6961SOL     OW21781   6.699   2.722   4.195
 6961SOL    HW121782   6.774   2.724   4.129
 6961SOL    HW221783   6.712   2.797   4.261
 6962SOL     OW21784   4.897   5.490   2.466
 6962SOL    HW121785   4.945   5.469   2.551
 6962SOL    HW221786   4.799   5.500   2.484
 6963SOL     OW21787   6.906   5.297   0.749
 6963SOL    HW121788   6.921   5.326   0.844
 6963SOL    HW221789   6.857   5.369   0.700
 6964SOL     OW21790   4.555   4.828   4.242
 6964SOL    HW121791   4.495   4.753   4.213
 6964SOL    HW221792   4.650   4.802   4.225
 6965SOL     OW21793   0.855   3.401   5.924
 6965SOL    HW121794   0.824   3.322   5.977
 6965SOL    HW221795   0.792   3.418   5.848
 6966SOL     OW21796   6.441   2.237   3.094
 6966SOL    HW121797   6.454   2.187   3.008
 6966SOL    HW221798   6.451   2.174   3.171
 6967SOL     OW21799   1.823   0.698   5.477
 6967SOL    HW121800   1.762   0.678   5.553
 6967SOL    HW221801   1.775   0.685   5.390
 6968SOL     OW21802   3.400   6.681   2.237
 6968SOL    HW121803   3.381   6.735   2.320
 6968SOL    HW221804   3.406   6.743   2.159
 6969SOL     OW21805   3.414   1.997   1.636
 6969SOL    HW121806   3.426   2.087   1.677
 6969SOL    HW221807   3.319   1.967   1.648
 6970SOL     OW21808   4.464   3.979   0.493
 6970SOL    HW121809   4.500   4.053   0.436
 6970SOL    HW221810   4.396   3.927   0.441
 6971SOL     OW21811   6.920   4.265   2.128
 6971SOL    HW121812   6.941   4.267   2.030
 6971SOL    HW221813   6.992   4.311   2.179
 6972SOL     OW21814   5.260   5.417   4.179
 6972SOL    HW121815   5.291   5.392   4.271
 6972SOL    HW221816   5.310   5.363   4.111
 6973SOL     OW21817   0.797   3.777   5.110
 6973SOL    HW121818   0.835   3.684   5.106
 6973SOL    HW221819   0.864   3.842   5.077
 6974SOL     OW21820   3.382   3.089   3.098
 6974SOL    HW121821   3.390   3.012   3.161
 6974SOL    HW221822   3.467   3.142   3.098
 6975SOL     OW21823   2.792   6.333   6.054
 6975SOL    HW121824   2.711   6.346   5.996
 6975SOL    HW221825   2.842   6.252   6.022
 6976SOL     OW21826   4.313   4.771   5.565
 6976SOL    HW121827   4.389   4.792   5.626
 6976SOL    HW221828   4.230   4.759   5.618
 6977SOL     OW21829   4.526   2.552   1.682
 6977SOL    HW121830   4.465   2.497   1.739
 6977SOL    HW221831   4.511   2.649   1.700
 6978SOL     OW21832   6.038   2.276   1.608
 6978SOL    HW121833   6.063   2.315   1.520
 6978SOL    HW221834   6.118   2.238   1.653
 6979SOL     OW21835   1.619   5.212   0.664
 6979SOL    HW121836   1.615   5.182   0.569
 6979SOL    HW221837   1.617   5.132   0.724
 6980SOL     OW21838   1.926   0.789   3.638
 6980SOL    HW121839   1.977   0.741   3.567
 6980SOL    HW221840   1.964   0.881   3.649
 6981SOL     OW21841   2.522   2.921   6.827
 6981SOL    HW121842   2.576   2.993   6.870
 6981SOL    HW221843   2.557   2.903   6.735
 6982SOL     OW21844   1.142   1.105   3.925
 6982SOL    HW121845   1.192   1.043   3.985
 6982SOL    HW221846   1.158   1.080   3.830
 6983SOL     OW21847   5.151   1.819   3.319
 6983SOL    HW121848   5.111   1.833   3.410
 6983SOL    HW221849   5.250   1.812   3.327
 6984SOL     OW21850   2.363   2.369   4.316
 6984SOL    HW121851   2.417   2.290   4.285
 6984SOL    HW221852   2.422   2.430   4.369
 6985SOL     OW21853   3.631   5.524   1.785
 6985SOL    HW121854   3.673   5.552   1.872
 6985SOL    HW221855   3.570   5.447   1.801
 6986SOL     OW21856   2.073   6.067   6.419
 6986SOL    HW121857   2.014   6.110   6.351
 6986SOL    HW221858   2.105   5.979   6.384
 6987SOL     OW21859   0.204   1.721   6.092
 6987SOL    HW121860   0.117   1.768   6.078
 6987SOL    HW221861   0.190   1.622   6.091
 6988SOL     OW21862   6.560   0.907   5.756
 6988SOL    HW121863   6.575   0.899   5.657
 6988SOL    HW221864   6.603   0.830   5.803
 6989SOL     OW21865   0.391   3.676   3.246
 6989SOL    HW121866   0.308   3.657   3.298
 6989SOL    HW221867   0.373   3.659   3.149
 6990SOL     OW21868   5.192   2.110   1.019
 6990SOL    HW121869   5.155   2.018   1.026
 6990SOL    HW221870   5.149   2.157   0.942
 6991SOL     OW21871   2.725   4.727   3.714
 6991SOL    HW121872   2.824   4.712   3.707
 6991SOL    HW221873   2.693   4.772   3.631
 6992SOL     OW21874   5.625   6.431   5.273
 6992SOL    HW121875   5.705   6.464   5.323
 6992SOL    HW221876   5.619   6.477   5.185
 6993SOL     OW21877   0.089   0.738   2.725
 6993SOL    HW121878   0.044   0.792   2.796
 6993SOL    HW221879   0.099   0.793   2.642
 6994SOL     OW21880   1.067   3.414   4.888
 6994SOL    HW121881   1.117   3.468   4.956
 6994SOL    HW221882   1.052   3.470   4.806
 6995SOL     OW21883   6.498   5.347   6.310
 6995SOL    HW121884   6.427   5.304   6.253
 6995SOL    HW221885   6.553   5.408   6.253
 6996SOL     OW21886   2.076   0.893   5.568
 6996SOL    HW121887   2.038   0.939   5.488
 6996SOL    HW221888   2.098   0.798   5.545
 6997SOL     OW21889   5.878   5.701   5.310
 6997SOL    HW121890   5.876   5.633   5.384
 6997SOL    HW221891   5.811   5.773   5.330
 6998SOL     OW21892   2.420   2.525   1.504
 6998SOL    HW121893   2.346   2.557   1.563
 6998SOL    HW221894   2.503   2.577   1.523
 6999SOL     OW21895   2.415   2.401   6.318
 6999SOL    HW121896   2.501   2.416   6.367
 6999SOL    HW221897   2.407   2.304   6.294
 7000SOL     OW21898   6.393   5.280   2.288
 7000SOL    HW121899   6.327   5.226   2.340
 7000SOL    HW221900   6.475   5.296   2.345
 7001SOL     OW21901   2.705   3.176   5.273
 7001SOL    HW121902   2.627   3.121   5.242
 7001SOL    HW221903   2.704   3.180   5.373
 7002SOL     OW21904   1.975   5.021   3.058
 7002SOL    HW121905   2.009   5.096   3.002
 7002SOL    HW221906   1.881   5.040   3.086
 7003SOL     OW21907   3.758   5.353   6.829
 7003SOL    HW121908   3.768   5.350   6.729
 7003SOL    HW221909   3.833   5.302   6.871
 7004SOL     OW21910   2.047   5.030   1.531
 7004SOL    HW121911   2.045   5.130   1.540
 7004SOL    HW221912   2.087   5.005   1.443
 7005SOL     OW21913   1.477   6.699   6.582
 7005SOL    HW121914   1.569   6.706   6.544
 7005SOL    HW221915   1.481   6.706   6.682
 7006SOL     OW21916   4.995   4.460   5.192
 7006SOL    HW121917   5.001   4.494   5.287
 7006SOL    HW221918   4.957   4.368   5.192
 7007SOL     OW21919   4.795   6.919   3.467
 7007SOL    HW121920   4.801   6.893   3.370
 7007SOL    HW221921   4.733   6.856   3.514
 7008SOL     OW21922   1.617   5.296   4.675
 7008SOL    HW121923   1.602   5.235   4.753
 7008SOL    HW221924   1.681   5.368   4.702
 7009SOL     OW21925   6.082   5.507   2.461
 7009SOL    HW121926   6.099   5.411   2.484
 7009SOL    HW221927   5.983   5.525   2.466
 7010SOL     OW21928   4.089   4.038   5.987
 7010SOL    HW121929   4.018   4.029   6.057
 7010SOL    HW221930   4.059   3.992   5.903
 7011SOL     OW21931   2.406   0.536   6.373
 7011SOL    HW121932   2.413   0.570   6.467
 7011SOL    HW221933   2.497   0.537   6.330
 7012SOL     OW21934   1.961   0.974   2.277
 7012SOL    HW121935   1.952   0.977   2.376
 7012SOL    HW221936   2.025   1.045   2.247
 7013SOL     OW21937   0.415   6.623   0.320
 7013SOL    HW121938   0.383   6.602   0.413
 7013SOL    HW221939   0.450   6.716   0.318
 7014SOL     OW21940   5.153   3.161   1.796
 7014SOL    HW121941   5.083   3.095   1.822
 7014SOL    HW221942   5.165   3.159   1.696
 7015SOL     OW21943   5.654   5.093   2.701
 7015SOL    HW121944   5.722   5.167   2.702
 7015SOL    HW221945   5.595   5.103   2.621
 7016SOL     OW21946   3.768   4.650   1.670
 7016SOL    HW121947   3.729   4.647   1.578
 7016SOL    HW221948   3.695   4.657   1.738
 7017SOL     OW21949   1.973   7.017   2.220
 7017SOL    HW121950   2.051   0.058   2.225
 7017SOL    HW221951   1.977   6.952   2.296
 7018SOL     OW21952   6.156   4.483   5.036
 7018SOL    HW121953   6.196   4.392   5.041
 7018SOL    HW221954   6.110   4.504   5.122
 7019SOL     OW21955   2.596   3.798   6.691
 7019SOL    HW121956   2.656   3.719   6.702
 7019SOL    HW221957   2.508   3.779   6.736
 7020SOL     OW21958   6.182   0.107   6.829
 7020SOL    HW121959   6.154   0.173   6.899
 7020SOL    HW221960   6.203   0.155   6.744
 7021SOL     OW21961   2.083   1.522   5.577
 7021SOL    HW121962   2.072   1.610   5.531
 7021SOL    HW221963   2.130   1.458   5.516
 7022SOL     OW21964   4.539   5.376   0.892
 7022SOL    HW121965   4.600   5.307   0.852
 7022SOL    HW221966   4.448   5.336   0.905
 7023SOL     OW21967   0.197   2.019   3.451
 7023SOL    HW121968   0.120   1.955   3.450
 7023SOL    HW221969   0.210   2.053   3.544
 7024SOL     OW21970   1.279   4.851   5.480
 7024SOL    HW121971   1.339   4.918   5.436
 7024SOL    HW221972   1.335   4.783   5.527
 7025SOL     OW21973   2.590   1.064   6.965
 7025SOL    HW121974   2.492   1.079   6.979
 7025SOL    HW221975   2.639   1.079   0.029
 7026SOL     OW21976   2.647   1.772   2.167
 7026SOL    HW121977   2.561   1.724   2.180
 7026SOL    HW221978   2.687   1.745   2.079
 7027SOL     OW21979   2.600   4.874   3.499
 7027SOL    HW121980   2.637   4.951   3.549
 7027SOL    HW221981   2.526   4.832   3.551
 7028SOL     OW21982   5.448   6.390   4.402
 7028SOL    HW121983   5.369   6.361   4.457
 7028SOL    HW221984   5.508   6.447   4.458
 7029SOL     OW21985   4.025   6.179   6.232
 7029SOL    HW121986   3.967   6.186   6.151
 7029SOL    HW221987   4.112   6.225   6.215
 7030SOL     OW21988   6.540   2.577   5.613
 7030SOL    HW121989   6.547   2.502   5.679
 7030SOL    HW221990   6.630   2.600   5.578
 7031SOL     OW21991   2.423   6.583   4.765
 7031SOL    HW121992   2.377   6.604   4.851
 7031SOL    HW221993   2.508   6.534   4.784
 7032SOL     OW21994   3.607   6.468   3.571
 7032SOL    HW121995   3.532   6.529   3.545
 7032SOL    HW221996   3.651   6.432   3.489
 7033SOL     OW21997   0.362   2.044   3.867
 7033SOL    HW121998   0.336   2.140   3.868
 7033SOL    HW221999   0.287   1.989   3.829
 7034SOL     OW22000   6.006   0.347   3.077
 7034SOL    HW122001   6.048   0.256   3.077
 7034SOL    HW222002   5.944   0.356   3.155
 7035SOL     OW22003   1.189   6.528   1.884
 7035SOL    HW122004   1.243   6.481   1.814
 7035SOL    HW222005   1.094   6.535   1.853
 7036SOL     OW22006   0.111   0.745   2.046
 7036SOL    HW122007   0.204   0.710   2.052
 7036SOL    HW222008   0.104   0.831   2.097
 7037SOL     OW22009   1.590   0.621   6.180
 7037SOL    HW122010   1.574   0.660   6.271
 7037SOL    HW222011   1.653   0.680   6.130
 7038SOL     OW22012   1.525   2.994   4.121
 7038SOL    HW122013   1.516   3.094   4.120
 7038SOL    HW222014   1.434   2.953   4.114
 7039SOL     OW22015   2.949   5.482   1.605
 7039SOL    HW122016   2.881   5.426   1.652
 7039SOL    HW222017   2.974   5.438   1.519
 7040SOL     OW22018   6.227   2.106   4.773
 7040SOL    HW122019   6.288   2.162   4.830
 7040SOL    HW222020   6.201   2.157   4.691
 7041SOL     OW22021   0.646   2.230   2.514
 7041SOL    HW122022   0.622   2.203   2.421
 7041SOL    HW222023   0.570   2.280   2.555
 7042SOL     OW22024   5.755   5.304   6.942
 7042SOL    HW122025   5.840   5.253   6.954
 7042SOL    HW222026   5.681   5.257   6.990
 7043SOL     OW22027   2.170   2.934   3.302
 7043SOL    HW122028   2.236   2.868   3.266
 7043SOL    HW222029   2.168   2.927   3.402
 7044SOL     OW22030   4.651   5.078   2.248
 7044SOL    HW122031   4.624   5.163   2.293
 7044SOL    HW222032   4.715   5.097   2.174
 7045SOL     OW22033   4.712   5.751   2.495
 7045SOL    HW122034   4.797   5.803   2.487
 7045SOL    HW222035   4.677   5.756   2.588
 7046SOL     OW22036   3.766   1.779   3.280
 7046SOL    HW122037   3.856   1.802   3.242
 7046SOL    HW222038   3.723   1.862   3.314
 7047SOL     OW22039   0.955   2.645   2.271
 7047SOL    HW122040   0.966   2.744   2.275
 7047SOL    HW222041   1.035   2.601   2.310
 7048SOL     OW22042   0.296   5.921   2.195
 7048SOL    HW122043   0.276   5.949   2.101
 7048SOL    HW222044   0.321   5.824   2.196
 7049SOL     OW22045   2.182   1.679   1.338
 7049SOL    HW122046   2.168   1.668   1.436
 7049SOL    HW222047   2.115   1.743   1.301
 7050SOL     OW22048   4.157   3.551   2.561
 7050SOL    HW122049   4.252   3.580   2.570
 7050SOL    HW222050   4.140   3.524   2.466
 7051SOL     OW22051   7.017   0.671   1.167
 7051SOL    HW122052   6.968   0.606   1.225
 7051SOL    HW222053   0.080   0.629   1.132
 7052SOL     OW22054   5.964   2.826   3.651
 7052SOL    HW122055   5.975   2.844   3.553
 7052SOL    HW222056   5.916   2.903   3.694
 7053SOL     OW22057   0.723   3.286   4.579
 7053SOL    HW122058   0.697   3.260   4.672
 7053SOL    HW222059   0.778   3.370   4.582
 7054SOL     OW22060   0.581   6.329   0.997
 7054SOL    HW122061   0.531   6.338   1.083
 7054SOL    HW222062   0.563   6.408   0.939
 7055SOL     OW22063   3.696   5.680   5.364
 7055SOL    HW122064   3.703   5.678   5.264
 7055SOL    HW222065   3.627   5.614   5.393
 7056SOL     OW22066   5.436   6.022   2.576
 7056SOL    HW122067   5.486   5.938   2.558
 7056SOL    HW222068   5.341   6.011   2.547
 7057SOL     OW22069   1.283   6.165   3.500
 7057SOL    HW122070   1.331   6.248   3.469
 7057SOL    HW222071   1.186   6.186   3.510
 7058SOL     OW22072   6.868   5.570   6.338
 7058SOL    HW122073   6.917   5.650   6.302
 7058SOL    HW222074   6.815   5.598   6.418
 7059SOL     OW22075   0.002   1.023   3.258
 7059SOL    HW122076   0.031   0.979   3.173
 7059SOL    HW222077   6.939   0.979   3.291
 7060SOL     OW22078   4.147   0.382   1.964
 7060SOL    HW122079   4.063   0.399   1.913
 7060SOL    HW222080   4.221   0.440   1.929
 7061SOL     OW22081   0.118   3.173   3.889
 7061SOL    HW122082   0.179   3.096   3.870
 7061SOL    HW222083   0.167   3.259   3.876
 7062SOL     OW22084   5.543   1.393   5.671
 7062SOL    HW122085   5.587   1.315   5.716
 7062SOL    HW222086   5.609   1.468   5.663
 7063SOL     OW22087   0.341   0.196   1.291
 7063SOL    HW122088   0.357   0.269   1.359
 7063SOL    HW222089   0.285   0.232   1.217
 7064SOL     OW22090   4.166   1.890   2.381
 7064SOL    HW122091   4.074   1.856   2.359
 7064SOL    HW222092   4.234   1.830   2.340
 7065SOL     OW22093   3.841   2.788   6.071
 7065SOL    HW122094   3.845   2.822   6.165
 7065SOL    HW222095   3.775   2.842   6.019
 7066SOL     OW22096   4.203   0.384   0.615
 7066SOL    HW122097   4.253   0.399   0.529
 7066SOL    HW222098   4.118   0.437   0.613
 7067SOL     OW22099   1.730   1.507   5.616
 7067SOL    HW122100   1.790   1.546   5.686
 7067SOL    HW222101   1.636   1.539   5.631
 7068SOL     OW22102   0.728   4.264   4.302
 7068SOL    HW122103   0.647   4.322   4.292
 7068SOL    HW222104   0.789   4.303   4.370
 7069SOL     OW22105   6.457   2.080   3.936
 7069SOL    HW122106   6.421   2.044   3.851
 7069SOL    HW222107   6.382   2.098   3.999
 7070SOL     OW22108   6.933   6.583   4.674
 7070SOL    HW122109   7.015   6.640   4.670
 7070SOL    HW222110   6.858   6.628   4.626
 7071SOL     OW22111   1.679   6.722   5.985
 7071SOL    HW122112   1.760   6.780   5.985
 7071SOL    HW222113   1.632   6.730   6.073
 7072SOL     OW22114   0.604   6.067   6.368
 7072SOL    HW122115   0.652   6.153   6.349
 7072SOL    HW222116   0.671   5.996   6.389
 7073SOL     OW22117   5.847   6.808   4.820
 7073SOL    HW122118   5.932   6.777   4.778
 7073SOL    HW222119   5.862   6.897   4.864
 7074SOL     OW22120   4.265   2.301   1.388
 7074SOL    HW122121   4.317   2.248   1.322
 7074SOL    HW222122   4.327   2.360   1.440
 7075SOL     OW22123   1.727   5.491   5.491
 7075SOL    HW122124   1.780   5.573   5.473
 7075SOL    HW222125   1.700   5.449   5.404
 7076SOL     OW22126   5.299   2.251   6.283
 7076SOL    HW122127   5.322   2.341   6.248
 7076SOL    HW222128   5.380   2.210   6.326
 7077SOL     OW22129   2.450   4.431   4.708
 7077SOL    HW122130   2.486   4.352   4.758
 7077SOL    HW222131   2.521   4.466   4.646
 7078SOL     OW22132   6.354   0.687   1.634
 7078SOL    HW122133   6.318   0.594   1.639
 7078SOL    HW222134   6.435   0.689   1.575
 7079SOL     OW22135   6.489   6.315   4.990
 7079SOL    HW122136   6.489   6.339   5.087
 7079SOL    HW222137   6.575   6.270   4.966
 7080SOL     OW22138   3.231   2.136   4.399
 7080SOL    HW122139   3.226   2.134   4.299
 7080SOL    HW222140   3.149   2.181   4.436
 7081SOL     OW22141   2.595   1.802   6.956
 7081SOL    HW122142   2.690   1.831   6.967
 7081SOL    HW222143   2.592   1.721   6.896
 7082SOL     OW22144   6.231   4.219   6.795
 7082SOL    HW122145   6.172   4.178   6.865
 7082SOL    HW222146   6.180   4.289   6.746
 7083SOL     OW22147   2.872   0.686   0.427
 7083SOL    HW122148   2.794   0.724   0.478
 7083SOL    HW222149   2.939   0.650   0.492
 7084SOL     OW22150   0.321   6.412   5.760
 7084SOL    HW122151   0.357   6.325   5.795
 7084SOL    HW222152   0.397   6.474   5.743
 7085SOL     OW22153   1.267   1.863   1.761
 7085SOL    HW122154   1.295   1.804   1.837
 7085SOL    HW222155   1.348   1.892   1.710
 7086SOL     OW22156   5.363   1.323   5.436
 7086SOL    HW122157   5.393   1.233   5.468
 7086SOL    HW222158   5.373   1.390   5.510
 7087SOL     OW22159   5.863   4.406   3.795
 7087SOL    HW122160   5.796   4.357   3.739
 7087SOL    HW222161   5.862   4.503   3.771
 7088SOL     OW22162   5.719   2.632   3.669
 7088SOL    HW122163   5.789   2.704   3.673
 7088SOL    HW222164   5.687   2.621   3.575
 7089SOL     OW22165   3.560   2.216   5.344
 7089SOL    HW122166   3.525   2.157   5.271
 7089SOL    HW222167   3.640   2.266   5.312
 7090SOL     OW22168   2.240   1.276   6.178
 7090SOL    HW122169   2.274   1.211   6.110
 7090SOL    HW222170   2.147   1.252   6.204
 7091SOL     OW22171   0.239   1.612   0.011
 7091SOL    HW122172   0.301   1.690   0.009
 7091SOL    HW222173   0.168   1.624   6.962
 7092SOL     OW22174   4.195   2.643   6.351
 7092SOL    HW122175   4.277   2.698   6.363
 7092SOL    HW222176   4.220   2.552   6.318
 7093SOL     OW22177   2.861   3.491   3.094
 7093SOL    HW122178   2.843   3.442   3.008
 7093SOL    HW222179   2.884   3.586   3.073
 7094SOL     OW22180   1.044   5.494   5.871
 7094SOL    HW122181   1.099   5.577   5.884
 7094SOL    HW222182   1.040   5.472   5.773
 7095SOL     OW22183   2.772   4.018   6.068
 7095SOL    HW122184   2.842   4.038   6.137
 7095SOL    HW222185   2.681   4.038   6.106
 7096SOL     OW22186   6.158   0.604   4.008
 7096SOL    HW122187   6.211   0.632   3.927
 7096SOL    HW222188   6.221   0.573   4.079
 7097SOL     OW22189   5.917   1.597   1.410
 7097SOL    HW122190   5.961   1.527   1.468
 7097SOL    HW222191   5.851   1.648   1.464
 7098SOL     OW22192   0.698   0.559   4.696
 7098SOL    HW122193   0.733   0.642   4.740
 7098SOL    HW222194   0.702   0.570   4.597
 7099SOL     OW22195   2.559   0.911   4.801
 7099SOL    HW122196   2.527   0.858   4.723
 7099SOL    HW222197   2.509   0.883   4.883
 7100SOL     OW22198   5.689   3.193   0.891
 7100SOL    HW122199   5.779   3.179   0.931
 7100SOL    HW222200   5.619   3.161   0.955
 7101SOL     OW22201   2.244   0.912   4.708
 7101SOL    HW122202   2.152   0.941   4.736
 7101SOL    HW222203   2.300   0.896   4.788
 7102SOL     OW22204   4.504   0.549   0.962
 7102SOL    HW122205   4.588   0.539   0.909
 7102SOL    HW222206   4.528   0.558   1.059
 7103SOL     OW22207   4.450   4.940   1.657
 7103SOL    HW122208   4.522   4.918   1.723
 7103SOL    HW222209   4.460   4.882   1.576
 7104SOL     OW22210   1.246   3.333   4.640
 7104SOL    HW122211   1.308   3.384   4.700
 7104SOL    HW222212   1.151   3.360   4.658
 7105SOL     OW22213   3.235   2.841   5.417
 7105SOL    HW122214   3.288   2.770   5.370
 7105SOL    HW222215   3.273   2.931   5.394
 7106SOL     OW22216   2.971   3.763   3.005
 7106SOL    HW122217   3.032   3.836   3.035
 7106SOL    HW222218   2.967   3.761   2.906
 7107SOL     OW22219   2.710   2.008   0.498
 7107SOL    HW122220   2.661   2.094   0.509
 7107SOL    HW222221   2.668   1.937   0.555
 7108SOL     OW22222   3.598   6.666   2.596
 7108SOL    HW122223   3.697   6.670   2.614
 7108SOL    HW222224   3.583   6.632   2.503
 7109SOL     OW22225   3.225   0.372   6.398
 7109SOL    HW122226   3.284   0.446   6.367
 7109SOL    HW222227   3.279   0.305   6.449
 7110SOL     OW22228   3.562   6.009   3.965
 7110SOL    HW122229   3.474   6.048   3.989
 7110SOL    HW222230   3.584   6.031   3.870
 7111SOL     OW22231   2.329   1.888   4.302
 7111SOL    HW122232   2.238   1.893   4.343
 7111SOL    HW222233   2.332   1.813   4.236
 7112SOL     OW22234   1.770   5.496   4.048
 7112SOL    HW122235   1.853   5.519   4.098
 7112SOL    HW222236   1.690   5.514   4.105
 7113SOL     OW22237   3.462   4.186   4.848
 7113SOL    HW122238   3.553   4.196   4.807
 7113SOL    HW222239   3.393   4.193   4.776
 7114SOL     OW22240   4.040   6.580   1.348
 7114SOL    HW122241   4.099   6.609   1.423
 7114SOL    HW222242   3.977   6.655   1.325
 7115SOL     OW22243   5.244   3.520   2.162
 7115SOL    HW122244   5.280   3.488   2.075
 7115SOL    HW222245   5.319   3.547   2.222
 7116SOL     OW22246   5.637   3.899   3.367
 7116SOL    HW122247   5.621   3.992   3.333
 7116SOL    HW222248   5.730   3.871   3.345
 7117SOL     OW22249   6.646   6.361   4.703
 7117SOL    HW122250   6.653   6.286   4.768
 7117SOL    HW222251   6.726   6.361   4.643
 7118SOL     OW22252   2.680   3.693   0.930
 7118SOL    HW122253   2.668   3.738   1.018
 7118SOL    HW222254   2.669   3.760   0.856
 7119SOL     OW22255   4.856   1.476   3.074
 7119SOL    HW122256   4.756   1.481   3.080
 7119SOL    HW222257   4.884   1.475   2.978
 7120SOL     OW22258   4.083   2.254   2.647
 7120SOL    HW122259   4.159   2.297   2.695
 7120SOL    HW222260   4.073   2.159   2.678
 7121SOL     OW22261   1.616   6.956   2.524
 7121SOL    HW122262   1.671   6.887   2.570
 7121SOL    HW222263   1.537   6.979   2.580
 7122SOL     OW22264   1.001   0.504   5.753
 7122SOL    HW122265   1.093   0.479   5.724
 7122SOL    HW222266   0.963   0.573   5.690
 7123SOL     OW22267   2.314   4.727   2.693
 7123SOL    HW122268   2.260   4.722   2.609
 7123SOL    HW222269   2.288   4.809   2.745
 7124SOL     OW22270   0.083   2.290   0.775
 7124SOL    HW122271   0.013   2.335   0.719
 7124SOL    HW222272   0.128   2.358   0.833
 7125SOL     OW22273   6.306   6.641   0.580
 7125SOL    HW122274   6.340   6.692   0.658
 7125SOL    HW222275   6.304   6.700   0.499
 7126SOL     OW22276   3.293   4.154   0.164
 7126SOL    HW122277   3.311   4.059   0.189
 7126SOL    HW222278   3.377   4.208   0.173
 7127SOL     OW22279   1.865   5.940   4.795
 7127SOL    HW122280   1.928   5.999   4.845
 7127SOL    HW222281   1.786   5.920   4.851
 7128SOL     OW22282   3.197   4.476   0.392
 7128SOL    HW122283   3.271   4.409   0.390
 7128SOL    HW222284   3.109   4.430   0.377
 7129SOL     OW22285   2.088   1.376   0.524
 7129SOL    HW122286   2.106   1.395   0.427
 7129SOL    HW222287   2.075   1.278   0.536
 7130SOL     OW22288   3.862   5.152   5.245
 7130SOL    HW122289   3.791   5.219   5.221
 7130SOL    HW222290   3.925   5.141   5.168
 7131SOL     OW22291   2.294   1.159   0.743
 7131SOL    HW122292   2.208   1.173   0.793
 7131SOL    HW222293   2.330   1.248   0.713
 7132SOL     OW22294   3.742   3.769   6.790
 7132SOL    HW122295   3.665   3.827   6.815
 7132SOL    HW222296   3.729   3.734   6.697
 7133SOL     OW22297   5.329   5.649   4.611
 7133SOL    HW122298   5.328   5.730   4.670
 7133SOL    HW222299   5.345   5.568   4.667
 7134SOL     OW22300   5.794   6.671   1.930
 7134SOL    HW122301   5.787   6.618   2.014
 7134SOL    HW222302   5.728   6.746   1.932
 7135SOL     OW22303   1.135   3.272   2.620
 7135SOL    HW122304   1.081   3.189   2.614
 7135SOL    HW222305   1.207   3.270   2.550
 7136SOL     OW22306   1.769   2.515   1.023
 7136SOL    HW122307   1.818   2.432   0.998
 7136SOL    HW222308   1.739   2.508   1.118
 7137SOL     OW22309   4.440   0.319   6.976
 7137SOL    HW122310   4.513   0.263   6.935
 7137SOL    HW222311   4.410   0.388   6.910
 7138SOL     OW22312   1.836   2.905   0.145
 7138SOL    HW122313   1.840   2.827   0.208
 7138SOL    HW222314   1.743   2.941   0.143
 7139SOL     OW22315   5.421   3.836   2.345
 7139SOL    HW122316   5.431   3.737   2.336
 7139SOL    HW222317   5.389   3.874   2.259
 7140SOL     OW22318   5.498   4.615   4.518
 7140SOL    HW122319   5.532   4.667   4.440
 7140SOL    HW222320   5.500   4.517   4.497
 7141SOL     OW22321   3.182   6.322   1.382
 7141SOL    HW122322   3.273   6.302   1.345
 7141SOL    HW222323   3.187   6.323   1.482
 7142SOL     OW22324   4.044   6.971   3.432
 7142SOL    HW122325   4.108   6.924   3.493
 7142SOL    HW222326   3.954   6.929   3.438
 7143SOL     OW22327   1.409   3.276   6.306
 7143SOL    HW122328   1.401   3.185   6.265
 7143SOL    HW222329   1.470   3.332   6.251
 7144SOL     OW22330   1.817   1.685   3.018
 7144SOL    HW122331   1.916   1.691   3.009
 7144SOL    HW222332   1.793   1.667   3.114
 7145SOL     OW22333   4.007   6.980   6.815
 7145SOL    HW122334   3.923   6.926   6.815
 7145SOL    HW222335   4.085   6.919   6.832
 7146SOL     OW22336   2.354   0.655   0.384
 7146SOL    HW122337   2.259   0.662   0.354
 7146SOL    HW222338   2.390   0.747   0.403
 7147SOL     OW22339   6.871   6.547   3.156
 7147SOL    HW122340   6.883   6.591   3.067
 7147SOL    HW222341   6.936   6.472   3.166
 7148SOL     OW22342   0.308   6.803   6.773
 7148SOL    HW122343   0.267   6.794   6.682
 7148SOL    HW222344   0.254   6.866   6.828
 7149SOL     OW22345   6.249   6.625   2.817
 7149SOL    HW122346   6.163   6.676   2.811
 7149SOL    HW222347   6.237   6.546   2.877
 7150SOL     OW22348   3.017   1.641   2.204
 7150SOL    HW122349   2.937   1.621   2.261
 7150SOL    HW222350   3.014   1.583   2.122
 7151SOL     OW22351   1.945   6.139   0.555
 7151SOL    HW122352   1.845   6.145   0.549
 7151SOL    HW222353   1.986   6.204   0.491
 7152SOL     OW22354   1.252   1.521   4.696
 7152SOL    HW122355   1.225   1.425   4.711
 7152SOL    HW222356   1.295   1.529   4.606
 7153SOL     OW22357   3.471   5.572   2.256
 7153SOL    HW122358   3.524   5.599   2.175
 7153SOL    HW222359   3.495   5.632   2.332
 7154SOL     OW22360   3.329   0.954   4.195
 7154SOL    HW122361   3.248   0.924   4.246
 7154SOL    HW222362   3.391   0.876   4.182
 7155SOL     OW22363   2.130   3.717   1.813
 7155SOL    HW122364   2.202   3.756   1.756
 7155SOL    HW222365   2.159   3.628   1.849
 7156SOL     OW22366   0.424   4.130   4.480
 7156SOL    HW122367   0.376   4.158   4.397
 7156SOL    HW222368   0.374   4.055   4.524
 7157SOL     OW22369   5.892   4.612   1.933
 7157SOL    HW122370   5.955   4.540   1.963
 7157SOL    HW222371   5.829   4.575   1.866
 7158SOL     OW22372   1.228   0.179   2.511
 7158SOL    HW122373   1.180   0.251   2.461
 7158SOL    HW222374   1.216   0.192   2.609
 7159SOL     OW22375   0.399   4.548   2.580
 7159SOL    HW122376   0.304   4.540   2.548
 7159SOL    HW222377   0.421   4.469   2.637
 7160SOL     OW22378   5.313   0.726   2.948
 7160SOL    HW122379   5.310   0.632   2.915
 7160SOL    HW222380   5.393   0.738   3.007
 7161SOL     OW22381   2.903   3.446   5.020
 7161SOL    HW122382   2.963   3.466   5.097
 7161SOL    HW222383   2.807   3.460   5.048
 7162SOL     OW22384   2.312   5.712   5.743
 7162SOL    HW122385   2.318   5.776   5.666
 7162SOL    HW222386   2.351   5.624   5.717
 7163SOL     OW22387   2.895   6.494   2.944
 7163SOL    HW122388   2.817   6.458   2.894
 7163SOL    HW222389   2.894   6.458   3.038
 7164SOL     OW22390   1.640   0.895   4.210
 7164SOL    HW122391   1.707   0.825   4.183
 7164SOL    HW222392   1.639   0.969   4.143
 7165SOL     OW22393   6.899   1.485   1.785
 7165SOL    HW122394   6.855   1.403   1.749
 7165SOL    HW222395   6.996   1.468   1.799
 7166SOL     OW22396   5.643   3.139   0.428
 7166SOL    HW122397   5.557   3.169   0.386
 7166SOL    HW222398   5.720   3.182   0.380
 7167SOL     OW22399   5.032   3.608   4.111
 7167SOL    HW122400   5.055   3.560   4.026
 7167SOL    HW222401   4.972   3.550   4.166
 7168SOL     OW22402   1.544   2.524   3.819
 7168SOL    HW122403   1.596   2.461   3.762
 7168SOL    HW222404   1.498   2.592   3.762
 7169SOL     OW22405   6.895   3.228   5.041
 7169SOL    HW122406   6.947   3.203   4.959
 7169SOL    HW222407   6.852   3.146   5.079
 7170SOL     OW22408   5.006   5.840   3.080
 7170SOL    HW122409   5.051   5.791   3.154
 7170SOL    HW222410   4.937   5.782   3.037
 7171SOL     OW22411   5.068   4.017   6.663
 7171SOL    HW122412   4.989   4.068   6.696
 7171SOL    HW222413   5.152   4.065   6.689
 7172SOL     OW22414   1.417   0.862   5.003
 7172SOL    HW122415   1.426   0.960   4.986
 7172SOL    HW222416   1.508   0.821   5.013
 7173SOL     OW22417   0.015   4.364   5.909
 7173SOL    HW122418   6.988   4.388   5.825
 7173SOL    HW222419   0.050   4.270   5.902
 7174SOL     OW22420   0.868   4.450   0.665
 7174SOL    HW122421   0.885   4.413   0.756
 7174SOL    HW222422   0.905   4.542   0.659
 7175SOL     OW22423   5.002   2.824   6.511
 7175SOL    HW122424   4.942   2.753   6.473
 7175SOL    HW222425   5.020   2.893   6.441
 7176SOL     OW22426   1.144   5.864   2.803
 7176SOL    HW122427   1.100   5.779   2.772
 7176SOL    HW222428   1.244   5.855   2.796
 7177SOL     OW22429   2.176   6.198   4.238
 7177SOL    HW122430   2.183   6.110   4.191
 7177SOL    HW222431   2.220   6.269   4.182
 7178SOL     OW22432   1.905   2.889   5.346
 7178SOL    HW122433   1.846   2.962   5.314
 7178SOL    HW222434   1.962   2.855   5.271
 7179SOL     OW22435   1.686   3.930   4.585
 7179SOL    HW122436   1.743   3.951   4.663
 7179SOL    HW222437   1.715   3.986   4.506
 7180SOL     OW22438   1.613   4.384   6.897
 7180SOL    HW122439   1.575   4.397   6.989
 7180SOL    HW222440   1.702   4.429   6.892
 7181SOL     OW22441   2.433   6.145   0.559
 7181SOL    HW122442   2.365   6.164   0.488
 7181SOL    HW222443   2.433   6.220   0.626
 7182SOL     OW22444   1.594   2.637   5.052
 7182SOL    HW122445   1.560   2.730   5.067
 7182SOL    HW222446   1.586   2.613   4.955
 7183SOL     OW22447   2.495   5.857   0.397
 7183SOL    HW122448   2.413   5.874   0.343
 7183SOL    HW222449   2.567   5.922   0.370
 7184SOL     OW22450   0.496   1.121   2.876
 7184SOL    HW122451   0.490   1.217   2.851
 7184SOL    HW222452   0.423   1.070   2.829
 7185SOL     OW22453   5.863   0.353   5.321
 7185SOL    HW122454   5.843   0.390   5.412
 7185SOL    HW222455   5.857   0.426   5.253
 7186SOL     OW22456   6.144   0.346   6.995
 7186SOL    HW122457   6.219   0.308   0.028
 7186SOL    HW222458   6.056   0.318   0.014
 7187SOL     OW22459   3.276   3.814   6.940
 7187SOL    HW122460   3.213   3.878   6.895
 7187SOL    HW222461   3.229   3.769   7.016
 7188SOL     OW22462   6.120   7.017   1.005
 7188SOL    HW122463   6.075   0.075   0.964
 7188SOL    HW222464   6.052   6.958   1.047
 7189SOL     OW22465   0.166   1.001   5.865
 7189SOL    HW122466   0.110   0.921   5.843
 7189SOL    HW222467   0.118   1.056   5.933
 7190SOL     OW22468   6.849   3.781   3.243
 7190SOL    HW122469   6.875   3.689   3.272
 7190SOL    HW222470   6.750   3.793   3.253
 7191SOL     OW22471   0.225   4.259   3.137
 7191SOL    HW122472   0.226   4.197   3.216
 7191SOL    HW222473   0.228   4.353   3.169
 7192SOL     OW22474   3.237   4.651   5.878
 7192SOL    HW122475   3.328   4.651   5.920
 7192SOL    HW222476   3.169   4.670   5.949
 7193SOL     OW22477   2.198   2.403   2.490
 7193SOL    HW122478   2.150   2.491   2.482
 7193SOL    HW222479   2.288   2.410   2.448
 7194SOL     OW22480   3.025   2.252   0.727
 7194SOL    HW122481   2.937   2.226   0.768
 7194SOL    HW222482   3.096   2.250   0.798
 7195SOL     OW22483   7.008   4.807   6.999
 7195SOL    HW122484   0.031   4.724   0.011
 7195SOL    HW222485   6.955   4.848   0.053
 7196SOL     OW22486   3.043   4.359   1.243
 7196SOL    HW122487   2.990   4.327   1.164
 7196SOL    HW222488   3.000   4.328   1.327
 7197SOL     OW22489   6.664   2.047   5.695
 7197SOL    HW122490   6.723   2.126   5.679
 7197SOL    HW222491   6.631   2.048   5.789
 7198SOL     OW22492   0.874   0.809   6.506
 7198SOL    HW122493   0.836   0.725   6.544
 7198SOL    HW222494   0.801   0.862   6.462
 7199SOL     OW22495   2.313   0.955   2.246
 7199SOL    HW122496   2.249   0.884   2.274
 7199SOL    HW222497   2.266   1.043   2.239
 7200SOL     OW22498   2.837   2.386   0.514
 7200SOL    HW122499   2.910   2.421   0.455
 7200SOL    HW222500   2.858   2.291   0.540
 7201SOL     OW22501   1.247   5.875   4.286
 7201SOL    HW122502   1.329   5.853   4.235
 7201SOL    HW222503   1.259   5.849   4.382
 7202SOL     OW22504   4.129   0.606   6.196
 7202SOL    HW122505   4.146   0.693   6.242
 7202SOL    HW222506   4.203   0.587   6.132
 7203SOL     OW22507   0.142   1.655   0.951
 7203SOL    HW122508   0.137   1.738   0.896
 7203SOL    HW222509   0.139   1.679   1.048
 7204SOL     OW22510   0.234   6.749   5.529
 7204SOL    HW122511   0.231   6.814   5.453
 7204SOL    HW222512   0.263   6.660   5.496
 7205SOL     OW22513   0.671   5.461   3.141
 7205SOL    HW122514   0.738   5.386   3.138
 7205SOL    HW222515   0.583   5.429   3.106
 7206SOL     OW22516   1.977   0.283   0.871
 7206SOL    HW122517   1.921   0.201   0.884
 7206SOL    HW222518   2.044   0.265   0.799
 7207SOL     OW22519   3.574   0.238   2.160
 7207SOL    HW122520   3.673   0.241   2.146
 7207SOL    HW222521   3.539   0.332   2.159
 7208SOL     OW22522   3.964   6.577   3.532
 7208SOL    HW122523   3.883   6.620   3.571
 7208SOL    HW222524   4.029   6.556   3.605
 7209SOL     OW22525   3.001   3.907   2.379
 7209SOL    HW122526   2.910   3.866   2.385
 7209SOL    HW222527   3.015   3.946   2.287
 7210SOL     OW22528   4.224   0.466   4.090
 7210SOL    HW122529   4.220   0.442   4.187
 7210SOL    HW222530   4.286   0.543   4.077
 7211SOL     OW22531   2.319   5.434   4.175
 7211SOL    HW122532   2.349   5.371   4.104
 7211SOL    HW222533   2.325   5.528   4.142
 7212SOL     OW22534   0.595   6.365   4.583
 7212SOL    HW122535   0.637   6.323   4.502
 7212SOL    HW222536   0.667   6.394   4.646
 7213SOL     OW22537   5.535   0.436   6.555
 7213SOL    HW122538   5.619   0.382   6.558
 7213SOL    HW222539   5.464   0.392   6.610
 7214SOL     OW22540   0.671   5.422   5.121
 7214SOL    HW122541   0.662   5.514   5.083
 7214SOL    HW222542   0.580   5.388   5.145
 7215SOL     OW22543   0.520   3.106   5.084
 7215SOL    HW122544   0.600   3.125   5.028
 7215SOL    HW222545   0.437   3.128   5.033
 7216SOL     OW22546   2.803   5.998   0.049
 7216SOL    HW122547   2.789   6.011   0.147
 7216SOL    HW222548   2.745   6.061   7.019
 7217SOL     OW22549   2.029   4.332   2.628
 7217SOL    HW122550   2.057   4.258   2.567
 7217SOL    HW222551   1.973   4.398   2.576
 7218SOL     OW22552   5.305   2.518   5.313
 7218SOL    HW122553   5.285   2.616   5.313
 7218SOL    HW222554   5.388   2.500   5.364
 7219SOL     OW22555   4.613   6.752   4.623
 7219SOL    HW122556   4.644   6.771   4.716
 7219SOL    HW222557   4.586   6.656   4.616
 7220SOL     OW22558   0.747   5.940   4.643
 7220SOL    HW122559   0.800   5.914   4.724
 7220SOL    HW222560   0.787   5.899   4.562
 7221SOL     OW22561   4.267   5.011   4.570
 7221SOL    HW122562   4.187   4.972   4.524
 7221SOL    HW222563   4.347   4.998   4.513
 7222SOL     OW22564   6.286   0.630   2.814
 7222SOL    HW122565   6.193   0.595   2.825
 7222SOL    HW222566   6.320   0.606   2.724
 7223SOL     OW22567   2.597   2.076   1.395
 7223SOL    HW122568   2.514   2.088   1.340
 7223SOL    HW222569   2.576   2.092   1.491
 7224SOL     OW22570   5.974   2.229   4.413
 7224SOL    HW122571   6.060   2.271   4.442
 7224SOL    HW222572   5.897   2.284   4.445
 7225SOL     OW22573   1.120   6.011   6.363
 7225SOL    HW122574   1.124   5.999   6.462
 7225SOL    HW222575   1.194   5.959   6.320
 7226SOL     OW22576   0.140   0.584   0.496
 7226SOL    HW122577   0.055   0.562   0.449
 7226SOL    HW222578   0.199   0.503   0.498
 7227SOL     OW22579   0.556   2.677   1.175
 7227SOL    HW122580   0.558   2.671   1.275
 7227SOL    HW222581   0.462   2.662   1.143
 7228SOL     OW22582   0.567   0.789   2.283
 7228SOL    HW122583   0.510   0.799   2.364
 7228SOL    HW222584   0.624   0.707   2.291
 7229SOL     OW22585   1.126   6.901   5.016
 7229SOL    HW122586   1.212   6.951   5.032
 7229SOL    HW222587   1.108   6.841   5.094
 7230SOL     OW22588   4.939   4.967   4.469
 7230SOL    HW122589   5.030   4.936   4.443
 7230SOL    HW222590   4.944   5.015   4.557
 7231SOL     OW22591   4.945   6.854   0.164
 7231SOL    HW122592   5.033   6.811   0.184
 7231SOL    HW222593   4.873   6.807   0.216
 7232SOL     OW22594   5.072   5.208   3.022
 7232SOL    HW122595   5.013   5.281   3.054
 7232SOL    HW222596   5.016   5.136   2.980
 7233SOL     OW22597   0.278   2.439   4.108
 7233SOL    HW122598   0.258   2.500   4.184
 7233SOL    HW222599   0.373   2.408   4.114
 7234SOL     OW22600   5.317   3.239   3.721
 7234SOL    HW122601   5.338   3.274   3.812
 7234SOL    HW222602   5.402   3.222   3.672
 7235SOL     OW22603   6.701   4.142   2.695
 7235SOL    HW122604   6.730   4.228   2.737
 7235SOL    HW222605   6.683   4.075   2.767
 7236SOL     OW22606   2.766   1.172   2.579
 7236SOL    HW122607   2.841   1.237   2.564
 7236SOL    HW222608   2.679   1.217   2.561
 7237SOL     OW22609   6.012   6.242   5.188
 7237SOL    HW122610   6.059   6.329   5.204
 7237SOL    HW222611   5.994   6.198   5.276
 7238SOL     OW22612   2.798   2.069   1.178
 7238SOL    HW122613   2.809   1.970   1.170
 7238SOL    HW222614   2.721   2.091   1.238
 7239SOL     OW22615   2.570   1.722   2.926
 7239SOL    HW122616   2.576   1.815   2.891
 7239SOL    HW222617   2.622   1.661   2.867
 7240SOL     OW22618   2.047   4.565   6.275
 7240SOL    HW122619   2.027   4.650   6.226
 7240SOL    HW222620   2.085   4.586   6.365
 7241SOL     OW22621   2.808   0.897   0.239
 7241SOL    HW122622   2.853   0.875   0.152
 7241SOL    HW222623   2.835   0.830   0.308
 7242SOL     OW22624   6.369   5.989   0.295
 7242SOL    HW122625   6.451   5.948   0.335
 7242SOL    HW222626   6.292   5.925   0.303
 7243SOL     OW22627   6.928   4.419   6.164
 7243SOL    HW122628   6.829   4.411   6.177
 7243SOL    HW222629   6.949   4.411   6.067
 7244SOL     OW22630   5.740   0.394   1.065
 7244SOL    HW122631   5.669   0.329   1.093
 7244SOL    HW222632   5.698   0.465   1.007
 7245SOL     OW22633   0.423   2.020   5.323
 7245SOL    HW122634   0.426   1.992   5.419
 7245SOL    HW222635   0.489   1.967   5.270
 7246SOL     OW22636   6.068   7.012   4.798
 7246SOL    HW122637   6.086   6.930   4.854
 7246SOL    HW222638   6.144   0.055   4.809
 7247SOL     OW22639   3.298   6.873   3.518
 7247SOL    HW122640   3.268   6.967   3.534
 7247SOL    HW222641   3.284   6.849   3.421
 7248SOL     OW22642   3.562   0.876   3.207
 7248SOL    HW122643   3.531   0.860   3.300
 7248SOL    HW222644   3.661   0.890   3.206
 7249SOL     OW22645   5.225   4.988   1.929
 7249SOL    HW122646   5.187   5.036   1.850
 7249SOL    HW222647   5.227   4.890   1.912
 7250SOL     OW22648   3.909   5.644   6.386
 7250SOL    HW122649   3.939   5.735   6.416
 7250SOL    HW222650   3.989   5.587   6.368
 7251SOL     OW22651   0.317   6.495   5.377
 7251SOL    HW122652   0.346   6.573   5.321
 7251SOL    HW222653   0.383   6.421   5.369
 7252SOL     OW22654   3.598   2.868   3.631
 7252SOL    HW122655   3.504   2.851   3.661
 7252SOL    HW222656   3.649   2.912   3.705
 7253SOL     OW22657   1.862   6.284   0.053
 7253SOL    HW122658   1.905   6.269   6.986
 7253SOL    HW222659   1.851   6.197   0.101
 7254SOL     OW22660   4.528   5.185   4.735
 7254SOL    HW122661   4.437   5.227   4.733
 7254SOL    HW222662   4.556   5.162   4.641
 7255SOL     OW22663   3.893   3.705   1.190
 7255SOL    HW122664   3.896   3.748   1.099
 7255SOL    HW222665   3.833   3.625   1.187
 7256SOL     OW22666   4.725   4.689   4.527
 7256SOL    HW122667   4.736   4.729   4.436
 7256SOL    HW222668   4.774   4.602   4.531
 7257SOL     OW22669   4.726   2.625   3.781
 7257SOL    HW122670   4.779   2.689   3.837
 7257SOL    HW222671   4.657   2.580   3.838
 7258SOL     OW22672   4.036   1.371   3.494
 7258SOL    HW122673   4.066   1.439   3.427
 7258SOL    HW222674   3.976   1.304   3.450
 7259SOL     OW22675   3.713   3.560   1.621
 7259SOL    HW122676   3.763   3.521   1.543
 7259SOL    HW222677   3.634   3.502   1.642
 7260SOL     OW22678   2.770   2.089   2.884
 7260SOL    HW122679   2.858   2.133   2.900
 7260SOL    HW222680   2.782   1.990   2.875
 7261SOL     OW22681   2.248   3.080   0.851
 7261SOL    HW122682   2.150   3.082   0.871
 7261SOL    HW222683   2.274   2.988   0.822
 7262SOL     OW22684   5.512   2.054   4.131
 7262SOL    HW122685   5.465   2.108   4.061
 7262SOL    HW222686   5.560   2.115   4.194
 7263SOL     OW22687   0.078   6.000   2.676
 7263SOL    HW122688   0.128   6.065   2.619
 7263SOL    HW222689   7.008   5.984   2.637
 7264SOL     OW22690   6.124   1.407   6.884
 7264SOL    HW122691   6.205   1.444   6.839
 7264SOL    HW222692   6.146   1.320   6.927
 7265SOL     OW22693   5.824   5.679   6.018
 7265SOL    HW122694   5.904   5.637   5.974
 7265SOL    HW222695   5.822   5.654   6.115
 7266SOL     OW22696   3.925   0.488   0.858
 7266SOL    HW122697   3.960   0.397   0.876
 7266SOL    HW222698   3.965   0.553   0.923
 7267SOL     OW22699   6.958   5.240   5.722
 7267SOL    HW122700   6.907   5.177   5.664
 7267SOL    HW222701   6.899   5.316   5.747
 7268SOL     OW22702   4.375   4.554   2.901
 7268SOL    HW122703   4.421   4.484   2.955
 7268SOL    HW222704   4.443   4.614   2.858
 7269SOL     OW22705   6.762   6.260   0.765
 7269SOL    HW122706   6.801   6.238   0.854
 7269SOL    HW222707   6.678   6.314   0.778
 7270SOL     OW22708   1.257   2.709   4.414
 7270SOL    HW122709   1.284   2.739   4.506
 7270SOL    HW222710   1.159   2.689   4.412
 7271SOL     OW22711   0.341   4.726   4.168
 7271SOL    HW122712   0.275   4.771   4.229
 7271SOL    HW222713   0.291   4.678   4.095
 7272SOL     OW22714   5.744   4.704   2.156
 7272SOL    HW122715   5.645   4.700   2.141
 7272SOL    HW222716   5.792   4.669   2.076
 7273SOL     OW22717   5.375   4.976   2.472
 7273SOL    HW122718   5.395   4.879   2.457
 7273SOL    HW222719   5.296   4.986   2.532
 7274SOL     OW22720   1.139   6.479   6.010
 7274SOL    HW122721   1.183   6.478   6.100
 7274SOL    HW222722   1.045   6.447   6.018
 7275SOL     OW22723   6.795   1.029   2.294
 7275SOL    HW122724   6.772   0.933   2.277
 7275SOL    HW222725   6.755   1.085   2.221
 7276SOL     OW22726   3.438   1.458   3.878
 7276SOL    HW122727   3.491   1.522   3.823
 7276SOL    HW222728   3.473   1.365   3.863
 7277SOL     OW22729   5.693   1.243   4.567
 7277SOL    HW122730   5.699   1.224   4.469
 7277SOL    HW222731   5.752   1.179   4.616
 7278SOL     OW22732   3.209   2.123   2.721
 7278SOL    HW122733   3.147   2.137   2.645
 7278SOL    HW222734   3.302   2.109   2.686
 7279SOL     OW22735   4.326   3.168   6.508
 7279SOL    HW122736   4.302   3.179   6.412
 7279SOL    HW222737   4.424   3.180   6.520
 7280SOL     OW22738   6.721   2.406   4.833
 7280SOL    HW122739   6.629   2.444   4.825
 7280SOL    HW222740   6.719   2.308   4.809
 7281SOL     OW22741   2.442   0.134   0.094
 7281SOL    HW122742   2.386   0.211   0.063
 7281SOL    HW222743   2.536   0.145   0.061
 7282SOL     OW22744   6.528   6.413   0.850
 7282SOL    HW122745   6.514   6.467   0.933
 7282SOL    HW222746   6.448   6.424   0.790
 7283SOL     OW22747   2.213   6.741   2.003
 7283SOL    HW122748   2.214   6.839   1.984
 7283SOL    HW222749   2.130   6.700   1.964
 7284SOL     OW22750   0.140   2.979   4.339
 7284SOL    HW122751   0.104   3.042   4.271
 7284SOL    HW222752   0.240   2.977   4.333
 7285SOL     OW22753   5.268   3.775   1.672
 7285SOL    HW122754   5.349   3.822   1.638
 7285SOL    HW222755   5.194   3.841   1.685
 7286SOL     OW22756   1.060   0.869   0.499
 7286SOL    HW122757   1.102   0.783   0.527
 7286SOL    HW222758   1.118   0.945   0.527
 7287SOL     OW22759   0.071   3.306   4.567
 7287SOL    HW122760   0.086   3.392   4.615
 7287SOL    HW222761   0.105   3.313   4.473
 7288SOL     OW22762   1.674   2.833   2.196
 7288SOL    HW122763   1.732   2.903   2.236
 7288SOL    HW222764   1.704   2.815   2.102
 7289SOL     OW22765   6.549   2.421   2.438
 7289SOL    HW122766   6.517   2.374   2.356
 7289SOL    HW222767   6.478   2.482   2.472
 7290SOL     OW22768   3.127   0.967   5.562
 7290SOL    HW122769   3.034   0.990   5.532
 7290SOL    HW222770   3.130   0.872   5.591
 7291SOL     OW22771   2.988   6.958   0.725
 7291SOL    HW122772   3.038   6.884   0.680
 7291SOL    HW222773   2.985   6.940   0.824
 7292SOL     OW22774   2.336   6.948   3.136
 7292SOL    HW122775   2.354   0.004   3.196
 7292SOL    HW222776   2.238   6.939   3.119
 7293SOL     OW22777   1.539   1.103   5.976
 7293SOL    HW122778   1.521   1.171   5.905
 7293SOL    HW222779   1.484   1.022   5.960
 7294SOL     OW22780   2.779   4.464   0.634
 7294SOL    HW122781   2.804   4.501   0.544
 7294SOL    HW222782   2.747   4.539   0.692
 7295SOL     OW22783   6.874   4.532   1.424
 7295SOL    HW122784   6.971   4.537   1.402
 7295SOL    HW222785   6.839   4.441   1.402
 7296SOL     OW22786   4.390   5.206   2.619
 7296SOL    HW122787   4.365   5.293   2.660
 7296SOL    HW222788   4.449   5.222   2.540
 7297SOL     OW22789   2.284   6.754   2.728
 7297SOL    HW122790   2.238   6.734   2.814
 7297SOL    HW222791   2.291   6.853   2.716
 7298SOL     OW22792   5.195   5.434   0.063
 7298SOL    HW122793   5.249   5.515   0.089
 7298SOL    HW222794   5.100   5.461   0.049
 7299SOL     OW22795   0.532   2.154   0.945
 7299SOL    HW122796   0.520   2.068   0.895
 7299SOL    HW222797   0.623   2.156   0.987
 7300SOL     OW22798   0.961   5.329   1.789
 7300SOL    HW122799   0.990   5.338   1.884
 7300SOL    HW222800   1.042   5.319   1.730
 7301SOL     OW22801   6.717   1.182   5.899
 7301SOL    HW122802   6.648   1.130   5.849
 7301SOL    HW222803   6.807   1.167   5.857
 7302SOL     OW22804   6.849   1.860   5.086
 7302SOL    HW122805   6.829   1.924   5.160
 7302SOL    HW222806   6.769   1.850   5.027
 7303SOL     OW22807   3.471   1.095   6.600
 7303SOL    HW122808   3.398   1.043   6.555
 7303SOL    HW222809   3.475   1.069   6.697
 7304SOL     OW22810   1.915   5.533   1.952
 7304SOL    HW122811   1.903   5.630   1.933
 7304SOL    HW222812   1.827   5.486   1.945
 7305SOL     OW22813   5.658   2.239   1.445
 7305SOL    HW122814   5.695   2.296   1.371
 7305SOL    HW222815   5.635   2.297   1.523
 7306SOL     OW22816   3.502   1.711   1.642
 7306SOL    HW122817   3.503   1.808   1.667
 7306SOL    HW222818   3.445   1.698   1.561
 7307SOL     OW22819   4.213   6.782   2.256
 7307SOL    HW122820   4.185   6.829   2.173
 7307SOL    HW222821   4.246   6.849   2.323
 7308SOL     OW22822   0.312   1.567   3.131
 7308SOL    HW122823   0.246   1.493   3.145
 7308SOL    HW222824   0.405   1.528   3.130
 7309SOL     OW22825   2.354   6.496   1.949
 7309SOL    HW122826   2.289   6.491   1.873
 7309SOL    HW222827   2.345   6.584   1.995
 7310SOL     OW22828   1.605   3.612   5.865
 7310SOL    HW122829   1.683   3.653   5.817
 7310SOL    HW222830   1.520   3.649   5.829
 7311SOL     OW22831   0.777   0.328   0.178
 7311SOL    HW122832   0.684   0.362   0.174
 7311SOL    HW222833   0.840   0.405   0.191
 7312SOL     OW22834   0.821   1.605   4.987
 7312SOL    HW122835   0.723   1.621   4.995
 7312SOL    HW222836   0.869   1.648   5.063
 7313SOL     OW22837   2.686   1.461   0.657
 7313SOL    HW122838   2.766   1.442   0.600
 7313SOL    HW222839   2.706   1.441   0.752
 7314SOL     OW22840   6.831   3.770   6.454
 7314SOL    HW122841   6.758   3.818   6.503
 7314SOL    HW222842   6.920   3.800   6.490
 7315SOL     OW22843   5.891   5.468   2.253
 7315SOL    HW122844   5.987   5.469   2.226
 7315SOL    HW222845   5.866   5.375   2.281
 7316SOL     OW22846   3.251   2.026   6.554
 7316SOL    HW122847   3.153   2.006   6.554
 7316SOL    HW222848   3.302   1.946   6.522
 7317SOL     OW22849   3.678   1.252   2.303
 7317SOL    HW122850   3.628   1.232   2.219
 7317SOL    HW222851   3.612   1.270   2.377
 7318SOL     OW22852   3.176   6.542   2.469
 7318SOL    HW122853   3.262   6.521   2.516
 7318SOL    HW222854   3.106   6.478   2.499
 7319SOL     OW22855   6.076   3.680   6.314
 7319SOL    HW122856   6.132   3.675   6.231
 7319SOL    HW222857   6.026   3.594   6.326
 7320SOL     OW22858   0.404   3.294   0.169
 7320SOL    HW122859   0.500   3.274   0.190
 7320SOL    HW222860   0.399   3.366   0.100
 7321SOL     OW22861   1.946   6.676   6.313
 7321SOL    HW122862   2.033   6.712   6.281
 7321SOL    HW222863   1.933   6.583   6.278
 7322SOL     OW22864   0.256   3.191   2.869
 7322SOL    HW122865   0.310   3.138   2.934
 7322SOL    HW222866   0.256   3.287   2.896
 7323SOL     OW22867   2.372   1.878   1.245
 7323SOL    HW122868   2.324   1.793   1.267
 7323SOL    HW222869   2.317   1.957   1.273
 7324SOL     OW22870   6.078   4.353   2.652
 7324SOL    HW122871   6.055   4.450   2.642
 7324SOL    HW222872   6.127   4.339   2.738
 7325SOL     OW22873   2.507   0.305   5.290
 7325SOL    HW122874   2.454   0.369   5.345
 7325SOL    HW222875   2.595   0.345   5.267
 7326SOL     OW22876   3.908   0.850   6.385
 7326SOL    HW122877   4.000   0.875   6.356
 7326SOL    HW222878   3.843   0.919   6.352
 7327SOL     OW22879   5.444   3.549   4.115
 7327SOL    HW122880   5.378   3.601   4.169
 7327SOL    HW222881   5.492   3.484   4.175
 7328SOL     OW22882   4.388   6.336   5.905
 7328SOL    HW122883   4.441   6.395   5.845
 7328SOL    HW222884   4.345   6.264   5.852
 7329SOL     OW22885   0.706   2.885   6.935
 7329SOL    HW122886   0.735   2.790   6.930
 7329SOL    HW222887   0.683   2.908   0.009
 7330SOL     OW22888   3.048   2.737   1.459
 7330SOL    HW122889   3.007   2.708   1.546
 7330SOL    HW222890   3.053   2.659   1.397
 7331SOL     OW22891   4.744   6.411   1.907
 7331SOL    HW122892   4.671   6.476   1.927
 7331SOL    HW222893   4.796   6.443   1.827
 7332SOL     OW22894   4.110   4.090   6.923
 7332SOL    HW122895   4.117   4.112   6.826
 7332SOL    HW222896   4.052   4.010   6.936
 7333SOL     OW22897   5.970   3.186   2.839
 7333SOL    HW122898   5.998   3.265   2.893
 7333SOL    HW222899   6.010   3.103   2.878
 7334SOL     OW22900   2.949   5.415   5.739
 7334SOL    HW122901   2.874   5.350   5.756
 7334SOL    HW222902   3.033   5.364   5.721
 7335SOL     OW22903   0.342   3.194   3.290
 7335SOL    HW122904   0.317   3.239   3.375
 7335SOL    HW222905   0.351   3.263   3.217
 7336SOL     OW22906   2.233   6.317   1.280
 7336SOL    HW122907   2.288   6.362   1.350
 7336SOL    HW222908   2.290   6.252   1.229
 7337SOL     OW22909   2.646   2.949   1.248
 7337SOL    HW122910   2.593   2.886   1.191
 7337SOL    HW222911   2.617   2.940   1.343
 7338SOL     OW22912   6.260   2.177   1.696
 7338SOL    HW122913   6.257   2.104   1.764
 7338SOL    HW222914   6.270   2.138   1.605
 7339SOL     OW22915   0.110   6.683   5.962
 7339SOL    HW122916   0.034   6.619   5.954
 7339SOL    HW222917   0.106   6.749   5.888
 7340SOL     OW22918   4.508   1.423   6.926
 7340SOL    HW122919   4.412   1.427   6.955
 7340SOL    HW222920   4.519   1.473   6.841
 7341SOL     OW22921   1.188   5.121   4.849
 7341SOL    HW122922   1.101   5.167   4.862
 7341SOL    HW222923   1.231   5.153   4.764
 7342SOL     OW22924   6.142   0.003   0.515
 7342SOL    HW122925   6.056   6.999   0.471
 7342SOL    HW222926   6.163   6.959   0.588
 7343SOL     OW22927   5.458   2.901   2.299
 7343SOL    HW122928   5.459   2.881   2.397
 7343SOL    HW222929   5.550   2.890   2.261
 7344SOL     OW22930   1.903   0.166   6.669
 7344SOL    HW122931   1.947   0.199   6.752
 7344SOL    HW222932   1.853   0.241   6.626
 7345SOL     OW22933   4.710   5.530   5.619
 7345SOL    HW122934   4.616   5.553   5.595
 7345SOL    HW222935   4.714   5.436   5.653
 7346SOL     OW22936   3.809   3.929   0.974
 7346SOL    HW122937   3.827   3.859   0.905
 7346SOL    HW222938   3.862   4.012   0.953
 7347SOL     OW22939   6.799   2.044   1.468
 7347SOL    HW122940   6.710   2.054   1.513
 7347SOL    HW222941   6.787   2.044   1.369
 7348SOL     OW22942   1.540   3.560   3.640
 7348SOL    HW122943   1.577   3.649   3.668
 7348SOL    HW222944   1.440   3.563   3.643
 7349SOL     OW22945   3.379   1.697   1.398
 7349SOL    HW122946   3.386   1.768   1.328
 7349SOL    HW222947   3.354   1.610   1.356
 7350SOL     OW22948   1.034   3.308   3.967
 7350SOL    HW122949   0.975   3.304   4.048
 7350SOL    HW222950   1.008   3.235   3.904
 7351SOL     OW22951   4.509   5.034   6.226
 7351SOL    HW122952   4.560   4.952   6.252
 7351SOL    HW222953   4.411   5.014   6.230
 7352SOL     OW22954   1.712   2.412   3.644
 7352SOL    HW122955   1.735   2.498   3.598
 7352SOL    HW222956   1.787   2.347   3.632
 7353SOL     OW22957   0.843   0.605   5.499
 7353SOL    HW122958   0.882   0.513   5.492
 7353SOL    HW222959   0.778   0.620   5.424
 7354SOL     OW22960   0.259   0.988   6.302
 7354SOL    HW122961   0.339   1.003   6.360
 7354SOL    HW222962   0.288   0.979   6.207
 7355SOL     OW22963   1.740   6.669   6.986
 7355SOL    HW122964   1.726   6.574   6.958
 7355SOL    HW222965   1.728   6.676   0.064
 7356SOL     OW22966   5.200   2.765   6.056
 7356SOL    HW122967   5.200   2.864   6.069
 7356SOL    HW222968   5.150   2.722   6.131
 7357SOL     OW22969   4.495   1.111   0.919
 7357SOL    HW122970   4.413   1.064   0.953
 7357SOL    HW222971   4.573   1.089   0.978
 7358SOL     OW22972   2.031   2.276   2.294
 7358SOL    HW122973   2.121   2.251   2.256
 7358SOL    HW222974   2.044   2.318   2.384
 7359SOL     OW22975   3.290   1.897   1.209
 7359SOL    HW122976   3.341   1.865   1.129
 7359SOL    HW222977   3.334   1.978   1.247
 7360SOL     OW22978   3.047   2.023   5.721
 7360SOL    HW122979   3.015   2.022   5.627
 7360SOL    HW222980   3.134   2.072   5.727
 7361SOL     OW22981   4.508   6.590   1.951
 7361SOL    HW122982   4.409   6.577   1.957
 7361SOL    HW222983   4.528   6.687   1.939
 7362SOL     OW22984   0.648   6.706   4.882
 7362SOL    HW122985   0.562   6.746   4.852
 7362SOL    HW222986   0.715   6.779   4.900
 7363SOL     OW22987   3.838   1.596   1.153
 7363SOL    HW122988   3.826   1.512   1.205
 7363SOL    HW222989   3.935   1.619   1.149
 7364SOL     OW22990   3.937   0.206   1.205
 7364SOL    HW122991   4.007   0.153   1.252
 7364SOL    HW222992   3.855   0.150   1.193
 7365SOL     OW22993   1.448   5.700   2.158
 7365SOL    HW122994   1.385   5.761   2.109
 7365SOL    HW222995   1.476   5.743   2.243
 7366SOL     OW22996   1.844   5.714   0.340
 7366SOL    HW122997   1.836   5.644   0.412
 7366SOL    HW222998   1.779   5.788   0.358
 7367SOL     OW22999   4.213   3.825   1.409
 7367SOL    HW123000   4.297   3.776   1.384
 7367SOL    HW223001   4.157   3.839   1.328
 7368SOL     OW23002   3.664   2.980   4.087
 7368SOL    HW123003   3.598   3.048   4.120
 7368SOL    HW223004   3.734   2.964   4.157
 7369SOL     OW23005   5.366   3.547   0.933
 7369SOL    HW123006   5.270   3.529   0.912
 7369SOL    HW223007   5.419   3.548   0.848
 7370SOL     OW23008   2.068   0.640   5.449
 7370SOL    HW123009   2.075   0.550   5.493
 7370SOL    HW223010   1.975   0.675   5.458
 7371SOL     OW23011   2.645   5.402   3.711
 7371SOL    HW123012   2.590   5.480   3.741
 7371SOL    HW223013   2.591   5.344   3.650
 7372SOL     OW23014   2.729   0.600   5.523
 7372SOL    HW123015   2.719   0.646   5.611
 7372SOL    HW223016   2.701   0.661   5.450
 7373SOL     OW23017   5.008   1.222   3.392
 7373SOL    HW123018   4.909   1.226   3.376
 7373SOL    HW223019   5.036   1.304   3.443
 7374SOL     OW23020   3.033   2.642   5.512
 7374SOL    HW123021   3.110   2.702   5.493
 7374SOL    HW223022   2.984   2.676   5.593
 7375SOL     OW23023   1.874   2.009   3.563
 7375SOL    HW123024   1.891   2.046   3.654
 7375SOL    HW223025   1.777   2.018   3.542
 7376SOL     OW23026   3.885   1.548   0.375
 7376SOL    HW123027   3.813   1.610   0.343
 7376SOL    HW223028   3.951   1.600   0.430
 7377SOL     OW23029   4.858   5.920   1.884
 7377SOL    HW123030   4.843   6.004   1.937
 7377SOL    HW223031   4.946   5.926   1.838
 7378SOL     OW23032   0.406   2.294   4.461
 7378SOL    HW123033   0.405   2.219   4.396
 7378SOL    HW223034   0.460   2.370   4.424
 7379SOL     OW23035   4.123   2.269   3.369
 7379SOL    HW123036   4.097   2.190   3.313
 7379SOL    HW223037   4.205   2.312   3.330
 7380SOL     OW23038   6.710   3.345   5.223
 7380SOL    HW123039   6.761   3.365   5.306
 7380SOL    HW223040   6.774   3.328   5.148
 7381SOL     OW23041   5.024   3.724   2.327
 7381SOL    HW123042   4.995   3.633   2.297
 7381SOL    HW223043   5.085   3.764   2.259
 7382SOL     OW23044   0.323   5.660   5.852
 7382SOL    HW123045   0.267   5.596   5.800
 7382SOL    HW223046   0.417   5.627   5.856
 7383SOL     OW23047   0.126   6.822   2.420
 7383SOL    HW123048   0.210   6.773   2.441
 7383SOL    HW223049   0.078   6.775   2.346
 7384SOL     OW23050   4.531   0.553   2.041
 7384SOL    HW123051   4.539   0.633   2.101
 7384SOL    HW223052   4.591   0.481   2.074
 7385SOL     OW23053   4.041   6.394   1.906
 7385SOL    HW123054   4.123   6.426   1.858
 7385SOL    HW223055   4.069   6.347   1.990
 7386SOL     OW23056   0.359   2.692   5.457
 7386SOL    HW123057   0.394   2.784   5.473
 7386SOL    HW223058   0.420   2.643   5.395
 7387SOL     OW23059   4.143   0.289   4.698
 7387SOL    HW123060   4.050   0.303   4.667
 7387SOL    HW223061   4.145   0.216   4.767
 7388SOL     OW23062   6.630   5.833   3.692
 7388SOL    HW123063   6.646   5.829   3.594
 7388SOL    HW223064   6.603   5.743   3.725
 7389SOL     OW23065   1.037   5.384   6.646
 7389SOL    HW123066   1.010   5.338   6.730
 7389SOL    HW223067   1.132   5.412   6.651
 7390SOL     OW23068   1.602   1.422   6.671
 7390SOL    HW123069   1.521   1.472   6.642
 7390SOL    HW223070   1.680   1.448   6.614
 7391SOL     OW23071   4.650   4.418   4.689
 7391SOL    HW123072   4.683   4.350   4.754
 7391SOL    HW223073   4.595   4.486   4.737
 7392SOL     OW23074   3.133   5.663   6.253
 7392SOL    HW123075   3.201   5.619   6.312
 7392SOL    HW223076   3.166   5.664   6.159
 7393SOL     OW23077   6.096   5.599   1.679
 7393SOL    HW123078   6.191   5.577   1.699
 7393SOL    HW223079   6.091   5.692   1.642
 7394SOL     OW23080   3.232   3.041   6.590
 7394SOL    HW123081   3.219   3.139   6.576
 7394SOL    HW223082   3.225   2.993   6.502
 7395SOL     OW23083   1.600   0.921   6.939
 7395SOL    HW123084   1.552   0.916   0.005
 7395SOL    HW223085   1.606   0.829   6.899
 7396SOL     OW23086   0.931   0.379   0.420
 7396SOL    HW123087   0.832   0.393   0.408
 7396SOL    HW223088   0.980   0.456   0.379
 7397SOL     OW23089   5.123   5.317   4.594
 7397SOL    HW123090   5.035   5.345   4.634
 7397SOL    HW223091   5.152   5.231   4.634
 7398SOL     OW23092   3.299   4.922   4.023
 7398SOL    HW123093   3.294   4.986   4.100
 7398SOL    HW223094   3.206   4.900   3.993
 7399SOL     OW23095   0.512   3.293   5.483
 7399SOL    HW123096   0.488   3.389   5.464
 7399SOL    HW223097   0.445   3.253   5.545
 7400SOL     OW23098   3.021   3.615   6.771
 7400SOL    HW123099   2.945   3.636   6.709
 7400SOL    HW223100   2.997   3.536   6.826
 7401SOL     OW23101   0.697   0.970   3.863
 7401SOL    HW123102   0.755   0.983   3.783
 7401SOL    HW223103   0.743   0.910   3.928
 7402SOL     OW23104   2.004   5.601   4.792
 7402SOL    HW123105   2.052   5.649   4.866
 7402SOL    HW223106   2.025   5.646   4.705
 7403SOL     OW23107   1.748   3.294   3.302
 7403SOL    HW123108   1.809   3.355   3.353
 7403SOL    HW223109   1.775   3.199   3.320
 7404SOL     OW23110   2.391   6.302   1.526
 7404SOL    HW123111   2.348   6.216   1.553
 7404SOL    HW223112   2.365   6.374   1.590
 7405SOL     OW23113   1.772   5.085   4.526
 7405SOL    HW123114   1.725   5.173   4.536
 7405SOL    HW223115   1.750   5.027   4.605
 7406SOL     OW23116   1.475   3.622   2.984
 7406SOL    HW123117   1.407   3.694   3.002
 7406SOL    HW223118   1.432   3.548   2.932
 7407SOL     OW23119   6.783   5.939   4.898
 7407SOL    HW123120   6.836   5.933   4.814
 7407SOL    HW223121   6.686   5.954   4.875
 7408SOL     OW23122   0.919   3.794   5.457
 7408SOL    HW123123   0.965   3.875   5.421
 7408SOL    HW223124   0.820   3.808   5.456
 7409SOL     OW23125   0.188   0.979   4.905
 7409SOL    HW123126   0.093   0.951   4.898
 7409SOL    HW223127   0.226   0.995   4.814
 7410SOL     OW23128   0.059   4.674   0.891
 7410SOL    HW123129   0.023   4.756   0.846
 7410SOL    HW223130   0.137   4.699   0.949
 7411SOL     OW23131   3.177   6.293   4.287
 7411SOL    HW123132   3.136   6.379   4.318
 7411SOL    HW223133   3.272   6.289   4.319
 7412SOL     OW23134   4.245   1.080   2.150
 7412SOL    HW123135   4.333   1.091   2.102
 7412SOL    HW223136   4.262   1.067   2.247
 7413SOL     OW23137   6.183   5.441   4.423
 7413SOL    HW123138   6.090   5.437   4.459
 7413SOL    HW223139   6.184   5.408   4.329
 7414SOL     OW23140   0.440   0.199   3.423
 7414SOL    HW123141   0.359   0.206   3.364
 7414SOL    HW223142   0.506   0.270   3.397
 7415SOL     OW23143   0.836   3.985   3.024
 7415SOL    HW123144   0.893   4.056   3.066
 7415SOL    HW223145   0.744   3.990   3.063
 7416SOL     OW23146   2.736   0.310   4.127
 7416SOL    HW123147   2.698   0.258   4.204
 7416SOL    HW223148   2.817   0.263   4.092
 7417SOL     OW23149   2.179   0.456   6.263
 7417SOL    HW123150   2.271   0.468   6.301
 7417SOL    HW223151   2.113   0.498   6.325
 7418SOL     OW23152   3.801   5.193   1.264
 7418SOL    HW123153   3.806   5.095   1.280
 7418SOL    HW223154   3.869   5.219   1.195
 7419SOL     OW23155   6.497   2.486   4.321
 7419SOL    HW123156   6.502   2.583   4.295
 7419SOL    HW223157   6.542   2.474   4.409
 7420SOL     OW23158   6.456   6.376   2.382
 7420SOL    HW123159   6.536   6.349   2.328
 7420SOL    HW223160   6.417   6.460   2.344
 7421SOL     OW23161   3.305   3.491   1.799
 7421SOL    HW123162   3.322   3.573   1.744
 7421SOL    HW223163   3.260   3.518   1.884
 7422SOL     OW23164   0.454   3.960   2.136
 7422SOL    HW123165   0.374   3.940   2.193
 7422SOL    HW223166   0.513   3.879   2.131
 7423SOL     OW23167   6.553   3.973   6.230
 7423SOL    HW123168   6.652   3.969   6.228
 7423SOL    HW223169   6.522   4.063   6.199
 7424SOL     OW23170   6.328   0.838   4.354
 7424SOL    HW123171   6.316   0.758   4.413
 7424SOL    HW223172   6.254   0.840   4.287
 7425SOL     OW23173   4.240   5.757   6.462
 7425SOL    HW123174   4.289   5.799   6.539
 7425SOL    HW223175   4.159   5.813   6.441
 7426SOL     OW23176   1.065   2.107   6.431
 7426SOL    HW123177   1.123   2.173   6.478
 7426SOL    HW223178   0.980   2.096   6.482
 7427SOL     OW23179   3.500   6.160   4.796
 7427SOL    HW123180   3.543   6.159   4.706
 7427SOL    HW223181   3.565   6.130   4.865
 7428SOL     OW23182   3.659   1.702   5.216
 7428SOL    HW123183   3.722   1.754   5.274
 7428SOL    HW223184   3.657   1.742   5.125
 7429SOL     OW23185   5.589   0.580   3.316
 7429SOL    HW123186   5.516   0.518   3.287
 7429SOL    HW223187   5.626   0.628   3.236
 7430SOL     OW23188   0.309   4.339   6.610
 7430SOL    HW123189   0.237   4.370   6.549
 7430SOL    HW223190   0.398   4.359   6.569
 7431SOL     OW23191   0.624   3.875   1.853
 7431SOL    HW123192   0.650   3.851   1.947
 7431SOL    HW223193   0.530   3.845   1.836
 7432SOL     OW23194   0.568   6.726   3.266
 7432SOL    HW123195   0.645   6.691   3.212
 7432SOL    HW223196   0.601   6.793   3.332
 7433SOL     OW23197   6.573   5.448   0.688
 7433SOL    HW123198   6.579   5.411   0.780
 7433SOL    HW223199   6.512   5.527   0.687
 7434SOL     OW23200   4.266   1.139   6.558
 7434SOL    HW123201   4.307   1.141   6.466
 7434SOL    HW223202   4.337   1.123   6.626
 7435SOL     OW23203   3.553   5.901   6.740
 7435SOL    HW123204   3.612   5.831   6.700
 7435SOL    HW223205   3.546   5.979   6.677
 7436SOL     OW23206   5.574   3.316   6.202
 7436SOL    HW123207   5.599   3.316   6.105
 7436SOL    HW223208   5.579   3.223   6.238
 7437SOL     OW23209   0.208   5.801   6.903
 7437SOL    HW123210   0.214   5.840   6.994
 7437SOL    HW223211   0.195   5.702   6.909
 7438SOL     OW23212   0.977   5.169   0.602
 7438SOL    HW123213   0.939   5.261   0.594
 7438SOL    HW223214   1.076   5.174   0.604
 7439SOL     OW23215   1.797   6.500   4.657
 7439SOL    HW123216   1.891   6.464   4.654
 7439SOL    HW223217   1.750   6.475   4.572
 7440SOL     OW23218   0.913   3.291   4.224
 7440SOL    HW123219   0.968   3.207   4.232
 7440SOL    HW223220   0.945   3.357   4.291
 7441SOL     OW23221   5.413   6.122   4.707
 7441SOL    HW123222   5.370   6.150   4.792
 7441SOL    HW223223   5.494   6.067   4.726
 7442SOL     OW23224   1.322   1.284   6.246
 7442SOL    HW123225   1.415   1.260   6.217
 7442SOL    HW223226   1.257   1.222   6.201
 7443SOL     OW23227   0.199   1.299   1.346
 7443SOL    HW123228   0.280   1.357   1.331
 7443SOL    HW223229   0.117   1.356   1.345
 7444SOL     OW23230   6.817   3.745   5.029
 7444SOL    HW123231   6.807   3.829   4.974
 7444SOL    HW223232   6.775   3.760   5.119
 7445SOL     OW23233   3.499   0.622   1.599
 7445SOL    HW123234   3.568   0.692   1.578
 7445SOL    HW223235   3.491   0.559   1.522
 7446SOL     OW23236   5.825   4.502   0.433
 7446SOL    HW123237   5.833   4.499   0.533
 7446SOL    HW223238   5.806   4.595   0.404
 7447SOL     OW23239   1.637   3.146   5.482
 7447SOL    HW123240   1.569   3.184   5.545
 7447SOL    HW223241   1.727   3.184   5.504
 7448SOL     OW23242   5.771   6.736   5.378
 7448SOL    HW123243   5.859   6.776   5.351
 7448SOL    HW223244   5.697   6.788   5.336
 7449SOL     OW23245   6.249   2.281   2.023
 7449SOL    HW123246   6.317   2.312   2.088
 7449SOL    HW223247   6.192   2.210   2.065
 7450SOL     OW23248   5.280   2.009   4.309
 7450SOL    HW123249   5.339   2.000   4.228
 7450SOL    HW223250   5.257   2.105   4.323
 7451SOL     OW23251   1.805   0.486   2.754
 7451SOL    HW123252   1.719   0.520   2.715
 7451SOL    HW223253   1.802   0.386   2.759
 7452SOL     OW23254   0.799   6.246   4.893
 7452SOL    HW123255   0.721   6.256   4.954
 7452SOL    HW223256   0.831   6.151   4.895
 7453SOL     OW23257   4.869   5.777   6.266
 7453SOL    HW123258   4.954   5.830   6.261
 7453SOL    HW223259   4.889   5.689   6.309
 7454SOL     OW23260   0.907   2.691   1.961
 7454SOL    HW123261   0.898   2.591   1.962
 7454SOL    HW223262   0.926   2.723   2.053
 7455SOL     OW23263   0.136   1.228   1.842
 7455SOL    HW123264   0.159   1.192   1.751
 7455SOL    HW223265   0.117   1.326   1.834
 7456SOL     OW23266   0.681   2.078   4.202
 7456SOL    HW123267   0.636   2.011   4.143
 7456SOL    HW223268   0.768   2.105   4.162
 7457SOL     OW23269   3.670   0.576   5.591
 7457SOL    HW123270   3.705   0.494   5.546
 7457SOL    HW223271   3.585   0.555   5.639
 7458SOL     OW23272   2.155   0.338   5.998
 7458SOL    HW123273   2.206   0.387   5.928
 7458SOL    HW223274   2.163   0.385   6.086
 7459SOL     OW23275   4.840   0.150   0.510
 7459SOL    HW123276   4.779   0.077   0.482
 7459SOL    HW223277   4.832   0.226   0.445
 7460SOL     OW23278   1.643   4.732   1.247
 7460SOL    HW123279   1.608   4.674   1.173
 7460SOL    HW223280   1.661   4.675   1.327
 7461SOL     OW23281   6.254   1.516   6.402
 7461SOL    HW123282   6.195   1.455   6.455
 7461SOL    HW223283   6.334   1.465   6.369
 7462SOL     OW23284   2.058   3.179   2.767
 7462SOL    HW123285   2.141   3.139   2.804
 7462SOL    HW223286   1.979   3.125   2.795
 7463SOL     OW23287   3.297   4.620   1.455
 7463SOL    HW123288   3.213   4.598   1.504
 7463SOL    HW223289   3.376   4.602   1.514
 7464SOL     OW23290   3.098   6.655   6.542
 7464SOL    HW123291   3.195   6.632   6.544
 7464SOL    HW223292   3.053   6.608   6.466
 7465SOL     OW23293   1.371   6.759   0.350
 7465SOL    HW123294   1.422   6.839   0.383
 7465SOL    HW223295   1.273   6.775   0.361
 7466SOL     OW23296   0.506   0.244   6.395
 7466SOL    HW123297   0.547   0.208   6.479
 7466SOL    HW223298   0.523   0.180   6.320
 7467SOL     OW23299   6.892   1.295   0.760
 7467SOL    HW123300   6.866   1.214   0.813
 7467SOL    HW223301   6.908   1.372   0.822
 7468SOL     OW23302   6.013   3.034   2.606
 7468SOL    HW123303   6.098   3.030   2.552
 7468SOL    HW223304   6.018   3.112   2.669
 7469SOL     OW23305   0.038   7.009   0.261
 7469SOL    HW123306   6.997   6.935   0.287
 7469SOL    HW223307   0.116   7.011   0.324
 7470SOL     OW23308   0.402   3.007   4.266
 7470SOL    HW123309   0.470   2.955   4.320
 7470SOL    HW223310   0.445   3.039   4.182
 7471SOL     OW23311   5.907   6.241   5.794
 7471SOL    HW123312   5.913   6.257   5.695
 7471SOL    HW223313   5.964   6.163   5.819
 7472SOL     OW23314   5.845   6.446   4.250
 7472SOL    HW123315   5.757   6.454   4.203
 7472SOL    HW223316   5.844   6.502   4.333
 7473SOL     OW23317   0.493   4.367   2.778
 7473SOL    HW123318   0.499   4.342   2.874
 7473SOL    HW223319   0.493   4.284   2.722
 7474SOL     OW23320   2.366   1.607   5.193
 7474SOL    HW123321   2.447   1.588   5.247
 7474SOL    HW223322   2.308   1.525   5.189
 7475SOL     OW23323   3.383   1.475   2.293
 7475SOL    HW123324   3.341   1.564   2.310
 7475SOL    HW223325   3.482   1.485   2.286
 7476SOL     OW23326   3.364   6.079   4.339
 7476SOL    HW123327   3.437   6.095   4.405
 7476SOL    HW223328   3.276   6.076   4.386
 7477SOL     OW23329   6.260   1.177   4.568
 7477SOL    HW123330   6.262   1.277   4.572
 7477SOL    HW223331   6.291   1.147   4.478
 7478SOL     OW23332   4.383   4.894   7.005
 7478SOL    HW123333   4.351   4.985   6.978
 7478SOL    HW223334   4.428   4.850   6.928
 7479SOL     OW23335   4.317   2.694   0.930
 7479SOL    HW123336   4.238   2.692   0.990
 7479SOL    HW223337   4.303   2.762   0.858
 7480SOL     OW23338   6.726   4.172   1.790
 7480SOL    HW123339   6.825   4.153   1.792
 7480SOL    HW223340   6.709   4.249   1.728
 7481SOL     OW23341   5.877   5.192   2.325
 7481SOL    HW123342   5.801   5.145   2.280
 7481SOL    HW223343   5.960   5.137   2.315
 7482SOL     OW23344   5.350   1.939   2.877
 7482SOL    HW123345   5.295   1.856   2.871
 7482SOL    HW223346   5.389   1.947   2.969
 7483SOL     OW23347   4.591   2.466   5.345
 7483SOL    HW123348   4.578   2.478   5.444
 7483SOL    HW223349   4.689   2.464   5.324
 7484SOL     OW23350   0.632   7.010   3.162
 7484SOL    HW123351   0.606   0.069   3.108
 7484SOL    HW223352   0.578   7.008   3.246
 7485SOL     OW23353   2.987   6.652   4.800
 7485SOL    HW123354   3.011   6.574   4.859
 7485SOL    HW223355   2.888   6.668   4.805
 7486SOL     OW23356   2.943   0.561   6.055
 7486SOL    HW123357   2.866   0.592   6.110
 7486SOL    HW223358   2.996   0.640   6.023
 7487SOL     OW23359   2.406   6.448   2.323
 7487SOL    HW123360   2.502   6.470   2.339
 7487SOL    HW223361   2.349   6.503   2.384
 7488SOL     OW23362   1.984   0.142   4.708
 7488SOL    HW123363   2.013   0.135   4.613
 7488SOL    HW223364   1.999   0.236   4.740
 7489SOL     OW23365   5.143   2.342   4.738
 7489SOL    HW123366   5.238   2.369   4.725
 7489SOL    HW223367   5.140   2.245   4.763
 7490SOL     OW23368   0.958   1.842   1.022
 7490SOL    HW123369   0.898   1.887   0.955
 7490SOL    HW223370   0.918   1.851   1.113
 7491SOL     OW23371   6.826   3.571   0.111
 7491SOL    HW123372   6.768   3.525   0.044
 7491SOL    HW223373   6.921   3.572   0.078
 7492SOL     OW23374   2.671   1.469   4.445
 7492SOL    HW123375   2.670   1.420   4.532
 7492SOL    HW223376   2.762   1.507   4.429
 7493SOL     OW23377   6.970   4.262   0.059
 7493SOL    HW123378   6.894   4.197   0.057
 7493SOL    HW223379   6.951   4.337   7.017
 7494SOL     OW23380   5.964   0.648   2.248
 7494SOL    HW123381   5.928   0.601   2.328
 7494SOL    HW223382   5.912   0.732   2.231
 7495SOL     OW23383   2.476   0.886   0.984
 7495SOL    HW123384   2.524   0.956   1.037
 7495SOL    HW223385   2.541   0.839   0.924
 7496SOL     OW23386   0.667   3.566   6.763
 7496SOL    HW123387   0.688   3.566   6.665
 7496SOL    HW223388   0.596   3.634   6.782
 7497SOL     OW23389   2.965   4.345   0.325
 7497SOL    HW123390   2.928   4.253   0.312
 7497SOL    HW223391   2.891   4.411   0.323
 7498SOL     OW23392   2.216   1.405   5.174
 7498SOL    HW123393   2.124   1.442   5.181
 7498SOL    HW223394   2.226   1.355   5.088
 7499SOL     OW23395   5.026   0.638   3.423
 7499SOL    HW123396   4.993   0.560   3.476
 7499SOL    HW223397   5.075   0.701   3.482
 7500SOL     OW23398   3.980   5.848   4.180
 7500SOL    HW123399   4.036   5.928   4.163
 7500SOL    HW223400   3.906   5.844   4.113
 7501SOL     OW23401   6.784   4.403   4.301
 7501SOL    HW123402   6.740   4.424   4.213
 7501SOL    HW223403   6.800   4.487   4.352
 7502SOL     OW23404   1.121   0.199   5.027
 7502SOL    HW123405   1.115   0.219   5.125
 7502SOL    HW223406   1.217   0.198   4.999
 7503SOL     OW23407   2.026   1.106   0.633
 7503SOL    HW123408   2.123   1.090   0.612
 7503SOL    HW223409   2.008   1.085   0.729
 7504SOL     OW23410   2.351   0.161   3.708
 7504SOL    HW123411   2.428   0.207   3.664
 7504SOL    HW223412   2.279   0.144   3.641
 7505SOL     OW23413   2.376   1.647   5.490
 7505SOL    HW123414   2.341   1.555   5.505
 7505SOL    HW223415   2.457   1.643   5.432
 7506SOL     OW23416   4.531   6.268   2.767
 7506SOL    HW123417   4.595   6.193   2.751
 7506SOL    HW223418   4.544   6.304   2.859
 7507SOL     OW23419   0.810   0.399   1.401
 7507SOL    HW123420   0.755   0.323   1.434
 7507SOL    HW223421   0.789   0.482   1.454
 7508SOL     OW23422   6.960   6.715   2.239
 7508SOL    HW123423   6.955   6.635   2.300
 7508SOL    HW223424   6.891   6.782   2.268
 7509SOL     OW23425   5.811   4.139   1.482
 7509SOL    HW123426   5.748   4.067   1.452
 7509SOL    HW223427   5.771   4.189   1.559
 7510SOL     OW23428   2.801   4.691   5.386
 7510SOL    HW123429   2.861   4.626   5.340
 7510SOL    HW223430   2.756   4.749   5.318
 7511SOL     OW23431   1.711   6.863   3.579
 7511SOL    HW123432   1.779   6.903   3.641
 7511SOL    HW223433   1.619   6.885   3.610
 7512SOL     OW23434   3.489   4.337   0.023
 7512SOL    HW123435   3.520   4.400   0.095
 7512SOL    HW223436   3.568   4.301   6.995
 7513SOL     OW23437   2.229   2.260   1.488
 7513SOL    HW123438   2.196   2.166   1.475
 7513SOL    HW223439   2.305   2.260   1.553
 7514SOL     OW23440   2.392   5.224   1.970
 7514SOL    HW123441   2.331   5.298   1.998
 7514SOL    HW223442   2.345   5.136   1.982
 7515SOL     OW23443   0.601   5.941   2.182
 7515SOL    HW123444   0.502   5.955   2.188
 7515SOL    HW223445   0.623   5.890   2.099
 7516SOL     OW23446   6.505   6.299   4.324
 7516SOL    HW123447   6.419   6.292   4.273
 7516SOL    HW223448   6.520   6.215   4.374
 7517SOL     OW23449   0.107   3.604   1.314
 7517SOL    HW123450   0.117   3.508   1.290
 7517SOL    HW223451   0.042   3.648   1.251
 7518SOL     OW23452   3.981   5.410   3.145
 7518SOL    HW123453   4.062   5.354   3.134
 7518SOL    HW223454   3.940   5.392   3.235
 7519SOL     OW23455   0.421   6.824   4.064
 7519SOL    HW123456   0.519   6.823   4.045
 7519SOL    HW223457   0.385   6.916   4.051
 7520SOL     OW23458   2.978   6.862   2.058
 7520SOL    HW123459   3.000   6.787   2.120
 7520SOL    HW223460   2.911   6.922   2.101
 7521SOL     OW23461   4.988   4.609   6.334
 7521SOL    HW123462   4.984   4.538   6.404
 7521SOL    HW223463   4.949   4.573   6.249
 7522SOL     OW23464   2.342   6.657   6.594
 7522SOL    HW123465   2.317   6.753   6.584
 7522SOL    HW223466   2.281   6.601   6.538
 7523SOL     OW23467   5.621   0.471   6.291
 7523SOL    HW123468   5.694   0.403   6.284
 7523SOL    HW223469   5.575   0.461   6.380
 7524SOL     OW23470   1.616   2.206   6.771
 7524SOL    HW123471   1.597   2.140   6.844
 7524SOL    HW223472   1.658   2.288   6.810
 7525SOL     OW23473   2.487   7.010   6.868
 7525SOL    HW123474   2.557   0.057   6.887
 7525SOL    HW223475   2.398   0.022   6.899
 7526SOL     OW23476   3.394   3.118   2.253
 7526SOL    HW123477   3.459   3.044   2.236
 7526SOL    HW223478   3.308   3.099   2.207
 7527SOL     OW23479   4.014   5.681   3.212
 7527SOL    HW123480   3.978   5.690   3.305
 7527SOL    HW223481   3.988   5.592   3.175
 7528SOL     OW23482   4.157   1.864   6.659
 7528SOL    HW123483   4.191   1.904   6.745
 7528SOL    HW223484   4.229   1.867   6.590
 7529SOL     OW23485   5.797   0.479   4.659
 7529SOL    HW123486   5.841   0.527   4.735
 7529SOL    HW223487   5.805   0.380   4.674
 7530SOL     OW23488   6.814   4.283   2.364
 7530SOL    HW123489   6.827   4.277   2.265
 7530SOL    HW223490   6.771   4.199   2.397
 7531SOL     OW23491   5.107   2.145   3.959
 7531SOL    HW123492   5.205   2.144   3.940
 7531SOL    HW223493   5.060   2.198   3.888
 7532SOL     OW23494   5.565   5.257   1.573
 7532SOL    HW123495   5.536   5.310   1.653
 7532SOL    HW223496   5.564   5.160   1.594
 7533SOL     OW23497   2.549   1.337   2.512
 7533SOL    HW123498   2.513   1.431   2.509
 7533SOL    HW223499   2.483   1.278   2.559
 7534SOL     OW23500   4.232   6.595   6.142
 7534SOL    HW123501   4.268   6.666   6.203
 7534SOL    HW223502   4.274   6.605   6.052
 7535SOL     OW23503   2.864   0.765   5.726
 7535SOL    HW123504   2.808   0.777   5.808
 7535SOL    HW223505   2.951   0.722   5.751
 7536SOL     OW23506   5.177   5.565   4.967
 7536SOL    HW123507   5.137   5.475   4.986
 7536SOL    HW223508   5.254   5.555   4.904
 7537SOL     OW23509   2.528   5.221   3.540
 7537SOL    HW123510   2.588   5.153   3.583
 7537SOL    HW223511   2.472   5.176   3.470
 7538SOL     OW23512   3.248   3.382   2.225
 7538SOL    HW123513   3.278   3.287   2.213
 7538SOL    HW223514   3.294   3.421   2.305
 7539SOL     OW23515   2.511   2.493   4.037
 7539SOL    HW123516   2.441   2.421   4.033
 7539SOL    HW223517   2.468   2.580   4.061
 7540SOL     OW23518   2.979   6.851   5.842
 7540SOL    HW123519   2.899   6.842   5.902
 7540SOL    HW223520   2.979   6.776   5.776
 7541SOL     OW23521   0.226   3.912   4.243
 7541SOL    HW123522   0.191   3.824   4.211
 7541SOL    HW223523   0.159   3.954   4.305
 7542SOL     OW23524   0.757   5.347   6.579
 7542SOL    HW123525   0.852   5.362   6.607
 7542SOL    HW223526   0.718   5.432   6.546
 7543SOL     OW23527   4.167   1.968   1.307
 7543SOL    HW123528   4.152   2.000   1.401
 7543SOL    HW223529   4.200   1.873   1.310
 7544SOL     OW23530   0.256   2.709   3.254
 7544SOL    HW123531   0.278   2.643   3.325
 7544SOL    HW223532   0.272   2.802   3.289
 7545SOL     OW23533   6.148   6.394   2.292
 7545SOL    HW123534   6.137   6.476   2.349
 7545SOL    HW223535   6.244   6.367   2.290
 7546SOL     OW23536   3.622   0.438   1.879
 7546SOL    HW123537   3.617   0.537   1.870
 7546SOL    HW223538   3.542   0.396   1.835
 7547SOL     OW23539   4.466   0.212   0.447
 7547SOL    HW123540   4.379   0.237   0.403
 7547SOL    HW223541   4.489   0.118   0.424
 7548SOL     OW23542   3.744   2.146   0.385
 7548SOL    HW123543   3.798   2.189   0.457
 7548SOL    HW223544   3.729   2.211   0.311
 7549SOL     OW23545   5.623   1.646   0.694
 7549SOL    HW123546   5.557   1.689   0.755
 7549SOL    HW223547   5.617   1.689   0.603
 7550SOL     OW23548   2.408   4.436   1.999
 7550SOL    HW123549   2.390   4.395   2.089
 7550SOL    HW223550   2.349   4.515   1.985
 7551SOL     OW23551   5.089   3.535   6.462
 7551SOL    HW123552   5.049   3.608   6.516
 7551SOL    HW223553   5.120   3.571   6.374
 7552SOL     OW23554   1.618   6.008   3.066
 7552SOL    HW123555   1.523   5.995   3.097
 7552SOL    HW223556   1.618   6.037   2.971
 7553SOL     OW23557   4.665   5.266   5.541
 7553SOL    HW123558   4.675   5.337   5.472
 7553SOL    HW223559   4.694   5.178   5.503
 7554SOL     OW23560   4.873   0.423   1.499
 7554SOL    HW123561   4.909   0.371   1.421
 7554SOL    HW223562   4.877   0.521   1.479
 7555SOL     OW23563   1.788   4.974   4.942
 7555SOL    HW123564   1.798   4.984   5.041
 7555SOL    HW223565   1.774   4.878   4.919
 7556SOL     OW23566   0.487   2.932   5.517
 7556SOL    HW123567   0.522   2.989   5.443
 7556SOL    HW223568   0.449   2.990   5.589
 7557SOL     OW23569   4.881   2.461   6.019
 7557SOL    HW123570   4.979   2.443   6.010
 7557SOL    HW223571   4.836   2.380   6.056
 7558SOL     OW23572   2.270   2.786   3.795
 7558SOL    HW123573   2.253   2.829   3.884
 7558SOL    HW223574   2.248   2.688   3.800
 7559SOL     OW23575   6.103   4.897   0.129
 7559SOL    HW123576   6.109   4.971   0.062
 7559SOL    HW223577   6.147   4.815   0.092
 7560SOL     OW23578   4.861   6.667   0.574
 7560SOL    HW123579   4.921   6.724   0.520
 7560SOL    HW223580   4.915   6.595   0.619
 7561SOL     OW23581   0.880   3.080   6.973
 7561SOL    HW123582   0.801   3.020   6.960
 7561SOL    HW223583   0.860   3.170   6.934
 7562SOL     OW23584   5.326   5.790   5.140
 7562SOL    HW123585   5.284   5.724   5.202
 7562SOL    HW223586   5.359   5.869   5.192
 7563SOL     OW23587   2.552   6.021   0.980
 7563SOL    HW123588   2.633   6.048   0.928
 7563SOL    HW223589   2.522   5.930   0.952
 7564SOL     OW23590   5.185   1.705   2.898
 7564SOL    HW123591   5.195   1.722   2.996
 7564SOL    HW223592   5.110   1.641   2.882
 7565SOL     OW23593   4.913   4.277   6.964
 7565SOL    HW123594   4.892   4.198   0.002
 7565SOL    HW223595   4.857   4.355   6.993
 7566SOL     OW23596   6.841   5.507   3.697
 7566SOL    HW123597   6.899   5.428   3.720
 7566SOL    HW223598   6.754   5.500   3.745
 7567SOL     OW23599   1.718   2.519   5.247
 7567SOL    HW123600   1.698   2.422   5.256
 7567SOL    HW223601   1.664   2.558   5.172
 7568SOL     OW23602   5.456   5.777   2.947
 7568SOL    HW123603   5.384   5.844   2.967
 7568SOL    HW223604   5.449   5.749   2.851
 7569SOL     OW23605   4.436   4.848   6.503
 7569SOL    HW123606   4.349   4.817   6.465
 7569SOL    HW223607   4.432   4.844   6.603
 7570SOL     OW23608   5.615   4.849   5.269
 7570SOL    HW123609   5.610   4.853   5.170
 7570SOL    HW223610   5.703   4.810   5.297
 7571SOL     OW23611   4.605   5.654   3.211
 7571SOL    HW123612   4.630   5.706   3.129
 7571SOL    HW223613   4.688   5.631   3.262
 7572SOL     OW23614   4.342   1.246   3.206
 7572SOL    HW123615   4.307   1.322   3.151
 7572SOL    HW223616   4.265   1.191   3.240
 7573SOL     OW23617   6.570   6.643   4.921
 7573SOL    HW123618   6.666   6.617   4.927
 7573SOL    HW223619   6.527   6.596   4.844
 7574SOL     OW23620   6.513   0.839   4.631
 7574SOL    HW123621   6.556   0.750   4.646
 7574SOL    HW223622   6.431   0.827   4.574
 7575SOL     OW23623   3.978   0.529   5.919
 7575SOL    HW123624   3.903   0.590   5.893
 7575SOL    HW223625   4.065   0.578   5.910
 7576SOL     OW23626   6.224   5.176   0.083
 7576SOL    HW123627   6.224   5.271   0.055
 7576SOL    HW223628   6.295   5.161   0.152
 7577SOL     OW23629   0.270   6.441   6.093
 7577SOL    HW123630   0.283   6.509   6.021
 7577SOL    HW223631   0.310   6.474   6.179
 7578SOL     OW23632   2.860   6.006   2.510
 7578SOL    HW123633   2.832   5.993   2.414
 7578SOL    HW223634   2.944   5.954   2.527
 7579SOL     OW23635   5.420   2.315   2.077
 7579SOL    HW123636   5.501   2.367   2.105
 7579SOL    HW223637   5.337   2.365   2.101
 7580SOL     OW23638   1.398   4.153   4.152
 7580SOL    HW123639   1.387   4.252   4.149
 7580SOL    HW223640   1.308   4.109   4.160
 7581SOL     OW23641   6.372   6.990   1.524
 7581SOL    HW123642   6.433   0.033   1.478
 7581SOL    HW223643   6.420   6.946   1.599
 7582SOL     OW23644   2.566   0.983   0.381
 7582SOL    HW123645   2.472   0.953   0.364
 7582SOL    HW223646   2.630   0.913   0.349
 7583SOL     OW23647   6.353   3.074   1.172
 7583SOL    HW123648   6.445   3.104   1.197
 7583SOL    HW223649   6.352   3.047   1.076
 7584SOL     OW23650   2.342   6.448   1.018
 7584SOL    HW123651   2.322   6.363   1.067
 7584SOL    HW223652   2.437   6.447   0.988
 7585SOL     OW23653   1.747   3.132   5.935
 7585SOL    HW123654   1.802   3.065   5.886
 7585SOL    HW223655   1.705   3.088   6.015
 7586SOL     OW23656   3.718   0.605   3.398
 7586SOL    HW123657   3.692   0.702   3.402
 7586SOL    HW223658   3.718   0.567   3.490
 7587SOL     OW23659   2.981   1.960   6.610
 7587SOL    HW123660   2.916   1.990   6.540
 7587SOL    HW223661   2.954   1.996   6.699
 7588SOL     OW23662   1.459   3.067   2.628
 7588SOL    HW123663   1.532   3.017   2.581
 7588SOL    HW223664   1.414   3.129   2.563
 7589SOL     OW23665   6.706   6.761   1.785
 7589SOL    HW123666   6.648   6.693   1.829
 7589SOL    HW223667   6.801   6.746   1.812
 7590SOL     OW23668   4.137   2.300   6.546
 7590SOL    HW123669   4.111   2.396   6.559
 7590SOL    HW223670   4.214   2.278   6.606
 7591SOL     OW23671   7.019   4.307   0.482
 7591SOL    HW123672   6.942   4.249   0.458
 7591SOL    HW223673   0.052   4.327   0.399
 7592SOL     OW23674   6.276   4.053   6.461
 7592SOL    HW123675   6.341   4.093   6.526
 7592SOL    HW223676   6.294   3.955   6.452
 7593SOL     OW23677   5.808   2.462   1.301
 7593SOL    HW123678   5.897   2.429   1.331
 7593SOL    HW223679   5.807   2.469   1.201
 7594SOL     OW23680   0.195   4.636   1.871
 7594SOL    HW123681   0.201   4.724   1.918
 7594SOL    HW223682   0.156   4.568   1.933
 7595SOL     OW23683   6.896   2.830   6.007
 7595SOL    HW123684   6.920   2.920   5.970
 7595SOL    HW223685   6.810   2.799   5.966
 7596SOL     OW23686   4.840   5.963   3.436
 7596SOL    HW123687   4.751   5.924   3.415
 7596SOL    HW223688   4.832   6.025   3.514
 7597SOL     OW23689   2.647   6.164   2.440
 7597SOL    HW123690   2.728   6.130   2.487
 7597SOL    HW223691   2.670   6.247   2.389
 7598SOL     OW23692   0.110   1.740   3.366
 7598SOL    HW123693   0.144   1.718   3.275
 7598SOL    HW223694   0.187   1.744   3.431
 7599SOL     OW23695   5.834   1.779   3.008
 7599SOL    HW123696   5.862   1.739   3.096
 7599SOL    HW223697   5.835   1.708   2.937
 7600SOL     OW23698   1.263   1.276   2.391
 7600SOL    HW123699   1.335   1.340   2.417
 7600SOL    HW223700   1.189   1.325   2.346
 7601SOL     OW23701   2.004   5.292   2.622
 7601SOL    HW123702   2.017   5.293   2.722
 7601SOL    HW223703   2.093   5.279   2.578
 7602SOL     OW23704   1.162   4.441   6.875
 7602SOL    HW123705   1.231   4.407   6.811
 7602SOL    HW223706   1.071   4.430   6.836
 7603SOL     OW23707   1.856   5.036   5.589
 7603SOL    HW123708   1.901   4.977   5.656
 7603SOL    HW223709   1.860   4.994   5.499
 7604SOL     OW23710   1.972   4.688   4.380
 7604SOL    HW123711   2.062   4.691   4.337
 7604SOL    HW223712   1.921   4.770   4.358
 7605SOL     OW23713   0.519   6.804   0.805
 7605SOL    HW123714   0.426   6.775   0.782
 7605SOL    HW223715   0.571   6.820   0.721
 7606SOL     OW23716   6.585   3.192   3.398
 7606SOL    HW123717   6.599   3.273   3.340
 7606SOL    HW223718   6.488   3.181   3.417
 7607SOL     OW23719   4.849   5.134   0.590
 7607SOL    HW123720   4.790   5.215   0.596
 7607SOL    HW223721   4.831   5.086   0.504
 7608SOL     OW23722   3.212   3.940   3.348
 7608SOL    HW123723   3.240   3.981   3.435
 7608SOL    HW223724   3.283   3.878   3.316
 7609SOL     OW23725   0.222   3.979   3.635
 7609SOL    HW123726   0.301   4.029   3.601
 7609SOL    HW223727   0.147   3.986   3.570
 7610SOL     OW23728   5.657   6.229   0.144
 7610SOL    HW123729   5.634   6.132   0.145
 7610SOL    HW223730   5.703   6.252   0.058
 7611SOL     OW23731   0.476   1.507   6.916
 7611SOL    HW123732   0.380   1.488   6.937
 7611SOL    HW223733   0.531   1.498   6.998
 7612SOL     OW23734   5.230   3.582   5.168
 7612SOL    HW123735   5.199   3.502   5.118
 7612SOL    HW223736   5.178   3.662   5.139
 7613SOL     OW23737   6.142   3.259   1.211
 7613SOL    HW123738   6.226   3.207   1.194
 7613SOL    HW223739   6.129   3.269   1.309
 7614SOL     OW23740   5.456   3.821   0.740
 7614SOL    HW123741   5.456   3.805   0.838
 7614SOL    HW223742   5.460   3.733   0.692
 7615SOL     OW23743   4.506   3.602   6.157
 7615SOL    HW123744   4.515   3.699   6.182
 7615SOL    HW223745   4.473   3.550   6.236
 7616SOL     OW23746   6.365   5.022   5.277
 7616SOL    HW123747   6.417   4.937   5.271
 7616SOL    HW223748   6.395   5.085   5.205
 7617SOL     OW23749   3.254   5.606   2.523
 7617SOL    HW123750   3.213   5.516   2.516
 7617SOL    HW223751   3.339   5.609   2.469
 7618SOL     OW23752   0.575   1.871   6.283
 7618SOL    HW123753   0.648   1.936   6.304
 7618SOL    HW223754   0.606   1.808   6.211
 7619SOL     OW23755   5.823   3.119   5.406
 7619SOL    HW123756   5.831   3.173   5.490
 7619SOL    HW223757   5.878   3.036   5.415
 7620SOL     OW23758   3.874   5.026   0.581
 7620SOL    HW123759   3.844   5.059   0.670
 7620SOL    HW223760   3.901   4.930   0.589
 7621SOL     OW23761   6.966   1.721   0.491
 7621SOL    HW123762   0.002   1.645   0.521
 7621SOL    HW223763   6.876   1.714   0.533
 7622SOL     OW23764   5.451   5.473   1.742
 7622SOL    HW123765   5.451   5.502   1.646
 7622SOL    HW223766   5.458   5.553   1.801
 7623SOL     OW23767   4.672   3.607   6.538
 7623SOL    HW123768   4.583   3.652   6.530
 7623SOL    HW223769   4.659   3.512   6.567
 7624SOL     OW23770   0.132   2.499   4.574
 7624SOL    HW123771   0.083   2.552   4.644
 7624SOL    HW223772   0.217   2.545   4.551
 7625SOL     OW23773   5.037   0.327   1.255
 7625SOL    HW123774   4.958   0.280   1.217
 7625SOL    HW223775   5.118   0.267   1.250
 7626SOL     OW23776   6.206   6.502   3.889
 7626SOL    HW123777   6.271   6.426   3.887
 7626SOL    HW223778   6.113   6.466   3.901
 7627SOL     OW23779   5.512   2.980   6.712
 7627SOL    HW123780   5.449   2.914   6.671
 7627SOL    HW223781   5.606   2.955   6.689
 7628SOL     OW23782   3.964   0.101   2.809
 7628SOL    HW123783   3.891   0.046   2.850
 7628SOL    HW223784   3.973   0.077   2.713
 7629SOL     OW23785   6.809   0.321   3.196
 7629SOL    HW123786   6.742   0.386   3.160
 7629SOL    HW223787   6.764   0.258   3.259
 7630SOL     OW23788   6.388   0.578   2.010
 7630SOL    HW123789   6.355   0.491   1.975
 7630SOL    HW223790   6.311   0.629   2.050
 7631SOL     OW23791   0.575   0.579   5.845
 7631SOL    HW123792   0.558   0.632   5.929
 7631SOL    HW223793   0.625   0.636   5.780
 7632SOL     OW23794   3.785   2.579   1.697
 7632SOL    HW123795   3.708   2.640   1.716
 7632SOL    HW223796   3.783   2.502   1.761
 7633SOL     OW23797   4.818   1.589   1.305
 7633SOL    HW123798   4.810   1.495   1.271
 7633SOL    HW223799   4.913   1.618   1.302
 7634SOL     OW23800   0.496   1.800   2.810
 7634SOL    HW123801   0.410   1.796   2.861
 7634SOL    HW223802   0.489   1.869   2.738
 7635SOL     OW23803   3.187   5.688   4.907
 7635SOL    HW123804   3.257   5.617   4.911
 7635SOL    HW223805   3.221   5.765   4.853
 7636SOL     OW23806   1.210   2.781   4.143
 7636SOL    HW123807   1.258   2.754   4.227
 7636SOL    HW223808   1.112   2.772   4.156
 7637SOL     OW23809   2.689   5.397   2.469
 7637SOL    HW123810   2.757   5.430   2.534
 7637SOL    HW223811   2.723   5.316   2.421
 7638SOL     OW23812   3.817   6.381   0.964
 7638SOL    HW123813   3.779   6.431   0.886
 7638SOL    HW223814   3.910   6.353   0.943
 7639SOL     OW23815   1.607   1.952   0.303
 7639SOL    HW123816   1.577   2.030   0.248
 7639SOL    HW223817   1.626   1.983   0.396
 7640SOL     OW23818   3.420   1.754   6.693
 7640SOL    HW123819   3.323   1.732   6.704
 7640SOL    HW223820   3.434   1.795   6.603
 7641SOL     OW23821   1.014   4.471   1.553
 7641SOL    HW123822   0.957   4.491   1.633
 7641SOL    HW223823   0.981   4.524   1.475
 7642SOL     OW23824   3.613   0.664   2.574
 7642SOL    HW123825   3.707   0.668   2.541
 7642SOL    HW223826   3.598   0.577   2.622
 7643SOL     OW23827   4.919   3.306   4.635
 7643SOL    HW123828   4.962   3.318   4.546
 7643SOL    HW223829   4.896   3.396   4.673
 7644SOL     OW23830   5.728   2.259   2.249
 7644SOL    HW123831   5.786   2.288   2.324
 7644SOL    HW223832   5.659   2.195   2.283
 7645SOL     OW23833   4.382   4.140   5.334
 7645SOL    HW123834   4.315   4.067   5.324
 7645SOL    HW223835   4.335   4.228   5.336
 7646SOL     OW23836   1.932   2.919   2.621
 7646SOL    HW123837   1.903   2.953   2.711
 7646SOL    HW223838   2.030   2.898   2.624
 7647SOL     OW23839   6.750   3.475   2.272
 7647SOL    HW123840   6.799   3.388   2.274
 7647SOL    HW223841   6.651   3.458   2.276
 7648SOL     OW23842   3.204   1.654   3.859
 7648SOL    HW123843   3.160   1.698   3.938
 7648SOL    HW223844   3.244   1.567   3.888
 7649SOL     OW23845   0.956   0.932   3.212
 7649SOL    HW123846   0.888   0.996   3.249
 7649SOL    HW223847   1.042   0.944   3.261
 7650SOL     OW23848   4.917   2.877   1.536
 7650SOL    HW123849   4.828   2.918   1.557
 7650SOL    HW223850   4.956   2.923   1.456
 7651SOL     OW23851   2.385   0.433   4.532
 7651SOL    HW123852   2.353   0.387   4.450
 7651SOL    HW223853   2.320   0.504   4.558
 7652SOL     OW23854   6.539   3.878   4.299
 7652SOL    HW123855   6.474   3.864   4.224
 7652SOL    HW223856   6.489   3.897   4.383
 7653SOL     OW23857   2.724   1.623   0.331
 7653SOL    HW123858   2.739   1.538   0.382
 7653SOL    HW223859   2.804   1.682   0.340
 7654SOL     OW23860   5.026   2.296   3.732
 7654SOL    HW123861   5.116   2.337   3.718
 7654SOL    HW223862   4.956   2.366   3.725
 7655SOL     OW23863   3.594   0.311   3.591
 7655SOL    HW123864   3.618   0.218   3.616
 7655SOL    HW223865   3.504   0.312   3.546
 7656SOL     OW23866   2.157   5.141   6.157
 7656SOL    HW123867   2.148   5.239   6.141
 7656SOL    HW223868   2.090   5.091   6.102
 7657SOL     OW23869   2.249   2.511   3.746
 7657SOL    HW123870   2.242   2.444   3.672
 7657SOL    HW223871   2.272   2.464   3.831
 7658SOL     OW23872   3.213   0.206   5.886
 7658SOL    HW123873   3.162   0.166   5.961
 7658SOL    HW223874   3.173   0.295   5.862
 7659SOL     OW23875   5.951   5.216   0.132
 7659SOL    HW123876   6.050   5.201   0.129
 7659SOL    HW223877   5.933   5.302   0.180
 7660SOL     OW23878   0.447   6.174   3.609
 7660SOL    HW123879   0.468   6.221   3.695
 7660SOL    HW223880   0.349   6.186   3.588
 7661SOL     OW23881   5.783   2.397   4.514
 7661SOL    HW123882   5.857   2.465   4.514
 7661SOL    HW223883   5.755   2.380   4.608
 7662SOL     OW23884   0.913   2.818   2.831
 7662SOL    HW123885   0.879   2.799   2.739
 7662SOL    HW223886   0.935   2.732   2.877
 7663SOL     OW23887   1.504   6.295   5.691
 7663SOL    HW123888   1.513   6.390   5.663
 7663SOL    HW223889   1.408   6.274   5.711
 7664SOL     OW23890   3.546   0.102   2.391
 7664SOL    HW123891   3.549   0.142   2.299
 7664SOL    HW223892   3.479   0.028   2.392
 7665SOL     OW23893   4.481   0.123   5.064
 7665SOL    HW123894   4.570   0.107   5.107
 7665SOL    HW223895   4.432   0.194   5.113
 7666SOL     OW23896   0.673   6.528   1.489
 7666SOL    HW123897   0.698   6.604   1.549
 7666SOL    HW223898   0.746   6.514   1.422
 7667SOL     OW23899   4.844   5.668   1.940
 7667SOL    HW123900   4.823   5.765   1.925
 7667SOL    HW223901   4.929   5.645   1.893
 7668SOL     OW23902   3.302   4.301   1.290
 7668SOL    HW123903   3.361   4.378   1.264
 7668SOL    HW223904   3.206   4.329   1.282
 7669SOL     OW23905   5.839   1.789   5.770
 7669SOL    HW123906   5.768   1.836   5.823
 7669SOL    HW223907   5.908   1.752   5.832
 7670SOL     OW23908   1.077   5.204   6.438
 7670SOL    HW123909   0.996   5.166   6.393
 7670SOL    HW223910   1.050   5.260   6.516
 7671SOL     OW23911   4.299   0.910   3.347
 7671SOL    HW123912   4.331   0.915   3.441
 7671SOL    HW223913   4.371   0.871   3.289
 7672SOL     OW23914   6.635   6.432   3.183
 7672SOL    HW123915   6.726   6.466   3.162
 7672SOL    HW223916   6.582   6.505   3.227
 7673SOL     OW23917   1.800   5.360   0.076
 7673SOL    HW123918   1.726   5.373   0.009
 7673SOL    HW223919   1.836   5.449   0.103
 7674SOL     OW23920   5.878   1.567   3.909
 7674SOL    HW123921   5.781   1.564   3.932
 7674SOL    HW223922   5.932   1.557   3.993
 7675SOL     OW23923   5.733   6.873   2.458
 7675SOL    HW123924   5.714   6.970   2.475
 7675SOL    HW223925   5.654   6.819   2.485
 7676SOL     OW23926   2.217   2.327   0.562
 7676SOL    HW123927   2.210   2.257   0.634
 7676SOL    HW223928   2.185   2.288   0.475
 7677SOL     OW23929   0.516   4.965   2.322
 7677SOL    HW123930   0.459   4.983   2.241
 7677SOL    HW223931   0.567   4.880   2.308
 7678SOL     OW23932   2.690   1.682   4.833
 7678SOL    HW123933   2.667   1.701   4.928
 7678SOL    HW223934   2.613   1.706   4.774
 7679SOL     OW23935   2.978   5.464   6.492
 7679SOL    HW123936   2.950   5.375   6.455
 7679SOL    HW223937   3.075   5.460   6.516
 7680SOL     OW23938   1.789   1.934   0.684
 7680SOL    HW123939   1.824   1.896   0.769
 7680SOL    HW223940   1.855   2.000   0.648
 7681SOL     OW23941   2.571   6.740   0.468
 7681SOL    HW123942   2.577   6.820   0.528
 7681SOL    HW223943   2.581   6.769   0.373
 7682SOL     OW23944   2.665   0.272   1.973
 7682SOL    HW123945   2.701   0.321   1.893
 7682SOL    HW223946   2.733   0.275   2.046
 7683SOL     OW23947   6.460   1.580   3.721
 7683SOL    HW123948   6.489   1.493   3.760
 7683SOL    HW223949   6.492   1.587   3.626
 7684SOL     OW23950   3.999   1.875   1.949
 7684SOL    HW123951   3.910   1.894   1.907
 7684SOL    HW223952   4.032   1.785   1.919
 7685SOL     OW23953   3.695   2.572   0.176
 7685SOL    HW123954   3.601   2.580   0.142
 7685SOL    HW223955   3.714   2.648   0.238
 7686SOL     OW23956   6.387   6.998   3.131
 7686SOL    HW123957   6.400   6.942   3.213
 7686SOL    HW223958   6.416   6.948   3.051
 7687SOL     OW23959   5.841   4.706   4.449
 7687SOL    HW123960   5.882   4.790   4.414
 7687SOL    HW223961   5.855   4.701   4.548
 7688SOL     OW23962   0.560   6.117   5.236
 7688SOL    HW123963   0.586   6.137   5.331
 7688SOL    HW223964   0.572   6.020   5.217
 7689SOL     OW23965   5.409   6.411   3.027
 7689SOL    HW123966   5.325   6.369   2.993
 7689SOL    HW223967   5.465   6.443   2.950
 7690SOL     OW23968   6.323   5.089   1.074
 7690SOL    HW123969   6.333   5.031   1.155
 7690SOL    HW223970   6.260   5.047   1.010
 7691SOL     OW23971   5.032   2.728   4.502
 7691SOL    HW123972   5.044   2.825   4.478
 7691SOL    HW223973   5.075   2.710   4.589
 7692SOL     OW23974   0.486   6.255   2.153
 7692SOL    HW123975   0.409   6.264   2.215
 7692SOL    HW223976   0.562   6.209   2.199
 7693SOL     OW23977   3.727   0.015   1.175
 7693SOL    HW123978   3.721   6.966   1.104
 7693SOL    HW223979   3.653   0.081   1.164
 7694SOL     OW23980   0.267   4.408   4.552
 7694SOL    HW123981   0.343   4.458   4.512
 7694SOL    HW223982   0.291   4.311   4.559
 7695SOL     OW23983   4.283   6.127   0.684
 7695SOL    HW123984   4.197   6.088   0.716
 7695SOL    HW223985   4.328   6.174   0.759
 7696SOL     OW23986   6.891   1.632   4.520
 7696SOL    HW123987   6.991   1.634   4.524
 7696SOL    HW223988   6.855   1.717   4.559
 7697SOL     OW23989   3.442   6.749   1.971
 7697SOL    HW123990   3.456   6.650   1.983
 7697SOL    HW223991   3.348   6.765   1.940
 7698SOL     OW23992   6.484   2.242   3.403
 7698SOL    HW123993   6.428   2.177   3.453
 7698SOL    HW223994   6.470   2.334   3.440
 7699SOL     OW23995   3.489   6.058   6.952
 7699SOL    HW123996   3.421   6.012   7.008
 7699SOL    HW223997   3.516   5.999   6.876
 7700SOL     OW23998   4.822   6.405   4.294
 7700SOL    HW123999   4.877   6.326   4.320
 7700SOL    HW224000   4.804   6.461   4.375
 7701SOL     OW24001   6.704   1.332   0.177
 7701SOL    HW124002   6.767   1.299   0.106
 7701SOL    HW224003   6.756   1.361   0.257
 7702SOL     OW24004   3.204   6.309   6.210
 7702SOL    HW124005   3.271   6.371   6.252
 7702SOL    HW224006   3.249   6.256   6.138
 7703SOL     OW24007   6.287   0.367   5.371
 7703SOL    HW124008   6.310   0.356   5.274
 7703SOL    HW224009   6.353   0.427   5.414
 7704SOL     OW24010   5.590   5.071   5.444
 7704SOL    HW124011   5.572   5.152   5.388
 7704SOL    HW224012   5.581   4.989   5.387
 7705SOL     OW24013   3.603   5.468   5.705
 7705SOL    HW124014   3.660   5.448   5.785
 7705SOL    HW224015   3.565   5.560   5.714
 7706SOL     OW24016   4.708   2.779   5.189
 7706SOL    HW124017   4.698   2.842   5.266
 7706SOL    HW224018   4.711   2.830   5.103
 7707SOL     OW24019   0.878   5.780   6.106
 7707SOL    HW124020   0.858   5.682   6.109
 7707SOL    HW224021   0.841   5.824   6.187
 7708SOL     OW24022   6.126   6.986   5.688
 7708SOL    HW124023   6.198   0.015   5.639
 7708SOL    HW224024   6.045   0.023   5.695
 7709SOL     OW24025   5.470   4.217   1.444
 7709SOL    HW124026   5.456   4.222   1.543
 7709SOL    HW224027   5.494   4.124   1.418
 7710SOL     OW24028   3.379   0.409   0.698
 7710SOL    HW124029   3.325   0.409   0.613
 7710SOL    HW224030   3.389   0.503   0.730
 7711SOL     OW24031   6.493   6.359   5.263
 7711SOL    HW124032   6.398   6.336   5.284
 7711SOL    HW224033   6.513   6.452   5.295
 7712SOL     OW24034   5.137   6.245   2.638
 7712SOL    HW124035   5.219   6.230   2.583
 7712SOL    HW224036   5.104   6.339   2.623
 7713SOL     OW24037   1.560   4.788   0.410
 7713SOL    HW124038   1.654   4.781   0.444
 7713SOL    HW224039   1.559   4.776   0.311
 7714SOL     OW24040   6.280   4.038   5.528
 7714SOL    HW124041   6.379   4.053   5.521
 7714SOL    HW224042   6.245   4.007   5.440
 7715SOL     OW24043   4.306   2.042   6.902
 7715SOL    HW124044   4.222   2.029   6.955
 7715SOL    HW224045   4.353   1.954   6.892
 7716SOL     OW24046   6.694   3.971   3.949
 7716SOL    HW124047   6.780   4.009   3.985
 7716SOL    HW224048   6.624   4.043   3.950
 7717SOL     OW24049   1.709   0.915   4.656
 7717SOL    HW124050   1.745   0.988   4.714
 7717SOL    HW224051   1.654   0.955   4.583
 7718SOL     OW24052   1.559   1.833   3.266
 7718SOL    HW124053   1.631   1.900   3.287
 7718SOL    HW224054   1.593   1.741   3.284
 7719SOL     OW24055   0.105   3.741   4.517
 7719SOL    HW124056   0.064   3.829   4.492
 7719SOL    HW224057   0.173   3.715   4.449
 7720SOL     OW24058   0.521   0.905   0.095
 7720SOL    HW124059   0.528   0.979   0.028
 7720SOL    HW224060   0.435   0.856   0.081
 7721SOL     OW24061   0.094   5.191   2.713
 7721SOL    HW124062   0.184   5.179   2.755
 7721SOL    HW224063   0.090   5.278   2.665
 7722SOL     OW24064   0.583   6.184   3.105
 7722SOL    HW124065   0.643   6.192   3.025
 7722SOL    HW224066   0.490   6.163   3.074
 7723SOL     OW24067   6.112   3.467   6.880
 7723SOL    HW124068   6.104   3.563   6.907
 7723SOL    HW224069   6.044   3.446   6.810
 7724SOL     OW24070   2.773   4.462   1.598
 7724SOL    HW124071   2.780   4.553   1.556
 7724SOL    HW224072   2.826   4.460   1.682
 7725SOL     OW24073   5.756   2.883   3.034
 7725SOL    HW124074   5.748   2.831   3.119
 7725SOL    HW224075   5.694   2.961   3.036
 7726SOL     OW24076   2.058   6.193   5.010
 7726SOL    HW124077   1.966   6.210   4.973
 7726SOL    HW224078   2.058   6.213   5.108
 7727SOL     OW24079   0.312   0.521   2.449
 7727SOL    HW124080   0.342   0.609   2.487
 7727SOL    HW224081   0.213   0.522   2.440
 7728SOL     OW24082   1.047   4.877   3.663
 7728SOL    HW124083   1.057   4.788   3.619
 7728SOL    HW224084   0.984   4.933   3.609
 7729SOL     OW24085   5.649   2.723   1.047
 7729SOL    HW124086   5.661   2.778   0.964
 7729SOL    HW224087   5.630   2.783   1.125
 7730SOL     OW24088   6.103   6.209   1.240
 7730SOL    HW124089   6.091   6.267   1.159
 7730SOL    HW224090   6.046   6.245   1.314
 7731SOL     OW24091   6.742   0.261   0.862
 7731SOL    HW124092   6.681   0.208   0.802
 7731SOL    HW224093   6.693   0.342   0.894
 7732SOL     OW24094   3.780   6.542   0.443
 7732SOL    HW124095   3.774   6.479   0.520
 7732SOL    HW224096   3.689   6.557   0.405
 7733SOL     OW24097   4.933   0.130   2.248
 7733SOL    HW124098   4.912   0.222   2.215
 7733SOL    HW224099   4.853   0.091   2.294
 7734SOL     OW24100   2.424   5.462   3.513
 7734SOL    HW124101   2.349   5.470   3.579
 7734SOL    HW224102   2.468   5.373   3.524
 7735SOL     OW24103   4.596   6.050   6.465
 7735SOL    HW124104   4.676   6.109   6.461
 7735SOL    HW224105   4.531   6.079   6.395
 7736SOL     OW24106   3.514   3.961   6.893
 7736SOL    HW124107   3.577   3.986   6.967
 7736SOL    HW224108   3.467   3.876   6.917
 7737SOL     OW24109   3.776   0.977   2.321
 7737SOL    HW124110   3.787   1.074   2.343
 7737SOL    HW224111   3.790   0.963   2.223
 7738SOL     OW24112   2.761   5.390   0.019
 7738SOL    HW124113   2.828   5.392   6.965
 7738SOL    HW224114   2.741   5.484   0.048
 7739SOL     OW24115   0.855   2.285   1.745
 7739SOL    HW124116   0.870   2.239   1.658
 7739SOL    HW224117   0.823   2.219   1.813
 7740SOL     OW24118   2.048   1.139   3.282
 7740SOL    HW124119   2.103   1.134   3.198
 7740SOL    HW224120   1.962   1.090   3.267
 7741SOL     OW24121   0.608   4.949   5.132
 7741SOL    HW124122   0.634   4.920   5.224
 7741SOL    HW224123   0.681   5.004   5.092
 7742SOL     OW24124   5.820   1.748   3.318
 7742SOL    HW124125   5.725   1.770   3.340
 7742SOL    HW224126   5.825   1.657   3.278
 7743SOL     OW24127   5.238   1.776   0.096
 7743SOL    HW124128   5.159   1.778   0.036
 7743SOL    HW224129   5.210   1.746   0.187
 7744SOL     OW24130   1.044   6.437   3.253
 7744SOL    HW124131   1.127   6.479   3.289
 7744SOL    HW224132   1.001   6.381   3.324
 7745SOL     OW24133   2.772   1.205   5.644
 7745SOL    HW124134   2.818   1.122   5.611
 7745SOL    HW224135   2.766   1.271   5.569
 7746SOL     OW24136   2.888   6.169   0.315
 7746SOL    HW124137   2.790   6.179   0.299
 7746SOL    HW224138   2.938   6.220   0.245
 7747SOL     OW24139   5.083   5.957   1.479
 7747SOL    HW124140   5.074   6.055   1.464
 7747SOL    HW224141   4.993   5.914   1.471
 7748SOL     OW24142   3.377   3.468   5.246
 7748SOL    HW124143   3.292   3.458   5.299
 7748SOL    HW224144   3.436   3.536   5.290
 7749SOL     OW24145   2.886   3.038   5.570
 7749SOL    HW124146   2.960   2.991   5.618
 7749SOL    HW224147   2.918   3.067   5.480
 7750SOL     OW24148   0.182   6.481   1.173
 7750SOL    HW124149   0.141   6.549   1.234
 7750SOL    HW224150   0.248   6.426   1.223
 7751SOL     OW24151   1.349   2.373   2.335
 7751SOL    HW124152   1.363   2.285   2.379
 7751SOL    HW224153   1.315   2.358   2.242
 7752SOL     OW24154   5.146   0.479   5.782
 7752SOL    HW124155   5.118   0.574   5.765
 7752SOL    HW224156   5.225   0.477   5.843
 7753SOL     OW24157   2.526   1.318   4.269
 7753SOL    HW124158   2.579   1.350   4.347
 7753SOL    HW224159   2.429   1.340   4.283
 7754SOL     OW24160   3.430   6.043   1.062
 7754SOL    HW124161   3.431   6.000   0.972
 7754SOL    HW224162   3.435   6.142   1.053
 7755SOL     OW24163   1.986   2.394   6.010
 7755SOL    HW124164   2.032   2.453   6.076
 7755SOL    HW224165   1.887   2.404   6.020
 7756SOL     OW24166   2.739   6.923   2.333
 7756SOL    HW124167   2.787   6.919   2.421
 7756SOL    HW224168   2.725   6.830   2.299
 7757SOL     OW24169   5.764   5.058   1.567
 7757SOL    HW124170   5.753   5.148   1.525
 7757SOL    HW224171   5.825   5.002   1.511
 7758SOL     OW24172   2.086   0.122   6.190
 7758SOL    HW124173   2.081   0.178   6.107
 7758SOL    HW224174   2.092   0.182   6.270
 7759SOL     OW24175   1.856   1.625   5.389
 7759SOL    HW124176   1.878   1.717   5.422
 7759SOL    HW224177   1.853   1.561   5.466
 7760SOL     OW24178   5.674   3.143   2.513
 7760SOL    HW124179   5.578   3.138   2.488
 7760SOL    HW224180   5.683   3.153   2.612
 7761SOL     OW24181   6.424   6.502   4.691
 7761SOL    HW124182   6.505   6.443   4.701
 7761SOL    HW224183   6.387   6.491   4.599
 7762SOL     OW24184   2.464   6.986   3.914
 7762SOL    HW124185   2.429   0.052   3.881
 7762SOL    HW224186   2.391   6.937   3.962
 7763SOL     OW24187   2.414   0.339   6.675
 7763SOL    HW124188   2.433   0.376   6.766
 7763SOL    HW224189   2.315   0.333   6.662
 7764SOL     OW24190   3.126   4.021   5.606
 7764SOL    HW124191   3.039   4.062   5.578
 7764SOL    HW224192   3.170   3.981   5.526
 7765SOL     OW24193   5.994   2.888   4.544
 7765SOL    HW124194   6.065   2.943   4.502
 7765SOL    HW224195   6.004   2.891   4.644
 7766SOL     OW24196   0.047   3.691   0.590
 7766SOL    HW124197   6.978   3.653   0.573
 7766SOL    HW224198   0.115   3.617   0.592
 7767SOL     OW24199   4.539   6.263   2.130
 7767SOL    HW124200   4.574   6.318   2.205
 7767SOL    HW224201   4.614   6.236   2.070
 7768SOL     OW24202   5.126   4.597   3.466
 7768SOL    HW124203   5.117   4.498   3.458
 7768SOL    HW224204   5.116   4.639   3.376
 7769SOL     OW24205   4.997   1.516   4.771
 7769SOL    HW124206   5.086   1.501   4.727
 7769SOL    HW224207   4.936   1.562   4.707
 7770SOL     OW24208   0.691   3.204   4.863
 7770SOL    HW124209   0.780   3.182   4.903
 7770SOL    HW224210   0.664   3.296   4.890
 7771SOL     OW24211   3.081   1.435   5.535
 7771SOL    HW124212   3.119   1.370   5.601
 7771SOL    HW224213   3.118   1.526   5.553
 7772SOL     OW24214   5.215   6.829   1.306
 7772SOL    HW124215   5.259   6.797   1.390
 7772SOL    HW224216   5.136   6.771   1.286
 7773SOL     OW24217   2.096   5.332   5.629
 7773SOL    HW124218   1.999   5.310   5.624
 7773SOL    HW224219   2.146   5.256   5.670
 7774SOL     OW24220   4.906   2.760   3.919
 7774SOL    HW124221   4.853   2.798   3.995
 7774SOL    HW224222   4.967   2.831   3.883
 7775SOL     OW24223   4.105   0.171   0.004
 7775SOL    HW124224   4.017   0.168   0.052
 7775SOL    HW224225   4.103   0.107   6.948
 7776SOL     OW24226   1.136   5.690   6.613
 7776SOL    HW124227   1.165   5.608   6.564
 7776SOL    HW224228   1.108   5.665   6.706
 7777SOL     OW24229   5.805   5.687   4.388
 7777SOL    HW124230   5.739   5.758   4.414
 7777SOL    HW224231   5.757   5.613   4.341
 7778SOL     OW24232   6.028   3.907   2.419
 7778SOL    HW124233   6.114   3.933   2.377
 7778SOL    HW224234   5.981   3.989   2.453
 7779SOL     OW24235   2.772   1.030   1.756
 7779SOL    HW124236   2.693   1.024   1.818
 7779SOL    HW224237   2.758   0.969   1.679
 7780SOL     OW24238   0.995   5.152   5.303
 7780SOL    HW124239   1.056   5.182   5.230
 7780SOL    HW224240   1.018   5.058   5.329
 7781SOL     OW24241   1.029   3.900   1.411
 7781SOL    HW124242   0.945   3.950   1.391
 7781SOL    HW224243   1.049   3.837   1.336
 7782SOL     OW24244   5.021   5.321   4.280
 7782SOL    HW124245   5.015   5.341   4.378
 7782SOL    HW224246   5.110   5.353   4.245
 7783SOL     OW24247   0.754   0.373   5.849
 7783SOL    HW124248   0.845   0.411   5.834
 7783SOL    HW224249   0.686   0.433   5.806
 7784SOL     OW24250   3.217   2.253   1.508
 7784SOL    HW124251   3.254   2.218   1.594
 7784SOL    HW224252   3.118   2.243   1.508
 7785SOL     OW24253   2.346   6.453   4.179
 7785SOL    HW124254   2.306   6.410   4.098
 7785SOL    HW224255   2.275   6.504   4.228
 7786SOL     OW24256   3.869   0.512   0.067
 7786SOL    HW124257   3.901   0.544   6.998
 7786SOL    HW224258   3.866   0.590   0.130
 7787SOL     OW24259   2.254   3.080   0.308
 7787SOL    HW124260   2.172   3.106   0.258
 7787SOL    HW224261   2.335   3.095   0.251
 7788SOL     OW24262   1.435   4.919   1.553
 7788SOL    HW124263   1.529   4.885   1.551
 7788SOL    HW224264   1.418   4.974   1.471
 7789SOL     OW24265   3.104   0.122   6.123
 7789SOL    HW124266   3.096   0.023   6.114
 7789SOL    HW224267   3.014   0.162   6.138
 7790SOL     OW24268   5.118   5.654   2.803
 7790SOL    HW124269   5.062   5.720   2.853
 7790SOL    HW224270   5.206   5.694   2.781
 7791SOL     OW24271   1.835   4.944   2.588
 7791SOL    HW124272   1.902   4.871   2.600
 7791SOL    HW224273   1.821   4.991   2.675
 7792SOL     OW24274   1.382   6.417   3.404
 7792SOL    HW124275   1.357   6.483   3.474
 7792SOL    HW224276   1.375   6.460   3.314
 7793SOL     OW24277   4.273   0.424   0.334
 7793SOL    HW124278   4.233   0.419   0.242
 7793SOL    HW224279   4.292   0.520   0.357
 7794SOL     OW24280   0.641   4.737   2.244
 7794SOL    HW124281   0.610   4.724   2.150
 7794SOL    HW224282   0.738   4.760   2.245
 7795SOL     OW24283   2.982   5.125   5.115
 7795SOL    HW124284   3.072   5.082   5.122
 7795SOL    HW224285   2.912   5.055   5.111
 7796SOL     OW24286   3.828   2.807   5.463
 7796SOL    HW124287   3.807   2.710   5.461
 7796SOL    HW224288   3.914   2.824   5.413
 7797SOL     OW24289   0.821   6.181   0.980
 7797SOL    HW124290   0.798   6.161   0.884
 7797SOL    HW224291   0.746   6.231   1.022
 7798SOL     OW24292   1.120   2.055   2.827
 7798SOL    HW124293   1.042   2.045   2.764
 7798SOL    HW224294   1.148   2.151   2.831
 7799SOL     OW24295   1.775   5.092   2.812
 7799SOL    HW124296   1.704   5.163   2.809
 7799SOL    HW224297   1.856   5.129   2.857
 7800SOL     OW24298   0.823   5.876   3.003
 7800SOL    HW124299   0.823   5.932   3.086
 7800SOL    HW224300   0.742   5.817   3.003
 7801SOL     OW24301   1.504   1.287   2.622
 7801SOL    HW124302   1.556   1.372   2.627
 7801SOL    HW224303   1.557   1.219   2.570
 7802SOL     OW24304   6.624   2.925   0.423
 7802SOL    HW124305   6.694   2.958   0.486
 7802SOL    HW224306   6.560   2.864   0.471
 7803SOL     OW24307   4.417   1.908   0.382
 7803SOL    HW124308   4.348   1.870   0.319
 7803SOL    HW224309   4.505   1.915   0.334
 7804SOL     OW24310   4.653   2.126   4.746
 7804SOL    HW124311   4.658   2.145   4.844
 7804SOL    HW224312   4.716   2.051   4.723
 7805SOL     OW24313   5.267   3.265   2.629
 7805SOL    HW124314   5.173   3.274   2.598
 7805SOL    HW224315   5.268   3.227   2.722
 7806SOL     OW24316   6.028   1.357   6.444
 7806SOL    HW124317   5.996   1.448   6.418
 7806SOL    HW224318   5.949   1.296   6.457
 7807SOL     OW24319   0.890   4.579   5.094
 7807SOL    HW124320   0.849   4.636   5.023
 7807SOL    HW224321   0.875   4.483   5.072
 7808SOL     OW24322   5.650   3.173   3.306
 7808SOL    HW124323   5.650   3.074   3.289
 7808SOL    HW224324   5.707   3.219   3.238
 7809SOL     OW24325   4.994   5.099   4.732
 7809SOL    HW124326   4.931   5.173   4.756
 7809SOL    HW224327   4.986   5.024   4.798
 7810SOL     OW24328   2.697   6.700   5.719
 7810SOL    HW124329   2.668   6.778   5.664
 7810SOL    HW224330   2.653   6.703   5.809
 7811SOL     OW24331   1.362   5.405   1.843
 7811SOL    HW124332   1.414   5.491   1.852
 7811SOL    HW224333   1.335   5.373   1.934
 7812SOL     OW24334   2.094   2.498   4.602
 7812SOL    HW124335   2.027   2.434   4.641
 7812SOL    HW224336   2.064   2.527   4.511
 7813SOL     OW24337   4.574   2.610   1.276
 7813SOL    HW124338   4.599   2.520   1.311
 7813SOL    HW224339   4.474   2.618   1.275
 7814SOL     OW24340   0.082   3.819   3.118
 7814SOL    HW124341   0.001   3.816   3.176
 7814SOL    HW224342   0.115   3.727   3.102
 7815SOL     OW24343   6.021   1.921   4.378
 7815SOL    HW124344   6.017   2.020   4.394
 7815SOL    HW224345   6.112   1.887   4.400
 7816SOL     OW24346   0.575   2.527   6.604
 7816SOL    HW124347   0.597   2.624   6.594
 7816SOL    HW224348   0.554   2.488   6.515
 7817SOL     OW24349   4.599   4.434   5.037
 7817SOL    HW124350   4.502   4.455   5.037
 7817SOL    HW224351   4.652   4.518   5.043
 7818SOL     OW24352   4.313   0.583   2.877
 7818SOL    HW124353   4.372   0.507   2.906
 7818SOL    HW224354   4.369   0.665   2.865
 7819SOL     OW24355   0.510   3.796   3.647
 7819SOL    HW124356   0.422   3.773   3.689
 7819SOL    HW224357   0.564   3.850   3.712
 7820SOL     OW24358   1.801   1.110   5.479
 7820SOL    HW124359   1.860   1.157   5.545
 7820SOL    HW224360   1.787   1.015   5.509
 7821SOL     OW24361   5.843   6.219   0.582
 7821SOL    HW124362   5.935   6.258   0.580
 7821SOL    HW224363   5.795   6.249   0.665
 7822SOL     OW24364   1.344   1.567   6.678
 7822SOL    HW124365   1.327   1.520   6.765
 7822SOL    HW224366   1.307   1.513   6.603
 7823SOL     OW24367   2.222   3.671   6.281
 7823SOL    HW124368   2.321   3.679   6.295
 7823SOL    HW224369   2.205   3.612   6.202
 7824SOL     OW24370   5.407   0.558   4.672
 7824SOL    HW124371   5.328   0.510   4.711
 7824SOL    HW224372   5.454   0.609   4.745
 7825SOL     OW24373   1.327   3.107   0.857
 7825SOL    HW124374   1.337   3.191   0.911
 7825SOL    HW224375   1.275   3.127   0.774
 7826SOL     OW24376   5.305   2.037   6.677
 7826SOL    HW124377   5.388   2.088   6.656
 7826SOL    HW224378   5.229   2.101   6.688
 7827SOL     OW24379   3.072   4.585   0.830
 7827SOL    HW124380   3.153   4.592   0.888
 7827SOL    HW224381   3.028   4.496   0.844
 7828SOL     OW24382   0.399   5.206   0.954
 7828SOL    HW124383   0.375   5.126   0.898
 7828SOL    HW224384   0.319   5.264   0.965
 7829SOL     OW24385   2.124   2.849   0.383
 7829SOL    HW124386   2.169   2.937   0.369
 7829SOL    HW224387   2.099   2.839   0.479
 7830SOL     OW24388   5.273   3.744   5.834
 7830SOL    HW124389   5.326   3.677   5.885
 7830SOL    HW224390   5.299   3.836   5.863
 7831SOL     OW24391   1.580   5.478   0.617
 7831SOL    HW124392   1.563   5.381   0.638
 7831SOL    HW224393   1.595   5.528   0.702
 7832SOL     OW24394   3.408   1.243   4.455
 7832SOL    HW124395   3.315   1.222   4.425
 7832SOL    HW224396   3.405   1.314   4.525
 7833SOL     OW24397   0.344   0.452   6.964
 7833SOL    HW124398   0.342   0.501   6.877
 7833SOL    HW224399   0.272   0.488   0.003
 7834SOL     OW24400   0.578   1.761   3.172
 7834SOL    HW124401   0.602   1.666   3.196
 7834SOL    HW224402   0.495   1.788   3.221
 7835SOL     OW24403   1.857   2.228   4.946
 7835SOL    HW124404   1.905   2.153   4.992
 7835SOL    HW224405   1.877   2.314   4.993
 7836SOL     OW24406   3.680   2.126   6.458
 7836SOL    HW124407   3.662   2.080   6.545
 7836SOL    HW224408   3.593   2.145   6.413
 7837SOL     OW24409   6.374   6.514   1.800
 7837SOL    HW124410   6.422   6.529   1.887
 7837SOL    HW224411   6.391   6.420   1.769
 7838SOL     OW24412   4.204   6.046   6.981
 7838SOL    HW124413   4.241   5.954   6.974
 7838SOL    HW224414   4.208   6.078   0.054
 7839SOL     OW24415   6.415   4.902   5.773
 7839SOL    HW124416   6.383   4.936   5.685
 7839SOL    HW224417   6.390   4.806   5.783
 7840SOL     OW24418   5.118   3.579   4.458
 7840SOL    HW124419   5.127   3.491   4.410
 7840SOL    HW224420   5.188   3.584   4.530
 7841SOL     OW24421   5.804   1.014   0.266
 7841SOL    HW124422   5.729   0.959   0.303
 7841SOL    HW224423   5.768   1.100   0.230
 7842SOL     OW24424   2.181   1.849   3.222
 7842SOL    HW124425   2.174   1.949   3.218
 7842SOL    HW224426   2.273   1.821   3.194
 7843SOL     OW24427   5.237   4.413   1.760
 7843SOL    HW124428   5.170   4.392   1.688
 7843SOL    HW224429   5.328   4.381   1.731
 7844SOL     OW24430   3.955   0.517   3.770
 7844SOL    HW124431   4.015   0.454   3.819
 7844SOL    HW224432   4.011   0.578   3.713
 7845SOL     OW24433   6.812   1.317   4.081
 7845SOL    HW124434   6.895   1.266   4.060
 7845SOL    HW224435   6.828   1.378   4.158
 7846SOL     OW24436   1.483   0.819   1.588
 7846SOL    HW124437   1.398   0.814   1.536
 7846SOL    HW224438   1.560   0.836   1.526
 7847SOL     OW24439   6.783   1.646   1.594
 7847SOL    HW124440   6.836   1.621   1.676
 7847SOL    HW224441   6.692   1.675   1.621
 7848SOL     OW24442   3.200   3.979   1.205
 7848SOL    HW124443   3.153   3.999   1.291
 7848SOL    HW224444   3.135   3.948   1.137
 7849SOL     OW24445   5.467   3.900   3.887
 7849SOL    HW124446   5.395   3.833   3.870
 7849SOL    HW224447   5.539   3.889   3.818
 7850SOL     OW24448   0.118   1.524   3.723
 7850SOL    HW124449   0.096   1.514   3.820
 7850SOL    HW224450   0.211   1.559   3.713
 7851SOL     OW24451   6.461   0.197   0.811
 7851SOL    HW124452   6.494   0.112   0.852
 7851SOL    HW224453   6.377   0.226   0.858
 7852SOL     OW24454   3.054   0.394   5.809
 7852SOL    HW124455   3.017   0.438   5.891
 7852SOL    HW224456   3.031   0.449   5.729
 7853SOL     OW24457   4.068   1.617   1.834
 7853SOL    HW124458   4.132   1.678   1.787
 7853SOL    HW224459   4.120   1.547   1.883
 7854SOL     OW24460   3.378   4.210   1.012
 7854SOL    HW124461   3.466   4.167   1.035
 7854SOL    HW224462   3.317   4.205   1.091
 7855SOL     OW24463   3.347   6.102   5.560
 7855SOL    HW124464   3.296   6.026   5.600
 7855SOL    HW224465   3.283   6.174   5.533
 7856SOL     OW24466   5.567   5.013   3.686
 7856SOL    HW124467   5.492   5.005   3.620
 7856SOL    HW224468   5.596   4.922   3.715
 7857SOL     OW24469   6.763   2.984   5.151
 7857SOL    HW124470   6.736   2.976   5.247
 7857SOL    HW224471   6.795   2.896   5.118
 7858SOL     OW24472   4.568   5.217   3.655
 7858SOL    HW124473   4.639   5.147   3.641
 7858SOL    HW224474   4.525   5.204   3.744
 7859SOL     OW24475   6.552   4.158   5.620
 7859SOL    HW124476   6.480   4.183   5.684
 7859SOL    HW224477   6.640   4.157   5.667
 7860SOL     OW24478   3.951   0.053   3.145
 7860SOL    HW124479   3.910   6.983   3.159
 7860SOL    HW224480   4.008   0.051   3.063
 7861SOL     OW24481   3.864   5.369   1.781
 7861SOL    HW124482   3.767   5.376   1.801
 7861SOL    HW224483   3.877   5.352   1.683
 7862SOL     OW24484   3.129   4.563   1.684
 7862SOL    HW124485   3.058   4.516   1.737
 7862SOL    HW224486   3.215   4.513   1.692
 7863SOL     OW24487   6.742   6.485   4.006
 7863SOL    HW124488   6.803   6.560   3.983
 7863SOL    HW224489   6.685   6.511   4.084
 7864SOL     OW24490   6.846   6.265   5.934
 7864SOL    HW124491   6.874   6.288   5.840
 7864SOL    HW224492   6.904   6.315   5.999
 7865SOL     OW24493   4.801   6.896   4.065
 7865SOL    HW124494   4.861   6.945   4.002
 7865SOL    HW224495   4.756   6.962   4.126
 7866SOL     OW24496   2.575   2.407   0.087
 7866SOL    HW124497   2.620   2.493   0.113
 7866SOL    HW224498   2.493   2.394   0.142
 7867SOL     OW24499   4.798   6.087   2.650
 7867SOL    HW124500   4.871   6.035   2.605
 7867SOL    HW224501   4.791   6.178   2.608
 7868SOL     OW24502   5.928   6.945   2.109
 7868SOL    HW124503   5.930   7.004   2.190
 7868SOL    HW224504   5.893   6.855   2.134
 7869SOL     OW24505   5.446   4.161   0.416
 7869SOL    HW124506   5.405   4.247   0.446
 7869SOL    HW224507   5.544   4.174   0.401
 7870SOL     OW24508   5.165   5.863   4.086
 7870SOL    HW124509   5.121   5.791   4.140
 7870SOL    HW224510   5.232   5.911   4.143
 7871SOL     OW24511   6.131   3.686   2.702
 7871SOL    HW124512   6.205   3.622   2.723
 7871SOL    HW224513   6.102   3.674   2.608
 7872SOL     OW24514   1.770   4.557   2.811
 7872SOL    HW124515   1.830   4.634   2.833
 7872SOL    HW224516   1.814   4.472   2.841
 7873SOL     OW24517   5.364   0.340   5.075
 7873SOL    HW124518   5.360   0.316   5.172
 7873SOL    HW224519   5.330   0.434   5.063
 7874SOL     OW24520   4.832   1.040   0.411
 7874SOL    HW124521   4.817   0.962   0.350
 7874SOL    HW224522   4.772   1.030   0.491
 7875SOL     OW24523   4.478   2.730   6.592
 7875SOL    HW124524   4.401   2.793   6.605
 7875SOL    HW224525   4.472   2.689   6.501
 7876SOL     OW24526   0.073   0.276   5.204
 7876SOL    HW124527   0.051   0.279   5.106
 7876SOL    HW224528   7.015   0.240   5.254
 7877SOL     OW24529   0.364   2.991   2.463
 7877SOL    HW124530   0.284   2.943   2.429
 7877SOL    HW224531   0.384   3.070   2.405
 7878SOL     OW24532   4.812   4.814   4.299
 7878SOL    HW124533   4.848   4.871   4.372
 7878SOL    HW224534   4.888   4.781   4.243
 7879SOL     OW24535   4.505   5.519   3.761
 7879SOL    HW124536   4.481   5.482   3.851
 7879SOL    HW224537   4.484   5.451   3.691
 7880SOL     OW24538   0.669   5.238   0.852
 7880SOL    HW124539   0.652   5.308   0.782
 7880SOL    HW224540   0.595   5.239   0.918
 7881SOL     OW24541   6.256   3.525   4.616
 7881SOL    HW124542   6.246   3.549   4.520
 7881SOL    HW224543   6.237   3.427   4.628
 7882SOL     OW24544   1.670   2.748   2.877
 7882SOL    HW124545   1.768   2.725   2.877
 7882SOL    HW224546   1.641   2.769   2.971
 7883SOL     OW24547   1.475   6.796   1.259
 7883SOL    HW124548   1.541   6.854   1.211
 7883SOL    HW224549   1.410   6.758   1.194
 7884SOL     OW24550   1.733   4.463   3.970
 7884SOL    HW124551   1.807   4.483   3.905
 7884SOL    HW224552   1.746   4.518   4.052
 7885SOL     OW24553   6.319   6.088   2.734
 7885SOL    HW124554   6.336   6.117   2.828
 7885SOL    HW224555   6.229   6.123   2.705
 7886SOL     OW24556   4.775   4.051   1.051
 7886SOL    HW124557   4.831   4.026   1.130
 7886SOL    HW224558   4.806   3.999   0.971
 7887SOL     OW24559   3.510   2.524   5.513
 7887SOL    HW124560   3.595   2.484   5.548
 7887SOL    HW224561   3.442   2.452   5.501
 7888SOL     OW24562   0.065   0.638   5.130
 7888SOL    HW124563   0.064   0.571   5.056
 7888SOL    HW224564   0.104   0.596   5.213
 7889SOL     OW24565   0.600   4.791   0.098
 7889SOL    HW124566   0.558   4.741   0.022
 7889SOL    HW224567   0.627   4.727   0.170
 7890SOL     OW24568   0.270   3.413   3.831
 7890SOL    HW124569   0.245   3.487   3.768
 7890SOL    HW224570   0.292   3.451   3.921
 7891SOL     OW24571   1.251   3.823   4.332
 7891SOL    HW124572   1.332   3.878   4.354
 7891SOL    HW224573   1.252   3.739   4.386
 7892SOL     OW24574   1.147   2.249   3.880
 7892SOL    HW124575   1.144   2.150   3.863
 7892SOL    HW224576   1.242   2.279   3.887
 7893SOL     OW24577   6.267   0.113   2.401
 7893SOL    HW124578   6.344   0.053   2.381
 7893SOL    HW224579   6.192   0.093   2.339
 7894SOL     OW24580   2.869   1.167   1.071
 7894SOL    HW124581   2.805   1.097   1.037
 7894SOL    HW224582   2.819   1.232   1.128
 7895SOL     OW24583   4.918   6.758   5.271
 7895SOL    HW124584   4.881   6.768   5.363
 7895SOL    HW224585   4.858   6.803   5.205
 7896SOL     OW24586   5.721   3.401   1.172
 7896SOL    HW124587   5.630   3.388   1.132
 7896SOL    HW224588   5.788   3.347   1.121
 7897SOL     OW24589   3.387   2.980   1.121
 7897SOL    HW124590   3.348   3.054   1.066
 7897SOL    HW224591   3.475   3.008   1.158
 7898SOL     OW24592   3.516   6.990   4.081
 7898SOL    HW124593   3.538   6.893   4.068
 7898SOL    HW224594   3.597   0.016   4.118
 7899SOL     OW24595   6.064   0.056   1.895
 7899SOL    HW124596   6.083   0.022   1.803
 7899SOL    HW224597   6.009   7.011   1.945
 7900SOL     OW24598   0.994   4.779   1.403
 7900SOL    HW124599   1.023   4.812   1.313
 7900SOL    HW224600   0.937   4.848   1.447
 7901SOL     OW24601   4.493   0.565   6.221
 7901SOL    HW124602   4.472   0.657   6.253
 7901SOL    HW224603   4.572   0.568   6.159
 7902SOL     OW24604   6.111   5.793   3.184
 7902SOL    HW124605   6.108   5.885   3.223
 7902SOL    HW224606   6.185   5.742   3.227
 7903SOL     OW24607   4.743   2.298   3.248
 7903SOL    HW124608   4.794   2.378   3.218
 7903SOL    HW224609   4.795   2.249   3.318
 7904SOL     OW24610   5.713   0.373   2.791
 7904SOL    HW124611   5.725   0.459   2.741
 7904SOL    HW224612   5.778   0.306   2.755
 7905SOL     OW24613   5.759   1.943   0.691
 7905SOL    HW124614   5.667   1.976   0.709
 7905SOL    HW224615   5.778   1.948   0.593
 7906SOL     OW24616   1.128   6.014   0.515
 7906SOL    HW124617   1.157   6.078   0.445
 7906SOL    HW224618   1.097   5.929   0.472
 7907SOL     OW24619   6.566   0.953   2.990
 7907SOL    HW124620   6.498   0.981   2.922
 7907SOL    HW224621   6.599   1.034   3.039
 7908SOL     OW24622   0.871   1.419   6.003
 7908SOL    HW124623   0.892   1.392   6.096
 7908SOL    HW224624   0.945   1.476   5.967
 7909SOL     OW24625   4.922   4.080   3.477
 7909SOL    HW124626   4.910   4.122   3.567
 7909SOL    HW224627   5.004   4.023   3.477
 7910SOL     OW24628   1.875   3.145   0.450
 7910SOL    HW124629   1.918   3.128   0.361
 7910SOL    HW224630   1.920   3.223   0.493
 7911SOL     OW24631   0.956   4.626   1.053
 7911SOL    HW124632   0.927   4.555   1.116
 7911SOL    HW224633   1.033   4.594   0.999
 7912SOL     OW24634   6.145   4.467   1.226
 7912SOL    HW124635   6.067   4.405   1.240
 7912SOL    HW224636   6.230   4.414   1.231
 7913SOL     OW24637   1.424   4.151   1.791
 7913SOL    HW124638   1.349   4.192   1.739
 7913SOL    HW224639   1.392   4.067   1.835
 7914SOL     OW24640   0.425   4.540   0.932
 7914SOL    HW124641   0.356   4.604   0.965
 7914SOL    HW224642   0.516   4.573   0.957
 7915SOL     OW24643   4.855   1.908   2.697
 7915SOL    HW124644   4.854   1.909   2.797
 7915SOL    HW224645   4.811   1.990   2.661
 7916SOL     OW24646   0.608   6.211   5.492
 7916SOL    HW124647   0.549   6.183   5.568
 7916SOL    HW224648   0.702   6.184   5.511
 7917SOL     OW24649   4.335   3.182   5.577
 7917SOL    HW124650   4.399   3.215   5.647
 7917SOL    HW224651   4.251   3.236   5.581
 7918SOL     OW24652   6.413   1.080   4.377
 7918SOL    HW124653   6.373   0.991   4.357
 7918SOL    HW224654   6.504   1.086   4.335
 7919SOL     OW24655   1.320   4.806   2.715
 7919SOL    HW124656   1.328   4.713   2.751
 7919SOL    HW224657   1.388   4.820   2.643
 7920SOL     OW24658   6.164   6.531   1.589
 7920SOL    HW124659   6.234   6.540   1.659
 7920SOL    HW224660   6.075   6.555   1.628
 7921SOL     OW24661   5.783   5.999   2.535
 7921SOL    HW124662   5.806   6.060   2.460
 7921SOL    HW224663   5.767   5.907   2.499
 7922SOL     OW24664   0.580   5.961   6.834
 7922SOL    HW124665   0.539   6.022   6.767
 7922SOL    HW224666   0.638   6.014   6.896
 7923SOL     OW24667   4.281   1.356   6.125
 7923SOL    HW124668   4.310   1.434   6.180
 7923SOL    HW224669   4.186   1.368   6.097
 7924SOL     OW24670   4.665   6.895   1.130
 7924SOL    HW124671   4.591   6.870   1.067
 7924SOL    HW224672   4.746   6.920   1.078
 7925SOL     OW24673   0.812   0.110   0.008
 7925SOL    HW124674   0.900   0.068   0.028
 7925SOL    HW224675   0.800   0.191   0.065
 7926SOL     OW24676   5.154   1.478   6.918
 7926SOL    HW124677   5.070   1.480   6.865
 7926SOL    HW224678   5.152   1.400   6.982
 7927SOL     OW24679   4.971   6.974   2.462
 7927SOL    HW124680   4.954   0.002   2.377
 7927SOL    HW224681   4.998   0.017   2.533
 7928SOL     OW24682   0.512   1.863   4.104
 7928SOL    HW124683   0.488   1.777   4.151
 7928SOL    HW224684   0.428   1.914   4.083
 7929SOL     OW24685   3.799   3.560   5.634
 7929SOL    HW124686   3.857   3.592   5.558
 7929SOL    HW224687   3.857   3.533   5.710
 7930SOL     OW24688   4.501   4.911   5.779
 7930SOL    HW124689   4.567   4.924   5.706
 7930SOL    HW224690   4.479   4.999   5.821
 7931SOL     OW24691   3.994   2.934   0.806
 7931SOL    HW124692   3.920   2.943   0.739
 7931SOL    HW224693   3.955   2.928   0.898
 7932SOL     OW24694   1.134   5.604   6.285
 7932SOL    HW124695   1.173   5.688   6.248
 7932SOL    HW224696   1.198   5.528   6.272
 7933SOL     OW24697   6.606   0.456   5.889
 7933SOL    HW124698   6.626   0.399   5.968
 7933SOL    HW224699   6.510   0.446   5.864
 7934SOL     OW24700   1.504   5.131   6.665
 7934SOL    HW124701   1.473   5.149   6.572
 7934SOL    HW224702   1.599   5.160   6.675
 7935SOL     OW24703   5.397   6.280   1.428
 7935SOL    HW124704   5.400   6.372   1.465
 7935SOL    HW224705   5.355   6.218   1.494
 7936SOL     OW24706   2.888   5.907   3.247
 7936SOL    HW124707   2.862   5.995   3.208
 7936SOL    HW224708   2.810   5.845   3.245
 7937SOL     OW24709   0.847   5.955   4.066
 7937SOL    HW124710   0.784   5.959   3.989
 7937SOL    HW224711   0.895   6.043   4.074
 7938SOL     OW24712   5.934   6.055   5.371
 7938SOL    HW124713   6.012   6.012   5.416
 7938SOL    HW224714   5.849   6.011   5.401
 7939SOL     OW24715   1.781   2.131   5.900
 7939SOL    HW124716   1.869   2.137   5.946
 7939SOL    HW224717   1.707   2.146   5.966
 7940SOL     OW24718   2.610   2.486   2.822
 7940SOL    HW124719   2.655   2.443   2.900
 7940SOL    HW224720   2.655   2.458   2.738
 7941SOL     OW24721   5.554   6.193   2.375
 7941SOL    HW124722   5.523   6.127   2.443
 7941SOL    HW224723   5.513   6.173   2.287
 7942SOL     OW24724   0.529   3.966   2.670
 7942SOL    HW124725   0.625   3.984   2.690
 7942SOL    HW224726   0.476   4.050   2.685
 7943SOL     OW24727   0.560   4.458   5.506
 7943SOL    HW124728   0.633   4.391   5.517
 7943SOL    HW224729   0.588   4.527   5.439
 7944SOL     OW24730   0.572   3.087   0.876
 7944SOL    HW124731   0.551   3.010   0.817
 7944SOL    HW224732   0.577   3.056   0.971
 7945SOL     OW24733   6.433   6.027   1.570
 7945SOL    HW124734   6.364   5.966   1.531
 7945SOL    HW224735   6.513   6.029   1.511
 7946SOL     OW24736   3.423   0.506   5.728
 7946SOL    HW124737   3.425   0.452   5.812
 7946SOL    HW224738   3.372   0.591   5.744
 7947SOL     OW24739   2.606   1.628   5.331
 7947SOL    HW124740   2.654   1.586   5.254
 7947SOL    HW224741   2.634   1.723   5.340
 7948SOL     OW24742   0.874   6.078   0.666
 7948SOL    HW124743   0.970   6.076   0.639
 7948SOL    HW224744   0.846   5.986   0.697
 7949SOL     OW24745   4.602   3.955   6.021
 7949SOL    HW124746   4.693   3.940   6.059
 7949SOL    HW224747   4.537   3.974   6.094
 7950SOL     OW24748   5.031   6.056   4.525
 7950SOL    HW124749   5.040   6.070   4.624
 7950SOL    HW224750   5.038   5.958   4.505
 7951SOL     OW24751   1.899   5.005   2.147
 7951SOL    HW124752   1.989   5.048   2.147
 7951SOL    HW224753   1.853   5.024   2.059
 7952SOL     OW24754   0.461   3.349   6.734
 7952SOL    HW124755   0.487   3.277   6.798
 7952SOL    HW224756   0.535   3.416   6.726
 7953SOL     OW24757   4.458   2.212   2.310
 7953SOL    HW124758   4.471   2.305   2.275
 7953SOL    HW224759   4.362   2.196   2.330
 7954SOL     OW24760   3.619   4.313   6.238
 7954SOL    HW124761   3.619   4.410   6.263
 7954SOL    HW224762   3.529   4.288   6.203
 7955SOL     OW24763   2.114   1.142   6.477
 7955SOL    HW124764   2.205   1.105   6.464
 7955SOL    HW224765   2.055   1.115   6.401
 7956SOL     OW24766   5.273   0.369   2.179
 7956SOL    HW124767   5.176   0.352   2.164
 7956SOL    HW224768   5.317   0.391   2.092
 7957SOL     OW24769   1.373   0.555   0.405
 7957SOL    HW124770   1.309   0.556   0.327
 7957SOL    HW224771   1.323   0.573   0.489
 7958SOL     OW24772   4.803   5.437   6.253
 7958SOL    HW124773   4.862   5.503   6.208
 7958SOL    HW224774   4.777   5.366   6.188
 7959SOL     OW24775   4.990   6.539   0.774
 7959SOL    HW124776   5.089   6.550   0.783
 7959SOL    HW224777   4.967   6.442   0.778
 7960SOL     OW24778   2.056   0.660   5.839
 7960SOL    HW124779   2.146   0.618   5.833
 7960SOL    HW224780   2.053   0.741   5.781
 7961SOL     OW24781   6.638   0.705   0.376
 7961SOL    HW124782   6.657   0.790   0.427
 7961SOL    HW224783   6.563   0.656   0.420
 7962SOL     OW24784   0.909   1.058   5.566
 7962SOL    HW124785   0.953   0.994   5.503
 7962SOL    HW224786   0.849   1.007   5.628
 7963SOL     OW24787   5.936   5.496   4.553
 7963SOL    HW124788   5.958   5.543   4.638
 7963SOL    HW224789   5.877   5.555   4.497
 7964SOL     OW24790   6.608   3.835   2.827
 7964SOL    HW124791   6.693   3.859   2.874
 7964SOL    HW224792   6.628   3.774   2.751
 7965SOL     OW24793   3.972   2.386   5.894
 7965SOL    HW124794   3.888   2.433   5.919
 7965SOL    HW224795   4.040   2.397   5.966
 7966SOL     OW24796   2.856   3.285   6.179
 7966SOL    HW124797   2.885   3.249   6.268
 7966SOL    HW224798   2.760   3.314   6.185
 7967SOL     OW24799   3.102   6.007   1.532
 7967SOL    HW124800   3.145   5.932   1.583
 7967SOL    HW224801   3.090   6.086   1.593
 7968SOL     OW24802   6.640   2.307   4.191
 7968SOL    HW124803   6.610   2.214   4.214
 7968SOL    HW224804   6.590   2.373   4.247
 7969SOL     OW24805   5.914   5.708   1.114
 7969SOL    HW124806   5.884   5.744   1.026
 7969SOL    HW224807   6.003   5.746   1.138
 7970SOL     OW24808   6.334   3.224   2.014
 7970SOL    HW124809   6.338   3.305   1.955
 7970SOL    HW224810   6.263   3.162   1.981
 7971SOL     OW24811   3.064   1.620   1.097
 7971SOL    HW124812   3.153   1.581   1.120
 7971SOL    HW224813   3.042   1.600   1.001
 7972SOL     OW24814   3.011   3.065   1.047
 7972SOL    HW124815   2.931   3.126   1.047
 7972SOL    HW224816   2.981   2.971   1.065
 7973SOL     OW24817   4.669   4.425   4.094
 7973SOL    HW124818   4.651   4.397   4.188
 7973SOL    HW224819   4.753   4.480   4.091
 7974SOL     OW24820   5.969   1.044   5.185
 7974SOL    HW124821   5.949   1.136   5.218
 7974SOL    HW224822   5.982   0.983   5.264
 7975SOL     OW24823   6.250   0.739   1.359
 7975SOL    HW124824   6.245   0.734   1.459
 7975SOL    HW224825   6.254   0.647   1.320
 7976SOL     OW24826   1.278   0.289   6.307
 7976SOL    HW124827   1.205   0.347   6.269
 7976SOL    HW224828   1.297   0.214   6.244
 7977SOL     OW24829   4.330   5.533   2.981
 7977SOL    HW124830   4.317   5.553   3.078
 7977SOL    HW224831   4.425   5.551   2.956
 7978SOL     OW24832   6.831   2.770   6.278
 7978SOL    HW124833   6.847   2.794   6.182
 7978SOL    HW224834   6.742   2.808   6.307
 7979SOL     OW24835   3.408   5.121   5.301
 7979SOL    HW124836   3.423   5.024   5.323
 7979SOL    HW224837   3.468   5.178   5.357
 7980SOL     OW24838   3.497   5.027   6.417
 7980SOL    HW124839   3.562   4.958   6.450
 7980SOL    HW224840   3.438   5.056   6.492
 7981SOL     OW24841   0.909   4.531   1.789
 7981SOL    HW124842   0.876   4.538   1.883
 7981SOL    HW224843   0.985   4.594   1.775
 7982SOL     OW24844   1.462   1.340   0.209
 7982SOL    HW124845   1.513   1.304   0.287
 7982SOL    HW224846   1.365   1.346   0.233
 7983SOL     OW24847   5.761   2.312   0.710
 7983SOL    HW124848   5.840   2.250   0.705
 7983SOL    HW224849   5.790   2.401   0.743
 7984SOL     OW24850   0.778   1.448   0.666
 7984SOL    HW124851   0.779   1.527   0.729
 7984SOL    HW224852   0.851   1.458   0.599
 7985SOL     OW24853   2.779   2.085   4.776
 7985SOL    HW124854   2.694   2.051   4.817
 7985SOL    HW224855   2.807   2.023   4.703
 7986SOL     OW24856   2.912   0.673   6.357
 7986SOL    HW124857   2.921   0.575   6.376
 7986SOL    HW224858   2.883   0.720   6.441
 7987SOL     OW24859   1.957   2.384   6.992
 7987SOL    HW124860   2.049   2.394   6.955
 7987SOL    HW224861   1.922   2.293   6.970
 7988SOL     OW24862   1.589   0.986   2.574
 7988SOL    HW124863   1.553   0.992   2.481
 7988SOL    HW224864   1.516   0.960   2.637
 7989SOL     OW24865   2.887   3.032   0.430
 7989SOL    HW124866   2.948   2.961   0.467
 7989SOL    HW224867   2.803   2.990   0.397
 7990SOL     OW24868   2.118   5.355   4.755
 7990SOL    HW124869   2.198   5.379   4.810
 7990SOL    HW224870   2.067   5.437   4.731
 7991SOL     OW24871   6.228   1.146   3.764
 7991SOL    HW124872   6.195   1.064   3.810
 7991SOL    HW224873   6.153   1.189   3.714
 7992SOL     OW24874   0.963   0.555   0.179
 7992SOL    HW124875   1.053   0.596   0.162
 7992SOL    HW224876   0.892   0.625   0.170
 7993SOL     OW24877   0.190   6.967   0.929
 7993SOL    HW124878   0.211   6.881   0.882
 7993SOL    HW224879   0.271   0.005   0.928
 7994SOL     OW24880   3.685   0.087   3.674
 7994SOL    HW124881   3.748   0.112   3.601
 7994SOL    HW224882   3.717   0.004   3.719
 7995SOL     OW24883   5.823   5.455   3.460
 7995SOL    HW124884   5.750   5.406   3.412
 7995SOL    HW224885   5.812   5.442   3.559
 7996SOL     OW24886   3.632   6.449   4.314
 7996SOL    HW124887   3.642   6.425   4.410
 7996SOL    HW224888   3.723   6.467   4.275
 7997SOL     OW24889   0.030   1.148   0.558
 7997SOL    HW124890   7.009   1.186   0.640
 7997SOL    HW224891   0.122   1.185   0.547
 7998SOL     OW24892   3.154   0.390   0.445
 7998SOL    HW124893   3.191   0.301   0.471
 7998SOL    HW224894   3.100   0.380   0.361
 7999SOL     OW24895   0.574   1.004   5.818
 7999SOL    HW124896   0.636   1.082   5.816
 7999SOL    HW224897   0.497   1.021   5.756
 8000SOL     OW24898   4.979   7.017   6.631
 8000SOL    HW124899   4.889   7.012   6.674
 8000SOL    HW224900   5.042   0.044   6.691
 8001SOL     OW24901   4.126   5.894   1.913
 8001SOL    HW124902   4.137   5.796   1.897
 8001SOL    HW224903   4.215   5.939   1.909
 8002SOL     OW24904   1.493   0.642   6.557
 8002SOL    HW124905   1.404   0.677   6.587
 8002SOL    HW224906   1.547   0.716   6.517
 8003SOL     OW24907   2.427   5.732   1.614
 8003SOL    HW124908   2.440   5.790   1.533
 8003SOL    HW224909   2.461   5.640   1.596
 8004SOL     OW24910   2.092   3.259   3.308
 8004SOL    HW124911   2.078   3.298   3.217
 8004SOL    HW224912   2.105   3.160   3.300
 8005SOL     OW24913   3.156   1.223   3.373
 8005SOL    HW124914   3.201   1.249   3.459
 8005SOL    HW224915   3.157   1.124   3.364
 8006SOL     OW24916   2.441   6.073   5.173
 8006SOL    HW124917   2.431   6.139   5.098
 8006SOL    HW224918   2.357   6.072   5.227
 8007SOL     OW24919   5.794   1.432   6.194
 8007SOL    HW124920   5.810   1.528   6.217
 8007SOL    HW224921   5.713   1.424   6.137
 8008SOL     OW24922   3.838   6.399   6.417
 8008SOL    HW124923   3.903   6.424   6.345
 8008SOL    HW224924   3.751   6.372   6.376
 8009SOL     OW24925   5.518   0.837   1.173
 8009SOL    HW124926   5.496   0.867   1.266
 8009SOL    HW224927   5.439   0.790   1.134
 8010SOL     OW24928   2.135   1.794   5.162
 8010SOL    HW124929   2.052   1.749   5.196
 8010SOL    HW224930   2.215   1.743   5.192
 8011SOL     OW24931   3.017   1.854   1.244
 8011SOL    HW124932   3.102   1.905   1.238
 8011SOL    HW224933   3.032   1.761   1.209
 8012SOL     OW24934   2.643   3.611   0.409
 8012SOL    HW124935   2.561   3.635   0.460
 8012SOL    HW224936   2.711   3.571   0.471
 8013SOL     OW24937   1.266   5.489   3.259
 8013SOL    HW124938   1.208   5.408   3.267
 8013SOL    HW224939   1.238   5.543   3.180
 8014SOL     OW24940   1.444   6.556   4.686
 8014SOL    HW124941   1.500   6.521   4.611
 8014SOL    HW224942   1.347   6.545   4.665
 8015SOL     OW24943   2.396   0.732   6.622
 8015SOL    HW124944   2.408   0.830   6.637
 8015SOL    HW224945   2.485   0.689   6.609
 8016SOL     OW24946   3.759   0.797   5.783
 8016SOL    HW124947   3.749   0.712   5.732
 8016SOL    HW224948   3.787   0.870   5.720
 8017SOL     OW24949   5.477   6.897   0.313
 8017SOL    HW124950   5.398   6.856   0.267
 8017SOL    HW224951   5.499   6.985   0.270
 8018SOL     OW24952   3.402   2.287   0.204
 8018SOL    HW124953   3.455   2.332   0.276
 8018SOL    HW224954   3.428   2.191   0.198
 8019SOL     OW24955   2.475   4.921   1.321
 8019SOL    HW124956   2.480   4.909   1.420
 8019SOL    HW224957   2.541   4.991   1.293
 8020SOL     OW24958   6.233   0.219   6.551
 8020SOL    HW124959   6.141   0.259   6.548
 8020SOL    HW224960   6.301   0.292   6.559
 8021SOL     OW24961   0.990   2.941   0.748
 8021SOL    HW124962   1.053   2.934   0.825
 8021SOL    HW224963   1.042   2.954   0.663
 8022SOL     OW24964   5.934   0.493   2.022
 8022SOL    HW124965   5.887   0.405   2.018
 8022SOL    HW224966   5.926   0.533   2.113
 8023SOL     OW24967   6.230   4.808   2.659
 8023SOL    HW124968   6.185   4.793   2.571
 8023SOL    HW224969   6.172   4.773   2.732
 8024SOL     OW24970   1.319   5.060   6.012
 8024SOL    HW124971   1.249   5.126   6.039
 8024SOL    HW224972   1.313   5.044   5.913
 8025SOL     OW24973   2.425   5.681   1.167
 8025SOL    HW124974   2.348   5.723   1.119
 8025SOL    HW224975   2.403   5.586   1.190
 8026SOL     OW24976   0.127   4.232   1.033
 8026SOL    HW124977   0.105   4.307   0.970
 8026SOL    HW224978   0.169   4.157   0.983
 8027SOL     OW24979   3.763   0.377   5.427
 8027SOL    HW124980   3.752   0.283   5.460
 8027SOL    HW224981   3.807   0.376   5.338
 8028SOL     OW24982   3.979   5.376   4.986
 8028SOL    HW124983   3.974   5.287   4.942
 8028SOL    HW224984   3.890   5.399   5.026
 8029SOL     OW24985   5.255   2.879   1.965
 8029SOL    HW124986   5.305   2.840   1.888
 8029SOL    HW224987   5.157   2.877   1.946
 8030SOL     OW24988   5.286   4.997   0.443
 8030SOL    HW124989   5.220   5.056   0.397
 8030SOL    HW224990   5.242   4.911   0.468
 8031SOL     OW24991   6.521   6.158   2.563
 8031SOL    HW124992   6.445   6.116   2.613
 8031SOL    HW224993   6.484   6.226   2.498
 8032SOL     OW24994   6.020   4.343   2.014
 8032SOL    HW124995   5.949   4.324   2.082
 8032SOL    HW224996   6.110   4.341   2.058
 8033SOL     OW24997   4.343   2.259   6.734
 8033SOL    HW124998   4.360   2.176   6.787
 8033SOL    HW224999   4.312   2.332   6.796
 8034SOL     OW25000   4.672   0.406   5.266
 8034SOL    HW125001   4.613   0.460   5.327
 8034SOL    HW225002   4.653   0.432   5.171
 8035SOL     OW25003   5.263   1.754   2.175
 8035SOL    HW125004   5.214   1.841   2.173
 8035SOL    HW225005   5.221   1.694   2.244
 8036SOL     OW25006   6.902   3.598   3.973
 8036SOL    HW125007   6.806   3.606   3.999
 8036SOL    HW225008   6.909   3.553   3.884
 8037SOL     OW25009   2.349   3.146   6.927
 8037SOL    HW125010   2.290   3.217   6.968
 8037SOL    HW225011   2.440   3.151   6.968
 8038SOL     OW25012   4.430   0.121   2.339
 8038SOL    HW125013   4.424   0.192   2.409
 8038SOL    HW225014   4.379   0.149   2.258
 8039SOL     OW25015   0.022   1.722   4.912
 8039SOL    HW125016   6.971   1.754   4.973
 8039SOL    HW225017   0.035   1.624   4.925
 8040SOL     OW25018   1.523   5.643   0.118
 8040SOL    HW125019   1.502   5.607   0.209
 8040SOL    HW225020   1.567   5.572   0.064
 8041SOL     OW25021   3.273   0.875   3.026
 8041SOL    HW125022   3.297   0.784   3.059
 8041SOL    HW225023   3.356   0.924   3.000
 8042SOL     OW25024   3.764   3.025   5.233
 8042SOL    HW125025   3.724   3.029   5.324
 8042SOL    HW225026   3.848   3.079   5.231
 8043SOL     OW25027   3.835   5.662   0.616
 8043SOL    HW125028   3.841   5.586   0.552
 8043SOL    HW225029   3.822   5.747   0.566
 8044SOL     OW25030   4.575   3.181   0.831
 8044SOL    HW125031   4.627   3.248   0.886
 8044SOL    HW225032   4.614   3.177   0.739
 8045SOL     OW25033   6.091   2.301   2.893
 8045SOL    HW125034   6.114   2.357   2.813
 8045SOL    HW225035   6.041   2.220   2.864
 8046SOL     OW25036   1.033   4.705   2.170
 8046SOL    HW125037   1.111   4.708   2.108
 8046SOL    HW225038   1.063   4.721   2.264
 8047SOL     OW25039   3.683   5.779   6.281
 8047SOL    HW125040   3.625   5.724   6.220
 8047SOL    HW225041   3.766   5.728   6.304
 8048SOL     OW25042   4.155   1.702   6.992
 8048SOL    HW125043   4.223   1.632   6.971
 8048SOL    HW225044   4.126   1.747   6.907
 8049SOL     OW25045   0.735   6.970   6.818
 8049SOL    HW125046   0.808   6.960   6.750
 8049SOL    HW225047   0.768   0.006   6.893
 8050SOL     OW25048   1.937   3.340   3.810
 8050SOL    HW125049   1.843   3.325   3.778
 8050SOL    HW225050   1.998   3.346   3.731
 8051SOL     OW25051   4.544   6.490   4.540
 8051SOL    HW125052   4.551   6.458   4.445
 8051SOL    HW225053   4.597   6.429   4.600
 8052SOL     OW25054   2.692   1.725   1.168
 8052SOL    HW125055   2.653   1.787   1.236
 8052SOL    HW225056   2.666   1.756   1.076
 8053SOL     OW25057   3.688   2.885   4.507
 8053SOL    HW125058   3.598   2.919   4.481
 8053SOL    HW225059   3.678   2.798   4.554
 8054SOL     OW25060   6.697   4.003   4.892
 8054SOL    HW125061   6.748   4.068   4.949
 8054SOL    HW225062   6.620   4.051   4.849
 8055SOL     OW25063   6.993   0.842   5.757
 8055SOL    HW125064   6.911   0.806   5.713
 8055SOL    HW225065   0.029   0.766   5.789
 8056SOL     OW25066   3.240   0.955   4.759
 8056SOL    HW125067   3.168   0.889   4.780
 8056SOL    HW225068   3.296   0.920   4.684
 8057SOL     OW25069   3.285   2.141   3.113
 8057SOL    HW125070   3.242   2.073   3.055
 8057SOL    HW225071   3.269   2.119   3.209
 8058SOL     OW25072   3.258   0.139   3.115
 8058SOL    HW125073   3.302   0.049   3.110
 8058SOL    HW225074   3.328   0.210   3.116
 8059SOL     OW25075   2.523   1.709   4.617
 8059SOL    HW125076   2.548   1.666   4.530
 8059SOL    HW225077   2.484   1.800   4.599
 8060SOL     OW25078   6.787   2.598   6.562
 8060SOL    HW125079   6.882   2.625   6.545
 8060SOL    HW225080   6.780   2.559   6.654
 8061SOL     OW25081   0.110   0.349   2.868
 8061SOL    HW125082   0.195   0.373   2.822
 8061SOL    HW225083   0.035   0.402   2.829
 8062SOL     OW25084   4.024   4.776   3.434
 8062SOL    HW125085   3.930   4.806   3.420
 8062SOL    HW225086   4.075   4.783   3.348
 8063SOL     OW25087   2.321   2.036   2.977
 8063SOL    HW125088   2.282   1.954   2.935
 8063SOL    HW225089   2.260   2.068   3.049
 8064SOL     OW25090   6.086   2.068   1.138
 8064SOL    HW125091   6.049   2.153   1.102
 8064SOL    HW225092   6.092   2.000   1.065
 8065SOL     OW25093   2.950   5.677   3.642
 8065SOL    HW125094   2.946   5.589   3.690
 8065SOL    HW225095   2.861   5.697   3.602
 8066SOL     OW25096   0.351   0.778   5.600
 8066SOL    HW125097   0.289   0.737   5.533
 8066SOL    HW225098   0.323   0.753   5.692
 8067SOL     OW25099   5.199   2.630   2.636
 8067SOL    HW125100   5.188   2.679   2.550
 8067SOL    HW225101   5.129   2.661   2.701
 8068SOL     OW25102   0.116   4.546   1.347
 8068SOL    HW125103   0.139   4.507   1.258
 8068SOL    HW225104   0.195   4.597   1.382
 8069SOL     OW25105   2.164   5.189   1.149
 8069SOL    HW125106   2.194   5.117   1.213
 8069SOL    HW225107   2.197   5.277   1.181
 8070SOL     OW25108   4.344   3.419   0.870
 8070SOL    HW125109   4.370   3.352   0.800
 8070SOL    HW225110   4.253   3.399   0.904
 8071SOL     OW25111   3.421   6.513   5.405
 8071SOL    HW125112   3.453   6.426   5.367
 8071SOL    HW225113   3.322   6.511   5.416
 8072SOL     OW25114   3.578   1.839   0.565
 8072SOL    HW125115   3.552   1.922   0.615
 8072SOL    HW225116   3.586   1.763   0.628
 8073SOL     OW25117   3.801   6.058   5.223
 8073SOL    HW125118   3.857   5.978   5.245
 8073SOL    HW225119   3.769   6.101   5.307
 8074SOL     OW25120   3.124   2.970   0.827
 8074SOL    HW125121   3.097   2.988   0.922
 8074SOL    HW225122   3.079   2.887   0.794
 8075SOL     OW25123   6.539   6.874   0.681
 8075SOL    HW125124   6.599   6.889   0.760
 8075SOL    HW225125   6.444   6.887   0.709
 8076SOL     OW25126   5.998   0.321   5.692
 8076SOL    HW125127   6.049   0.280   5.616
 8076SOL    HW225128   6.005   0.420   5.687
 8077SOL     OW25129   3.694   6.525   2.347
 8077SOL    HW125130   3.622   6.472   2.302
 8077SOL    HW225131   3.783   6.483   2.328
 8078SOL     OW25132   0.495   1.964   0.737
 8078SOL    HW125133   0.509   1.891   0.670
 8078SOL    HW225134   0.413   2.016   0.714
 8079SOL     OW25135   6.465   1.298   3.855
 8079SOL    HW125136   6.536   1.228   3.858
 8079SOL    HW225137   6.386   1.264   3.803
 8080SOL     OW25138   0.845   2.804   2.577
 8080SOL    HW125139   0.829   2.844   2.487
 8080SOL    HW225140   0.781   2.729   2.592
 8081SOL     OW25141   6.198   5.639   5.991
 8081SOL    HW125142   6.166   5.705   6.059
 8081SOL    HW225143   6.297   5.630   5.996
 8082SOL     OW25144   3.790   1.057   2.061
 8082SOL    HW125145   3.718   1.126   2.056
 8082SOL    HW225146   3.879   1.100   2.045
 8083SOL     OW25147   4.719   2.783   3.541
 8083SOL    HW125148   4.737   2.877   3.567
 8083SOL    HW225149   4.735   2.723   3.619
 8084SOL     OW25150   3.434   6.765   6.758
 8084SOL    HW125151   3.510   6.820   6.795
 8084SOL    HW225152   3.372   6.741   6.832
 8085SOL     OW25153   5.776   6.516   2.271
 8085SOL    HW125154   5.776   6.472   2.360
 8085SOL    HW225155   5.763   6.614   2.282
 8086SOL     OW25156   6.572   0.761   2.647
 8086SOL    HW125157   6.482   0.777   2.608
 8086SOL    HW225158   6.591   0.663   2.648
 8087SOL     OW25159   2.007   0.233   6.906
 8087SOL    HW125160   1.932   0.174   6.938
 8087SOL    HW225161   2.094   0.189   6.927
 8088SOL     OW25162   6.071   1.097   1.689
 8088SOL    HW125163   6.168   1.076   1.705
 8088SOL    HW225164   6.055   1.108   1.591
 8089SOL     OW25165   5.376   2.976   0.704
 8089SOL    HW125166   5.277   2.979   0.719
 8089SOL    HW225167   5.395   2.954   0.608
 8090SOL     OW25168   3.574   1.379   6.622
 8090SOL    HW125169   3.558   1.280   6.622
 8090SOL    HW225170   3.516   1.422   6.691
 8091SOL     OW25171   1.876   3.994   4.777
 8091SOL    HW125172   1.974   3.984   4.760
 8091SOL    HW225173   1.851   4.091   4.769
 8092SOL     OW25174   5.567   1.865   5.366
 8092SOL    HW125175   5.651   1.910   5.337
 8092SOL    HW225176   5.528   1.815   5.289
 8093SOL     OW25177   2.853   5.013   3.269
 8093SOL    HW125178   2.788   4.941   3.295
 8093SOL    HW225179   2.946   4.975   3.270
 8094SOL     OW25180   0.262   2.917   4.588
 8094SOL    HW125181   0.226   2.985   4.523
 8094SOL    HW225182   0.351   2.947   4.621
 8095SOL     OW25183   0.412   4.611   4.416
 8095SOL    HW125184   0.438   4.647   4.506
 8095SOL    HW225185   0.391   4.688   4.355
 8096SOL     OW25186   2.309   0.015   2.695
 8096SOL    HW125187   2.344   0.087   2.635
 8096SOL    HW225188   2.241   0.053   2.757
 8097SOL     OW25189   3.959   6.927   4.694
 8097SOL    HW125190   3.999   6.848   4.648
 8097SOL    HW225191   4.028   6.971   4.752
 8098SOL     OW25192   2.129   6.563   3.441
 8098SOL    HW125193   2.105   6.490   3.505
 8098SOL    HW225194   2.048   6.588   3.388
 8099SOL     OW25195   4.170   6.245   4.637
 8099SOL    HW125196   4.126   6.174   4.693
 8099SOL    HW225197   4.203   6.318   4.696
 8100SOL     OW25198   6.820   0.452   6.960
 8100SOL    HW125199   6.769   0.367   6.950
 8100SOL    HW225200   6.858   0.457   0.031
 8101SOL     OW25201   1.511   5.814   1.617
 8101SOL    HW125202   1.497   5.910   1.641
 8101SOL    HW225203   1.527   5.761   1.701
 8102SOL     OW25204   0.445   4.160   3.564
 8102SOL    HW125205   0.427   4.203   3.475
 8102SOL    HW225206   0.489   4.071   3.550
 8103SOL     OW25207   2.938   6.718   1.643
 8103SOL    HW125208   3.000   6.738   1.568
 8103SOL    HW225209   2.890   6.801   1.670
 8104SOL     OW25210   2.071   0.674   6.121
 8104SOL    HW125211   2.050   0.658   6.025
 8104SOL    HW225212   2.087   0.586   6.167
 8105SOL     OW25213   0.296   3.402   3.502
 8105SOL    HW125214   0.220   3.457   3.467
 8105SOL    HW225215   0.277   3.374   3.596
 8106SOL     OW25216   3.411   5.974   3.299
 8106SOL    HW125217   3.332   5.968   3.239
 8106SOL    HW225218   3.483   5.913   3.267
 8107SOL     OW25219   0.598   4.846   4.098
 8107SOL    HW125220   0.611   4.944   4.114
 8107SOL    HW225221   0.508   4.818   4.129
 8108SOL     OW25222   6.415   3.231   6.230
 8108SOL    HW125223   6.513   3.250   6.224
 8108SOL    HW225224   6.396   3.180   6.314
 8109SOL     OW25225   6.803   3.880   5.914
 8109SOL    HW125226   6.799   3.921   6.005
 8109SOL    HW225227   6.710   3.864   5.879
 8110SOL     OW25228   3.699   5.990   2.400
 8110SOL    HW125229   3.622   6.040   2.362
 8110SOL    HW225230   3.743   6.045   2.471
 8111SOL     OW25231   5.196   1.168   4.576
 8111SOL    HW125232   5.217   1.071   4.587
 8111SOL    HW225233   5.111   1.189   4.624
 8112SOL     OW25234   2.345   2.587   4.732
 8112SOL    HW125235   2.407   2.613   4.659
 8112SOL    HW225236   2.273   2.527   4.696
 8113SOL     OW25237   1.579   3.082   0.169
 8113SOL    HW125238   1.577   3.135   0.254
 8113SOL    HW225239   1.491   3.091   0.122
 8114SOL     OW25240   1.301   3.929   2.787
 8114SOL    HW125241   1.388   3.952   2.743
 8114SOL    HW225242   1.252   4.012   2.811
 8115SOL     OW25243   3.821   0.382   6.436
 8115SOL    HW125244   3.814   0.416   6.342
 8115SOL    HW225245   3.822   0.282   6.435
 8116SOL     OW25246   4.122   4.521   0.524
 8116SOL    HW125247   4.180   4.601   0.538
 8116SOL    HW225248   4.031   4.539   0.562
 8117SOL     OW25249   2.105   0.049   3.393
 8117SOL    HW125250   2.008   0.067   3.378
 8117SOL    HW225251   2.115   6.987   3.448
 8118SOL     OW25252   4.796   4.349   6.717
 8118SOL    HW125253   4.838   4.342   6.807
 8118SOL    HW225254   4.716   4.288   6.712
 8119SOL     OW25255   4.986   5.595   6.824
 8119SOL    HW125256   5.069   5.559   6.782
 8119SOL    HW225257   4.935   5.649   6.757
 8120SOL     OW25258   2.793   4.652   1.052
 8120SOL    HW125259   2.749   4.730   1.006
 8120SOL    HW225260   2.840   4.684   1.134
 8121SOL     OW25261   6.714   5.133   2.158
 8121SOL    HW125262   6.804   5.174   2.141
 8121SOL    HW225263   6.666   5.119   2.072
 8122SOL     OW25264   6.975   4.642   3.596
 8122SOL    HW125265   0.007   4.630   3.511
 8122SOL    HW225266   7.012   4.720   3.647
 8123SOL     OW25267   6.808   1.865   6.432
 8123SOL    HW125268   6.743   1.889   6.504
 8123SOL    HW225269   6.813   1.939   6.365
 8124SOL     OW25270   5.153   6.176   1.858
 8124SOL    HW125271   5.144   6.271   1.830
 8124SOL    HW225272   5.069   6.146   1.903
 8125SOL     OW25273   1.495   1.809   2.986
 8125SOL    HW125274   1.486   1.791   3.083
 8125SOL    HW225275   1.532   1.901   2.972
 8126SOL     OW25276   5.001   3.704   2.597
 8126SOL    HW125277   4.926   3.765   2.621
 8126SOL    HW225278   5.003   3.690   2.498
 8127SOL     OW25279   2.267   3.702   6.646
 8127SOL    HW125280   2.282   3.781   6.586
 8127SOL    HW225281   2.170   3.676   6.643
 8128SOL     OW25282   2.842   2.155   2.284
 8128SOL    HW125283   2.874   2.208   2.205
 8128SOL    HW225284   2.920   2.125   2.338
 8129SOL     OW25285   4.048   1.721   6.301
 8129SOL    HW125286   4.012   1.777   6.375
 8129SOL    HW225287   3.991   1.640   6.289
 8130SOL     OW25288   0.461   3.765   6.800
 8130SOL    HW125289   0.390   3.821   6.842
 8130SOL    HW225290   0.536   3.823   6.769
 8131SOL     OW25291   2.404   2.168   1.241
 8131SOL    HW125292   2.416   2.198   1.146
 8131SOL    HW225293   2.344   2.233   1.288
 8132SOL     OW25294   5.916   7.020   5.896
 8132SOL    HW125295   5.879   6.928   5.890
 8132SOL    HW225296   5.997   7.021   5.955
 8133SOL     OW25297   3.364   5.623   1.925
 8133SOL    HW125298   3.340   5.552   1.992
 8133SOL    HW225299   3.342   5.590   1.833
 8134SOL     OW25300   6.659   2.698   5.913
 8134SOL    HW125301   6.597   2.683   5.991
 8134SOL    HW225302   6.689   2.609   5.879
 8135SOL     OW25303   3.367   6.814   1.661
 8135SOL    HW125304   3.462   6.838   1.682
 8135SOL    HW225305   3.353   6.717   1.678
 8136SOL     OW25306   4.229   6.212   2.847
 8136SOL    HW125307   4.197   6.207   2.752
 8136SOL    HW225308   4.306   6.276   2.853
 8137SOL     OW25309   3.555   1.463   5.368
 8137SOL    HW125310   3.543   1.533   5.298
 8137SOL    HW225311   3.651   1.437   5.373
 8138SOL     OW25312   4.965   0.883   0.665
 8138SOL    HW125313   4.930   0.971   0.633
 8138SOL    HW225314   4.947   0.874   0.763
 8139SOL     OW25315   0.579   0.491   2.007
 8139SOL    HW125316   0.562   0.448   2.096
 8139SOL    HW225317   0.670   0.533   2.007
 8140SOL     OW25318   5.765   0.415   6.857
 8140SOL    HW125319   5.672   0.431   6.891
 8140SOL    HW225320   5.760   0.375   6.765
 8141SOL     OW25321   4.791   5.922   4.317
 8141SOL    HW125322   4.866   5.982   4.291
 8141SOL    HW225323   4.704   5.971   4.307
 8142SOL     OW25324   0.133   5.540   6.934
 8142SOL    HW125325   0.046   5.493   6.948
 8142SOL    HW225326   0.185   5.541   7.019
 8143SOL     OW25327   5.935   4.232   0.803
 8143SOL    HW125328   5.852   4.195   0.763
 8143SOL    HW225329   5.947   4.196   0.896
 8144SOL     OW25330   6.399   6.216   6.455
 8144SOL    HW125331   6.323   6.185   6.513
 8144SOL    HW225332   6.386   6.312   6.432
 8145SOL     OW25333   5.645   5.840   1.915
 8145SOL    HW125334   5.571   5.777   1.938
 8145SOL    HW225335   5.726   5.819   1.969
 8146SOL     OW25336   3.954   1.041   4.521
 8146SOL    HW125337   3.978   1.131   4.559
 8146SOL    HW225338   3.952   0.974   4.595
 8147SOL     OW25339   6.178   1.721   1.831
 8147SOL    HW125340   6.093   1.681   1.864
 8147SOL    HW225341   6.159   1.784   1.756
 8148SOL     OW25342   4.772   4.555   0.814
 8148SOL    HW125343   4.680   4.521   0.798
 8148SOL    HW225344   4.829   4.481   0.851
 8149SOL     OW25345   2.625   6.395   1.842
 8149SOL    HW125346   2.627   6.423   1.746
 8149SOL    HW225347   2.544   6.432   1.887
 8150SOL     OW25348   1.266   4.411   0.647
 8150SOL    HW125349   1.275   4.475   0.571
 8150SOL    HW225350   1.354   4.403   0.694
 8151SOL     OW25351   6.762   2.187   1.222
 8151SOL    HW125352   6.794   2.170   1.129
 8151SOL    HW225353   6.744   2.285   1.233
 8152SOL     OW25354   0.507   1.175   2.557
 8152SOL    HW125355   0.543   1.256   2.602
 8152SOL    HW225356   0.568   1.146   2.483
 8153SOL     OW25357   3.022   0.323   3.550
 8153SOL    HW125358   2.946   0.371   3.506
 8153SOL    HW225359   3.106   0.338   3.499
 8154SOL     OW25360   2.438   5.521   3.237
 8154SOL    HW125361   2.436   5.510   3.337
 8154SOL    HW225362   2.530   5.500   3.203
 8155SOL     OW25363   1.986   3.897   1.969
 8155SOL    HW125364   2.030   3.833   1.907
 8155SOL    HW225365   1.889   3.873   1.979
 8156SOL     OW25366   5.117   6.784   0.440
 8156SOL    HW125367   5.133   6.844   0.518
 8156SOL    HW225368   5.157   6.825   0.357
 8157SOL     OW25369   6.754   5.009   6.545
 8157SOL    HW125370   6.833   4.973   6.594
 8157SOL    HW225371   6.779   5.096   6.501
 8158SOL     OW25372   5.721   5.356   1.017
 8158SOL    HW125373   5.661   5.295   0.965
 8158SOL    HW225374   5.717   5.447   0.977
 8159SOL     OW25375   2.952   6.392   2.547
 8159SOL    HW125376   2.914   6.477   2.584
 8159SOL    HW225377   2.928   6.316   2.607
 8160SOL     OW25378   4.794   1.236   2.952
 8160SOL    HW125379   4.716   1.291   2.923
 8160SOL    HW225380   4.824   1.266   3.043
 8161SOL     OW25381   5.408   1.333   6.795
 8161SOL    HW125382   5.424   1.429   6.819
 8161SOL    HW225383   5.341   1.327   6.721
 8162SOL     OW25384   5.901   6.628   6.136
 8162SOL    HW125385   5.853   6.564   6.076
 8162SOL    HW225386   5.990   6.651   6.096
 8163SOL     OW25387   2.645   3.858   5.631
 8163SOL    HW125388   2.560   3.912   5.623
 8163SOL    HW225389   2.622   3.763   5.648
 8164SOL     OW25390   5.691   3.522   0.386
 8164SOL    HW125391   5.599   3.485   0.377
 8164SOL    HW225392   5.713   3.577   0.305
 8165SOL     OW25393   0.812   5.032   6.862
 8165SOL    HW125394   0.871   5.112   6.856
 8165SOL    HW225395   0.841   4.974   6.939
 8166SOL     OW25396   1.834   0.317   2.035
 8166SOL    HW125397   1.877   0.405   2.057
 8166SOL    HW225398   1.843   0.256   2.114
 8167SOL     OW25399   6.323   6.825   5.012
 8167SOL    HW125400   6.331   6.910   5.064
 8167SOL    HW225401   6.402   6.767   5.031
 8168SOL     OW25402   2.567   1.572   3.292
 8168SOL    HW125403   2.617   1.542   3.373
 8168SOL    HW225404   2.632   1.604   3.222
 8169SOL     OW25405   4.928   2.604   1.524
 8169SOL    HW125406   4.920   2.703   1.535
 8169SOL    HW225407   5.011   2.572   1.570
 8170SOL     OW25408   1.628   5.327   2.738
 8170SOL    HW125409   1.646   5.399   2.806
 8170SOL    HW225410   1.573   5.365   2.663
 8171SOL     OW25411   1.446   1.727   0.254
 8171SOL    HW125412   1.490   1.815   0.273
 8171SOL    HW225413   1.494   1.681   0.180
 8172SOL     OW25414   0.803   1.257   2.240
 8172SOL    HW125415   0.838   1.323   2.307
 8172SOL    HW225416   0.735   1.303   2.181
 8173SOL     OW25417   3.910   1.355   1.350
 8173SOL    HW125418   3.952   1.265   1.365
 8173SOL    HW225419   3.873   1.389   1.437
 8174SOL     OW25420   5.989   2.307   1.048
 8174SOL    HW125421   5.895   2.340   1.041
 8174SOL    HW225422   6.052   2.379   1.018
 8175SOL     OW25423   0.271   3.407   6.423
 8175SOL    HW125424   0.342   3.358   6.473
 8175SOL    HW225425   0.232   3.477   6.482
 8176SOL     OW25426   2.391   5.294   2.309
 8176SOL    HW125427   2.418   5.206   2.272
 8176SOL    HW225428   2.456   5.364   2.279
 8177SOL     OW25429   2.633   5.620   4.009
 8177SOL    HW125430   2.618   5.637   3.912
 8177SOL    HW225431   2.549   5.640   4.060
 8178SOL     OW25432   2.773   6.046   6.248
 8178SOL    HW125433   2.813   5.978   6.309
 8178SOL    HW225434   2.718   6.000   6.178
 8179SOL     OW25435   3.908   2.281   6.382
 8179SOL    HW125436   3.989   2.266   6.439
 8179SOL    HW225437   3.832   2.225   6.416
 8180SOL     OW25438   6.876   0.222   4.709
 8180SOL    HW125439   6.837   0.133   4.730
 8180SOL    HW225440   6.926   0.218   4.623
 8181SOL     OW25441   2.130   2.113   1.855
 8181SOL    HW125442   2.200   2.120   1.927
 8181SOL    HW225443   2.092   2.204   1.838
 8182SOL     OW25444   3.550   1.906   7.004
 8182SOL    HW125445   3.455   1.919   6.974
 8182SOL    HW225446   3.561   1.941   0.076
 8183SOL     OW25447   0.763   2.175   4.443
 8183SOL    HW125448   0.726   2.158   4.352
 8183SOL    HW225449   0.862   2.161   4.442
 8184SOL     OW25450   4.925   1.664   5.763
 8184SOL    HW125451   4.867   1.662   5.682
 8184SOL    HW225452   4.909   1.749   5.814
 8185SOL     OW25453   2.706   6.471   0.644
 8185SOL    HW125454   2.683   6.567   0.628
 8185SOL    HW225455   2.623   6.421   0.668
 8186SOL     OW25456   3.524   5.210   6.217
 8186SOL    HW125457   3.590   5.277   6.250
 8186SOL    HW225458   3.493   5.153   6.293
 8187SOL     OW25459   2.056   2.294   5.781
 8187SOL    HW125460   2.012   2.204   5.779
 8187SOL    HW225461   2.048   2.333   5.872
 8188SOL     OW25462   5.215   2.153   2.001
 8188SOL    HW125463   5.141   2.216   1.976
 8188SOL    HW225464   5.287   2.204   2.047
 8189SOL     OW25465   4.955   4.815   2.103
 8189SOL    HW125466   5.033   4.842   2.046
 8189SOL    HW225467   4.899   4.896   2.122
 8190SOL     OW25468   5.077   5.652   4.243
 8190SOL    HW125469   4.981   5.622   4.245
 8190SOL    HW225470   5.134   5.576   4.213
 8191SOL     OW25471   3.044   5.645   3.254
 8191SOL    HW125472   3.056   5.744   3.267
 8191SOL    HW225473   3.128   5.597   3.278
 8192SOL     OW25474   3.794   5.403   0.099
 8192SOL    HW125475   3.730   5.371   0.029
 8192SOL    HW225476   3.801   5.503   0.093
 8193SOL     OW25477   6.733   0.495   4.084
 8193SOL    HW125478   6.750   0.396   4.084
 8193SOL    HW225479   6.776   0.536   4.004
 8194SOL     OW25480   6.106   2.550   0.953
 8194SOL    HW125481   6.046   2.592   1.021
 8194SOL    HW225482   6.147   2.621   0.896
 8195SOL     OW25483   0.685   0.116   0.348
 8195SOL    HW125484   0.737   0.190   0.306
 8195SOL    HW225485   0.587   0.132   0.334
 8196SOL     OW25486   3.503   0.261   5.621
 8196SOL    HW125487   3.459   0.188   5.674
 8196SOL    HW225488   3.488   0.349   5.666
 8197SOL     OW25489   4.426   1.198   5.703
 8197SOL    HW125490   4.346   1.188   5.644
 8197SOL    HW225491   4.442   1.295   5.721
 8198SOL     OW25492   2.772   6.429   3.183
 8198SOL    HW125493   2.775   6.526   3.207
 8198SOL    HW225494   2.703   6.415   3.112
 8199SOL     OW25495   6.938   2.970   6.929
 8199SOL    HW125496   6.914   3.049   6.986
 8199SOL    HW225497   7.011   2.996   6.866
 8200SOL     OW25498   4.908   3.926   0.829
 8200SOL    HW125499   4.865   3.939   0.740
 8200SOL    HW225500   4.989   3.985   0.836
 8201SOL     OW25501   4.698   0.559   4.459
 8201SOL    HW125502   4.773   0.623   4.445
 8201SOL    HW225503   4.683   0.507   4.375
 8202SOL     OW25504   0.550   5.570   4.125
 8202SOL    HW125505   0.461   5.593   4.164
 8202SOL    HW225506   0.538   5.538   4.031
 8203SOL     OW25507   4.663   2.745   0.034
 8203SOL    HW125508   4.721   2.823   0.057
 8203SOL    HW225509   4.651   2.688   0.115
 8204SOL     OW25510   3.357   5.521   0.834
 8204SOL    HW125511   3.321   5.606   0.873
 8204SOL    HW225512   3.407   5.541   0.750
 8205SOL     OW25513   6.435   4.574   1.680
 8205SOL    HW125514   6.518   4.570   1.736
 8205SOL    HW225515   6.461   4.577   1.584
 8206SOL     OW25516   3.460   2.743   5.660
 8206SOL    HW125517   3.411   2.818   5.615
 8206SOL    HW225518   3.457   2.662   5.602
 8207SOL     OW25519   3.664   4.501   5.396
 8207SOL    HW125520   3.655   4.433   5.469
 8207SOL    HW225521   3.575   4.545   5.381
 8208SOL     OW25522   2.345   6.568   1.276
 8208SOL    HW125523   2.259   6.615   1.295
 8208SOL    HW225524   2.343   6.529   1.184
 8209SOL     OW25525   0.776   1.848   5.219
 8209SOL    HW125526   0.724   1.887   5.144
 8209SOL    HW225527   0.779   1.912   5.296
 8210SOL     OW25528   2.972   0.739   1.337
 8210SOL    HW125529   3.054   0.688   1.363
 8210SOL    HW225530   2.980   0.833   1.371
 8211SOL     OW25531   3.634   4.090   3.768
 8211SOL    HW125532   3.550   4.139   3.743
 8211SOL    HW225533   3.665   4.119   3.858
 8212SOL     OW25534   3.089   1.019   1.131
 8212SOL    HW125535   3.024   1.095   1.132
 8212SOL    HW225536   3.079   0.968   1.046
 8213SOL     OW25537   5.170   4.551   2.678
 8213SOL    HW125538   5.113   4.633   2.684
 8213SOL    HW225539   5.163   4.498   2.763
 8214SOL     OW25540   2.125   5.992   4.055
 8214SOL    HW125541   2.058   5.918   4.053
 8214SOL    HW225542   2.178   5.991   3.970
 8215SOL     OW25543   4.338   5.316   0.247
 8215SOL    HW125544   4.261   5.296   0.186
 8215SOL    HW225545   4.319   5.400   0.298
 8216SOL     OW25546   5.181   0.131   3.062
 8216SOL    HW125547   5.105   0.148   3.125
 8216SOL    HW225548   5.157   0.056   3.000
 8217SOL     OW25549   2.139   3.893   2.232
 8217SOL    HW125550   2.099   3.942   2.155
 8217SOL    HW225551   2.222   3.940   2.262
 8218SOL     OW25552   1.555   6.980   4.026
 8218SOL    HW125553   1.463   7.009   4.052
 8218SOL    HW225554   1.599   0.033   3.973
 8219SOL     OW25555   3.504   3.970   1.526
 8219SOL    HW125556   3.448   3.934   1.601
 8219SOL    HW225557   3.507   3.902   1.453
 8220SOL     OW25558   3.330   4.341   5.288
 8220SOL    HW125559   3.365   4.434   5.297
 8220SOL    HW225560   3.233   4.340   5.314
 8221SOL     OW25561   6.281   4.233   2.974
 8221SOL    HW125562   6.355   4.287   2.933
 8221SOL    HW225563   6.293   4.137   2.950
 8222SOL     OW25564   5.493   1.969   0.817
 8222SOL    HW125565   5.496   2.053   0.871
 8222SOL    HW225566   5.398   1.937   0.811
 8223SOL     OW25567   0.323   4.867   5.749
 8223SOL    HW125568   0.282   4.942   5.697
 8223SOL    HW225569   0.263   4.787   5.744
 8224SOL     OW25570   4.760   1.655   1.723
 8224SOL    HW125571   4.803   1.720   1.660
 8224SOL    HW225572   4.661   1.669   1.722
 8225SOL     OW25573   3.822   0.900   1.065
 8225SOL    HW125574   3.785   0.990   1.091
 8225SOL    HW225575   3.747   0.841   1.036
 8226SOL     OW25576   2.904   0.560   0.818
 8226SOL    HW125577   2.942   0.537   0.908
 8226SOL    HW225578   2.976   0.599   0.761
 8227SOL     OW25579   0.142   1.274   2.315
 8227SOL    HW125580   0.050   1.309   2.337
 8227SOL    HW225581   0.196   1.347   2.273
 8228SOL     OW25582   0.594   1.579   6.026
 8228SOL    HW125583   0.621   1.672   6.003
 8228SOL    HW225584   0.665   1.537   6.083
 8229SOL     OW25585   4.414   4.524   1.096
 8229SOL    HW125586   4.419   4.444   1.035
 8229SOL    HW225587   4.471   4.597   1.059
 8230SOL     OW25588   3.862   6.511   5.729
 8230SOL    HW125589   3.786   6.518   5.794
 8230SOL    HW225590   3.828   6.528   5.636
 8231SOL     OW25591   3.378   1.951   2.348
 8231SOL    HW125592   3.304   1.885   2.361
 8231SOL    HW225593   3.380   1.981   2.252
 8232SOL     OW25594   5.192   1.975   2.458
 8232SOL    HW125595   5.169   1.922   2.377
 8232SOL    HW225596   5.174   1.921   2.540
 8233SOL     OW25597   1.212   0.027   5.816
 8233SOL    HW125598   1.300   7.000   5.817
 8233SOL    HW225599   1.205   0.084   5.897
 8234SOL     OW25600   3.182   3.207   0.173
 8234SOL    HW125601   3.205   3.236   0.080
 8234SOL    HW225602   3.243   3.252   0.238
 8235SOL     OW25603   0.623   3.865   0.025
 8235SOL    HW125604   0.639   3.943   6.986
 8235SOL    HW225605   0.527   3.863   0.054
 8236SOL     OW25606   0.386   5.406   6.017
 8236SOL    HW125607   0.444   5.432   6.093
 8236SOL    HW225608   0.443   5.373   5.941
 8237SOL     OW25609   4.841   6.149   5.846
 8237SOL    HW125610   4.751   6.148   5.890
 8237SOL    HW225611   4.849   6.230   5.787
 8238SOL     OW25612   0.627   5.716   6.903
 8238SOL    HW125613   0.608   5.812   6.883
 8238SOL    HW225614   0.563   5.657   6.853
 8239SOL     OW25615   0.314   1.103   5.108
 8239SOL    HW125616   0.261   1.058   5.036
 8239SOL    HW225617   0.287   1.067   5.197
 8240SOL     OW25618   2.889   3.574   2.607
 8240SOL    HW125619   2.890   3.569   2.507
 8240SOL    HW225620   2.888   3.669   2.635
 8241SOL     OW25621   2.064   4.146   6.322
 8241SOL    HW125622   2.153   4.156   6.278
 8241SOL    HW225623   2.024   4.058   6.297
 8242SOL     OW25624   1.172   3.610   5.062
 8242SOL    HW125625   1.085   3.612   5.111
 8242SOL    HW225626   1.246   3.631   5.125
 8243SOL     OW25627   0.380   4.419   0.071
 8243SOL    HW125628   0.440   4.379   0.140
 8243SOL    HW225629   0.433   4.477   0.010
 8244SOL     OW25630   0.532   0.121   3.949
 8244SOL    HW125631   0.592   0.089   3.876
 8244SOL    HW225632   0.442   0.142   3.912
 8245SOL     OW25633   4.014   2.004   3.616
 8245SOL    HW125634   4.049   2.094   3.643
 8245SOL    HW225635   3.931   2.016   3.561
 8246SOL     OW25636   0.853   4.613   6.340
 8246SOL    HW125637   0.897   4.646   6.257
 8246SOL    HW225638   0.812   4.690   6.389
 8247SOL     OW25639   2.506   5.903   3.684
 8247SOL    HW125640   2.590   5.896   3.630
 8247SOL    HW225641   2.500   5.995   3.723
 8248SOL     OW25642   0.669   5.620   4.936
 8248SOL    HW125643   0.767   5.635   4.924
 8248SOL    HW225644   0.624   5.708   4.950
 8249SOL     OW25645   2.813   1.477   5.172
 8249SOL    HW125646   2.876   1.554   5.184
 8249SOL    HW225647   2.848   1.398   5.221
 8250SOL     OW25648   3.071   1.924   0.952
 8250SOL    HW125649   3.027   1.866   1.020
 8250SOL    HW225650   3.071   2.019   0.983
 8251SOL     OW25651   5.910   1.236   3.975
 8251SOL    HW125652   5.928   1.314   4.035
 8251SOL    HW225653   5.863   1.267   3.892
 8252SOL     OW25654   3.362   1.796   0.255
 8252SOL    HW125655   3.305   1.831   0.181
 8252SOL    HW225656   3.304   1.775   0.334
 8253SOL     OW25657   4.007   5.850   6.726
 8253SOL    HW125658   4.104   5.835   6.744
 8253SOL    HW225659   3.957   5.765   6.742
 8254SOL     OW25660   5.418   4.900   6.155
 8254SOL    HW125661   5.379   4.975   6.101
 8254SOL    HW225662   5.500   4.933   6.203
 8255SOL     OW25663   1.269   0.002   6.239
 8255SOL    HW125664   1.217   0.026   6.321
 8255SOL    HW225665   1.250   6.928   6.214
 8256SOL     OW25666   6.521   0.227   3.178
 8256SOL    HW125667   6.509   0.137   3.135
 8256SOL    HW225668   6.485   0.297   3.117
 8257SOL     OW25669   5.592   4.816   4.372
 8257SOL    HW125670   5.674   4.789   4.422
 8257SOL    HW225671   5.587   4.916   4.367
 8258SOL     OW25672   5.561   2.611   1.914
 8258SOL    HW125673   5.462   2.628   1.908
 8258SOL    HW225674   5.579   2.549   1.990
 8259SOL     OW25675   4.145   1.839   4.934
 8259SOL    HW125676   4.178   1.756   4.889
 8259SOL    HW225677   4.222   1.894   4.964
 8260SOL     OW25678   2.039   6.416   1.111
 8260SOL    HW125679   1.952   6.380   1.146
 8260SOL    HW225680   2.115   6.366   1.153
 8261SOL     OW25681   5.194   6.566   3.211
 8261SOL    HW125682   5.267   6.508   3.174
 8261SOL    HW225683   5.109   6.514   3.214
 8262SOL     OW25684   0.877   4.860   0.285
 8262SOL    HW125685   0.827   4.900   0.362
 8262SOL    HW225686   0.890   4.762   0.301
 8263SOL     OW25687   6.725   2.817   6.855
 8263SOL    HW125688   6.814   2.849   6.889
 8263SOL    HW225689   6.654   2.845   6.919
 8264SOL     OW25690   1.393   6.956   1.507
 8264SOL    HW125691   1.446   6.935   1.425
 8264SOL    HW225692   1.452   6.998   1.576
 8265SOL     OW25693   4.284   0.294   1.682
 8265SOL    HW125694   4.299   0.208   1.633
 8265SOL    HW225695   4.206   0.342   1.643
 8266SOL     OW25696   2.982   0.528   4.925
 8266SOL    HW125697   2.936   0.444   4.897
 8266SOL    HW225698   2.963   0.546   5.021
 8267SOL     OW25699   1.402   5.009   1.830
 8267SOL    HW125700   1.456   4.938   1.785
 8267SOL    HW225701   1.369   5.074   1.761
 8268SOL     OW25702   2.806   4.678   5.823
 8268SOL    HW125703   2.882   4.727   5.867
 8268SOL    HW225704   2.830   4.581   5.814
 8269SOL     OW25705   4.507   2.525   3.149
 8269SOL    HW125706   4.501   2.472   3.234
 8269SOL    HW225707   4.482   2.620   3.168
 8270SOL     OW25708   3.028   5.580   5.956
 8270SOL    HW125709   3.002   5.523   5.878
 8270SOL    HW225710   3.001   5.535   6.041
 8271SOL     OW25711   6.735   6.748   3.511
 8271SOL    HW125712   6.715   6.828   3.568
 8271SOL    HW225713   6.711   6.665   3.561
 8272SOL     OW25714   0.283   0.633   2.899
 8272SOL    HW125715   0.318   0.548   2.860
 8272SOL    HW225716   0.201   0.661   2.850
 8273SOL     OW25717   2.989   0.721   0.025
 8273SOL    HW125718   2.914   0.701   6.983
 8273SOL    HW225719   3.072   0.739   6.993
 8274SOL     OW25720   4.242   4.489   6.571
 8274SOL    HW125721   4.340   4.474   6.557
 8274SOL    HW225722   4.190   4.443   6.499
 8275SOL     OW25723   5.435   0.186   4.507
 8275SOL    HW125724   5.462   0.282   4.506
 8275SOL    HW225725   5.469   0.143   4.590
 8276SOL     OW25726   6.304   2.108   5.491
 8276SOL    HW125727   6.205   2.091   5.486
 8276SOL    HW225728   6.329   2.126   5.586
 8277SOL     OW25729   2.659   5.958   5.057
 8277SOL    HW125730   2.676   5.996   4.966
 8277SOL    HW225731   2.580   6.004   5.098
 8278SOL     OW25732   2.900   1.573   6.649
 8278SOL    HW125733   2.861   1.508   6.715
 8278SOL    HW225734   2.863   1.555   6.558
 8279SOL     OW25735   5.837   5.392   6.448
 8279SOL    HW125736   5.795   5.445   6.522
 8279SOL    HW225737   5.918   5.345   6.483
 8280SOL     OW25738   4.620   2.611   0.296
 8280SOL    HW125739   4.563   2.539   0.257
 8280SOL    HW225740   4.583   2.639   0.385
 8281SOL     OW25741   1.933   4.690   1.135
 8281SOL    HW125742   1.907   4.594   1.136
 8281SOL    HW225743   1.862   4.745   1.179
 8282SOL     OW25744   2.909   2.681   0.327
 8282SOL    HW125745   2.958   2.596   0.308
 8282SOL    HW225746   2.845   2.699   0.252
 8283SOL     OW25747   0.470   5.143   3.514
 8283SOL    HW125748   0.511   5.119   3.426
 8283SOL    HW225749   0.389   5.088   3.530
 8284SOL     OW25750   1.608   3.311   2.393
 8284SOL    HW125751   1.704   3.288   2.378
 8284SOL    HW225752   1.594   3.408   2.370
 8285SOL     OW25753   3.091   3.401   6.129
 8285SOL    HW125754   2.992   3.390   6.140
 8285SOL    HW225755   3.111   3.422   6.034
 8286SOL     OW25756   5.733   1.650   5.074
 8286SOL    HW125757   5.762   1.616   5.163
 8286SOL    HW225758   5.637   1.629   5.060
 8287SOL     OW25759   1.501   6.755   3.329
 8287SOL    HW125760   1.554   6.818   3.272
 8287SOL    HW225761   1.562   6.713   3.397
 8288SOL     OW25762   1.694   2.463   3.057
 8288SOL    HW125763   1.716   2.394   2.988
 8288SOL    HW225764   1.611   2.511   3.032
 8289SOL     OW25765   6.364   0.483   6.220
 8289SOL    HW125766   6.394   0.534   6.140
 8289SOL    HW225767   6.264   0.490   6.228
 8290SOL     OW25768   4.243   2.821   1.600
 8290SOL    HW125769   4.282   2.776   1.519
 8290SOL    HW225770   4.314   2.828   1.670
 8291SOL     OW25771   5.887   6.009   6.652
 8291SOL    HW125772   5.864   5.917   6.620
 8291SOL    HW225773   5.986   6.018   6.660
 8292SOL     OW25774   2.630   5.544   5.585
 8292SOL    HW125775   2.547   5.508   5.627
 8292SOL    HW225776   2.685   5.468   5.549
 8293SOL     OW25777   1.765   4.562   1.440
 8293SOL    HW125778   1.861   4.536   1.439
 8293SOL    HW225779   1.708   4.480   1.429
 8294SOL     OW25780   6.185   3.361   5.032
 8294SOL    HW125781   6.161   3.311   5.115
 8294SOL    HW225782   6.116   3.431   5.014
 8295SOL     OW25783   5.331   3.658   2.750
 8295SOL    HW125784   5.280   3.580   2.714
 8295SOL    HW225785   5.411   3.675   2.692
 8296SOL     OW25786   3.932   5.074   6.393
 8296SOL    HW125787   3.889   4.985   6.407
 8296SOL    HW225788   3.926   5.100   6.297
 8297SOL     OW25789   6.460   3.821   2.424
 8297SOL    HW125790   6.402   3.853   2.498
 8297SOL    HW225791   6.456   3.886   2.348
 8298SOL     OW25792   6.993   0.328   6.335
 8298SOL    HW125793   7.002   0.235   6.370
 8298SOL    HW225794   0.012   0.392   6.401
 8299SOL     OW25795   0.475   3.512   1.041
 8299SOL    HW125796   0.466   3.432   1.100
 8299SOL    HW225797   0.471   3.484   0.945
 8300SOL     OW25798   5.970   6.514   4.662
 8300SOL    HW125799   6.036   6.586   4.645
 8300SOL    HW225800   5.880   6.541   4.626
 8301SOL     OW25801   4.685   0.000   6.687
 8301SOL    HW125802   4.698   6.933   6.733
 8301SOL    HW225803   4.593   0.004   6.648
 8302SOL     OW25804   3.755   6.930   5.683
 8302SOL    HW125805   3.671   6.877   5.669
 8302SOL    HW225806   3.822   6.907   5.612
 8303SOL     OW25807   0.062   0.348   3.133
 8303SOL    HW125808   6.987   0.336   3.156
 8303SOL    HW225809   0.072   0.353   3.033
 8304SOL     OW25810   5.481   4.789   2.208
 8304SOL    HW125811   5.462   4.760   2.301
 8304SOL    HW225812   5.418   4.862   2.182
 8305SOL     OW25813   4.303   5.109   3.412
 8305SOL    HW125814   4.351   5.182   3.364
 8305SOL    HW225815   4.343   5.097   3.503
 8306SOL     OW25816   6.761   1.380   2.696
 8306SOL    HW125817   6.818   1.324   2.636
 8306SOL    HW225818   6.756   1.338   2.786
 8307SOL     OW25819   2.743   5.329   1.738
 8307SOL    HW125820   2.736   5.323   1.838
 8307SOL    HW225821   2.776   5.242   1.701
 8308SOL     OW25822   1.940   4.814   0.373
 8308SOL    HW125823   2.025   4.837   0.326
 8308SOL    HW225824   1.862   4.833   0.313
 8309SOL     OW25825   6.508   4.986   4.008
 8309SOL    HW125826   6.594   4.961   3.964
 8309SOL    HW225827   6.527   5.022   4.099
 8310SOL     OW25828   1.168   5.577   0.232
 8310SOL    HW125829   1.236   5.649   0.246
 8310SOL    HW225830   1.157   5.525   0.316
 8311SOL     OW25831   4.800   0.079   4.745
 8311SOL    HW125832   4.758   0.158   4.701
 8311SOL    HW225833   4.881   0.108   4.796
 8312SOL     OW25834   5.549   0.917   0.714
 8312SOL    HW125835   5.526   0.949   0.622
 8312SOL    HW225836   5.648   0.911   0.723
 8313SOL     OW25837   4.324   0.021   5.709
 8313SOL    HW125838   4.246   0.043   5.768
 8313SOL    HW225839   4.404   0.075   5.737
 8314SOL     OW25840   5.775   6.896   6.682
 8314SOL    HW125841   5.818   6.827   6.623
 8314SOL    HW225842   5.693   6.932   6.638
 8315SOL     OW25843   3.536   3.791   3.433
 8315SOL    HW125844   3.488   3.740   3.361
 8315SOL    HW225845   3.495   3.768   3.521
 8316SOL     OW25846   1.881   3.316   0.100
 8316SOL    HW125847   1.848   3.408   0.119
 8316SOL    HW225848   1.822   3.273   0.031
 8317SOL     OW25849   2.742   1.934   4.535
 8317SOL    HW125850   2.813   1.868   4.558
 8317SOL    HW225851   2.657   1.886   4.515
 8318SOL     OW25852   4.993   1.074   6.128
 8318SOL    HW125853   4.937   1.113   6.202
 8318SOL    HW225854   4.969   1.118   6.042
 8319SOL     OW25855   1.811   0.103   6.371
 8319SOL    HW125856   1.884   0.134   6.431
 8319SOL    HW225857   1.850   0.047   6.297
 8320SOL     OW25858   3.759   3.618   3.700
 8320SOL    HW125859   3.693   3.682   3.739
 8320SOL    HW225860   3.713   3.530   3.682
 8321SOL     OW25861   0.276   7.013   5.932
 8321SOL    HW125862   0.374   7.007   5.916
 8321SOL    HW225863   0.230   6.935   5.889
 8322SOL     OW25864   0.248   1.036   0.200
 8322SOL    HW125865   0.305   0.970   0.249
 8322SOL    HW225866   0.307   1.103   0.154
 8323SOL     OW25867   4.015   4.388   1.083
 8323SOL    HW125868   4.103   4.344   1.098
 8323SOL    HW225869   3.962   4.386   1.168
 8324SOL     OW25870   5.951   0.404   0.379
 8324SOL    HW125871   5.882   0.443   0.318
 8324SOL    HW225872   6.041   0.410   0.335
 8325SOL     OW25873   1.059   4.105   4.832
 8325SOL    HW125874   1.104   4.191   4.854
 8325SOL    HW225875   0.985   4.122   4.767
 8326SOL     OW25876   4.249   3.612   6.925
 8326SOL    HW125877   4.243   3.707   6.894
 8326SOL    HW225878   4.192   3.599   7.006
 8327SOL     OW25879   0.920   0.343   5.476
 8327SOL    HW125880   0.997   0.370   5.535
 8327SOL    HW225881   0.861   0.279   5.525
 8328SOL     OW25882   1.637   6.859   5.658
 8328SOL    HW125883   1.657   6.778   5.714
 8328SOL    HW225884   1.666   6.841   5.564
 8329SOL     OW25885   0.472   2.664   4.911
 8329SOL    HW125886   0.383   2.703   4.887
 8329SOL    HW225887   0.501   2.701   5.000
 8330SOL     OW25888   3.796   1.568   6.554
 8330SOL    HW125889   3.711   1.540   6.598
 8330SOL    HW225890   3.872   1.555   6.619
 8331SOL     OW25891   3.100   1.221   0.517
 8331SOL    HW125892   3.188   1.200   0.559
 8331SOL    HW225893   3.111   1.228   0.417
 8332SOL     OW25894   5.581   5.765   2.487
 8332SOL    HW125895   5.500   5.740   2.433
 8332SOL    HW225896   5.658   5.707   2.460
 8333SOL     OW25897   2.425   5.213   0.167
 8333SOL    HW125898   2.461   5.128   0.207
 8333SOL    HW225899   2.445   5.214   0.069
 8334SOL     OW25900   2.657   2.476   6.405
 8334SOL    HW125901   2.728   2.488   6.336
 8334SOL    HW225902   2.698   2.445   6.491
 8335SOL     OW25903   4.721   2.763   6.769
 8335SOL    HW125904   4.701   2.750   6.866
 8335SOL    HW225905   4.636   2.774   6.718
 8336SOL     OW25906   1.204   3.588   3.377
 8336SOL    HW125907   1.112   3.559   3.403
 8336SOL    HW225908   1.263   3.589   3.458
 8337SOL     OW25909   1.098   6.792   4.400
 8337SOL    HW125910   1.120   6.743   4.484
 8337SOL    HW225911   1.010   6.840   4.412
 8338SOL     OW25912   3.714   5.624   2.049
 8338SOL    HW125913   3.787   5.570   2.091
 8338SOL    HW225914   3.714   5.716   2.087
 8339SOL     OW25915   0.137   0.776   1.462
 8339SOL    HW125916   0.070   0.838   1.502
 8339SOL    HW225917   0.126   0.774   1.362
 8340SOL     OW25918   4.788   3.989   0.541
 8340SOL    HW125919   4.814   3.932   0.463
 8340SOL    HW225920   4.700   3.956   0.577
 8341SOL     OW25921   3.601   0.623   6.829
 8341SOL    HW125922   3.652   0.686   6.771
 8341SOL    HW225923   3.654   0.603   6.912
 8342SOL     OW25924   3.601   6.892   6.955
 8342SOL    HW125925   3.690   6.859   6.924
 8342SOL    HW225926   3.567   6.832   0.006
 8343SOL     OW25927   5.880   5.853   3.810
 8343SOL    HW125928   5.856   5.910   3.889
 8343SOL    HW225929   5.846   5.760   3.824
 8344SOL     OW25930   0.358   5.167   4.594
 8344SOL    HW125931   0.430   5.159   4.662
 8344SOL    HW225932   0.333   5.264   4.583
 8345SOL     OW25933   4.986   1.862   3.576
 8345SOL    HW125934   4.905   1.899   3.623
 8345SOL    HW225935   5.011   1.775   3.617
 8346SOL     OW25936   3.633   3.168   6.186
 8346SOL    HW125937   3.562   3.103   6.159
 8346SOL    HW225938   3.593   3.258   6.198
 8347SOL     OW25939   3.593   6.299   6.328
 8347SOL    HW125940   3.589   6.221   6.265
 8347SOL    HW225941   3.503   6.340   6.337
 8348SOL     OW25942   2.746   6.947   1.044
 8348SOL    HW125943   2.703   6.925   0.956
 8348SOL    HW225944   2.685   7.004   1.098
 8349SOL     OW25945   0.769   6.791   1.574
 8349SOL    HW125946   0.740   6.820   1.665
 8349SOL    HW225947   0.866   6.767   1.576
 8350SOL     OW25948   3.007   6.491   6.357
 8350SOL    HW125949   3.065   6.433   6.299
 8350SOL    HW225950   2.964   6.435   6.427
 8351SOL     OW25951   5.489   5.423   3.586
 8351SOL    HW125952   5.541   5.426   3.500
 8351SOL    HW225953   5.412   5.361   3.576
 8352SOL     OW25954   1.795   6.800   2.691
 8352SOL    HW125955   1.866   6.869   2.706
 8352SOL    HW225956   1.815   6.719   2.746
 8353SOL     OW25957   1.226   4.304   1.417
 8353SOL    HW125958   1.243   4.224   1.475
 8353SOL    HW225959   1.130   4.329   1.422
 8354SOL     OW25960   3.765   6.405   3.970
 8354SOL    HW125961   3.785   6.307   3.967
 8354SOL    HW225962   3.832   6.450   4.029
 8355SOL     OW25963   1.975   1.087   5.738
 8355SOL    HW125964   2.022   1.009   5.698
 8355SOL    HW225965   1.911   1.056   5.808
 8356SOL     OW25966   0.903   5.518   1.366
 8356SOL    HW125967   0.883   5.496   1.462
 8356SOL    HW225968   0.915   5.617   1.356
 8357SOL     OW25969   3.839   5.192   5.524
 8357SOL    HW125970   3.879   5.168   5.436
 8357SOL    HW225971   3.912   5.211   5.590
 8358SOL     OW25972   0.928   3.178   4.983
 8358SOL    HW125973   0.977   3.091   4.977
 8358SOL    HW225974   0.988   3.252   4.953
 8359SOL     OW25975   2.533   1.221   4.773
 8359SOL    HW125976   2.542   1.141   4.832
 8359SOL    HW225977   2.530   1.304   4.828
 8360SOL     OW25978   4.450   6.838   0.937
 8360SOL    HW125979   4.369   6.895   0.948
 8360SOL    HW225980   4.425   6.742   0.949
 8361SOL     OW25981   2.643   0.225   6.876
 8361SOL    HW125982   2.743   0.220   6.866
 8361SOL    HW225983   2.601   0.234   6.785
 8362SOL     OW25984   5.481   2.199   1.044
 8362SOL    HW125985   5.383   2.184   1.029
 8362SOL    HW225986   5.517   2.259   0.973
 8363SOL     OW25987   4.752   1.749   1.048
 8363SOL    HW125988   4.780   1.845   1.042
 8363SOL    HW225989   4.806   1.703   1.119
 8364SOL     OW25990   0.578   3.316   3.482
 8364SOL    HW125991   0.571   3.221   3.514
 8364SOL    HW225992   0.494   3.365   3.504
 8365SOL     OW25993   1.769   1.902   2.833
 8365SOL    HW125994   1.769   1.806   2.859
 8365SOL    HW225995   1.724   1.956   2.905
 8366SOL     OW25996   3.450   5.445   1.263
 8366SOL    HW125997   3.353   5.468   1.256
 8366SOL    HW225998   3.460   5.346   1.273
 8367SOL     OW25999   3.294   5.217   5.072
 8367SOL    HW126000   3.298   5.127   5.028
 8367SOL    HW226001   3.328   5.209   5.166
 8368SOL     OW26002   1.076   5.891   6.891
 8368SOL    HW126003   1.169   5.853   6.895
 8368SOL    HW226004   1.075   5.982   6.931
 8369SOL     OW26005   0.632   1.468   0.118
 8369SOL    HW126006   0.657   1.515   0.203
 8369SOL    HW226007   0.641   1.369   0.131
 8370SOL     OW26008   2.153   0.731   6.511
 8370SOL    HW126009   2.119   0.637   6.508
 8370SOL    HW226010   2.242   0.732   6.558
 8371SOL     OW26011   1.882   3.524   6.278
 8371SOL    HW126012   1.823   3.521   6.359
 8371SOL    HW226013   1.929   3.436   6.267
 8372SOL     OW26014   1.579   5.402   2.174
 8372SOL    HW126015   1.599   5.335   2.246
 8372SOL    HW226016   1.486   5.435   2.185
 8373SOL     OW26017   1.773   1.132   4.800
 8373SOL    HW126018   1.684   1.125   4.847
 8373SOL    HW226019   1.794   1.228   4.782
 8374SOL     OW26020   0.540   0.975   4.664
 8374SOL    HW126021   0.536   0.891   4.718
 8374SOL    HW226022   0.453   0.990   4.618
 8375SOL     OW26023   3.678   0.549   5.956
 8375SOL    HW126024   3.738   0.514   6.028
 8375SOL    HW226025   3.590   0.501   5.960
 8376SOL     OW26026   1.601   1.127   4.054
 8376SOL    HW126027   1.568   1.155   4.144
 8376SOL    HW226028   1.523   1.098   3.998
 8377SOL     OW26029   6.211   5.713   0.372
 8377SOL    HW126030   6.203   5.616   0.395
 8377SOL    HW226031   6.124   5.760   0.390
 8378SOL     OW26032   4.347   4.909   3.628
 8378SOL    HW126033   4.335   4.831   3.567
 8378SOL    HW226034   4.262   4.927   3.678
 8379SOL     OW26035   4.588   2.092   2.085
 8379SOL    HW126036   4.656   2.165   2.092
 8379SOL    HW226037   4.512   2.111   2.147
 8380SOL     OW26038   0.561   6.368   6.639
 8380SOL    HW126039   0.516   6.280   6.653
 8380SOL    HW226040   0.576   6.413   6.727
 8381SOL     OW26041   6.886   2.631   3.394
 8381SOL    HW126042   6.914   2.709   3.339
 8381SOL    HW226043   6.955   2.612   3.463
 8382SOL     OW26044   2.102   6.951   0.662
 8382SOL    HW126045   2.110   6.930   0.565
 8382SOL    HW226046   2.114   0.029   0.676
 8383SOL     OW26047   2.089   0.380   5.528
 8383SOL    HW126048   2.031   0.369   5.609
 8383SOL    HW226049   2.108   0.290   5.489
 8384SOL     OW26050   0.253   1.380   0.278
 8384SOL    HW126051   0.173   1.405   0.223
 8384SOL    HW226052   0.321   1.335   0.219
 8385SOL     OW26053   4.592   2.383   0.897
 8385SOL    HW126054   4.604   2.286   0.877
 8385SOL    HW226055   4.530   2.423   0.829
 8386SOL     OW26056   1.871   5.799   1.117
 8386SOL    HW126057   1.818   5.714   1.120
 8386SOL    HW226058   1.841   5.855   1.039
 8387SOL     OW26059   1.785   1.659   1.315
 8387SOL    HW126060   1.738   1.627   1.232
 8387SOL    HW226061   1.778   1.588   1.385
 8388SOL     OW26062   0.918   6.959   0.763
 8388SOL    HW126063   0.843   7.017   0.794
 8388SOL    HW226064   0.922   6.958   0.663
 8389SOL     OW26065   0.691   3.405   3.788
 8389SOL    HW126066   0.680   3.353   3.704
 8389SOL    HW226067   0.715   3.500   3.766
 8390SOL     OW26068   4.132   0.066   6.610
 8390SOL    HW126069   4.080   0.038   6.690
 8390SOL    HW226070   4.208   0.126   6.638
 8391SOL     OW26071   4.996   5.344   1.302
 8391SOL    HW126072   4.967   5.266   1.246
 8391SOL    HW226073   5.084   5.378   1.268
 8392SOL     OW26074   6.797   5.470   5.740
 8392SOL    HW126075   6.718   5.411   5.754
 8392SOL    HW226076   6.822   5.514   5.827
 8393SOL     OW26077   0.052   0.251   4.030
 8393SOL    HW126078   6.999   0.187   4.048
 8393SOL    HW226079   0.075   0.300   4.115
 8394SOL     OW26080   6.823   2.490   1.517
 8394SOL    HW126081   6.898   2.554   1.533
 8394SOL    HW226082   6.858   2.397   1.514
 8395SOL     OW26083   1.882   6.793   3.997
 8395SOL    HW126084   1.800   6.769   4.049
 8395SOL    HW226085   1.962   6.748   4.039
 8396SOL     OW26086   4.646   4.283   2.250
 8396SOL    HW126087   4.591   4.355   2.292
 8396SOL    HW226088   4.611   4.264   2.158
 8397SOL     OW26089   2.870   0.176   3.004
 8397SOL    HW126090   2.799   0.142   3.066
 8397SOL    HW226091   2.871   0.120   2.921
 8398SOL     OW26092   3.642   2.308   6.907
 8398SOL    HW126093   3.679   2.300   6.999
 8398SOL    HW226094   3.716   2.320   6.841
 8399SOL     OW26095   6.162   6.877   0.134
 8399SOL    HW126096   6.084   6.936   0.155
 8399SOL    HW226097   6.226   6.927   0.076
 8400SOL     OW26098   1.446   0.404   3.472
 8400SOL    HW126099   1.395   0.401   3.558
 8400SOL    HW226100   1.467   0.499   3.449
 8401SOL     OW26101   3.531   2.473   6.524
 8401SOL    HW126102   3.513   2.386   6.478
 8401SOL    HW226103   3.449   2.530   6.520
 8402SOL     OW26104   3.862   2.081   5.881
 8402SOL    HW126105   3.877   2.162   5.824
 8402SOL    HW226106   3.787   2.098   5.945
 8403SOL     OW26107   0.571   2.395   3.177
 8403SOL    HW126108   0.546   2.478   3.226
 8403SOL    HW226109   0.660   2.408   3.133
 8404SOL     OW26110   5.566   5.572   0.052
 8404SOL    HW126111   5.554   5.596   6.976
 8404SOL    HW226112   5.583   5.474   0.060
 8405SOL     OW26113   1.718   1.380   6.942
 8405SOL    HW126114   1.671   1.442   7.004
 8405SOL    HW226115   1.703   1.410   6.847
 8406SOL     OW26116   4.298   0.380   0.902
 8406SOL    HW126117   4.276   0.378   0.805
 8406SOL    HW226118   4.375   0.442   0.918
 8407SOL     OW26119   5.796   5.993   4.020
 8407SOL    HW126120   5.815   6.088   3.995
 8407SOL    HW226121   5.699   5.974   4.007
 8408SOL     OW26122   4.988   2.021   3.171
 8408SOL    HW126123   5.038   1.940   3.201
 8408SOL    HW226124   4.896   1.995   3.143
 8409SOL     OW26125   6.026   2.934   2.966
 8409SOL    HW126126   6.103   2.871   2.961
 8409SOL    HW226127   5.944   2.885   2.994
 8410SOL     OW26128   4.208   0.362   1.390
 8410SOL    HW126129   4.232   0.455   1.419
 8410SOL    HW226130   4.110   0.358   1.372
 8411SOL     OW26131   1.464   6.002   4.745
 8411SOL    HW126132   1.473   6.099   4.724
 8411SOL    HW226133   1.368   5.975   4.738
 8412SOL     OW26134   4.223   1.814   1.718
 8412SOL    HW126135   4.158   1.832   1.644
 8412SOL    HW226136   4.266   1.899   1.747
 8413SOL     OW26137   4.981   4.394   0.587
 8413SOL    HW126138   5.010   4.467   0.526
 8413SOL    HW226139   4.997   4.306   0.543
 8414SOL     OW26140   4.600   6.631   2.499
 8414SOL    HW126141   4.527   6.569   2.528
 8414SOL    HW226142   4.674   6.629   2.567
 8415SOL     OW26143   6.614   5.333   4.160
 8415SOL    HW126144   6.607   5.247   4.212
 8415SOL    HW226145   6.551   5.400   4.199
 8416SOL     OW26146   5.479   4.436   3.293
 8416SOL    HW126147   5.487   4.502   3.368
 8416SOL    HW226148   5.452   4.483   3.209
 8417SOL     OW26149   1.468   4.980   5.326
 8417SOL    HW126150   1.475   5.059   5.265
 8417SOL    HW226151   1.559   4.941   5.341
 8418SOL     OW26152   5.926   5.531   1.972
 8418SOL    HW126153   5.927   5.464   2.046
 8418SOL    HW226154   5.895   5.619   2.008
 8419SOL     OW26155   4.578   1.142   2.231
 8419SOL    HW126156   4.569   1.125   2.329
 8419SOL    HW226157   4.609   1.236   2.217
 8420SOL     OW26158   3.733   0.471   1.261
 8420SOL    HW126159   3.709   0.515   1.174
 8420SOL    HW226160   3.750   0.373   1.245
 8421SOL     OW26161   2.613   6.425   0.959
 8421SOL    HW126162   2.699   6.475   0.953
 8421SOL    HW226163   2.619   6.357   1.032
 8422SOL     OW26164   4.760   6.464   1.427
 8422SOL    HW126165   4.733   6.555   1.396
 8422SOL    HW226166   4.773   6.405   1.347
 8423SOL     OW26167   4.187   3.792   5.761
 8423SOL    HW126168   4.130   3.867   5.728
 8423SOL    HW226169   4.283   3.820   5.760
 8424SOL     OW26170   2.208   2.788   3.066
 8424SOL    HW126171   2.287   2.726   3.068
 8424SOL    HW226172   2.124   2.734   3.056
 8425SOL     OW26173   5.610   5.960   1.026
 8425SOL    HW126174   5.562   5.945   1.112
 8425SOL    HW226175   5.699   6.001   1.044
 8426SOL     OW26176   3.431   2.906   4.398
 8426SOL    HW126177   3.418   2.856   4.312
 8426SOL    HW226178   3.346   2.906   4.450
 8427SOL     OW26179   2.335   3.344   5.924
 8427SOL    HW126180   2.385   3.274   5.874
 8427SOL    HW226181   2.315   3.421   5.864
 8428SOL     OW26182   6.661   4.126   2.054
 8428SOL    HW126183   6.679   4.146   1.957
 8428SOL    HW226184   6.741   4.082   2.094
 8429SOL     OW26185   2.176   4.831   3.533
 8429SOL    HW126186   2.260   4.778   3.517
 8429SOL    HW226187   2.159   4.889   3.454
 8430SOL     OW26188   4.589   5.884   3.370
 8430SOL    HW126189   4.599   5.802   3.314
 8430SOL    HW226190   4.500   5.927   3.352
 8431SOL     OW26191   2.714   5.181   0.867
 8431SOL    HW126192   2.722   5.175   0.767
 8431SOL    HW226193   2.753   5.268   0.899
 8432SOL     OW26194   4.985   6.476   5.266
 8432SOL    HW126195   4.892   6.441   5.276
 8432SOL    HW226196   4.984   6.576   5.276
 8433SOL     OW26197   6.541   2.418   6.806
 8433SOL    HW126198   6.619   2.479   6.820
 8433SOL    HW226199   6.557   2.332   6.855
 8434SOL     OW26200   3.017   0.060   5.229
 8434SOL    HW126201   2.920   0.077   5.245
 8434SOL    HW226202   3.048   7.006   5.288
 8435SOL     OW26203   4.996   0.530   0.723
 8435SOL    HW126204   5.029   0.456   0.782
 8435SOL    HW226205   5.059   0.542   0.647
 8436SOL     OW26206   3.280   6.884   4.314
 8436SOL    HW126207   3.373   6.905   4.345
 8436SOL    HW226208   3.249   6.956   4.251
 8437SOL     OW26209   2.141   0.079   2.902
 8437SOL    HW126210   2.129   0.168   2.945
 8437SOL    HW226211   2.110   0.007   2.965
 8438SOL     OW26212   2.972   5.086   2.468
 8438SOL    HW126213   3.027   5.004   2.485
 8438SOL    HW226214   2.911   5.071   2.391
 8439SOL     OW26215   6.922   5.621   1.045
 8439SOL    HW126216   6.932   5.555   1.120
 8439SOL    HW226217   6.957   5.581   0.961
 8440SOL     OW26218   0.202   1.330   3.286
 8440SOL    HW126219   0.138   1.361   3.357
 8440SOL    HW226220   0.296   1.337   3.321
 8441SOL     OW26221   6.637   6.768   6.962
 8441SOL    HW126222   6.672   6.857   6.992
 8441SOL    HW226223   6.544   6.778   6.930
 8442SOL     OW26224   3.521   2.689   6.169
 8442SOL    HW126225   3.484   2.781   6.160
 8442SOL    HW226226   3.575   2.683   6.253
 8443SOL     OW26227   1.211   6.681   3.354
 8443SOL    HW126228   1.304   6.687   3.317
 8443SOL    HW226229   1.147   6.724   3.291
 8444SOL     OW26230   3.950   5.857   3.677
 8444SOL    HW126231   3.857   5.822   3.689
 8444SOL    HW226232   3.959   5.943   3.727
 8445SOL     OW26233   3.323   5.408   2.090
 8445SOL    HW126234   3.245   5.369   2.140
 8445SOL    HW226235   3.379   5.462   2.152
 8446SOL     OW26236   4.517   4.918   1.198
 8446SOL    HW126237   4.419   4.907   1.181
 8446SOL    HW226238   4.541   5.014   1.188
 8447SOL     OW26239   5.520   1.851   2.302
 8447SOL    HW126240   5.542   1.944   2.275
 8447SOL    HW226241   5.431   1.825   2.264
 8448SOL     OW26242   5.865   4.738   4.717
 8448SOL    HW126243   5.915   4.814   4.758
 8448SOL    HW226244   5.875   4.657   4.774
 8449SOL     OW26245   6.531   2.982   4.375
 8449SOL    HW126246   6.552   3.006   4.280
 8449SOL    HW226247   6.544   3.061   4.434
 8450SOL     OW26248   1.514   5.680   1.869
 8450SOL    HW126249   1.496   5.668   1.967
 8450SOL    HW226250   1.592   5.624   1.842
 8451SOL     OW26251   5.031   2.954   0.108
 8451SOL    HW126252   4.943   2.927   0.146
 8451SOL    HW226253   5.022   2.969   0.010
 8452SOL     OW26254   0.132   0.520   1.567
 8452SOL    HW126255   0.136   0.606   1.516
 8452SOL    HW226256   0.173   0.533   1.657
 8453SOL     OW26257   6.446   4.145   6.654
 8453SOL    HW126258   6.462   4.239   6.623
 8453SOL    HW226259   6.384   4.145   6.731
 8454SOL     OW26260   0.933   6.343   0.651
 8454SOL    HW126261   0.946   6.378   0.744
 8454SOL    HW226262   0.904   6.247   0.655
 8455SOL     OW26263   5.449   1.795   1.053
 8455SOL    HW126264   5.480   1.850   0.975
 8455SOL    HW226265   5.525   1.781   1.117
 8456SOL     OW26266   4.845   3.965   2.631
 8456SOL    HW126267   4.930   4.008   2.663
 8456SOL    HW226268   4.807   4.019   2.556
 8457SOL     OW26269   0.039   6.477   5.454
 8457SOL    HW126270   7.012   6.490   5.367
 8457SOL    HW226271   0.138   6.486   5.438
 8458SOL     OW26272   2.302   1.062   6.949
 8458SOL    HW126273   2.287   1.009   0.011
 8458SOL    HW226274   2.214   1.074   6.902
 8459SOL     OW26275   3.084   6.856   1.454
 8459SOL    HW126276   3.181   6.830   1.456
 8459SOL    HW226277   3.076   6.955   1.449
 8460SOL     OW26278   4.315   2.397   5.701
 8460SOL    HW126279   4.366   2.311   5.699
 8460SOL    HW226280   4.284   2.415   5.794
 8461SOL     OW26281   0.544   4.182   2.301
 8461SOL    HW126282   0.607   4.219   2.233
 8461SOL    HW226283   0.489   4.109   2.259
 8462SOL     OW26284   3.952   2.268   0.533
 8462SOL    HW126285   4.004   2.291   0.616
 8462SOL    HW226286   4.007   2.206   0.476
 8463SOL     OW26287   6.774   0.721   0.731
 8463SOL    HW126288   6.730   0.807   0.706
 8463SOL    HW226289   6.867   0.740   0.763
 8464SOL     OW26290   6.681   4.173   5.347
 8464SOL    HW126291   6.623   4.180   5.428
 8464SOL    HW226292   6.717   4.263   5.324
 8465SOL     OW26293   2.830   2.514   0.800
 8465SOL    HW126294   2.873   2.466   0.723
 8465SOL    HW226295   2.782   2.449   0.858
 8466SOL     OW26296   6.088   6.478   5.851
 8466SOL    HW126297   6.041   6.550   5.800
 8466SOL    HW226298   6.038   6.392   5.842
 8467SOL     OW26299   3.708   0.799   1.582
 8467SOL    HW126300   3.775   0.743   1.534
 8467SOL    HW226301   3.751   0.844   1.660
 8468SOL     OW26302   4.948   2.280   0.045
 8468SOL    HW126303   5.033   2.230   0.025
 8468SOL    HW226304   4.970   2.362   0.098
 8469SOL     OW26305   2.663   1.552   5.709
 8469SOL    HW126306   2.714   1.528   5.791
 8469SOL    HW226307   2.685   1.646   5.683
 8470SOL     OW26308   0.983   4.848   0.035
 8470SOL    HW126309   0.946   4.865   0.126
 8470SOL    HW226310   1.038   4.765   0.037
 8471SOL     OW26311   4.049   0.446   5.447
 8471SOL    HW126312   3.960   0.401   5.461
 8471SOL    HW226313   4.120   0.394   5.494
 8472SOL     OW26314   6.102   0.200   5.464
 8472SOL    HW126315   6.011   0.192   5.424
 8472SOL    HW226316   6.159   0.258   5.406
 8473SOL     OW26317   6.627   5.633   1.005
 8473SOL    HW126318   6.705   5.612   1.063
 8473SOL    HW226319   6.656   5.691   0.929
 8474SOL     OW26320   3.211   3.571   2.028
 8474SOL    HW126321   3.280   3.637   2.056
 8474SOL    HW226322   3.201   3.501   2.099
 8475SOL     OW26323   6.996   2.790   3.207
 8475SOL    HW126324   6.963   2.841   3.128
 8475SOL    HW226325   0.072   2.809   3.221
 8476SOL     OW26326   6.229   1.500   1.030
 8476SOL    HW126327   6.289   1.580   1.030
 8476SOL    HW226328   6.134   1.529   1.044
 8477SOL     OW26329   4.826   6.597   2.647
 8477SOL    HW126330   4.886   6.574   2.724
 8477SOL    HW226331   4.882   6.627   2.570
 8478SOL     OW26332   1.542   0.479   5.063
 8478SOL    HW126333   1.540   0.450   5.159
 8478SOL    HW226334   1.457   0.451   5.018
 8479SOL     OW26335   1.710   3.790   0.723
 8479SOL    HW126336   1.703   3.720   0.794
 8479SOL    HW226337   1.657   3.762   0.643
 8480SOL     OW26338   5.043   3.109   6.672
 8480SOL    HW126339   4.979   3.184   6.658
 8480SOL    HW226340   5.046   3.051   6.590
 8481SOL     OW26341   4.528   2.601   5.056
 8481SOL    HW126342   4.535   2.608   4.957
 8481SOL    HW226343   4.614   2.629   5.098
 8482SOL     OW26344   5.068   0.103   2.683
 8482SOL    HW126345   5.089   0.042   2.760
 8482SOL    HW226346   5.153   0.144   2.650
 8483SOL     OW26347   3.483   6.111   1.967
 8483SOL    HW126348   3.499   6.203   1.931
 8483SOL    HW226349   3.515   6.107   2.062
 8484SOL     OW26350   0.011   6.410   3.839
 8484SOL    HW126351   6.968   6.348   3.884
 8484SOL    HW226352   7.013   6.504   3.867
 8485SOL     OW26353   3.978   2.542   0.324
 8485SOL    HW126354   3.905   2.519   0.259
 8485SOL    HW226355   4.011   2.458   0.367
 8486SOL     OW26356   2.591   1.276   2.235
 8486SOL    HW126357   2.538   1.288   2.319
 8486SOL    HW226358   2.580   1.182   2.202
 8487SOL     OW26359   5.944   2.348   5.825
 8487SOL    HW126360   5.967   2.426   5.884
 8487SOL    HW226361   5.860   2.367   5.776
 8488SOL     OW26362   5.464   6.476   1.879
 8488SOL    HW126363   5.459   6.569   1.843
 8488SOL    HW226364   5.486   6.479   1.977
 8489SOL     OW26365   6.378   1.515   1.781
 8489SOL    HW126366   6.303   1.567   1.821
 8489SOL    HW226367   6.403   1.440   1.843
 8490SOL     OW26368   3.505   6.791   5.782
 8490SOL    HW126369   3.484   6.882   5.818
 8490SOL    HW226370   3.555   6.738   5.851
 8491SOL     OW26371   1.978   6.077   1.946
 8491SOL    HW126372   1.950   6.099   2.039
 8491SOL    HW226373   1.904   6.099   1.882
 8492SOL     OW26374   6.006   4.550   5.254
 8492SOL    HW126375   5.921   4.498   5.266
 8492SOL    HW226376   5.987   4.647   5.264
 8493SOL     OW26377   2.287   2.581   5.939
 8493SOL    HW126378   2.318   2.510   5.876
 8493SOL    HW226379   2.353   2.588   6.014
 8494SOL     OW26380   4.195   5.129   1.445
 8494SOL    HW126381   4.253   5.205   1.417
 8494SOL    HW226382   4.231   5.090   1.530
 8495SOL     OW26383   6.823   4.783   1.305
 8495SOL    HW126384   6.838   4.689   1.335
 8495SOL    HW226385   6.767   4.783   1.222
 8496SOL     OW26386   0.778   1.462   2.478
 8496SOL    HW126387   0.834   1.423   2.551
 8496SOL    HW226388   0.717   1.532   2.516
 8497SOL     OW26389   0.003   1.374   3.465
 8497SOL    HW126390   6.954   1.304   3.474
 8497SOL    HW226391   0.052   1.384   3.552
 8498SOL     OW26392   6.672   6.161   3.280
 8498SOL    HW126393   6.609   6.179   3.356
 8498SOL    HW226394   6.686   6.244   3.227
 8499SOL     OW26395   1.975   3.995   6.667
 8499SOL    HW126396   2.072   4.015   6.683
 8499SOL    HW226397   1.967   3.913   6.610
 8500SOL     OW26398   1.669   6.404   5.906
 8500SOL    HW126399   1.613   6.487   5.906
 8500SOL    HW226400   1.650   6.351   5.823
 8501SOL     OW26401   6.993   3.094   5.948
 8501SOL    HW126402   0.054   3.089   5.890
 8501SOL    HW226403   6.920   3.141   5.899
 8502SOL     OW26404   0.463   3.012   1.644
 8502SOL    HW126405   0.513   3.099   1.653
 8502SOL    HW226406   0.398   3.019   1.569
 8503SOL     OW26407   0.469   5.464   4.862
 8503SOL    HW126408   0.440   5.497   4.772
 8503SOL    HW226409   0.546   5.519   4.894
 8504SOL     OW26410   2.157   5.177   2.249
 8504SOL    HW126411   2.231   5.203   2.310
 8504SOL    HW226412   2.120   5.259   2.204
 8505SOL     OW26413   6.220   3.757   3.354
 8505SOL    HW126414   6.254   3.851   3.361
 8505SOL    HW226415   6.297   3.693   3.362
 8506SOL     OW26416   1.328   1.435   6.937
 8506SOL    HW126417   1.305   1.473   0.006
 8506SOL    HW226418   1.267   1.359   6.916
 8507SOL     OW26419   3.587   6.407   5.111
 8507SOL    HW126420   3.522   6.466   5.064
 8507SOL    HW226421   3.538   6.350   5.178
 8508SOL     OW26422   5.185   1.757   4.388
 8508SOL    HW126423   5.194   1.848   4.348
 8508SOL    HW226424   5.140   1.763   4.477
 8509SOL     OW26425   5.013   0.319   3.355
 8509SOL    HW126426   5.012   0.371   3.270
 8509SOL    HW226427   5.007   0.221   3.335
 8510SOL     OW26428   6.007   4.284   2.958
 8510SOL    HW126429   6.100   4.262   2.990
 8510SOL    HW226430   5.959   4.199   2.936
 8511SOL     OW26431   6.329   3.515   2.789
 8511SOL    HW126432   6.348   3.431   2.839
 8511SOL    HW226433   6.405   3.536   2.728
 8512SOL     OW26434   2.883   0.767   2.826
 8512SOL    HW126435   2.789   0.745   2.853
 8512SOL    HW226436   2.926   0.822   2.897
 8513SOL     OW26437   6.753   4.965   0.971
 8513SOL    HW126438   6.695   5.017   0.908
 8513SOL    HW226439   6.796   5.028   1.036
 8514SOL     OW26440   2.012   1.025   3.584
 8514SOL    HW126441   1.995   1.064   3.493
 8514SOL    HW226442   2.055   1.094   3.642
 8515SOL     OW26443   5.008   2.560   1.242
 8515SOL    HW126444   4.994   2.576   1.339
 8515SOL    HW226445   5.028   2.463   1.227
 8516SOL     OW26446   0.406   1.784   2.176
 8516SOL    HW126447   0.346   1.758   2.252
 8516SOL    HW226448   0.398   1.883   2.160
 8517SOL     OW26449   0.602   2.857   5.094
 8517SOL    HW126450   0.569   2.951   5.094
 8517SOL    HW226451   0.695   2.854   5.130
 8518SOL     OW26452   4.585   4.012   6.640
 8518SOL    HW126453   4.532   4.086   6.681
 8518SOL    HW226454   4.682   4.027   6.658
 8519SOL     OW26455   1.551   5.043   2.065
 8519SOL    HW126456   1.479   5.071   2.129
 8519SOL    HW226457   1.510   5.017   1.978
 8520SOL     OW26458   3.550   1.166   0.996
 8520SOL    HW126459   3.539   1.265   1.009
 8520SOL    HW226460   3.509   1.140   0.909
 8521SOL     OW26461   2.054   5.634   5.767
 8521SOL    HW126462   2.149   5.661   5.778
 8521SOL    HW226463   2.050   5.536   5.745
 8522SOL     OW26464   1.071   6.009   1.956
 8522SOL    HW126465   1.016   6.079   2.003
 8522SOL    HW226466   1.090   6.038   1.863
 8523SOL     OW26467   2.857   6.418   6.950
 8523SOL    HW126468   2.890   6.498   7.001
 8523SOL    HW226469   2.853   6.441   6.853
 8524SOL     OW26470   1.278   2.412   5.247
 8524SOL    HW126471   1.314   2.325   5.282
 8524SOL    HW226472   1.274   2.409   5.147
 8525SOL     OW26473   6.319   4.610   3.440
 8525SOL    HW126474   6.246   4.600   3.371
 8525SOL    HW226475   6.405   4.576   3.402
 8526SOL     OW26476   2.551   4.111   0.894
 8526SOL    HW126477   2.451   4.103   0.900
 8526SOL    HW226478   2.576   4.196   0.849
 8527SOL     OW26479   3.349   0.223   4.942
 8527SOL    HW126480   3.348   0.304   5.000
 8527SOL    HW226481   3.297   0.240   4.859
 8528SOL     OW26482   5.043   3.006   5.834
 8528SOL    HW126483   5.124   3.016   5.776
 8528SOL    HW226484   4.988   3.089   5.830
 8529SOL     OW26485   0.976   6.976   6.671
 8529SOL    HW126486   1.069   6.982   6.707
 8529SOL    HW226487   0.969   0.012   6.589
 8530SOL     OW26488   0.896   4.301   5.995
 8530SOL    HW126489   0.987   4.334   5.971
 8530SOL    HW226490   0.841   4.289   5.913
 8531SOL     OW26491   5.456   4.399   2.505
 8531SOL    HW126492   5.476   4.411   2.602
 8531SOL    HW226493   5.369   4.352   2.494
 8532SOL     OW26494   3.766   5.044   4.866
 8532SOL    HW126495   3.739   5.138   4.844
 8532SOL    HW226496   3.701   5.006   4.931
 8533SOL     OW26497   1.676   0.439   5.910
 8533SOL    HW126498   1.733   0.366   5.947
 8533SOL    HW226499   1.580   0.411   5.914
 8534SOL     OW26500   6.988   3.766   3.570
 8534SOL    HW126501   6.991   3.803   3.477
 8534SOL    HW226502   6.952   3.836   3.633
 8535SOL     OW26503   0.590   2.037   4.817
 8535SOL    HW126504   0.597   2.126   4.773
 8535SOL    HW226505   0.545   1.973   4.755
 8536SOL     OW26506   6.422   2.239   4.924
 8536SOL    HW126507   6.439   2.337   4.916
 8536SOL    HW226508   6.503   2.195   4.963
 8537SOL     OW26509   5.276   1.852   1.258
 8537SOL    HW126510   5.331   1.842   1.341
 8537SOL    HW226511   5.331   1.827   1.178
 8538SOL     OW26512   0.199   1.115   5.354
 8538SOL    HW126513   0.194   1.061   5.438
 8538SOL    HW226514   0.109   1.116   5.310
 8539SOL     OW26515   6.299   1.899   1.995
 8539SOL    HW126516   6.252   1.833   1.936
 8539SOL    HW226517   6.290   1.870   2.091
 8540SOL     OW26518   3.325   1.494   0.447
 8540SOL    HW126519   3.274   1.456   0.370
 8540SOL    HW226520   3.420   1.463   0.442
 8541SOL     OW26521   2.562   1.668   4.303
 8541SOL    HW126522   2.498   1.657   4.227
 8541SOL    HW226523   2.580   1.579   4.345
 8542SOL     OW26524   2.485   4.606   6.325
 8542SOL    HW126525   2.570   4.640   6.284
 8542SOL    HW226526   2.472   4.650   6.414
 8543SOL     OW26527   2.805   1.607   5.987
 8543SOL    HW126528   2.890   1.641   5.947
 8543SOL    HW226529   2.741   1.682   5.998
 8544SOL     OW26530   5.383   3.245   4.799
 8544SOL    HW126531   5.284   3.231   4.789
 8544SOL    HW226532   5.412   3.213   4.889
 8545SOL     OW26533   3.615   6.670   4.716
 8545SOL    HW126534   3.665   6.746   4.757
 8545SOL    HW226535   3.563   6.622   4.787
 8546SOL     OW26536   6.540   6.904   2.129
 8546SOL    HW126537   6.509   6.969   2.060
 8546SOL    HW226538   6.535   6.811   2.092
 8547SOL     OW26539   0.397   0.254   5.558
 8547SOL    HW126540   0.484   0.204   5.559
 8547SOL    HW226541   0.407   0.335   5.500
 8548SOL     OW26542   6.848   3.235   5.777
 8548SOL    HW126543   6.793   3.188   5.708
 8548SOL    HW226544   6.801   3.318   5.806
 8549SOL     OW26545   0.819   2.655   3.913
 8549SOL    HW126546   0.826   2.694   4.005
 8549SOL    HW226547   0.746   2.702   3.863
 8550SOL     OW26548   1.625   3.931   6.678
 8550SOL    HW126549   1.550   3.977   6.631
 8550SOL    HW226550   1.705   3.927   6.618
 8551SOL     OW26551   3.003   3.153   6.869
 8551SOL    HW126552   3.069   3.225   6.888
 8551SOL    HW226553   3.014   3.079   6.935
 8552SOL     OW26554   2.068   0.495   2.851
 8552SOL    HW126555   2.124   0.501   2.768
 8552SOL    HW226556   1.975   0.468   2.826
 8553SOL     OW26557   4.236   4.392   6.837
 8553SOL    HW126558   4.207   4.427   6.748
 8553SOL    HW226559   4.195   4.302   6.852
 8554SOL     OW26560   0.525   5.909   0.873
 8554SOL    HW126561   0.535   5.908   0.973
 8554SOL    HW226562   0.451   5.847   0.846
 8555SOL     OW26563   4.026   1.679   3.509
 8555SOL    HW126564   3.966   1.602   3.489
 8555SOL    HW226565   4.029   1.740   3.430
 8556SOL     OW26566   2.354   6.294   5.024
 8556SOL    HW126567   2.336   6.392   5.032
 8556SOL    HW226568   2.281   6.251   4.972
 8557SOL     OW26569   6.891   0.345   1.599
 8557SOL    HW126570   6.914   0.409   1.526
 8557SOL    HW226571   6.883   0.395   1.685
 8558SOL     OW26572   1.799   5.510   2.882
 8558SOL    HW126573   1.875   5.574   2.866
 8558SOL    HW226574   1.752   5.534   2.966
 8559SOL     OW26575   1.626   6.373   2.413
 8559SOL    HW126576   1.668   6.456   2.377
 8559SOL    HW226577   1.602   6.312   2.337
 8560SOL     OW26578   1.191   5.431   1.437
 8560SOL    HW126579   1.129   5.481   1.376
 8560SOL    HW226580   1.284   5.466   1.425
 8561SOL     OW26581   3.589   6.713   4.084
 8561SOL    HW126582   3.500   6.675   4.110
 8561SOL    HW226583   3.622   6.667   4.002
 8562SOL     OW26584   3.475   6.723   0.142
 8562SOL    HW126585   3.447   6.637   0.185
 8562SOL    HW226586   3.516   6.783   0.212
 8563SOL     OW26587   0.655   5.148   1.920
 8563SOL    HW126588   0.625   5.137   1.825
 8563SOL    HW226589   0.745   5.107   1.932
 8564SOL     OW26590   3.577   6.225   5.656
 8564SOL    HW126591   3.492   6.189   5.618
 8564SOL    HW226592   3.627   6.276   5.586
 8565SOL     OW26593   3.577   5.371   0.889
 8565SOL    HW126594   3.489   5.415   0.874
 8565SOL    HW226595   3.650   5.439   0.889
 8566SOL     OW26596   1.352   0.494   1.795
 8566SOL    HW126597   1.298   0.578   1.795
 8566SOL    HW226598   1.334   0.443   1.711
 8567SOL     OW26599   1.106   2.138   2.347
 8567SOL    HW126600   1.040   2.205   2.380
 8567SOL    HW226601   1.161   2.104   2.424
 8568SOL     OW26602   5.535   1.798   0.494
 8568SOL    HW126603   5.439   1.827   0.490
 8568SOL    HW226604   5.594   1.875   0.468
 8569SOL     OW26605   5.446   1.886   5.600
 8569SOL    HW126606   5.428   1.809   5.661
 8569SOL    HW226607   5.498   1.854   5.521
 8570SOL     OW26608   1.313   1.728   4.861
 8570SOL    HW126609   1.289   1.705   4.955
 8570SOL    HW226610   1.291   1.651   4.801
 8571SOL     OW26611   0.838   6.657   5.104
 8571SOL    HW126612   0.924   6.615   5.135
 8571SOL    HW226613   0.771   6.586   5.083
 8572SOL     OW26614   1.573   4.450   4.920
 8572SOL    HW126615   1.555   4.429   5.017
 8572SOL    HW226616   1.671   4.462   4.907
 8573SOL     OW26617   2.975   5.872   6.358
 8573SOL    HW126618   3.032   5.804   6.312
 8573SOL    HW226619   2.904   5.825   6.412
 8574SOL     OW26620   6.234   6.953   5.944
 8574SOL    HW126621   6.191   6.937   5.855
 8574SOL    HW226622   6.226   6.871   6.000
 8575SOL     OW26623   3.338   1.701   3.405
 8575SOL    HW126624   3.239   1.706   3.419
 8575SOL    HW226625   3.384   1.749   3.479
 8576SOL     OW26626   1.844   4.988   3.970
 8576SOL    HW126627   1.845   5.063   3.904
 8576SOL    HW226628   1.927   4.933   3.958
 8577SOL     OW26629   1.767   0.404   6.251
 8577SOL    HW126630   1.799   0.386   6.158
 8577SOL    HW226631   1.708   0.485   6.251
 8578SOL     OW26632   6.725   4.607   5.969
 8578SOL    HW126633   6.679   4.521   5.950
 8578SOL    HW226634   6.751   4.651   5.883
 8579SOL     OW26635   1.265   5.899   2.085
 8579SOL    HW126636   1.232   5.945   2.168
 8579SOL    HW226637   1.207   5.925   2.008
 8580SOL     OW26638   2.253   5.940   0.669
 8580SOL    HW126639   2.312   5.977   0.598
 8580SOL    HW226640   2.222   6.014   0.729
 8581SOL     OW26641   3.679   4.662   1.399
 8581SOL    HW126642   3.659   4.566   1.414
 8581SOL    HW226643   3.600   4.706   1.355
 8582SOL     OW26644   4.820   4.619   5.521
 8582SOL    HW126645   4.866   4.641   5.607
 8582SOL    HW226646   4.788   4.524   5.524
 8583SOL     OW26647   2.871   6.751   2.985
 8583SOL    HW126648   2.904   6.657   2.986
 8583SOL    HW226649   2.917   6.803   3.056
 8584SOL     OW26650   0.878   6.386   5.532
 8584SOL    HW126651   0.795   6.403   5.478
 8584SOL    HW226652   0.891   6.461   5.597
 8585SOL     OW26653   6.378   1.250   0.974
 8585SOL    HW126654   6.330   1.337   0.988
 8585SOL    HW226655   6.450   1.241   1.042
 8586SOL     OW26656   4.043   6.835   1.146
 8586SOL    HW126657   3.959   6.836   1.200
 8586SOL    HW226658   4.024   6.790   1.058
 8587SOL     OW26659   0.813   1.301   5.011
 8587SOL    HW126660   0.793   1.251   4.926
 8587SOL    HW226661   0.838   1.395   4.989
 8588SOL     OW26662   4.825   1.234   6.830
 8588SOL    HW126663   4.858   1.160   6.888
 8588SOL    HW226664   4.731   1.256   6.856
 8589SOL     OW26665   6.513   2.503   5.174
 8589SOL    HW126666   6.476   2.425   5.224
 8589SOL    HW226667   6.490   2.587   5.222
 8590SOL     OW26668   1.077   1.260   2.808
 8590SOL    HW126669   1.003   1.325   2.792
 8590SOL    HW226670   1.044   1.182   2.861
 8591SOL     OW26671   0.314   4.096   0.547
 8591SOL    HW126672   0.363   4.070   0.464
 8591SOL    HW226673   0.288   4.014   0.598
 8592SOL     OW26674   6.226   2.574   6.976
 8592SOL    HW126675   6.257   2.583   6.882
 8592SOL    HW226676   6.137   2.619   6.987
 8593SOL     OW26677   2.983   1.186   6.374
 8593SOL    HW126678   2.956   1.111   6.434
 8593SOL    HW226679   3.081   1.202   6.381
 8594SOL     OW26680   6.143   2.158   5.962
 8594SOL    HW126681   6.063   2.204   5.924
 8594SOL    HW226682   6.225   2.209   5.938
 8595SOL     OW26683   5.836   0.733   4.034
 8595SOL    HW126684   5.833   0.731   3.934
 8595SOL    HW226685   5.888   0.654   4.067
 8596SOL     OW26686   1.360   4.961   3.174
 8596SOL    HW126687   1.352   5.048   3.221
 8596SOL    HW226688   1.453   4.925   3.186
 8597SOL     OW26689   5.246   1.706   1.680
 8597SOL    HW126690   5.212   1.772   1.748
 8597SOL    HW226691   5.326   1.659   1.716
 8598SOL     OW26692   5.899   0.262   5.951
 8598SOL    HW126693   5.870   0.167   5.954
 8598SOL    HW226694   5.921   0.288   5.857
 8599SOL     OW26695   1.534   2.847   4.807
 8599SOL    HW126696   1.581   2.899   4.879
 8599SOL    HW226697   1.583   2.858   4.721
 8600SOL     OW26698   5.298   3.624   0.175
 8600SOL    HW126699   5.317   3.635   0.077
 8600SOL    HW226700   5.250   3.705   0.208
 8601SOL     OW26701   0.620   1.642   3.920
 8601SOL    HW126702   0.629   1.740   3.941
 8601SOL    HW226703   0.539   1.606   3.966
 8602SOL     OW26704   2.466   6.950   2.265
 8602SOL    HW126705   2.514   7.000   2.192
 8602SOL    HW226706   2.533   6.915   2.330
 8603SOL     OW26707   5.173   6.993   0.629
 8603SOL    HW126708   5.189   0.063   0.590
 8603SOL    HW226709   5.168   7.001   0.729
 8604SOL     OW26710   1.248   2.002   6.064
 8604SOL    HW126711   1.259   2.075   6.132
 8604SOL    HW226712   1.327   1.941   6.067
 8605SOL     OW26713   1.635   5.303   3.446
 8605SOL    HW126714   1.601   5.252   3.367
 8605SOL    HW226715   1.558   5.339   3.497
 8606SOL     OW26716   2.286   2.653   0.283
 8606SOL    HW126717   2.216   2.724   0.294
 8606SOL    HW226718   2.304   2.639   0.186
 8607SOL     OW26719   2.580   4.920   6.128
 8607SOL    HW126720   2.614   4.976   6.203
 8607SOL    HW226721   2.603   4.824   6.145
 8608SOL     OW26722   2.052   4.500   2.332
 8608SOL    HW126723   1.981   4.535   2.393
 8608SOL    HW226724   2.126   4.567   2.325
 8609SOL     OW26725   4.829   0.316   3.674
 8609SOL    HW126726   4.874   0.233   3.640
 8609SOL    HW226727   4.898   0.387   3.688
 8610SOL     OW26728   0.050   0.744   3.150
 8610SOL    HW126729   0.087   0.671   3.093
 8610SOL    HW226730   0.016   0.707   3.236
 8611SOL     OW26731   3.188   1.322   4.145
 8611SOL    HW126732   3.252   1.264   4.095
 8611SOL    HW226733   3.112   1.346   4.086
 8612SOL     OW26734   2.672   3.462   1.459
 8612SOL    HW126735   2.631   3.498   1.543
 8612SOL    HW226736   2.707   3.369   1.475
 8613SOL     OW26737   2.801   1.897   1.439
 8613SOL    HW126738   2.886   1.887   1.387
 8613SOL    HW226739   2.748   1.973   1.401
 8614SOL     OW26740   0.940   2.663   3.077
 8614SOL    HW126741   0.869   2.689   3.143
 8614SOL    HW226742   1.015   2.729   3.082
 8615SOL     OW26743   4.811   2.222   5.199
 8615SOL    HW126744   4.863   2.137   5.205
 8615SOL    HW226745   4.807   2.266   5.289
 8616SOL     OW26746   2.897   4.814   1.761
 8616SOL    HW126747   2.846   4.892   1.797
 8616SOL    HW226748   2.889   4.737   1.824
 8617SOL     OW26749   5.883   0.783   4.369
 8617SOL    HW126750   5.976   0.802   4.337
 8617SOL    HW226751   5.817   0.823   4.306
 8618SOL     OW26752   6.198   4.424   1.690
 8618SOL    HW126753   6.277   4.486   1.680
 8618SOL    HW226754   6.179   4.410   1.787
 8619SOL     OW26755   4.029   5.376   2.797
 8619SOL    HW126756   3.969   5.442   2.843
 8619SOL    HW226757   4.124   5.401   2.812
 8620SOL     OW26758   2.257   6.269   3.962
 8620SOL    HW126759   2.266   6.236   3.868
 8620SOL    HW226760   2.197   6.208   4.013
 8621SOL     OW26761   5.013   2.716   2.115
 8621SOL    HW126762   5.017   2.665   2.201
 8621SOL    HW226763   4.981   2.809   2.134
 8622SOL     OW26764   5.042   4.487   1.269
 8622SOL    HW126765   5.140   4.464   1.267
 8622SOL    HW226766   5.006   4.472   1.361
 8623SOL     OW26767   0.749   4.235   5.502
 8623SOL    HW126768   0.796   4.241   5.414
 8623SOL    HW226769   0.737   4.139   5.527
 8624SOL     OW26770   2.158   4.009   5.634
 8624SOL    HW126771   2.066   4.049   5.636
 8624SOL    HW226772   2.176   3.971   5.544
 8625SOL     OW26773   4.916   0.993   5.370
 8625SOL    HW126774   4.818   0.988   5.387
 8625SOL    HW226775   4.956   1.066   5.425
 8626SOL     OW26776   4.190   2.629   6.762
 8626SOL    HW126777   4.232   2.565   6.826
 8626SOL    HW226778   4.128   2.579   6.701
 8627SOL     OW26779   2.231   1.901   2.319
 8627SOL    HW126780   2.231   1.944   2.410
 8627SOL    HW226781   2.285   1.957   2.256
 8628SOL     OW26782   5.791   6.793   0.139
 8628SOL    HW126783   5.868   6.852   0.117
 8628SOL    HW226784   5.725   6.843   0.194
 8629SOL     OW26785   1.836   6.689   5.180
 8629SOL    HW126786   1.877   6.607   5.140
 8629SOL    HW226787   1.861   6.769   5.125
 8630SOL     OW26788   4.894   3.346   3.934
 8630SOL    HW126789   4.871   3.250   3.921
 8630SOL    HW226790   4.988   3.363   3.902
 8631SOL     OW26791   1.363   5.839   6.311
 8631SOL    HW126792   1.403   5.770   6.251
 8631SOL    HW226793   1.432   5.909   6.331
 8632SOL     OW26794   4.038   4.794   5.162
 8632SOL    HW126795   4.120   4.805   5.217
 8632SOL    HW226796   3.968   4.746   5.215
 8633SOL     OW26797   5.786   2.559   5.707
 8633SOL    HW126798   5.728   2.614   5.646
 8633SOL    HW226799   5.820   2.617   5.781
 8634SOL     OW26800   4.760   3.734   6.321
 8634SOL    HW126801   4.750   3.698   6.413
 8634SOL    HW226802   4.674   3.775   6.291
 8635SOL     OW26803   5.772   2.713   6.600
 8635SOL    HW126804   5.702   2.641   6.597
 8635SOL    HW226805   5.801   2.727   6.694
 8636SOL     OW26806   5.401   6.272   1.174
 8636SOL    HW126807   5.381   6.179   1.143
 8636SOL    HW226808   5.402   6.275   1.274
 8637SOL     OW26809   1.976   1.676   6.805
 8637SOL    HW126810   1.885   1.712   6.830
 8637SOL    HW226811   2.038   1.753   6.788
 8638SOL     OW26812   3.873   2.268   5.269
 8638SOL    HW126813   3.865   2.219   5.356
 8638SOL    HW226814   3.907   2.205   5.199
 8639SOL     OW26815   4.979   2.933   6.864
 8639SOL    HW126816   4.902   2.880   6.829
 8639SOL    HW226817   5.010   2.998   6.794
 8640SOL     OW26818   3.961   3.443   0.235
 8640SOL    HW126819   3.935   3.428   0.331
 8640SOL    HW226820   3.891   3.404   0.175
 8641SOL     OW26821   4.432   4.617   4.124
 8641SOL    HW126822   4.365   4.671   4.072
 8641SOL    HW226823   4.487   4.564   4.061
 8642SOL     OW26824   1.137   6.513   3.872
 8642SOL    HW126825   1.144   6.435   3.935
 8642SOL    HW226826   1.165   6.485   3.780
 8643SOL     OW26827   1.536   0.385   0.068
 8643SOL    HW126828   1.462   0.444   0.035
 8643SOL    HW226829   1.571   0.331   7.013
 8644SOL     OW26830   5.310   2.612   5.817
 8644SOL    HW126831   5.374   2.662   5.757
 8644SOL    HW226832   5.294   2.665   5.900
 8645SOL     OW26833   4.364   4.895   1.960
 8645SOL    HW126834   4.303   4.912   1.883
 8645SOL    HW226835   4.345   4.804   1.998
 8646SOL     OW26836   0.041   1.581   6.844
 8646SOL    HW126837   0.075   1.595   6.751
 8646SOL    HW226838   6.962   1.582   6.844
 8647SOL     OW26839   2.469   4.764   0.127
 8647SOL    HW126840   2.492   4.824   0.204
 8647SOL    HW226841   2.545   4.701   0.111
 8648SOL     OW26842   6.573   0.366   2.000
 8648SOL    HW126843   6.519   0.448   1.981
 8648SOL    HW226844   6.592   0.359   2.097
 8649SOL     OW26845   5.827   5.684   0.115
 8649SOL    HW126846   5.861   5.770   0.154
 8649SOL    HW226847   5.729   5.677   0.130
 8650SOL     OW26848   1.740   6.749   4.761
 8650SOL    HW126849   1.671   6.757   4.833
 8650SOL    HW226850   1.741   6.656   4.726
 8651SOL     OW26851   3.993   1.504   0.684
 8651SOL    HW126852   4.063   1.468   0.745
 8651SOL    HW226853   3.935   1.569   0.733
 8652SOL     OW26854   0.852   4.877   3.231
 8652SOL    HW126855   0.883   4.787   3.263
 8652SOL    HW226856   0.788   4.866   3.156
 8653SOL     OW26857   6.705   1.279   6.147
 8653SOL    HW126858   6.695   1.254   6.051
 8653SOL    HW226859   6.784   1.232   6.186
 8654SOL     OW26860   0.259   4.899   1.425
 8654SOL    HW126861   0.212   4.952   1.495
 8654SOL    HW226862   0.272   4.956   1.343
 8655SOL     OW26863   6.001   6.991   4.528
 8655SOL    HW126864   5.959   0.054   4.496
 8655SOL    HW226865   6.013   6.995   4.627
 8656SOL     OW26866   6.653   1.202   2.115
 8656SOL    HW126867   6.660   1.297   2.086
 8656SOL    HW226868   6.618   1.199   2.209
 8657SOL     OW26869   5.460   5.856   0.356
 8657SOL    HW126870   5.527   5.897   0.418
 8657SOL    HW226871   5.465   5.757   0.362
 8658SOL     OW26872   6.514   5.744   0.372
 8658SOL    HW126873   6.576   5.671   0.400
 8658SOL    HW226874   6.420   5.716   0.390
 8659SOL     OW26875   5.237   2.261   2.496
 8659SOL    HW126876   5.162   2.303   2.444
 8659SOL    HW226877   5.238   2.163   2.479
 8660SOL     OW26878   6.552   3.652   2.025
 8660SOL    HW126879   6.559   3.597   1.942
 8660SOL    HW226880   6.562   3.594   2.106
 8661SOL     OW26881   6.219   3.739   1.804
 8661SOL    HW126882   6.134   3.696   1.832
 8661SOL    HW226883   6.209   3.779   1.713
 8662SOL     OW26884   3.879   5.984   1.963
 8662SOL    HW126885   3.969   5.943   1.946
 8662SOL    HW226886   3.864   6.060   1.900
 8663SOL     OW26887   2.337   5.561   2.450
 8663SOL    HW126888   2.392   5.481   2.472
 8663SOL    HW226889   2.345   5.582   2.352
 8664SOL     OW26890   2.263   4.970   1.906
 8664SOL    HW126891   2.326   4.932   1.838
 8664SOL    HW226892   2.244   4.901   1.976
 8665SOL     OW26893   6.395   5.365   4.567
 8665SOL    HW126894   6.401   5.382   4.665
 8665SOL    HW226895   6.305   5.394   4.533
 8666SOL     OW26896   5.607   0.466   3.933
 8666SOL    HW126897   5.656   0.460   3.846
 8666SOL    HW226898   5.530   0.530   3.923
 8667SOL     OW26899   5.041   1.637   3.743
 8667SOL    HW126900   5.015   1.724   3.785
 8667SOL    HW226901   5.087   1.579   3.811
 8668SOL     OW26902   5.257   3.728   4.200
 8668SOL    HW126903   5.281   3.767   4.289
 8668SOL    HW226904   5.171   3.678   4.208
 8669SOL     OW26905   0.436   6.118   6.655
 8669SOL    HW126906   0.500   6.085   6.585
 8669SOL    HW226907   0.349   6.071   6.645
 8670SOL     OW26908   4.448   5.472   6.137
 8670SOL    HW126909   4.442   5.420   6.223
 8670SOL    HW226910   4.410   5.563   6.151
 8671SOL     OW26911   0.745   1.981   3.153
 8671SOL    HW126912   0.721   2.067   3.198
 8671SOL    HW226913   0.675   1.912   3.174
 8672SOL     OW26914   0.320   6.388   3.385
 8672SOL    HW126915   0.406   6.388   3.437
 8672SOL    HW226916   0.251   6.337   3.434
 8673SOL     OW26917   5.943   1.987   0.879
 8673SOL    HW126918   5.920   2.080   0.906
 8673SOL    HW226919   5.885   1.960   0.801
 8674SOL     OW26920   5.778   5.339   2.802
 8674SOL    HW126921   5.843   5.322   2.729
 8674SOL    HW226922   5.823   5.329   2.891
 8675SOL     OW26923   4.541   1.422   4.952
 8675SOL    HW126924   4.535   1.458   5.045
 8675SOL    HW226925   4.635   1.391   4.934
 8676SOL     OW26926   5.443   6.855   2.923
 8676SOL    HW126927   5.351   6.854   2.961
 8676SOL    HW226928   5.510   6.842   2.996
 8677SOL     OW26929   2.210   5.968   5.346
 8677SOL    HW126930   2.162   5.882   5.325
 8677SOL    HW226931   2.252   5.961   5.437
 8678SOL     OW26932   0.899   0.014   0.462
 8678SOL    HW126933   0.808   0.055   0.456
 8678SOL    HW226934   0.956   0.048   0.386
 8679SOL     OW26935   1.539   1.351   3.288
 8679SOL    HW126936   1.604   1.291   3.334
 8679SOL    HW226937   1.463   1.371   3.350
 8680SOL     OW26938   5.978   3.895   0.110
 8680SOL    HW126939   5.930   3.983   0.105
 8680SOL    HW226940   5.918   3.827   0.152
 8681SOL     OW26941   4.850   5.779   1.462
 8681SOL    HW126942   4.752   5.793   1.457
 8681SOL    HW226943   4.870   5.688   1.499
 8682SOL     OW26944   6.347   0.644   2.505
 8682SOL    HW126945   6.412   0.634   2.430
 8682SOL    HW226946   6.256   0.661   2.467
 8683SOL     OW26947   1.720   2.519   5.963
 8683SOL    HW126948   1.770   2.520   5.877
 8683SOL    HW226949   1.626   2.488   5.947
 8684SOL     OW26950   6.296   3.199   4.572
 8684SOL    HW126951   6.203   3.204   4.609
 8684SOL    HW226952   6.293   3.161   4.480
 8685SOL     OW26953   5.928   2.992   6.396
 8685SOL    HW126954   5.932   2.900   6.435
 8685SOL    HW226955   6.020   3.027   6.383
 8686SOL     OW26956   6.888   0.895   1.981
 8686SOL    HW126957   6.934   0.808   1.964
 8686SOL    HW226958   6.846   0.927   1.896
 8687SOL     OW26959   5.095   4.850   2.921
 8687SOL    HW126960   5.188   4.885   2.912
 8687SOL    HW226961   5.062   4.819   2.832
 8688SOL     OW26962   1.385   4.876   6.642
 8688SOL    HW126963   1.425   4.788   6.667
 8688SOL    HW226964   1.453   4.948   6.653
 8689SOL     OW26965   4.405   2.381   0.626
 8689SOL    HW126966   4.313   2.417   0.641
 8689SOL    HW226967   4.399   2.287   0.593
 8690SOL     OW26968   1.270   3.601   3.653
 8690SOL    HW126969   1.254   3.561   3.742
 8690SOL    HW226970   1.259   3.701   3.659
 8691SOL     OW26971   3.877   1.849   5.742
 8691SOL    HW126972   3.845   1.760   5.774
 8691SOL    HW226973   3.896   1.908   5.821
 8692SOL     OW26974   3.759   0.847   4.411
 8692SOL    HW126975   3.670   0.886   4.433
 8692SOL    HW226976   3.830   0.916   4.427
 8693SOL     OW26977   5.891   0.273   0.061
 8693SOL    HW126978   5.879   0.359   0.111
 8693SOL    HW226979   5.817   0.263   7.015
 8694SOL     OW26980   6.027   1.802   5.058
 8694SOL    HW126981   5.931   1.779   5.045
 8694SOL    HW226982   6.045   1.816   5.155
 8695SOL     OW26983   3.416   2.909   6.037
 8695SOL    HW126984   3.430   3.001   6.002
 8695SOL    HW226985   3.425   2.843   5.962
 8696SOL     OW26986   2.971   5.810   5.489
 8696SOL    HW126987   2.993   5.718   5.457
 8696SOL    HW226988   3.039   5.874   5.454
 8697SOL     OW26989   0.550   4.374   6.425
 8697SOL    HW126990   0.570   4.309   6.352
 8697SOL    HW226991   0.578   4.465   6.397
 8698SOL     OW26992   5.036   6.309   5.028
 8698SOL    HW126993   4.955   6.252   5.011
 8698SOL    HW226994   5.019   6.368   5.107
 8699SOL     OW26995   1.644   3.602   5.290
 8699SOL    HW126996   1.737   3.630   5.316
 8699SOL    HW226997   1.606   3.544   5.362
 8700SOL     OW26998   0.451   0.566   4.831
 8700SOL    HW126999   0.548   0.580   4.812
 8700SOL    HW227000   0.407   0.653   4.853
 8701SOL     OW27001   1.625   1.538   0.850
 8701SOL    HW127002   1.616   1.620   0.793
 8701SOL    HW227003   1.710   1.491   0.828
 8702SOL     OW27004   5.183   5.327   1.768
 8702SOL    HW127005   5.277   5.341   1.799
 8702SOL    HW227006   5.181   5.253   1.701
 8703SOL     OW27007   2.891   4.392   7.013
 8703SOL    HW127008   2.951   4.344   6.949
 8703SOL    HW227009   2.824   4.327   0.029
 8704SOL     OW27010   6.580   4.213   3.368
 8704SOL    HW127011   6.569   4.304   3.327
 8704SOL    HW227012   6.678   4.190   3.371
 8705SOL     OW27013   4.860   1.917   6.602
 8705SOL    HW127014   4.866   1.991   6.535
 8705SOL    HW227015   4.951   1.897   6.637
 8706SOL     OW27016   4.822   1.932   0.348
 8706SOL    HW127017   4.789   1.951   0.440
 8706SOL    HW227018   4.837   1.833   0.338
 8707SOL     OW27019   1.126   2.337   4.157
 8707SOL    HW127020   1.166   2.342   4.066
 8707SOL    HW227021   1.114   2.429   4.194
 8708SOL     OW27022   4.233   1.216   3.583
 8708SOL    HW127023   4.160   1.261   3.531
 8708SOL    HW227024   4.223   1.239   3.680
 8709SOL     OW27025   6.605   6.796   6.499
 8709SOL    HW127026   6.695   6.753   6.506
 8709SOL    HW227027   6.611   6.890   6.532
 8710SOL     OW27028   2.675   2.421   3.586
 8710SOL    HW127029   2.689   2.402   3.683
 8710SOL    HW227030   2.685   2.519   3.569
 8711SOL     OW27031   1.785   6.640   3.020
 8711SOL    HW127032   1.764   6.559   3.074
 8711SOL    HW227033   1.854   6.618   2.951
 8712SOL     OW27034   3.595   1.555   4.549
 8712SOL    HW127035   3.662   1.485   4.572
 8712SOL    HW227036   3.628   1.609   4.472
 8713SOL     OW27037   6.838   3.719   2.204
 8713SOL    HW127038   6.812   3.741   2.110
 8713SOL    HW227039   6.822   3.622   2.222
 8714SOL     OW27040   1.566   0.279   6.383
 8714SOL    HW127041   1.472   0.289   6.349
 8714SOL    HW227042   1.630   0.320   6.318
 8715SOL     OW27043   3.777   1.393   0.559
 8715SOL    HW127044   3.796   1.440   0.473
 8715SOL    HW227045   3.847   1.417   0.626
 8716SOL     OW27046   0.198   5.962   0.149
 8716SOL    HW127047   0.258   6.035   0.182
 8716SOL    HW227048   0.115   6.002   0.111
 8717SOL     OW27049   2.495   3.620   5.371
 8717SOL    HW127050   2.405   3.659   5.351
 8717SOL    HW227051   2.502   3.529   5.331
 8718SOL     OW27052   1.660   2.079   5.653
 8718SOL    HW127053   1.567   2.068   5.686
 8718SOL    HW227054   1.720   2.105   5.729
 8719SOL     OW27055   3.566   0.650   0.185
 8719SOL    HW127056   3.661   0.681   0.185
 8719SOL    HW227057   3.512   0.706   0.123
 8720SOL     OW27058   0.880   6.378   6.068
 8720SOL    HW127059   0.789   6.351   6.038
 8720SOL    HW227060   0.940   6.298   6.070
 8721SOL     OW27061   6.459   1.124   0.515
 8721SOL    HW127062   6.422   1.039   0.552
 8721SOL    HW227063   6.470   1.191   0.589
 8722SOL     OW27064   2.953   0.878   0.916
 8722SOL    HW127065   2.891   0.914   0.985
 8722SOL    HW227066   2.901   0.834   0.844
 8723SOL     OW27067   5.292   0.125   1.984
 8723SOL    HW127068   5.282   0.110   1.886
 8723SOL    HW227069   5.366   0.190   2.000
 8724SOL     OW27070   5.833   6.872   4.304
 8724SOL    HW127071   5.918   6.911   4.340
 8724SOL    HW227072   5.853   6.814   4.225
 8725SOL     OW27073   1.265   5.401   5.578
 8725SOL    HW127074   1.326   5.478   5.563
 8725SOL    HW227075   1.314   5.327   5.624
 8726SOL     OW27076   6.835   0.630   1.606
 8726SOL    HW127077   6.874   0.723   1.609
 8726SOL    HW227078   6.852   0.584   1.693
 8727SOL     OW27079   5.952   0.211   0.921
 8727SOL    HW127080   5.909   0.285   0.973
 8727SOL    HW227081   5.881   0.149   0.887
 8728SOL     OW27082   5.379   1.342   2.373
 8728SOL    HW127083   5.364   1.364   2.277
 8728SOL    HW227084   5.297   1.365   2.426
 8729SOL     OW27085   3.482   4.962   5.013
 8729SOL    HW127086   3.385   4.937   5.009
 8729SOL    HW227087   3.508   4.976   5.108
 8730SOL     OW27088   5.072   4.007   3.173
 8730SOL    HW127089   4.991   4.066   3.163
 8730SOL    HW227090   5.066   3.958   3.260
 8731SOL     OW27091   0.780   4.055   2.768
 8731SOL    HW127092   0.791   4.043   2.867
 8731SOL    HW227093   0.828   3.980   2.721
 8732SOL     OW27094   5.513   4.168   2.213
 8732SOL    HW127095   5.467   4.198   2.296
 8732SOL    HW227096   5.447   4.165   2.138
 8733SOL     OW27097   1.333   5.785   0.359
 8733SOL    HW127098   1.387   5.703   0.343
 8733SOL    HW227099   1.284   5.776   0.446
 8734SOL     OW27100   0.160   3.560   3.072
 8734SOL    HW127101   0.229   3.490   3.084
 8734SOL    HW227102   0.105   3.539   2.991
 8735SOL     OW27103   0.819   2.575   5.293
 8735SOL    HW127104   0.787   2.657   5.340
 8735SOL    HW227105   0.918   2.581   5.278
 8736SOL     OW27106   6.772   5.467   2.109
 8736SOL    HW127107   6.820   5.539   2.060
 8736SOL    HW227108   6.688   5.442   2.060
 8737SOL     OW27109   2.472   6.709   0.083
 8737SOL    HW127110   2.500   6.629   0.135
 8737SOL    HW227111   2.470   6.687   7.007
 8738SOL     OW27112   2.532   6.175   3.638
 8738SOL    HW127113   2.558   6.268   3.614
 8738SOL    HW227114   2.614   6.118   3.648
 8739SOL     OW27115   5.384   5.507   5.859
 8739SOL    HW127116   5.356   5.514   5.763
 8739SOL    HW227117   5.478   5.539   5.869
 8740SOL     OW27118   4.386   1.936   3.047
 8740SOL    HW127119   4.435   1.872   3.106
 8740SOL    HW227120   4.390   2.028   3.086
 8741SOL     OW27121   2.321   0.810   2.673
 8741SOL    HW127122   2.290   0.766   2.757
 8741SOL    HW227123   2.414   0.845   2.685
 8742SOL     OW27124   4.356   0.513   1.841
 8742SOL    HW127125   4.372   0.431   1.785
 8742SOL    HW227126   4.416   0.510   1.921
 8743SOL     OW27127   1.760   0.706   1.039
 8743SOL    HW127128   1.720   0.658   0.961
 8743SOL    HW227129   1.860   0.703   1.032
 8744SOL     OW27130   4.266   2.902   0.735
 8744SOL    HW127131   4.178   2.937   0.767
 8744SOL    HW227132   4.263   2.891   0.636
 8745SOL     OW27133   6.449   2.297   6.067
 8745SOL    HW127134   6.356   2.331   6.058
 8745SOL    HW227135   6.481   2.311   6.161
 8746SOL     OW27136   4.945   5.980   4.001
 8746SOL    HW127137   5.020   5.947   4.058
 8746SOL    HW227138   4.868   5.916   4.006
 8747SOL     OW27139   0.338   1.070   2.346
 8747SOL    HW127140   0.301   1.150   2.299
 8747SOL    HW227141   0.399   1.099   2.419
 8748SOL     OW27142   1.033   2.138   4.469
 8748SOL    HW127143   1.101   2.199   4.510
 8748SOL    HW227144   1.007   2.068   4.535
 8749SOL     OW27145   1.556   0.512   5.409
 8749SOL    HW127146   1.586   0.588   5.352
 8749SOL    HW227147   1.595   0.427   5.374
 8750SOL     OW27148   3.341   3.365   5.739
 8750SOL    HW127149   3.394   3.409   5.666
 8750SOL    HW227150   3.354   3.415   5.825
 8751SOL     OW27151   6.916   1.380   2.189
 8751SOL    HW127152   6.818   1.398   2.189
 8751SOL    HW227153   6.936   1.306   2.124
 8752SOL     OW27154   4.478   2.996   6.788
 8752SOL    HW127155   4.403   2.993   6.722
 8752SOL    HW227156   4.441   2.993   6.880
 8753SOL     OW27157   2.888   2.721   6.498
 8753SOL    HW127158   2.911   2.723   6.401
 8753SOL    HW227159   2.803   2.771   6.513
 8754SOL     OW27160   2.341   4.704   5.787
 8754SOL    HW127161   2.337   4.666   5.879
 8754SOL    HW227162   2.254   4.687   5.740
 8755SOL     OW27163   2.064   0.380   1.417
 8755SOL    HW127164   2.019   0.353   1.332
 8755SOL    HW227165   2.032   0.321   1.491
 8756SOL     OW27166   1.451   3.349   3.462
 8756SOL    HW127167   1.513   3.386   3.531
 8756SOL    HW227168   1.471   3.390   3.373
 8757SOL     OW27169   4.741   5.999   6.900
 8757SOL    HW127170   4.658   6.025   6.950
 8757SOL    HW227171   4.788   6.081   6.868
 8758SOL     OW27172   4.427   6.430   2.582
 8758SOL    HW127173   4.332   6.419   2.611
 8758SOL    HW227174   4.486   6.376   2.642
 8759SOL     OW27175   5.922   3.393   0.093
 8759SOL    HW127176   5.840   3.418   0.042
 8759SOL    HW227177   6.002   3.401   0.034
 8760SOL     OW27178   3.259   0.494   4.878
 8760SOL    HW127179   3.303   0.491   4.967
 8760SOL    HW227180   3.160   0.497   4.890
 8761SOL     OW27181   5.947   1.798   1.059
 8761SOL    HW127182   5.928   1.865   0.988
 8761SOL    HW227183   5.894   1.820   1.141
 8762SOL     OW27184   0.840   5.776   4.454
 8762SOL    HW127185   0.896   5.777   4.372
 8762SOL    HW227186   0.859   5.693   4.506
 8763SOL     OW27187   6.022   6.845   5.329
 8763SOL    HW127188   6.026   6.831   5.230
 8763SOL    HW227189   6.104   6.893   5.360
 8764SOL     OW27190   4.491   6.776   5.937
 8764SOL    HW127191   4.587   6.801   5.922
 8764SOL    HW227192   4.457   6.823   6.018
 8765SOL     OW27193   4.886   1.296   4.403
 8765SOL    HW127194   4.899   1.277   4.501
 8765SOL    HW227195   4.868   1.211   4.355
 8766SOL     OW27196   4.025   4.314   5.291
 8766SOL    HW127197   4.111   4.333   5.243
 8766SOL    HW227198   3.956   4.286   5.225
 8767SOL     OW27199   4.914   6.227   2.879
 8767SOL    HW127200   4.906   6.176   2.793
 8767SOL    HW227201   4.841   6.198   2.941
 8768SOL     OW27202   1.000   2.600   0.966
 8768SOL    HW127203   0.937   2.605   0.888
 8768SOL    HW227204   1.069   2.530   0.949
 8769SOL     OW27205   6.963   1.182   2.026
 8769SOL    HW127206   6.962   1.084   2.048
 8769SOL    HW227207   0.018   1.202   1.964
 8770SOL     OW27208   4.841   4.366   2.548
 8770SOL    HW127209   4.856   4.339   2.643
 8770SOL    HW227210   4.778   4.303   2.505
 8771SOL     OW27211   0.535   2.408   6.372
 8771SOL    HW127212   0.604   2.424   6.301
 8771SOL    HW227213   0.531   2.311   6.394
 8772SOL     OW27214   4.973   0.637   6.106
 8772SOL    HW127215   5.025   0.697   6.167
 8772SOL    HW227216   5.001   0.542   6.121
 8773SOL     OW27217   5.176   2.672   3.071
 8773SOL    HW127218   5.115   2.623   3.009
 8773SOL    HW227219   5.239   2.608   3.114
 8774SOL     OW27220   0.530   0.421   0.134
 8774SOL    HW127221   0.514   0.423   0.035
 8774SOL    HW227222   0.463   0.479   0.180
 8775SOL     OW27223   5.299   1.481   5.941
 8775SOL    HW127224   5.287   1.457   5.844
 8775SOL    HW227225   5.395   1.467   5.967
 8776SOL     OW27226   4.951   3.517   1.390
 8776SOL    HW127227   4.932   3.421   1.371
 8776SOL    HW227228   5.029   3.524   1.453
 8777SOL     OW27229   6.497   4.298   3.679
 8777SOL    HW127230   6.411   4.286   3.630
 8777SOL    HW227231   6.572   4.308   3.614
 8778SOL     OW27232   5.407   3.017   5.421
 8778SOL    HW127233   5.479   2.986   5.359
 8778SOL    HW227234   5.340   3.070   5.370
 8779SOL     OW27235   1.887   5.667   2.550
 8779SOL    HW127236   1.920   5.588   2.497
 8779SOL    HW227237   1.849   5.735   2.488
 8780SOL     OW27238   0.135   6.888   2.788
 8780SOL    HW127239   0.059   6.859   2.730
 8780SOL    HW227240   0.117   6.979   2.823
 8781SOL     OW27241   4.699   0.243   3.929
 8781SOL    HW127242   4.783   0.192   3.948
 8781SOL    HW227243   4.707   0.290   3.841
 8782SOL     OW27244   6.311   0.951   1.736
 8782SOL    HW127245   6.304   0.862   1.690
 8782SOL    HW227246   6.381   0.946   1.807
 8783SOL     OW27247   6.490   4.151   3.921
 8783SOL    HW127248   6.482   4.193   3.831
 8783SOL    HW227249   6.399   4.126   3.955
 8784SOL     OW27250   6.566   6.567   6.172
 8784SOL    HW127251   6.535   6.657   6.142
 8784SOL    HW227252   6.600   6.516   6.092
 8785SOL     OW27253   6.768   5.287   6.434
 8785SOL    HW127254   6.684   5.312   6.386
 8785SOL    HW227255   6.838   5.356   6.417
 8786SOL     OW27256   2.785   1.204   1.509
 8786SOL    HW127257   2.830   1.116   1.522
 8786SOL    HW227258   2.851   1.271   1.475
 8787SOL     OW27259   3.733   0.207   2.655
 8787SOL    HW127260   3.727   0.112   2.624
 8787SOL    HW227261   3.666   0.224   2.726
 8788SOL     OW27262   6.860   1.690   5.293
 8788SOL    HW127263   6.771   1.731   5.274
 8788SOL    HW227264   6.928   1.727   5.231
 8789SOL     OW27265   6.432   4.632   5.698
 8789SOL    HW127266   6.375   4.624   5.780
 8789SOL    HW227267   6.375   4.654   5.619
 8790SOL     OW27268   6.328   0.805   6.244
 8790SOL    HW127269   6.290   0.896   6.230
 8790SOL    HW227270   6.347   0.763   6.155
 8791SOL     OW27271   5.040   6.844   4.505
 8791SOL    HW127272   5.003   6.753   4.487
 8791SOL    HW227273   5.036   6.899   4.422
 8792SOL     OW27274   3.261   5.157   2.841
 8792SOL    HW127275   3.283   5.107   2.925
 8792SOL    HW227276   3.233   5.092   2.771
 8793SOL     OW27277   0.916   4.606   3.302
 8793SOL    HW127278   0.931   4.564   3.212
 8793SOL    HW227279   0.836   4.564   3.345
 8794SOL     OW27280   5.418   0.974   3.333
 8794SOL    HW127281   5.362   0.896   3.360
 8794SOL    HW227282   5.503   0.973   3.385
 8795SOL     OW27283   1.314   4.702   5.019
 8795SOL    HW127284   1.245   4.684   5.090
 8795SOL    HW227285   1.283   4.662   4.932
 8796SOL     OW27286   5.774   2.851   2.719
 8796SOL    HW127287   5.836   2.917   2.677
 8796SOL    HW227288   5.759   2.876   2.815
 8797SOL     OW27289   0.166   6.922   5.334
 8797SOL    HW127290   0.228   6.982   5.285
 8797SOL    HW227291   0.089   6.898   5.275
 8798SOL     OW27292   4.412   6.122   6.211
 8798SOL    HW127293   4.358   6.051   6.257
 8798SOL    HW227294   4.351   6.194   6.178
 8799SOL     OW27295   2.525   5.246   2.678
 8799SOL    HW127296   2.588   5.311   2.638
 8799SOL    HW227297   2.571   5.194   2.751
 8800SOL     OW27298   5.428   5.654   6.235
 8800SOL    HW127299   5.480   5.710   6.170
 8800SOL    HW227300   5.332   5.651   6.207
 8801SOL     OW27301   6.207   1.732   4.498
 8801SOL    HW127302   6.182   1.636   4.482
 8801SOL    HW227303   6.209   1.750   4.596
 8802SOL     OW27304   1.980   5.886   5.727
 8802SOL    HW127305   2.005   5.789   5.736
 8802SOL    HW227306   2.053   5.943   5.764
 8803SOL     OW27307   6.943   6.975   6.832
 8803SOL    HW127308   6.916   0.005   6.750
 8803SOL    HW227309   6.917   6.879   6.821
 8804SOL     OW27310   2.285   6.049   1.537
 8804SOL    HW127311   2.206   6.037   1.597
 8804SOL    HW227312   2.308   5.962   1.494
 8805SOL     OW27313   3.674   5.504   3.144
 8805SOL    HW127314   3.617   5.546   3.073
 8805SOL    HW227315   3.757   5.466   3.103
 8806SOL     OW27316   2.300   4.983   0.964
 8806SOL    HW127317   2.260   4.905   1.013
 8806SOL    HW227318   2.323   4.956   0.871
 8807SOL     OW27319   4.128   1.347   0.466
 8807SOL    HW127320   4.198   1.417   0.481
 8807SOL    HW227321   4.041   1.392   0.445
 8808SOL     OW27322   6.678   2.406   5.838
 8808SOL    HW127323   6.737   2.356   5.775
 8808SOL    HW227324   6.648   2.346   5.912
 8809SOL     OW27325   2.393   4.679   3.550
 8809SOL    HW127326   2.384   4.628   3.636
 8809SOL    HW227327   2.423   4.617   3.478
 8810SOL     OW27328   5.866   1.437   4.956
 8810SOL    HW127329   5.802   1.513   4.966
 8810SOL    HW227330   5.820   1.360   4.912
 8811SOL     OW27331   3.001   0.477   2.336
 8811SOL    HW127332   2.956   0.555   2.379
 8811SOL    HW227333   3.095   0.470   2.369
 8812SOL     OW27334   2.623   0.499   0.683
 8812SOL    HW127335   2.722   0.500   0.693
 8812SOL    HW227336   2.593   0.408   0.655
 8813SOL     OW27337   1.736   5.091   3.144
 8813SOL    HW127338   1.749   5.170   3.204
 8813SOL    HW227339   1.654   5.105   3.088
 8814SOL     OW27340   6.244   6.895   0.739
 8814SOL    HW127341   6.171   6.832   0.768
 8814SOL    HW227342   6.236   6.981   0.789
 8815SOL     OW27343   5.700   6.737   0.844
 8815SOL    HW127344   5.647   6.820   0.828
 8815SOL    HW227345   5.667   6.665   0.783
 8816SOL     OW27346   0.947   6.824   6.395
 8816SOL    HW127347   0.950   6.923   6.408
 8816SOL    HW227348   0.910   6.781   6.478
 8817SOL     OW27349   0.153   4.241   3.951
 8817SOL    HW127350   0.186   4.318   4.006
 8817SOL    HW227351   0.230   4.193   3.910
 8818SOL     OW27352   0.992   6.028   3.666
 8818SOL    HW127353   1.040   5.940   3.667
 8818SOL    HW227354   0.919   6.026   3.597
 8819SOL     OW27355   6.406   4.357   6.253
 8819SOL    HW127356   6.345   4.278   6.245
 8819SOL    HW227357   6.492   4.328   6.295
 8820SOL     OW27358   2.985   1.667   4.939
 8820SOL    HW127359   3.017   1.752   4.898
 8820SOL    HW227360   2.897   1.641   4.899
 8821SOL     OW27361   1.198   5.579   0.810
 8821SOL    HW127362   1.233   5.610   0.898
 8821SOL    HW227363   1.110   5.533   0.824
 8822SOL     OW27364   0.399   0.387   3.704
 8822SOL    HW127365   0.352   0.308   3.743
 8822SOL    HW227366   0.442   0.360   3.618
 8823SOL     OW27367   2.089   1.400   2.358
 8823SOL    HW127368   2.075   1.390   2.457
 8823SOL    HW227369   2.168   1.459   2.341
 8824SOL     OW27370   1.508   0.753   0.569
 8824SOL    HW127371   1.595   0.709   0.549
 8824SOL    HW227372   1.443   0.734   0.495
 8825SOL     OW27373   0.996   1.469   1.394
 8825SOL    HW127374   0.897   1.482   1.399
 8825SOL    HW227375   1.033   1.528   1.322
 8826SOL     OW27376   1.228   3.405   0.895
 8826SOL    HW127377   1.161   3.343   0.854
 8826SOL    HW227378   1.302   3.421   0.829
 8827SOL     OW27379   3.628   0.143   3.257
 8827SOL    HW127380   3.577   0.226   3.277
 8827SOL    HW227381   3.704   0.134   3.323
 8828SOL     OW27382   4.083   4.980   6.633
 8828SOL    HW127383   4.177   5.013   6.633
 8828SOL    HW227384   4.036   5.012   6.551
 8829SOL     OW27385   5.603   1.360   1.467
 8829SOL    HW127386   5.574   1.275   1.423
 8829SOL    HW227387   5.523   1.419   1.482
 8830SOL     OW27388   2.328   1.502   2.323
 8830SOL    HW127389   2.395   1.539   2.387
 8830SOL    HW227390   2.324   1.558   2.241
 8831SOL     OW27391   6.088   2.486   2.672
 8831SOL    HW127392   6.016   2.488   2.602
 8831SOL    HW227393   6.066   2.551   2.744
 8832SOL     OW27394   6.828   6.280   4.344
 8832SOL    HW127395   6.856   6.293   4.439
 8832SOL    HW227396   6.756   6.210   4.340
 8833SOL     OW27397   4.037   3.924   6.466
 8833SOL    HW127398   4.000   3.949   6.377
 8833SOL    HW227399   4.008   3.831   6.490
 8834SOL     OW27400   5.531   4.197   4.813
 8834SOL    HW127401   5.604   4.265   4.821
 8834SOL    HW227402   5.453   4.223   4.870
 8835SOL     OW27403   5.697   0.851   6.180
 8835SOL    HW127404   5.668   0.757   6.158
 8835SOL    HW227405   5.656   0.878   6.267
 8836SOL     OW27406   4.828   2.223   1.234
 8836SOL    HW127407   4.795   2.286   1.304
 8836SOL    HW227408   4.923   2.245   1.212
 8837SOL     OW27409   0.192   0.349   2.106
 8837SOL    HW127410   0.244   0.264   2.115
 8837SOL    HW227411   0.254   0.427   2.110
 8838SOL     OW27412   1.789   4.066   2.874
 8838SOL    HW127413   1.691   4.052   2.864
 8838SOL    HW227414   1.810   4.164   2.875
 8839SOL     OW27415   3.585   6.420   1.987
 8839SOL    HW127416   3.586   6.449   1.891
 8839SOL    HW227417   3.679   6.399   2.017
 8840SOL     OW27418   6.671   0.489   2.594
 8840SOL    HW127419   6.617   0.410   2.624
 8840SOL    HW227420   6.670   0.494   2.494
 8841SOL     OW27421   6.080   1.689   3.452
 8841SOL    HW127422   6.004   1.733   3.404
 8841SOL    HW227423   6.140   1.759   3.491
 8842SOL     OW27424   3.252   3.658   3.511
 8842SOL    HW127425   3.227   3.741   3.560
 8842SOL    HW227426   3.329   3.613   3.557
 8843SOL     OW27427   1.601   3.618   4.279
 8843SOL    HW127428   1.612   3.641   4.376
 8843SOL    HW227429   1.606   3.702   4.224
 8844SOL     OW27430   6.824   1.395   4.661
 8844SOL    HW127431   6.736   1.364   4.626
 8844SOL    HW227432   6.851   1.479   4.614
 8845SOL     OW27433   2.503   4.255   0.445
 8845SOL    HW127434   2.438   4.314   0.493
 8845SOL    HW227435   2.481   4.160   0.463
 8846SOL     OW27436   4.084   4.966   3.657
 8846SOL    HW127437   4.069   4.889   3.594
 8846SOL    HW227438   4.090   4.931   3.750
 8847SOL     OW27439   2.154   1.713   3.665
 8847SOL    HW127440   2.084   1.681   3.602
 8847SOL    HW227441   2.244   1.704   3.622
 8848SOL     OW27442   2.707   1.557   2.705
 8848SOL    HW127443   2.803   1.576   2.721
 8848SOL    HW227444   2.696   1.463   2.674
 8849SOL     OW27445   3.377   4.981   3.031
 8849SOL    HW127446   3.301   4.922   3.004
 8849SOL    HW227447   3.368   5.005   3.128
 8850SOL     OW27448   2.892   1.426   0.498
 8850SOL    HW127449   2.937   1.338   0.485
 8850SOL    HW227450   2.961   1.497   0.512
 8851SOL     OW27451   1.286   4.956   2.137
 8851SOL    HW127452   1.352   4.882   2.147
 8851SOL    HW227453   1.237   4.946   2.050
 8852SOL     OW27454   4.294   3.304   5.975
 8852SOL    HW127455   4.322   3.208   5.968
 8852SOL    HW227456   4.318   3.352   5.890
 8853SOL     OW27457   3.037   0.364   5.442
 8853SOL    HW127458   3.016   0.403   5.531
 8853SOL    HW227459   3.137   0.362   5.429
 8854SOL     OW27460   2.476   1.051   6.270
 8854SOL    HW127461   2.417   1.115   6.221
 8854SOL    HW227462   2.435   0.961   6.272
 8855SOL     OW27463   6.702   6.069   0.382
 8855SOL    HW127464   6.686   6.002   0.309
 8855SOL    HW227465   6.637   6.144   0.373
 8856SOL     OW27466   5.515   0.659   6.117
 8856SOL    HW127467   5.547   0.589   6.180
 8856SOL    HW227468   5.443   0.713   6.160
 8857SOL     OW27469   6.628   1.780   3.808
 8857SOL    HW127470   6.652   1.762   3.903
 8857SOL    HW227471   6.581   1.700   3.770
 8858SOL     OW27472   1.304   2.635   5.958
 8858SOL    HW127473   1.308   2.734   5.948
 8858SOL    HW227474   1.318   2.592   5.869
 8859SOL     OW27475   0.191   0.591   4.572
 8859SOL    HW127476   0.251   0.516   4.600
 8859SOL    HW227477   0.195   0.602   4.472
 8860SOL     OW27478   1.721   3.694   3.109
 8860SOL    HW127479   1.637   3.669   3.060
 8860SOL    HW227480   1.702   3.698   3.207
 8861SOL     OW27481   3.612   2.224   6.091
 8861SOL    HW127482   3.621   2.168   6.173
 8861SOL    HW227483   3.650   2.315   6.108
 8862SOL     OW27484   6.148   0.956   3.943
 8862SOL    HW127485   6.232   0.928   3.989
 8862SOL    HW227486   6.109   1.035   3.990
 8863SOL     OW27487   1.832   5.761   4.401
 8863SOL    HW127488   1.791   5.852   4.397
 8863SOL    HW227489   1.761   5.694   4.425
 8864SOL     OW27490   2.030   2.990   6.201
 8864SOL    HW127491   2.037   2.900   6.244
 8864SOL    HW227492   2.059   2.983   6.106
 8865SOL     OW27493   3.496   1.928   5.849
 8865SOL    HW127494   3.416   1.878   5.881
 8865SOL    HW227495   3.527   1.889   5.762
 8866SOL     OW27496   5.577   6.848   4.443
 8866SOL    HW127497   5.494   6.878   4.395
 8866SOL    HW227498   5.657   6.869   4.388
 8867SOL     OW27499   5.155   3.616   3.207
 8867SOL    HW127500   5.092   3.589   3.280
 8867SOL    HW227501   5.245   3.634   3.245
 8868SOL     OW27502   6.004   3.306   0.720
 8868SOL    HW127503   5.970   3.231   0.663
 8868SOL    HW227504   5.950   3.388   0.702
 8869SOL     OW27505   4.710   5.708   3.580
 8869SOL    HW127506   4.660   5.736   3.498
 8869SOL    HW227507   4.648   5.663   3.643
 8870SOL     OW27508   4.174   0.064   0.345
 8870SOL    HW127509   4.075   0.068   0.356
 8870SOL    HW227510   4.218   0.067   0.435
 8871SOL     OW27511   2.005   0.997   4.051
 8871SOL    HW127512   2.029   0.910   4.008
 8871SOL    HW227513   1.964   1.058   3.983
 8872SOL     OW27514   1.369   4.522   4.765
 8872SOL    HW127515   1.402   4.473   4.684
 8872SOL    HW227516   1.434   4.509   4.840
 8873SOL     OW27517   6.892   5.205   1.875
 8873SOL    HW127518   6.793   5.205   1.890
 8873SOL    HW227519   6.939   5.227   1.960
 8874SOL     OW27520   2.639   6.294   1.402
 8874SOL    HW127521   2.716   6.325   1.458
 8874SOL    HW227522   2.555   6.297   1.457
 8875SOL     OW27523   0.052   3.201   4.821
 8875SOL    HW127524   0.053   3.102   4.809
 8875SOL    HW227525   0.053   3.245   4.731
 8876SOL     OW27526   2.033   0.089   4.431
 8876SOL    HW127527   1.936   0.087   4.406
 8876SOL    HW227528   2.073   7.020   4.415
 8877SOL     OW27529   2.317   1.654   4.130
 8877SOL    HW127530   2.283   1.625   4.041
 8877SOL    HW227531   2.328   1.574   4.189
 8878SOL     OW27532   0.314   5.747   0.784
 8878SOL    HW127533   0.250   5.801   0.838
 8878SOL    HW227534   0.290   5.753   0.687
 8879SOL     OW27535   5.484   5.170   1.164
 8879SOL    HW127536   5.413   5.114   1.121
 8879SOL    HW227537   5.561   5.111   1.189
 8880SOL     OW27538   6.291   5.817   4.436
 8880SOL    HW127539   6.304   5.812   4.337
 8880SOL    HW227540   6.195   5.803   4.458
 8881SOL     OW27541   6.121   6.740   4.618
 8881SOL    HW127542   6.218   6.758   4.634
 8881SOL    HW227543   6.084   6.812   4.559
 8882SOL     OW27544   5.194   1.360   0.583
 8882SOL    HW127545   5.274   1.377   0.641
 8882SOL    HW227546   5.126   1.431   0.598
 8883SOL     OW27547   1.405   0.218   4.993
 8883SOL    HW127548   1.459   0.154   5.047
 8883SOL    HW227549   1.454   0.240   4.908
 8884SOL     OW27550   6.233   4.828   6.247
 8884SOL    HW127551   6.287   4.850   6.328
 8884SOL    HW227552   6.265   4.883   6.170
 8885SOL     OW27553   0.295   3.521   0.637
 8885SOL    HW127554   0.339   3.459   0.702
 8885SOL    HW227555   0.363   3.586   0.603
 8886SOL     OW27556   3.717   6.555   5.495
 8886SOL    HW127557   3.704   6.639   5.443
 8886SOL    HW227558   3.732   6.478   5.432
 8887SOL     OW27559   2.987   0.976   1.540
 8887SOL    HW127560   3.047   1.002   1.465
 8887SOL    HW227561   3.032   0.906   1.596
 8888SOL     OW27562   1.504   1.772   1.159
 8888SOL    HW127563   1.544   1.680   1.161
 8888SOL    HW227564   1.425   1.775   1.220
 8889SOL     OW27565   5.787   0.052   5.395
 8889SOL    HW127566   5.717   0.040   5.325
 8889SOL    HW227567   5.862   7.009   5.379
 8890SOL     OW27568   5.607   5.509   4.254
 8890SOL    HW127569   5.553   5.458   4.320
 8890SOL    HW227570   5.640   5.447   4.182
 8891SOL     OW27571   5.278   3.462   5.417
 8891SOL    HW127572   5.288   3.472   5.318
 8891SOL    HW227573   5.315   3.543   5.462
 8892SOL     OW27574   3.658   5.884   2.700
 8892SOL    HW127575   3.678   5.790   2.727
 8892SOL    HW227576   3.722   5.946   2.746
 8893SOL     OW27577   0.660   0.290   2.500
 8893SOL    HW127578   0.705   0.224   2.560
 8893SOL    HW227579   0.567   0.259   2.482
 8894SOL     OW27580   4.286   2.031   5.544
 8894SOL    HW127581   4.314   2.103   5.481
 8894SOL    HW227582   4.358   2.014   5.611
 8895SOL     OW27583   6.242   2.014   1.469
 8895SOL    HW127584   6.224   1.924   1.429
 8895SOL    HW227585   6.277   2.076   1.398
 8896SOL     OW27586   1.732   3.091   5.235
 8896SOL    HW127587   1.700   3.114   5.327
 8896SOL    HW227588   1.657   3.052   5.182
 8897SOL     OW27589   1.830   2.650   3.575
 8897SOL    HW127590   1.859   2.627   3.483
 8897SOL    HW227591   1.779   2.737   3.574
 8898SOL     OW27592   5.980   3.861   4.531
 8898SOL    HW127593   5.956   3.957   4.542
 8898SOL    HW227594   6.062   3.852   4.475
 8899SOL     OW27595   1.990   4.644   0.053
 8899SOL    HW127596   1.935   4.720   0.088
 8899SOL    HW227597   2.066   4.625   0.115
 8900SOL     OW27598   5.557   2.525   2.659
 8900SOL    HW127599   5.476   2.467   2.644
 8900SOL    HW227600   5.640   2.470   2.644
 8901SOL     OW27601   2.288   1.416   4.290
 8901SOL    HW127602   2.204   1.380   4.249
 8901SOL    HW227603   2.277   1.422   4.389
 8902SOL     OW27604   3.290   6.699   6.968
 8902SOL    HW127605   3.241   6.614   6.988
 8902SOL    HW227606   3.355   6.718   0.021
 8903SOL     OW27607   0.444   1.276   4.908
 8903SOL    HW127608   0.536   1.246   4.884
 8903SOL    HW227609   0.416   1.231   4.993
 8904SOL     OW27610   6.009   5.415   3.881
 8904SOL    HW127611   6.003   5.472   3.963
 8904SOL    HW227612   6.066   5.461   3.813
 8905SOL     OW27613   1.867   3.724   4.385
 8905SOL    HW127614   1.919   3.800   4.423
 8905SOL    HW227615   1.823   3.752   4.299
 8906SOL     OW27616   6.749   6.531   6.866
 8906SOL    HW127617   6.751   6.452   6.927
 8906SOL    HW227618   6.712   6.610   6.915
 8907SOL     OW27619   3.401   1.736   4.633
 8907SOL    HW127620   3.482   1.684   4.607
 8907SOL    HW227621   3.405   1.827   4.590
 8908SOL     OW27622   1.282   3.405   6.588
 8908SOL    HW127623   1.322   3.404   6.679
 8908SOL    HW227624   1.276   3.311   6.553
 8909SOL     OW27625   1.609   0.936   5.321
 8909SOL    HW127626   1.524   0.939   5.374
 8909SOL    HW227627   1.668   1.011   5.349
 8910SOL     OW27628   1.150   3.267   6.192
 8910SOL    HW127629   1.125   3.172   6.170
 8910SOL    HW227630   1.236   3.268   6.242
 8911SOL     OW27631   4.421   2.448   4.836
 8911SOL    HW127632   4.387   2.494   4.917
 8911SOL    HW227633   4.362   2.470   4.758
 8912SOL     OW27634   4.506   1.615   0.991
 8912SOL    HW127635   4.573   1.688   1.008
 8912SOL    HW227636   4.549   1.526   1.007
 8913SOL     OW27637   4.838   4.917   0.352
 8913SOL    HW127638   4.768   4.852   0.381
 8913SOL    HW227639   4.831   4.932   0.254
 8914SOL     OW27640   4.240   0.890   5.087
 8914SOL    HW127641   4.258   0.907   5.184
 8914SOL    HW227642   4.232   0.977   5.039
 8915SOL     OW27643   0.791   2.248   3.609
 8915SOL    HW127644   0.712   2.197   3.575
 8915SOL    HW227645   0.771   2.284   3.701
 8916SOL     OW27646   0.302   3.704   1.111
 8916SOL    HW127647   0.369   3.631   1.101
 8916SOL    HW227648   0.216   3.676   1.067
 8917SOL     OW27649   6.029   4.268   6.248
 8917SOL    HW127650   6.119   4.230   6.227
 8917SOL    HW227651   5.966   4.194   6.271
 8918SOL     OW27652   0.321   4.377   1.486
 8918SOL    HW127653   0.300   4.346   1.393
 8918SOL    HW227654   0.356   4.471   1.482
 8919SOL     OW27655   4.287   3.973   1.010
 8919SOL    HW127656   4.372   3.965   1.061
 8919SOL    HW227657   4.210   3.977   1.073
 8920SOL     OW27658   0.762   6.296   6.357
 8920SOL    HW127659   0.849   6.291   6.407
 8920SOL    HW227660   0.741   6.392   6.337
 8921SOL     OW27661   2.525   1.976   2.807
 8921SOL    HW127662   2.474   1.985   2.892
 8921SOL    HW227663   2.620   2.001   2.822
 8922SOL     OW27664   3.202   5.312   1.779
 8922SOL    HW127665   3.148   5.254   1.840
 8922SOL    HW227666   3.165   5.307   1.687
 8923SOL     OW27667   1.352   3.797   5.775
 8923SOL    HW127668   1.389   3.875   5.825
 8923SOL    HW227669   1.307   3.829   5.692
 8924SOL     OW27670   3.309   5.701   5.475
 8924SOL    HW127671   3.340   5.777   5.419
 8924SOL    HW227672   3.281   5.625   5.416
 8925SOL     OW27673   0.621   0.706   2.909
 8925SOL    HW127674   0.561   0.742   2.981
 8925SOL    HW227675   0.630   0.774   2.836
 8926SOL     OW27676   5.737   3.629   6.446
 8926SOL    HW127677   5.812   3.590   6.499
 8926SOL    HW227678   5.667   3.664   6.508
 8927SOL     OW27679   1.027   1.541   4.368
 8927SOL    HW127680   0.989   1.533   4.276
 8927SOL    HW227681   1.048   1.637   4.387
 8928SOL     OW27682   6.609   0.877   5.481
 8928SOL    HW127683   6.676   0.935   5.435
 8928SOL    HW227684   6.523   0.880   5.431
 8929SOL     OW27685   6.771   3.337   3.944
 8929SOL    HW127686   6.774   3.238   3.932
 8929SOL    HW227687   6.829   3.363   4.021
 8930SOL     OW27688   2.148   4.093   3.966
 8930SOL    HW127689   2.124   4.051   3.879
 8930SOL    HW227690   2.151   4.023   4.038
 8931SOL     OW27691   2.989   3.016   1.462
 8931SOL    HW127692   3.074   3.066   1.472
 8931SOL    HW227693   3.009   2.920   1.443
 8932SOL     OW27694   5.344   0.504   0.238
 8932SOL    HW127695   5.255   0.491   0.282
 8932SOL    HW227696   5.333   0.564   0.159
 8933SOL     OW27697   0.897   2.223   6.013
 8933SOL    HW127698   0.960   2.198   6.086
 8933SOL    HW227699   0.940   2.292   5.955
 8934SOL     OW27700   3.491   5.452   3.914
 8934SOL    HW127701   3.461   5.544   3.886
 8934SOL    HW227702   3.431   5.384   3.874
 8935SOL     OW27703   5.548   3.796   1.698
 8935SOL    HW127704   5.646   3.793   1.677
 8935SOL    HW227705   5.530   3.870   1.762
 8936SOL     OW27706   1.081   3.433   1.207
 8936SOL    HW127707   1.121   3.523   1.226
 8936SOL    HW227708   1.050   3.428   1.112
 8937SOL     OW27709   0.422   0.489   4.338
 8937SOL    HW127710   0.429   0.390   4.353
 8937SOL    HW227711   0.473   0.537   4.410
 8938SOL     OW27712   6.758   0.957   0.145
 8938SOL    HW127713   6.676   1.014   0.135
 8938SOL    HW227714   6.743   0.890   0.217
 8939SOL     OW27715   6.557   3.285   4.261
 8939SOL    HW127716   6.583   3.215   4.194
 8939SOL    HW227717   6.545   3.373   4.215
 8940SOL     OW27718   5.944   1.954   1.351
 8940SOL    HW127719   5.880   2.006   1.407
 8940SOL    HW227720   6.002   2.016   1.298
 8941SOL     OW27721   6.341   2.823   2.170
 8941SOL    HW127722   6.312   2.777   2.086
 8941SOL    HW227723   6.261   2.846   2.225
 8942SOL     OW27724   0.612   6.066   4.199
 8942SOL    HW127725   0.544   6.073   4.126
 8942SOL    HW227726   0.685   6.004   4.171
 8943SOL     OW27727   3.994   5.306   0.290
 8943SOL    HW127728   3.929   5.297   0.214
 8943SOL    HW227729   4.071   5.363   0.261
 8944SOL     OW27730   5.007   5.740   4.503
 8944SOL    HW127731   5.072   5.744   4.427
 8944SOL    HW227732   5.034   5.666   4.565
 8945SOL     OW27733   0.092   2.403   4.323
 8945SOL    HW127734   0.131   2.427   4.412
 8945SOL    HW227735   7.018   2.433   4.319
 8946SOL     OW27736   3.903   0.876   3.888
 8946SOL    HW127737   3.883   0.959   3.836
 8946SOL    HW227738   3.838   0.867   3.963
 8947SOL     OW27739   1.845   3.290   5.559
 8947SOL    HW127740   1.932   3.268   5.604
 8947SOL    HW227741   1.783   3.331   5.625
 8948SOL     OW27742   5.787   5.970   3.229
 8948SOL    HW127743   5.742   5.916   3.157
 8948SOL    HW227744   5.788   5.918   3.314
 8949SOL     OW27745   4.095   5.744   0.691
 8949SOL    HW127746   4.186   5.713   0.662
 8949SOL    HW227747   4.028   5.672   0.675
 8950SOL     OW27748   4.299   2.998   1.173
 8950SOL    HW127749   4.325   3.002   1.077
 8950SOL    HW227750   4.199   2.998   1.180
 8951SOL     OW27751   2.038   1.086   4.783
 8951SOL    HW127752   2.049   1.117   4.689
 8951SOL    HW227753   1.940   1.086   4.807
 8952SOL     OW27754   0.585   5.091   3.289
 8952SOL    HW127755   0.593   5.088   3.189
 8952SOL    HW227756   0.674   5.114   3.329
 8953SOL     OW27757   1.412   4.677   0.861
 8953SOL    HW127758   1.336   4.620   0.892
 8953SOL    HW227759   1.424   4.665   0.762
 8954SOL     OW27760   0.249   6.771   4.294
 8954SOL    HW127761   0.277   6.755   4.200
 8954SOL    HW227762   0.151   6.752   4.304
 8955SOL     OW27763   0.209   3.863   2.884
 8955SOL    HW127764   0.241   3.956   2.864
 8955SOL    HW227765   0.174   3.859   2.978
 8956SOL     OW27766   1.425   0.379   5.610
 8956SOL    HW127767   1.446   0.282   5.596
 8956SOL    HW227768   1.490   0.435   5.559
 8957SOL     OW27769   2.292   4.509   1.217
 8957SOL    HW127770   2.242   4.437   1.265
 8957SOL    HW227771   2.385   4.513   1.252
 8958SOL     OW27772   1.022   2.362   5.801
 8958SOL    HW127773   1.077   2.304   5.741
 8958SOL    HW227774   0.992   2.443   5.752
 8959SOL     OW27775   1.664   3.776   2.767
 8959SOL    HW127776   1.711   3.703   2.716
 8959SOL    HW227777   1.613   3.736   2.843
 8960SOL     OW27778   5.768   5.027   4.069
 8960SOL    HW127779   5.815   4.990   3.988
 8960SOL    HW227780   5.671   5.003   4.064
 8961SOL     OW27781   4.257   1.493   3.684
 8961SOL    HW127782   4.231   1.426   3.753
 8961SOL    HW227783   4.230   1.459   3.593
 8962SOL     OW27784   6.644   5.520   1.606
 8962SOL    HW127785   6.692   5.603   1.578
 8962SOL    HW227786   6.710   5.447   1.619
 8963SOL     OW27787   3.639   6.681   5.243
 8963SOL    HW127788   3.653   6.585   5.218
 8963SOL    HW227789   3.611   6.733   5.162
 8964SOL     OW27790   5.699   3.141   2.793
 8964SOL    HW127791   5.671   3.217   2.850
 8964SOL    HW227792   5.798   3.130   2.799
 8965SOL     OW27793   3.072   4.637   0.179
 8965SOL    HW127794   3.121   4.645   0.093
 8965SOL    HW227795   3.134   4.602   0.250
 8966SOL     OW27796   6.788   4.466   0.313
 8966SOL    HW127797   6.724   4.511   0.252
 8966SOL    HW227798   6.800   4.371   0.286
 8967SOL     OW27799   4.263   1.423   3.043
 8967SOL    HW127800   4.226   1.361   2.973
 8967SOL    HW227801   4.258   1.517   3.009
 8968SOL     OW27802   3.086   5.831   2.475
 8968SOL    HW127803   3.126   5.749   2.516
 8968SOL    HW227804   3.120   5.841   2.381
 8969SOL     OW27805   0.018   0.379   3.819
 8969SOL    HW127806   0.029   0.335   3.908
 8969SOL    HW227807   0.086   0.451   3.808
 8970SOL     OW27808   1.272   2.018   6.749
 8970SOL    HW127809   1.359   1.990   6.709
 8970SOL    HW227810   1.221   1.937   6.779
 8971SOL     OW27811   5.418   6.704   1.724
 8971SOL    HW127812   5.454   6.744   1.809
 8971SOL    HW227813   5.363   6.772   1.676
 8972SOL     OW27814   5.301   3.981   0.564
 8972SOL    HW127815   5.366   4.012   0.494
 8972SOL    HW227816   5.352   3.946   0.643
 8973SOL     OW27817   0.417   3.265   2.289
 8973SOL    HW127818   0.329   3.253   2.243
 8973SOL    HW227819   0.409   3.338   2.357
 8974SOL     OW27820   1.795   3.155   4.157
 8974SOL    HW127821   1.720   3.218   4.138
 8974SOL    HW227822   1.758   3.063   4.172
 8975SOL     OW27823   0.732   5.877   6.610
 8975SOL    HW127824   0.829   5.872   6.634
 8975SOL    HW227825   0.678   5.897   6.692
 8976SOL     OW27826   0.138   5.492   0.616
 8976SOL    HW127827   0.231   5.528   0.607
 8976SOL    HW227828   0.088   5.506   0.530
 8977SOL     OW27829   6.639   4.249   6.898
 8977SOL    HW127830   6.570   4.218   6.833
 8977SOL    HW227831   6.703   4.175   6.918
 8978SOL     OW27832   5.438   0.028   4.766
 8978SOL    HW127833   5.528   7.014   4.741
 8978SOL    HW227834   5.369   6.979   4.746
 8979SOL     OW27835   1.788   5.289   5.701
 8979SOL    HW127836   1.785   5.363   5.634
 8979SOL    HW227837   1.837   5.210   5.663
 8980SOL     OW27838   5.382   2.352   5.677
 8980SOL    HW127839   5.354   2.258   5.662
 8980SOL    HW227840   5.305   2.406   5.709
 8981SOL     OW27841   4.982   1.559   5.218
 8981SOL    HW127842   5.017   1.622   5.288
 8981SOL    HW227843   4.983   1.465   5.254
 8982SOL     OW27844   0.372   1.861   1.219
 8982SOL    HW127845   0.429   1.844   1.138
 8982SOL    HW227846   0.386   1.955   1.250
 8983SOL     OW27847   0.650   5.489   1.010
 8983SOL    HW127848   0.574   5.458   0.952
 8983SOL    HW227849   0.616   5.554   1.078
 8984SOL     OW27850   6.656   6.809   4.235
 8984SOL    HW127851   6.655   6.721   4.282
 8984SOL    HW227852   6.619   6.798   4.142
 8985SOL     OW27853   2.900   2.004   1.715
 8985SOL    HW127854   2.955   1.975   1.637
 8985SOL    HW227855   2.958   2.016   1.795
 8986SOL     OW27856   4.707   4.931   2.677
 8986SOL    HW127857   4.755   4.944   2.590
 8986SOL    HW227858   4.682   4.835   2.687
 8987SOL     OW27859   3.040   0.084   1.535
 8987SOL    HW127860   3.128   0.069   1.580
 8987SOL    HW227861   2.972   0.021   1.573
 8988SOL     OW27862   1.921   5.154   0.216
 8988SOL    HW127863   1.877   5.232   0.173
 8988SOL    HW227864   1.980   5.186   0.290
 8989SOL     OW27865   4.921   3.357   2.555
 8989SOL    HW127866   4.940   3.405   2.469
 8989SOL    HW227867   4.919   3.259   2.538
 8990SOL     OW27868   2.124   5.665   1.610
 8990SOL    HW127869   2.187   5.726   1.658
 8990SOL    HW227870   2.147   5.663   1.513
 8991SOL     OW27871   2.545   1.333   1.567
 8991SOL    HW127872   2.634   1.302   1.532
 8991SOL    HW227873   2.507   1.401   1.504
 8992SOL     OW27874   0.040   2.805   0.097
 8992SOL    HW127875   0.130   2.835   0.128
 8992SOL    HW227876   7.018   2.879   0.045
 8993SOL     OW27877   4.764   2.542   3.117
 8993SOL    HW127878   4.781   2.608   3.190
 8993SOL    HW227879   4.665   2.529   3.107
 8994SOL     OW27880   1.472   5.724   3.672
 8994SOL    HW127881   1.553   5.669   3.691
 8994SOL    HW227882   1.420   5.735   3.757
 8995SOL     OW27883   1.474   2.239   6.021
 8995SOL    HW127884   1.387   2.287   6.013
 8995SOL    HW227885   1.499   2.230   6.118
 8996SOL     OW27886   0.644   4.341   2.093
 8996SOL    HW127887   0.645   4.439   2.074
 8996SOL    HW227888   0.562   4.300   2.053
 8997SOL     OW27889   4.484   1.056   6.683
 8997SOL    HW127890   4.540   1.134   6.656
 8997SOL    HW227891   4.537   0.972   6.674
 8998SOL     OW27892   0.436   1.812   4.717
 8998SOL    HW127893   0.355   1.780   4.668
 8998SOL    HW227894   0.518   1.769   4.678
 8999SOL     OW27895   4.513   0.402   0.210
 8999SOL    HW127896   4.474   0.379   0.121
 8999SOL    HW227897   4.441   0.395   0.280
 9000SOL     OW27898   2.480   3.757   6.364
 9000SOL    HW127899   2.571   3.796   6.352
 9000SOL    HW227900   2.424   3.819   6.419
 9001SOL     OW27901   1.495   5.138   2.966
 9001SOL    HW127902   1.474   5.041   2.979
 9001SOL    HW227903   1.411   5.187   2.941
 9002SOL     OW27904   0.738   5.228   5.303
 9002SOL    HW127905   0.746   5.301   5.235
 9002SOL    HW227906   0.823   5.175   5.305
 9003SOL     OW27907   5.743   3.093   1.520
 9003SOL    HW127908   5.750   3.190   1.495
 9003SOL    HW227909   5.654   3.076   1.562
 9004SOL     OW27910   4.463   6.701   1.527
 9004SOL    HW127911   4.370   6.681   1.499
 9004SOL    HW227912   4.494   6.631   1.591
 9005SOL     OW27913   6.403   1.634   4.139
 9005SOL    HW127914   6.462   1.558   4.113
 9005SOL    HW227915   6.358   1.671   4.058
 9006SOL     OW27916   1.399   6.216   0.970
 9006SOL    HW127917   1.416   6.313   0.989
 9006SOL    HW227918   1.312   6.189   1.010
 9007SOL     OW27919   3.679   5.586   3.402
 9007SOL    HW127920   3.631   5.673   3.411
 9007SOL    HW227921   3.678   5.557   3.306
 9008SOL     OW27922   6.602   5.335   3.066
 9008SOL    HW127923   6.508   5.338   3.031
 9008SOL    HW227924   6.614   5.406   3.135
 9009SOL     OW27925   3.297   6.525   0.272
 9009SOL    HW127926   3.250   6.443   0.301
 9009SOL    HW227927   3.241   6.605   0.291
 9010SOL     OW27928   1.062   6.679   4.803
 9010SOL    HW127929   1.130   6.684   4.729
 9010SOL    HW227930   1.080   6.753   4.868
 9011SOL     OW27931   3.759   1.989   1.300
 9011SOL    HW127932   3.779   1.898   1.336
 9011SOL    HW227933   3.818   2.056   1.345
 9012SOL     OW27934   2.957   5.343   1.332
 9012SOL    HW127935   2.876   5.402   1.341
 9012SOL    HW227936   2.967   5.316   1.237
 9013SOL     OW27937   5.925   5.692   4.785
 9013SOL    HW127938   5.962   5.775   4.743
 9013SOL    HW227939   5.908   5.708   4.882
 9014SOL     OW27940   1.190   1.320   0.663
 9014SOL    HW127941   1.190   1.241   0.601
 9014SOL    HW227942   1.121   1.386   0.634
 9015SOL     OW27943   5.992   0.518   0.714
 9015SOL    HW127944   5.984   0.524   0.813
 9015SOL    HW227945   5.970   0.424   0.684
 9016SOL     OW27946   6.559   6.348   5.955
 9016SOL    HW127947   6.654   6.322   5.939
 9016SOL    HW227948   6.506   6.268   5.982
 9017SOL     OW27949   5.322   2.470   3.202
 9017SOL    HW127950   5.292   2.408   3.274
 9017SOL    HW227951   5.350   2.418   3.122
 9018SOL     OW27952   4.218   1.608   5.522
 9018SOL    HW127953   4.171   1.529   5.563
 9018SOL    HW227954   4.188   1.692   5.567
 9019SOL     OW27955   1.209   6.614   0.616
 9019SOL    HW127956   1.273   6.673   0.665
 9019SOL    HW227957   1.162   6.667   0.546
 9020SOL     OW27958   1.813   3.300   2.046
 9020SOL    HW127959   1.789   3.267   1.954
 9020SOL    HW227960   1.847   3.394   2.039
 9021SOL     OW27961   6.623   0.198   3.807
 9021SOL    HW127962   6.629   0.259   3.728
 9021SOL    HW227963   6.527   0.178   3.825
 9022SOL     OW27964   2.625   0.701   1.200
 9022SOL    HW127965   2.645   0.660   1.111
 9022SOL    HW227966   2.635   0.801   1.193
 9023SOL     OW27967   4.017   3.237   3.072
 9023SOL    HW127968   4.038   3.193   2.985
 9023SOL    HW227969   4.092   3.297   3.098
 9024SOL     OW27970   1.571   5.825   6.008
 9024SOL    HW127971   1.577   5.815   5.908
 9024SOL    HW227972   1.533   5.742   6.048
 9025SOL     OW27973   6.389   6.033   0.924
 9025SOL    HW127974   6.390   6.012   0.826
 9025SOL    HW227975   6.470   5.994   0.967
 9026SOL     OW27976   3.975   3.096   3.490
 9026SOL    HW127977   4.010   3.184   3.524
 9026SOL    HW227978   4.041   3.024   3.509
 9027SOL     OW27979   3.110   2.134   3.872
 9027SOL    HW127980   3.123   2.036   3.854
 9027SOL    HW227981   3.042   2.170   3.809
 9028SOL     OW27982   2.300   4.397   6.370
 9028SOL    HW127983   2.314   4.327   6.300
 9028SOL    HW227984   2.374   4.464   6.366
 9029SOL     OW27985   3.715   5.608   4.639
 9029SOL    HW127986   3.658   5.622   4.559
 9029SOL    HW227987   3.762   5.520   4.632
 9030SOL     OW27988   2.105   1.311   2.676
 9030SOL    HW127989   2.099   1.212   2.686
 9030SOL    HW227990   2.017   1.347   2.643
 9031SOL     OW27991   4.254   5.635   5.421
 9031SOL    HW127992   4.177   5.573   5.437
 9031SOL    HW227993   4.236   5.722   5.467
 9032SOL     OW27994   4.112   2.396   0.710
 9032SOL    HW127995   4.124   2.368   0.805
 9032SOL    HW227996   4.079   2.491   0.707
 9033SOL     OW27997   1.687   3.439   4.093
 9033SOL    HW127998   1.725   3.489   4.015
 9033SOL    HW227999   1.681   3.501   4.171
 9034SOL     OW28000   2.653   6.457   4.827
 9034SOL    HW128001   2.671   6.512   4.909
 9034SOL    HW228002   2.728   6.469   4.762
 9035SOL     OW28003   0.593   6.535   5.057
 9035SOL    HW128004   0.611   6.587   4.973
 9035SOL    HW228005   0.564   6.442   5.033
 9036SOL     OW28006   1.593   1.790   4.360
 9036SOL    HW128007   1.689   1.816   4.368
 9036SOL    HW228008   1.537   1.849   4.419
 9037SOL     OW28009   1.421   3.964   6.509
 9037SOL    HW128010   1.381   3.872   6.507
 9037SOL    HW228011   1.364   4.027   6.457
 9038SOL     OW28012   5.240   0.433   5.512
 9038SOL    HW128013   5.237   0.437   5.611
 9038SOL    HW228014   5.165   0.488   5.474
 9039SOL     OW28015   1.606   4.636   4.349
 9039SOL    HW128016   1.628   4.733   4.339
 9039SOL    HW228017   1.673   4.581   4.299
 9040SOL     OW28018   2.937   1.929   3.130
 9040SOL    HW128019   3.034   1.913   3.112
 9040SOL    HW228020   2.926   2.008   3.189
 9041SOL     OW28021   0.776   1.655   2.146
 9041SOL    HW128022   0.740   1.706   2.224
 9041SOL    HW228023   0.875   1.650   2.152
 9042SOL     OW28024   3.416   5.715   3.826
 9042SOL    HW128025   3.407   5.814   3.831
 9042SOL    HW228026   3.360   5.679   3.752
 9043SOL     OW28027   2.227   1.317   5.463
 9043SOL    HW128028   2.319   1.330   5.498
 9043SOL    HW228029   2.226   1.330   5.363
 9044SOL     OW28030   6.203   1.510   1.309
 9044SOL    HW128031   6.220   1.473   1.218
 9044SOL    HW228032   6.244   1.450   1.378
 9045SOL     OW28033   3.230   1.713   2.357
 9045SOL    HW128034   3.190   1.716   2.449
 9045SOL    HW228035   3.163   1.675   2.293
 9046SOL     OW28036   3.145   3.818   4.214
 9046SOL    HW128037   3.055   3.786   4.242
 9046SOL    HW228038   3.210   3.742   4.213
 9047SOL     OW28039   1.317   3.345   5.538
 9047SOL    HW128040   1.249   3.281   5.501
 9047SOL    HW228041   1.290   3.374   5.629
 9048SOL     OW28042   6.444   3.183   6.509
 9048SOL    HW128043   6.427   3.279   6.529
 9048SOL    HW228044   6.482   3.138   6.590
 9049SOL     OW28045   4.337   6.587   6.754
 9049SOL    HW128046   4.427   6.618   6.786
 9049SOL    HW228047   4.341   6.489   6.733
 9050SOL     OW28048   1.341   5.382   5.990
 9050SOL    HW128049   1.427   5.351   5.949
 9050SOL    HW228050   1.348   5.377   6.089
 9051SOL     OW28051   4.431   6.278   0.852
 9051SOL    HW128052   4.411   6.266   0.949
 9051SOL    HW228053   4.469   6.369   0.836
 9052SOL     OW28054   2.158   3.807   4.049
 9052SOL    HW128055   2.160   3.707   4.042
 9052SOL    HW228056   2.219   3.836   4.122
 9053SOL     OW28057   2.157   2.112   3.217
 9053SOL    HW128058   2.069   2.113   3.265
 9053SOL    HW228059   2.223   2.169   3.267
 9054SOL     OW28060   1.607   0.558   1.846
 9054SOL    HW128061   1.510   0.550   1.822
 9054SOL    HW228062   1.615   0.590   1.941
 9055SOL     OW28063   0.485   3.883   3.396
 9055SOL    HW128064   0.455   3.804   3.342
 9055SOL    HW228065   0.485   3.860   3.493
 9056SOL     OW28066   5.451   0.196   2.338
 9056SOL    HW128067   5.391   0.263   2.295
 9056SOL    HW228068   5.479   0.128   2.271
 9057SOL     OW28069   6.088   5.420   6.213
 9057SOL    HW128070   6.181   5.444   6.243
 9057SOL    HW228071   6.061   5.480   6.138
 9058SOL     OW28072   2.277   1.551   3.861
 9058SOL    HW128073   2.226   1.591   3.784
 9058SOL    HW228074   2.247   1.457   3.876
 9059SOL     OW28075   0.046   1.176   4.022
 9059SOL    HW128076   0.105   1.238   3.970
 9059SOL    HW228077   0.100   1.102   4.061
 9060SOL     OW28078   0.174   4.372   2.160
 9060SOL    HW128079   0.263   4.329   2.168
 9060SOL    HW228080   0.144   4.371   2.064
 9061SOL     OW28081   3.957   5.714   2.606
 9061SOL    HW128082   3.933   5.635   2.551
 9061SOL    HW228083   4.055   5.710   2.630
 9062SOL     OW28084   1.581   4.823   2.583
 9062SOL    HW128085   1.574   4.724   2.600
 9062SOL    HW228086   1.655   4.840   2.518
 9063SOL     OW28087   2.536   0.664   2.460
 9063SOL    HW128088   2.449   0.688   2.417
 9063SOL    HW228089   2.549   0.718   2.543
 9064SOL     OW28090   6.414   4.291   4.394
 9064SOL    HW128091   6.466   4.252   4.470
 9064SOL    HW228092   6.460   4.271   4.308
 9065SOL     OW28093   3.266   5.298   6.443
 9065SOL    HW128094   3.300   5.252   6.525
 9065SOL    HW228095   3.297   5.393   6.442
 9066SOL     OW28096   5.347   0.330   6.716
 9066SOL    HW128097   5.294   0.246   6.730
 9066SOL    HW228098   5.371   0.370   6.804
 9067SOL     OW28099   5.932   6.295   5.538
 9067SOL    HW128100   5.995   6.362   5.498
 9067SOL    HW228101   5.929   6.213   5.481
 9068SOL     OW28102   3.314   0.897   5.076
 9068SOL    HW128103   3.370   0.979   5.065
 9068SOL    HW228104   3.282   0.867   4.986
 9069SOL     OW28105   3.487   1.993   2.021
 9069SOL    HW128106   3.549   2.071   2.014
 9069SOL    HW228107   3.540   1.909   2.024
 9070SOL     OW28108   0.411   3.088   5.748
 9070SOL    HW128109   0.446   3.118   5.836
 9070SOL    HW228110   0.318   3.053   5.759
 9071SOL     OW28111   5.255   6.562   0.844
 9071SOL    HW128112   5.322   6.495   0.812
 9071SOL    HW228113   5.281   6.653   0.812
 9072SOL     OW28114   4.970   0.220   1.880
 9072SOL    HW128115   4.888   0.177   1.916
 9072SOL    HW228116   5.011   0.278   1.950
 9073SOL     OW28117   3.586   6.707   1.188
 9073SOL    HW128118   3.558   6.736   1.096
 9073SOL    HW228119   3.527   6.751   1.256
 9074SOL     OW28120   1.635   0.564   0.869
 9074SOL    HW128121   1.639   0.547   0.771
 9074SOL    HW228122   1.539   0.565   0.899
 9075SOL     OW28123   0.344   6.988   1.465
 9075SOL    HW128124   0.414   6.926   1.430
 9075SOL    HW228125   0.320   0.033   1.394
 9076SOL     OW28126   5.512   1.538   4.966
 9076SOL    HW128127   5.439   1.602   4.942
 9076SOL    HW228128   5.535   1.482   4.887
 9077SOL     OW28129   5.134   1.052   6.892
 9077SOL    HW128130   5.047   1.002   6.894
 9077SOL    HW228131   5.126   1.134   6.950
 9078SOL     OW28132   5.049   3.375   0.349
 9078SOL    HW128133   4.973   3.382   0.413
 9078SOL    HW228134   5.022   3.414   0.261
 9079SOL     OW28135   1.914   6.458   4.164
 9079SOL    HW128136   1.998   6.495   4.124
 9079SOL    HW228137   1.919   6.358   4.166
 9080SOL     OW28138   5.923   2.639   6.930
 9080SOL    HW128139   5.994   2.706   6.952
 9080SOL    HW228140   5.833   2.679   6.947
 9081SOL     OW28141   3.202   0.107   2.273
 9081SOL    HW128142   3.253   0.184   2.311
 9081SOL    HW228143   3.173   0.046   2.347
 9082SOL     OW28144   2.637   6.244   5.586
 9082SOL    HW128145   2.616   6.294   5.670
 9082SOL    HW228146   2.607   6.149   5.595
 9083SOL     OW28147   3.651   4.298   5.599
 9083SOL    HW128148   3.572   4.252   5.560
 9083SOL    HW228149   3.711   4.231   5.643
 9084SOL     OW28150   1.819   2.725   6.104
 9084SOL    HW128151   1.768   2.648   6.067
 9084SOL    HW228152   1.908   2.731   6.059
 9085SOL     OW28153   1.559   5.333   1.019
 9085SOL    HW128154   1.609   5.418   1.009
 9085SOL    HW228155   1.470   5.351   1.061
 9086SOL     OW28156   6.815   4.031   1.532
 9086SOL    HW128157   6.866   4.052   1.615
 9086SOL    HW228158   6.729   4.083   1.530
 9087SOL     OW28159   4.910   3.282   2.070
 9087SOL    HW128160   4.847   3.209   2.045
 9087SOL    HW228161   4.890   3.364   2.017
 9088SOL     OW28162   6.642   6.005   0.632
 9088SOL    HW128163   6.674   6.018   0.538
 9088SOL    HW228164   6.682   6.075   0.691
 9089SOL     OW28165   4.067   5.997   5.969
 9089SOL    HW128166   4.050   5.902   5.995
 9089SOL    HW228167   3.980   6.044   5.956
 9090SOL     OW28168   6.182   0.263   3.671
 9090SOL    HW128169   6.157   0.292   3.579
 9090SOL    HW228170   6.105   0.278   3.733
 9091SOL     OW28171   2.881   3.600   0.531
 9091SOL    HW128172   2.962   3.658   0.529
 9091SOL    HW228173   2.852   3.586   0.626
 9092SOL     OW28174   0.007   1.482   0.144
 9092SOL    HW128175   6.982   1.417   0.083
 9092SOL    HW228176   0.061   1.547   0.090
 9093SOL     OW28177   1.980   6.215   6.217
 9093SOL    HW128178   2.000   6.132   6.165
 9093SOL    HW228179   1.952   6.288   6.154
 9094SOL     OW28180   0.343   4.943   3.006
 9094SOL    HW128181   0.244   4.933   2.995
 9094SOL    HW228182   0.389   4.860   2.975
 9095SOL     OW28183   3.961   3.692   5.955
 9095SOL    HW128184   3.953   3.594   5.977
 9095SOL    HW228185   4.058   3.716   5.946
 9096SOL     OW28186   5.700   4.225   1.893
 9096SOL    HW128187   5.718   4.285   1.971
 9096SOL    HW228188   5.785   4.209   1.843
 9097SOL     OW28189   0.634   2.816   6.621
 9097SOL    HW128190   0.700   2.802   6.547
 9097SOL    HW228191   0.671   2.880   6.688
 9098SOL     OW28192   4.168   2.597   0.126
 9098SOL    HW128193   4.204   2.512   0.088
 9098SOL    HW228194   4.090   2.576   0.186
 9099SOL     OW28195   3.772   3.717   0.198
 9099SOL    HW128196   3.795   3.645   0.264
 9099SOL    HW228197   3.715   3.787   0.242
 9100SOL     OW28198   0.881   3.285   3.111
 9100SOL    HW128199   0.941   3.261   3.186
 9100SOL    HW228200   0.797   3.326   3.147
 9101SOL     OW28201   2.356   2.682   3.354
 9101SOL    HW128202   2.396   2.655   3.442
 9101SOL    HW228203   2.399   2.630   3.281
 9102SOL     OW28204   2.222   6.991   1.903
 9102SOL    HW128205   2.290   0.036   1.936
 9102SOL    HW228206   2.138   0.018   1.880
 9103SOL     OW28207   6.473   3.770   0.407
 9103SOL    HW128208   6.536   3.748   0.333
 9103SOL    HW228209   6.395   3.707   0.404
 9104SOL     OW28210   5.505   6.587   2.821
 9104SOL    HW128211   5.588   6.547   2.860
 9104SOL    HW228212   5.501   6.684   2.842
 9105SOL     OW28213   1.538   1.283   0.851
 9105SOL    HW128214   1.564   1.380   0.849
 9105SOL    HW228215   1.569   1.238   0.768
 9106SOL     OW28216   6.389   3.930   0.747
 9106SOL    HW128217   6.334   3.891   0.674
 9106SOL    HW228218   6.434   3.856   0.798
 9107SOL     OW28219   3.225   0.524   6.133
 9107SOL    HW128220   3.137   0.495   6.169
 9107SOL    HW228221   3.273   0.577   6.202
 9108SOL     OW28222   5.046   4.087   5.779
 9108SOL    HW128223   5.057   4.077   5.878
 9108SOL    HW228224   5.026   3.998   5.739
 9109SOL     OW28225   0.639   2.626   2.657
 9109SOL    HW128226   0.541   2.628   2.636
 9109SOL    HW228227   0.656   2.562   2.731
 9110SOL     OW28228   2.081   4.007   3.732
 9110SOL    HW128229   2.100   3.963   3.645
 9110SOL    HW228230   2.006   3.960   3.778
 9111SOL     OW28231   4.302   1.972   0.825
 9111SOL    HW128232   4.241   2.021   0.888
 9111SOL    HW228233   4.303   1.875   0.849
 9112SOL     OW28234   0.767   4.779   4.951
 9112SOL    HW128235   0.817   4.837   4.886
 9112SOL    HW228236   0.690   4.831   4.989
 9113SOL     OW28237   4.652   0.623   1.794
 9113SOL    HW128238   4.706   0.706   1.810
 9113SOL    HW228239   4.607   0.596   1.880
 9114SOL     OW28240   1.200   4.368   1.814
 9114SOL    HW128241   1.143   4.372   1.732
 9114SOL    HW228242   1.144   4.391   1.894
 9115SOL     OW28243   0.369   5.060   5.185
 9115SOL    HW128244   0.379   5.134   5.252
 9115SOL    HW228245   0.459   5.031   5.154
 9116SOL     OW28246   6.522   1.222   0.766
 9116SOL    HW128247   6.584   1.147   0.790
 9116SOL    HW228248   6.456   1.235   0.839
 9117SOL     OW28249   6.187   2.410   0.679
 9117SOL    HW128250   6.251   2.406   0.603
 9117SOL    HW228251   6.103   2.361   0.655
 9118SOL     OW28252   6.531   4.567   0.438
 9118SOL    HW128253   6.440   4.578   0.400
 9118SOL    HW228254   6.550   4.470   0.453
 9119SOL     OW28255   4.544   1.018   1.485
 9119SOL    HW128256   4.523   0.967   1.402
 9119SOL    HW228257   4.631   0.987   1.523
 9120SOL     OW28258   6.167   1.648   6.193
 9120SOL    HW128259   6.211   1.605   6.272
 9120SOL    HW228260   6.237   1.689   6.134
 9121SOL     OW28261   2.687   2.036   5.211
 9121SOL    HW128262   2.701   1.967   5.139
 9121SOL    HW228263   2.761   2.102   5.208
 9122SOL     OW28264   1.917   4.153   2.392
 9122SOL    HW128265   1.821   4.181   2.386
 9122SOL    HW228266   1.953   4.137   2.300
 9123SOL     OW28267   2.379   0.314   4.289
 9123SOL    HW128268   2.384   0.214   4.296
 9123SOL    HW228269   2.412   0.343   4.200
 9124SOL     OW28270   5.659   6.319   6.892
 9124SOL    HW128271   5.672   6.311   6.793
 9124SOL    HW228272   5.561   6.311   6.912
 9125SOL     OW28273   4.793   4.420   1.149
 9125SOL    HW128274   4.817   4.324   1.157
 9125SOL    HW228275   4.863   4.476   1.195
 9126SOL     OW28276   5.408   3.111   1.899
 9126SOL    HW128277   5.326   3.143   1.851
 9126SOL    HW228278   5.389   3.021   1.938
 9127SOL     OW28279   6.226   1.341   5.870
 9127SOL    HW128280   6.161   1.340   5.947
 9127SOL    HW228281   6.276   1.254   5.868
 9128SOL     OW28282   5.775   1.575   5.624
 9128SOL    HW128283   5.857   1.519   5.633
 9128SOL    HW228284   5.782   1.655   5.684
 9129SOL     OW28285   0.499   2.546   0.498
 9129SOL    HW128286   0.408   2.535   0.460
 9129SOL    HW228287   0.566   2.504   0.437
 9130SOL     OW28288   0.068   3.423   0.033
 9130SOL    HW128289   0.004   3.356   0.069
 9130SOL    HW228290   0.103   3.393   6.965
 9131SOL     OW28291   6.115   2.924   5.115
 9131SOL    HW128292   6.075   2.846   5.164
 9131SOL    HW228293   6.214   2.918   5.118
 9132SOL     OW28294   0.696   5.367   4.222
 9132SOL    HW128295   0.660   5.315   4.300
 9132SOL    HW228296   0.644   5.452   4.212
 9133SOL     OW28297   3.995   5.588   1.850
 9133SOL    HW128298   3.965   5.612   1.943
 9133SOL    HW228299   3.945   5.507   1.819
 9134SOL     OW28300   5.072   5.266   0.971
 9134SOL    HW128301   5.038   5.357   0.947
 9134SOL    HW228302   5.083   5.212   0.887
 9135SOL     OW28303   6.496   6.939   1.758
 9135SOL    HW128304   6.573   6.880   1.782
 9135SOL    HW228305   6.411   6.896   1.789
 9136SOL     OW28306   5.171   5.460   6.667
 9136SOL    HW128307   5.123   5.420   6.589
 9136SOL    HW228308   5.235   5.530   6.634
 9137SOL     OW28309   5.513   1.078   1.009
 9137SOL    HW128310   5.510   1.078   0.909
 9137SOL    HW228311   5.500   0.985   1.043
 9138SOL     OW28312   0.465   5.742   6.080
 9138SOL    HW128313   0.390   5.715   6.019
 9138SOL    HW228314   0.480   5.671   6.148
 9139SOL     OW28315   2.895   1.779   3.624
 9139SOL    HW128316   2.890   1.732   3.712
 9139SOL    HW228317   2.810   1.828   3.608
 9140SOL     OW28318   6.413   3.711   2.985
 9140SOL    HW128319   6.395   3.621   2.946
 9140SOL    HW228320   6.472   3.763   2.923
 9141SOL     OW28321   5.539   0.457   0.530
 9141SOL    HW128322   5.439   0.456   0.530
 9141SOL    HW228323   5.572   0.493   0.617
 9142SOL     OW28324   0.794   2.532   1.196
 9142SOL    HW128325   0.865   2.592   1.233
 9142SOL    HW228326   0.738   2.584   1.132
 9143SOL     OW28327   6.394   3.455   6.605
 9143SOL    HW128328   6.351   3.501   6.683
 9143SOL    HW228329   6.323   3.420   6.544
 9144SOL     OW28330   2.414   5.189   4.820
 9144SOL    HW128331   2.376   5.269   4.866
 9144SOL    HW228332   2.487   5.150   4.877
 9145SOL     OW28333   0.177   5.624   0.265
 9145SOL    HW128334   0.262   5.677   0.261
 9145SOL    HW228335   0.099   5.686   0.261
 9146SOL     OW28336   5.464   2.821   3.335
 9146SOL    HW128337   5.428   2.838   3.427
 9146SOL    HW228338   5.413   2.877   3.269
 9147SOL     OW28339   6.184   0.318   5.036
 9147SOL    HW128340   6.279   0.334   5.061
 9147SOL    HW228341   6.170   0.347   4.941
 9148SOL     OW28342   5.214   5.990   1.213
 9148SOL    HW128343   5.205   5.987   1.312
 9148SOL    HW228344   5.125   5.970   1.171
 9149SOL     OW28345   5.882   3.638   3.637
 9149SOL    HW128346   5.969   3.624   3.683
 9149SOL    HW228347   5.866   3.565   3.571
 9150SOL     OW28348   3.332   5.841   1.439
 9150SOL    HW128349   3.278   5.909   1.390
 9150SOL    HW228350   3.272   5.786   1.497
 9151SOL     OW28351   1.654   4.368   3.363
 9151SOL    HW128352   1.678   4.359   3.267
 9151SOL    HW228353   1.679   4.459   3.396
 9152SOL     OW28354   2.082   3.922   4.539
 9152SOL    HW128355   2.071   4.018   4.564
 9152SOL    HW228356   2.102   3.869   4.622
 9153SOL     OW28357   1.530   3.067   6.507
 9153SOL    HW128358   1.515   3.104   6.599
 9153SOL    HW228359   1.470   3.114   6.442
 9154SOL     OW28360   4.585   4.943   0.178
 9154SOL    HW128361   4.654   4.872   0.163
 9154SOL    HW228362   4.508   4.928   0.115
 9155SOL     OW28363   1.542   3.539   2.048
 9155SOL    HW128364   1.446   3.547   2.021
 9155SOL    HW228365   1.571   3.443   2.039
 9156SOL     OW28366   0.857   2.347   6.906
 9156SOL    HW128367   0.833   2.291   6.986
 9156SOL    HW228368   0.940   2.311   6.864
 9157SOL     OW28369   0.813   4.065   6.231
 9157SOL    HW128370   0.795   4.154   6.190
 9157SOL    HW228371   0.799   3.993   6.162
 9158SOL     OW28372   5.770   3.311   4.390
 9158SOL    HW128373   5.816   3.354   4.312
 9158SOL    HW228374   5.800   3.216   4.398
 9159SOL     OW28375   1.835   0.658   2.379
 9159SOL    HW128376   1.786   0.643   2.293
 9159SOL    HW228377   1.771   0.651   2.455
 9160SOL     OW28378   6.151   6.514   5.499
 9160SOL    HW128379   6.248   6.496   5.517
 9160SOL    HW228380   6.128   6.607   5.525
 9161SOL     OW28381   5.087   4.208   3.963
 9161SOL    HW128382   5.149   4.223   4.040
 9161SOL    HW228383   5.139   4.172   3.885
 9162SOL     OW28384   4.439   1.062   3.896
 9162SOL    HW128385   4.434   1.113   3.982
 9162SOL    HW228386   4.346   1.037   3.867
 9163SOL     OW28387   1.295   2.434   4.946
 9163SOL    HW128388   1.350   2.352   4.959
 9163SOL    HW228389   1.202   2.417   4.979
 9164SOL     OW28390   2.744   6.830   6.604
 9164SOL    HW128391   2.784   6.772   6.674
 9164SOL    HW228392   2.806   6.907   6.585
 9165SOL     OW28393   6.465   1.452   5.325
 9165SOL    HW128394   6.559   1.442   5.358
 9165SOL    HW228395   6.411   1.499   5.396
 9166SOL     OW28396   3.632   6.214   1.587
 9166SOL    HW128397   3.705   6.192   1.523
 9166SOL    HW228398   3.560   6.145   1.581
 9167SOL     OW28399   2.078   2.506   6.225
 9167SOL    HW128400   2.049   2.456   6.307
 9167SOL    HW228401   2.160   2.559   6.246
 9168SOL     OW28402   6.996   6.419   6.106
 9168SOL    HW128403   6.951   6.402   6.193
 9168SOL    HW228404   0.074   6.409   6.116
 9169SOL     OW28405   6.461   7.015   5.797
 9169SOL    HW128406   6.553   6.992   5.828
 9169SOL    HW228407   6.394   6.967   5.854
 9170SOL     OW28408   1.437   6.681   6.841
 9170SOL    HW128409   1.359   6.734   6.875
 9170SOL    HW228410   1.475   6.626   6.916
 9171SOL     OW28411   4.245   4.922   1.097
 9171SOL    HW128412   4.236   4.868   1.014
 9171SOL    HW228413   4.174   4.896   1.162
 9172SOL     OW28414   4.567   1.120   2.508
 9172SOL    HW128415   4.505   1.123   2.587
 9172SOL    HW228416   4.653   1.164   2.532
 9173SOL     OW28417   6.226   3.678   6.110
 9173SOL    HW128418   6.323   3.683   6.089
 9173SOL    HW228419   6.180   3.762   6.081
 9174SOL     OW28420   5.999   4.494   1.533
 9174SOL    HW128421   5.992   4.445   1.446
 9174SOL    HW228422   6.072   4.453   1.588
 9175SOL     OW28423   0.942   6.960   5.841
 9175SOL    HW128424   0.952   6.866   5.874
 9175SOL    HW228425   1.032   6.995   5.814
 9176SOL     OW28426   2.384   0.864   3.433
 9176SOL    HW128427   2.288   0.839   3.419
 9176SOL    HW228428   2.441   0.813   3.370
 9177SOL     OW28429   0.844   4.758   4.161
 9177SOL    HW128430   0.900   4.841   4.165
 9177SOL    HW228431   0.754   4.780   4.123
 9178SOL     OW28432   1.982   5.841   0.687
 9178SOL    HW128433   2.069   5.889   0.683
 9178SOL    HW228434   1.997   5.749   0.723
 9179SOL     OW28435   1.616   4.987   3.571
 9179SOL    HW128436   1.697   5.041   3.592
 9179SOL    HW228437   1.606   4.915   3.639
 9180SOL     OW28438   6.451   2.490   3.511
 9180SOL    HW128439   6.518   2.556   3.546
 9180SOL    HW228440   6.384   2.469   3.582
 9181SOL     OW28441   5.993   2.609   4.498
 9181SOL    HW128442   6.079   2.573   4.463
 9181SOL    HW228443   6.004   2.706   4.520
 9182SOL     OW28444   2.540   6.632   2.718
 9182SOL    HW128445   2.452   6.677   2.705
 9182SOL    HW228446   2.528   6.533   2.711
 9183SOL     OW28447   4.179   4.827   0.521
 9183SOL    HW128448   4.112   4.886   0.475
 9183SOL    HW228449   4.271   4.861   0.503
 9184SOL     OW28450   4.785   2.570   0.822
 9184SOL    HW128451   4.709   2.573   0.758
 9184SOL    HW228452   4.801   2.476   0.852
 9185SOL     OW28453   5.006   6.666   4.967
 9185SOL    HW128454   4.927   6.715   4.930
 9185SOL    HW228455   5.049   6.721   5.038
 9186SOL     OW28456   5.995   6.013   4.987
 9186SOL    HW128457   5.998   6.065   5.072
 9186SOL    HW228458   6.069   6.044   4.926
 9187SOL     OW28459   3.089   1.632   0.508
 9187SOL    HW128460   3.168   1.578   0.480
 9187SOL    HW228461   3.113   1.729   0.509
 9188SOL     OW28462   1.678   0.064   1.396
 9188SOL    HW128463   1.593   0.113   1.383
 9188SOL    HW228464   1.726   0.100   1.476
 9189SOL     OW28465   2.742   6.248   2.071
 9189SOL    HW128466   2.705   6.293   1.990
 9189SOL    HW228467   2.759   6.151   2.051
 9190SOL     OW28468   1.968   4.174   5.040
 9190SOL    HW128469   2.039   4.206   4.977
 9190SOL    HW228470   2.004   4.098   5.094
 9191SOL     OW28471   5.733   1.263   0.116
 9191SOL    HW128472   5.777   1.318   0.046
 9191SOL    HW228473   5.639   1.240   0.088
 9192SOL     OW28474   0.330   2.152   6.211
 9192SOL    HW128475   0.292   2.059   6.217
 9192SOL    HW228476   0.257   2.219   6.228
 9193SOL     OW28477   3.778   3.744   5.063
 9193SOL    HW128478   3.859   3.686   5.052
 9193SOL    HW228479   3.745   3.774   4.974
 9194SOL     OW28480   3.556   1.322   3.104
 9194SOL    HW128481   3.649   1.337   3.071
 9194SOL    HW228482   3.492   1.373   3.047
 9195SOL     OW28483   0.690   2.743   2.239
 9195SOL    HW128484   0.692   2.823   2.298
 9195SOL    HW228485   0.760   2.678   2.268
 9196SOL     OW28486   5.804   0.292   3.292
 9196SOL    HW128487   5.742   0.283   3.214
 9196SOL    HW228488   5.778   0.373   3.346
 9197SOL     OW28489   2.669   5.121   1.243
 9197SOL    HW128490   2.608   5.138   1.166
 9197SOL    HW228491   2.759   5.094   1.209
 9198SOL     OW28492   6.065   4.405   6.664
 9198SOL    HW128493   6.054   4.420   6.566
 9198SOL    HW228494   6.045   4.489   6.714
 9199SOL     OW28495   0.242   3.427   5.412
 9199SOL    HW128496   0.248   3.340   5.363
 9199SOL    HW228497   0.176   3.487   5.366
 9200SOL     OW28498   3.266   6.173   6.800
 9200SOL    HW128499   3.172   6.158   6.831
 9200SOL    HW228500   3.329   6.153   6.875
 9201SOL     OW28501   0.381   3.814   0.118
 9201SOL    HW128502   0.359   3.787   0.211
 9201SOL    HW228503   0.302   3.800   0.059
 9202SOL     OW28504   0.827   6.443   2.930
 9202SOL    HW128505   0.864   6.361   2.973
 9202SOL    HW228506   0.887   6.470   2.854
 9203SOL     OW28507   6.698   3.203   6.261
 9203SOL    HW128508   6.764   3.128   6.269
 9203SOL    HW228509   6.700   3.240   6.168
 9204SOL     OW28510   4.744   3.345   5.257
 9204SOL    HW128511   4.672   3.300   5.310
 9204SOL    HW228512   4.706   3.424   5.209
 9205SOL     OW28513   5.221   6.124   3.204
 9205SOL    HW128514   5.310   6.161   3.229
 9205SOL    HW228515   5.173   6.093   3.286
 9206SOL     OW28516   3.208   4.875   3.574
 9206SOL    HW128517   3.190   4.971   3.597
 9206SOL    HW228518   3.279   4.871   3.504
 9207SOL     OW28519   5.002   4.461   6.555
 9207SOL    HW128520   5.091   4.456   6.601
 9207SOL    HW228521   4.940   4.393   6.595
 9208SOL     OW28522   5.909   4.670   3.737
 9208SOL    HW128523   5.916   4.768   3.758
 9208SOL    HW228524   5.910   4.658   3.638
 9209SOL     OW28525   4.365   0.674   0.433
 9209SOL    HW128526   4.300   0.709   0.501
 9209SOL    HW228527   4.368   0.737   0.355
 9210SOL     OW28528   1.226   1.981   2.142
 9210SOL    HW128529   1.202   2.047   2.213
 9210SOL    HW228530   1.196   2.015   2.053
 9211SOL     OW28531   6.664   3.125   5.590
 9211SOL    HW128532   6.661   3.068   5.672
 9211SOL    HW228533   6.674   3.066   5.509
 9212SOL     OW28534   4.269   5.774   4.562
 9212SOL    HW128535   4.278   5.747   4.658
 9212SOL    HW228536   4.182   5.740   4.527
 9213SOL     OW28537   5.481   4.356   5.265
 9213SOL    HW128538   5.402   4.381   5.208
 9213SOL    HW228539   5.532   4.283   5.221
 9214SOL     OW28540   0.207   3.529   5.662
 9214SOL    HW128541   0.159   3.447   5.694
 9214SOL    HW228542   0.246   3.511   5.571
 9215SOL     OW28543   2.113   3.303   2.127
 9215SOL    HW128544   2.078   3.239   2.059
 9215SOL    HW228545   2.165   3.375   2.082
 9216SOL     OW28546   2.967   6.945   3.147
 9216SOL    HW128547   3.024   6.988   3.076
 9216SOL    HW228548   2.878   6.990   3.149
 9217SOL     OW28549   6.647   3.489   6.659
 9217SOL    HW128550   6.554   3.471   6.624
 9217SOL    HW228551   6.711   3.426   6.615
 9218SOL     OW28552   2.685   0.830   6.787
 9218SOL    HW128553   2.619   0.813   6.860
 9218SOL    HW228554   2.654   0.907   6.731
 9219SOL     OW28555   5.588   3.852   6.785
 9219SOL    HW128556   5.626   3.851   6.878
 9219SOL    HW228557   5.589   3.945   6.749
 9220SOL     OW28558   0.916   5.907   1.491
 9220SOL    HW128559   0.833   5.963   1.501
 9220SOL    HW228560   0.912   5.830   1.554
 9221SOL     OW28561   1.787   0.712   2.917
 9221SOL    HW128562   1.878   0.752   2.929
 9221SOL    HW228563   1.796   0.620   2.879
 9222SOL     OW28564   2.644   5.624   5.905
 9222SOL    HW128565   2.577   5.557   5.937
 9222SOL    HW228566   2.651   5.618   5.805
 9223SOL     OW28567   1.138   1.964   3.853
 9223SOL    HW128568   1.147   1.912   3.937
 9223SOL    HW228569   1.068   1.923   3.795
 9224SOL     OW28570   0.978   5.454   4.206
 9224SOL    HW128571   0.879   5.440   4.204
 9224SOL    HW228572   1.002   5.534   4.150
 9225SOL     OW28573   3.344   5.945   6.265
 9225SOL    HW128574   3.249   5.944   6.234
 9225SOL    HW228575   3.347   5.978   6.360
 9226SOL     OW28576   6.718   6.474   1.193
 9226SOL    HW128577   6.685   6.563   1.224
 9226SOL    HW228578   6.643   6.424   1.150
 9227SOL     OW28579   2.034   5.941   1.445
 9227SOL    HW128580   1.937   5.926   1.464
 9227SOL    HW228581   2.054   6.039   1.449
 9228SOL     OW28582   2.733   1.578   6.252
 9228SOL    HW128583   2.802   1.536   6.312
 9228SOL    HW228584   2.763   1.570   6.157
 9229SOL     OW28585   1.560   5.513   4.914
 9229SOL    HW128586   1.547   5.592   4.854
 9229SOL    HW228587   1.656   5.508   4.941
 9230SOL     OW28588   5.325   2.914   3.553
 9230SOL    HW128589   5.233   2.884   3.578
 9230SOL    HW228590   5.323   3.009   3.524
 9231SOL     OW28591   1.016   2.980   4.430
 9231SOL    HW128592   1.057   2.999   4.340
 9231SOL    HW228593   1.076   3.015   4.502
 9232SOL     OW28594   3.444   5.427   6.657
 9232SOL    HW128595   3.440   5.501   6.725
 9232SOL    HW228596   3.424   5.340   6.702
 9233SOL     OW28597   5.882   5.785   2.074
 9233SOL    HW128598   5.928   5.873   2.067
 9233SOL    HW228599   5.851   5.771   2.168
 9234SOL     OW28600   3.881   5.311   6.557
 9234SOL    HW128601   3.972   5.325   6.596
 9234SOL    HW228602   3.886   5.245   6.482
 9235SOL     OW28603   1.498   3.177   3.837
 9235SOL    HW128604   1.494   3.080   3.815
 9235SOL    HW228605   1.444   3.195   3.920
 9236SOL     OW28606   1.720   4.411   6.028
 9236SOL    HW128607   1.689   4.323   5.991
 9236SOL    HW228608   1.758   4.397   6.119
 9237SOL     OW28609   0.468   6.555   4.127
 9237SOL    HW128610   0.414   6.615   4.068
 9237SOL    HW228611   0.424   6.466   4.135
 9238SOL     OW28612   2.123   1.930   0.083
 9238SOL    HW128613   2.207   1.938   0.136
 9238SOL    HW228614   2.051   1.890   0.139
 9239SOL     OW28615   6.694   3.988   0.183
 9239SOL    HW128616   6.711   3.896   0.219
 9239SOL    HW228617   6.729   3.994   0.089
 9240SOL     OW28618   4.978   2.197   1.866
 9240SOL    HW128619   4.893   2.145   1.861
 9240SOL    HW228620   4.961   2.285   1.909
 9241SOL     OW28621   1.406   5.192   5.697
 9241SOL    HW128622   1.325   5.137   5.676
 9241SOL    HW228623   1.488   5.144   5.666
 9242SOL     OW28624   1.302   5.084   0.042
 9242SOL    HW128625   1.265   5.096   0.134
 9242SOL    HW228626   1.330   4.989   0.030
 9243SOL     OW28627   6.991   6.793   1.764
 9243SOL    HW128628   6.981   6.703   1.720
 9243SOL    HW228629   0.016   6.856   1.702
 9244SOL     OW28630   3.943   5.124   6.115
 9244SOL    HW128631   3.993   5.211   6.107
 9244SOL    HW228632   3.855   5.132   6.068
 9245SOL     OW28633   1.119   5.206   3.662
 9245SOL    HW128634   1.042   5.171   3.716
 9245SOL    HW228635   1.205   5.172   3.701
 9246SOL     OW28636   6.090   5.867   2.440
 9246SOL    HW128637   6.135   5.824   2.362
 9246SOL    HW228638   6.070   5.962   2.418
 9247SOL     OW28639   1.824   6.491   3.674
 9247SOL    HW128640   1.791   6.450   3.759
 9247SOL    HW228641   1.913   6.452   3.651
 9248SOL     OW28642   2.378   2.247   4.920
 9248SOL    HW128643   2.449   2.287   4.978
 9248SOL    HW228644   2.289   2.262   4.962
 9249SOL     OW28645   3.667   3.458   0.903
 9249SOL    HW128646   3.686   3.360   0.912
 9249SOL    HW228647   3.574   3.477   0.933
 9250SOL     OW28648   5.961   2.961   3.994
 9250SOL    HW128649   5.993   2.911   4.075
 9250SOL    HW228650   6.035   2.966   3.927
 9251SOL     OW28651   3.682   1.848   2.755
 9251SOL    HW128652   3.657   1.940   2.784
 9251SOL    HW228653   3.673   1.840   2.656
 9252SOL     OW28654   4.910   0.084   3.902
 9252SOL    HW128655   4.999   0.096   3.945
 9252SOL    HW228656   4.919   0.094   3.803
 9253SOL     OW28657   5.745   5.975   5.983
 9253SOL    HW128658   5.811   6.039   6.023
 9253SOL    HW228659   5.789   5.886   5.968
 9254SOL     OW28660   5.846   4.970   2.874
 9254SOL    HW128661   5.790   4.983   2.792
 9254SOL    HW228662   5.930   5.024   2.865
 9255SOL     OW28663   4.529   4.158   0.101
 9255SOL    HW128664   4.468   4.083   0.076
 9255SOL    HW228665   4.513   4.183   0.197
 9256SOL     OW28666   2.923   0.505   2.948
 9256SOL    HW128667   2.997   0.549   2.896
 9256SOL    HW228668   2.959   0.424   2.995
 9257SOL     OW28669   0.568   3.921   3.108
 9257SOL    HW128670   0.560   3.838   3.054
 9257SOL    HW228671   0.565   3.899   3.206
 9258SOL     OW28672   3.165   2.991   2.516
 9258SOL    HW128673   3.102   2.935   2.463
 9258SOL    HW228674   3.133   3.086   2.517
 9259SOL     OW28675   0.891   2.510   0.258
 9259SOL    HW128676   0.888   2.560   0.172
 9259SOL    HW228677   0.970   2.448   0.258
 9260SOL     OW28678   6.329   1.424   5.047
 9260SOL    HW128679   6.244   1.461   5.009
 9260SOL    HW228680   6.363   1.487   5.118
 9261SOL     OW28681   2.394   1.379   0.596
 9261SOL    HW128682   2.389   1.450   0.526
 9261SOL    HW228683   2.489   1.365   0.623
 9262SOL     OW28684   6.907   5.123   5.177
 9262SOL    HW128685   6.937   5.200   5.119
 9262SOL    HW228686   6.987   5.071   5.207
 9263SOL     OW28687   5.074   6.767   0.958
 9263SOL    HW128688   5.108   6.734   1.047
 9263SOL    HW228689   4.988   6.722   0.937
 9264SOL     OW28690   4.706   4.721   0.480
 9264SOL    HW128691   4.616   4.758   0.501
 9264SOL    HW228692   4.696   4.631   0.438
 9265SOL     OW28693   3.229   1.760   0.746
 9265SOL    HW128694   3.178   1.802   0.821
 9265SOL    HW228695   3.233   1.824   0.669
 9266SOL     OW28696   2.168   7.006   1.273
 9266SOL    HW128697   2.150   6.915   1.237
 9266SOL    HW228698   2.173   0.051   1.198
 9267SOL     OW28699   6.911   2.898   4.365
 9267SOL    HW128700   6.876   2.950   4.444
 9267SOL    HW228701   6.995   2.940   4.332
 9268SOL     OW28702   0.797   5.303   2.846
 9268SOL    HW128703   0.847   5.376   2.800
 9268SOL    HW228704   0.719   5.275   2.789
 9269SOL     OW28705   3.572   1.684   6.271
 9269SOL    HW128706   3.642   1.671   6.200
 9269SOL    HW228707   3.544   1.780   6.272
 9270SOL     OW28708   4.433   7.011   6.596
 9270SOL    HW128709   4.385   6.971   6.518
 9270SOL    HW228710   4.399   0.082   6.612
 9271SOL     OW28711   5.773   0.046   0.745
 9271SOL    HW128712   5.797   0.139   0.720
 9271SOL    HW228713   5.826   7.002   0.690
 9272SOL     OW28714   1.113   6.070   4.973
 9272SOL    HW128715   1.140   6.008   4.900
 9272SOL    HW228716   1.117   6.165   4.940
 9273SOL     OW28717   5.861   6.803   2.981
 9273SOL    HW128718   5.923   6.831   3.055
 9273SOL    HW228719   5.796   6.877   2.963
 9274SOL     OW28720   6.295   1.845   6.812
 9274SOL    HW128721   6.208   1.797   6.815
 9274SOL    HW228722   6.287   1.928   6.756
 9275SOL     OW28723   6.477   0.796   0.624
 9275SOL    HW128724   6.386   0.756   0.617
 9275SOL    HW228725   6.490   0.832   0.716
 9276SOL     OW28726   1.810   3.586   1.644
 9276SOL    HW128727   1.758   3.519   1.592
 9276SOL    HW228728   1.830   3.550   1.735
 9277SOL     OW28729   4.659   3.710   0.258
 9277SOL    HW128730   4.589   3.677   0.321
 9277SOL    HW228731   4.627   3.702   0.164
 9278SOL     OW28732   1.882   0.464   5.743
 9278SOL    HW128733   1.938   0.541   5.774
 9278SOL    HW228734   1.806   0.450   5.806
 9279SOL     OW28735   4.353   1.383   2.402
 9279SOL    HW128736   4.436   1.345   2.361
 9279SOL    HW228737   4.290   1.411   2.330
 9280SOL     OW28738   1.893   2.097   3.313
 9280SOL    HW128739   1.803   2.105   3.270
 9280SOL    HW228740   1.882   2.076   3.410
 9281SOL     OW28741   2.332   3.703   6.898
 9281SOL    HW128742   2.313   3.630   6.963
 9281SOL    HW228743   2.293   3.678   6.809
 9282SOL     OW28744   5.071   0.960   3.582
 9282SOL    HW128745   5.125   1.038   3.613
 9282SOL    HW228746   4.987   0.954   3.636
 9283SOL     OW28747   5.817   0.431   4.112
 9283SOL    HW128748   5.810   0.441   4.211
 9283SOL    HW228749   5.727   0.446   4.070
 9284SOL     OW28750   3.282   3.242   5.088
 9284SOL    HW128751   3.335   3.320   5.121
 9284SOL    HW228752   3.339   3.185   5.029
 9285SOL     OW28753   5.242   2.597   0.869
 9285SOL    HW128754   5.154   2.603   0.916
 9285SOL    HW228755   5.235   2.641   0.779
 9286SOL     OW28756   5.366   5.742   0.920
 9286SOL    HW128757   5.456   5.723   0.958
 9286SOL    HW228758   5.360   5.838   0.892
 9287SOL     OW28759   2.891   4.588   6.810
 9287SOL    HW128760   2.862   4.529   6.886
 9287SOL    HW228761   2.986   4.616   6.824
 9288SOL     OW28762   4.700   1.205   3.353
 9288SOL    HW128763   4.637   1.263   3.405
 9288SOL    HW228764   4.649   1.135   3.303
 9289SOL     OW28765   3.920   1.348   2.334
 9289SOL    HW128766   3.992   1.292   2.375
 9289SOL    HW228767   3.834   1.297   2.332
 9290SOL     OW28768   5.754   1.320   2.965
 9290SOL    HW128769   5.688   1.264   3.014
 9290SOL    HW228770   5.709   1.367   2.888
 9291SOL     OW28771   1.406   6.193   4.161
 9291SOL    HW128772   1.475   6.193   4.234
 9291SOL    HW228773   1.315   6.192   4.202
 9292SOL     OW28774   1.982   2.723   6.734
 9292SOL    HW128775   2.057   2.668   6.771
 9292SOL    HW228776   1.964   2.697   6.639
 9293SOL     OW28777   5.315   3.202   6.580
 9293SOL    HW128778   5.365   3.146   6.646
 9293SOL    HW228779   5.239   3.248   6.626
 9294SOL     OW28780   4.141   0.748   5.741
 9294SOL    HW128781   4.155   0.722   5.646
 9294SOL    HW228782   4.101   0.840   5.746
 9295SOL     OW28783   5.331   1.743   4.957
 9295SOL    HW128784   5.232   1.741   4.971
 9295SOL    HW228785   5.365   1.836   4.967
 9296SOL     OW28786   1.492   5.573   6.713
 9296SOL    HW128787   1.525   5.667   6.726
 9296SOL    HW228788   1.399   5.566   6.749
 9297SOL     OW28789   6.868   0.075   1.889
 9297SOL    HW128790   6.771   0.100   1.877
 9297SOL    HW228791   6.893   0.006   1.822
 9298SOL     OW28792   1.337   6.686   6.040
 9298SOL    HW128793   1.287   6.704   6.124
 9298SOL    HW228794   1.301   6.604   5.996
 9299SOL     OW28795   0.531   2.622   5.260
 9299SOL    HW128796   0.605   2.556   5.265
 9299SOL    HW228797   0.565   2.708   5.221
 9300SOL     OW28798   0.148   4.677   5.765
 9300SOL    HW128799   0.070   4.723   5.806
 9300SOL    HW228800   0.120   4.634   5.679
 9301SOL     OW28801   5.164   5.154   3.986
 9301SOL    HW128802   5.201   5.062   3.995
 9301SOL    HW228803   5.079   5.162   4.039
 9302SOL     OW28804   2.491   2.651   4.500
 9302SOL    HW128805   2.522   2.694   4.415
 9302SOL    HW228806   2.517   2.554   4.498
 9303SOL     OW28807   2.695   3.929   0.716
 9303SOL    HW128808   2.620   3.985   0.751
 9303SOL    HW228809   2.686   3.919   0.617
 9304SOL     OW28810   4.181   4.936   1.766
 9304SOL    HW128811   4.267   4.954   1.718
 9304SOL    HW228812   4.123   4.878   1.709
 9305SOL     OW28813   3.284   1.262   0.838
 9305SOL    HW128814   3.318   1.356   0.827
 9305SOL    HW228815   3.185   1.263   0.847
 9306SOL     OW28816   0.189   5.476   4.902
 9306SOL    HW128817   0.170   5.574   4.905
 9306SOL    HW228818   0.287   5.461   4.911
 9307SOL     OW28819   1.735   3.350   1.509
 9307SOL    HW128820   1.810   3.332   1.445
 9307SOL    HW228821   1.648   3.323   1.467
 9308SOL     OW28822   2.318   3.323   0.594
 9308SOL    HW128823   2.386   3.316   0.521
 9308SOL    HW228824   2.359   3.365   0.674
 9309SOL     OW28825   3.522   4.500   5.721
 9309SOL    HW128826   3.572   4.416   5.699
 9309SOL    HW228827   3.518   4.512   5.820
 9310SOL     OW28828   4.942   5.145   6.862
 9310SOL    HW128829   4.951   5.056   6.817
 9310SOL    HW228830   5.030   5.193   6.859
 9311SOL     OW28831   4.653   4.847   1.832
 9311SOL    HW128832   4.578   4.880   1.890
 9311SOL    HW228833   4.709   4.783   1.884
 9312SOL     OW28834   1.111   3.706   1.218
 9312SOL    HW128835   1.155   3.749   1.140
 9312SOL    HW228836   1.176   3.703   1.295
 9313SOL     OW28837   0.645   0.765   0.921
 9313SOL    HW128838   0.553   0.755   0.883
 9313SOL    HW228839   0.695   0.678   0.911
 9314SOL     OW28840   5.375   4.845   6.944
 9314SOL    HW128841   5.339   4.842   6.851
 9314SOL    HW228842   5.429   4.928   6.955
 9315SOL     OW28843   6.318   0.065   5.106
 9315SOL    HW128844   6.250   0.043   5.175
 9315SOL    HW228845   6.305   0.160   5.075
 9316SOL     OW28846   5.426   6.446   5.832
 9316SOL    HW128847   5.378   6.442   5.744
 9316SOL    HW228848   5.513   6.397   5.824
 9317SOL     OW28849   5.369   4.931   3.516
 9317SOL    HW128850   5.302   4.958   3.586
 9317SOL    HW228851   5.323   4.925   3.427
 9318SOL     OW28852   5.526   0.646   5.835
 9318SOL    HW128853   5.513   0.651   5.934
 9318SOL    HW228854   5.529   0.550   5.807
 9319SOL     OW28855   2.529   2.859   0.073
 9319SOL    HW128856   2.443   2.832   0.116
 9319SOL    HW228857   2.525   2.840   6.996
 9320SOL     OW28858   3.497   0.888   5.285
 9320SOL    HW128859   3.493   0.799   5.331
 9320SOL    HW228860   3.413   0.903   5.233
 9321SOL     OW28861   0.178   0.630   4.227
 9321SOL    HW128862   0.172   0.694   4.150
 9321SOL    HW228863   0.244   0.558   4.205
 9322SOL     OW28864   6.942   3.514   6.479
 9322SOL    HW128865   6.893   3.428   6.469
 9322SOL    HW228866   6.883   3.589   6.447
 9323SOL     OW28867   1.368   0.615   5.787
 9323SOL    HW128868   1.307   0.626   5.708
 9323SOL    HW228869   1.387   0.518   5.801
 9324SOL     OW28870   1.234   4.243   1.118
 9324SOL    HW128871   1.329   4.247   1.149
 9324SOL    HW228872   1.174   4.263   1.196
 9325SOL     OW28873   5.901   0.792   0.054
 9325SOL    HW128874   5.906   0.742   6.988
 9325SOL    HW228875   5.835   0.866   0.046
 9326SOL     OW28876   2.508   5.411   0.725
 9326SOL    HW128877   2.569   5.420   0.646
 9326SOL    HW228878   2.444   5.337   0.710
 9327SOL     OW28879   5.235   0.396   2.987
 9327SOL    HW128880   5.242   0.301   3.017
 9327SOL    HW228881   5.150   0.436   3.023
 9328SOL     OW28882   2.531   1.144   5.044
 9328SOL    HW128883   2.615   1.098   5.073
 9328SOL    HW228884   2.537   1.242   5.063
 9329SOL     OW28885   6.302   3.700   1.161
 9329SOL    HW128886   6.276   3.610   1.125
 9329SOL    HW228887   6.219   3.753   1.181
 9330SOL     OW28888   6.809   0.201   5.650
 9330SOL    HW128889   6.731   0.251   5.613
 9330SOL    HW228890   6.848   0.253   5.726
 9331SOL     OW28891   1.840   0.779   0.335
 9331SOL    HW128892   1.752   0.763   0.380
 9331SOL    HW228893   1.827   0.783   0.236
 9332SOL     OW28894   4.263   4.222   1.063
 9332SOL    HW128895   4.296   4.231   1.157
 9332SOL    HW228896   4.260   4.125   1.038
 9333SOL     OW28897   3.946   3.877   6.959
 9333SOL    HW128898   3.993   3.800   7.002
 9333SOL    HW228899   3.872   3.843   6.902
 9334SOL     OW28900   5.816   5.977   3.561
 9334SOL    HW128901   5.864   5.938   3.640
 9334SOL    HW228902   5.717   5.977   3.579
 9335SOL     OW28903   0.932   1.000   6.702
 9335SOL    HW128904   0.908   0.924   6.642
 9335SOL    HW228905   0.967   1.076   6.646
 9336SOL     OW28906   3.705   5.806   5.953
 9336SOL    HW128907   3.693   5.890   5.900
 9336SOL    HW228908   3.617   5.778   5.991
 9337SOL     OW28909   3.774   1.345   4.566
 9337SOL    HW128910   3.769   1.372   4.469
 9337SOL    HW228911   3.868   1.353   4.598
 9338SOL     OW28912   5.712   6.799   1.607
 9338SOL    HW128913   5.787   6.865   1.614
 9338SOL    HW228914   5.645   6.818   1.680
 9339SOL     OW28915   6.080   6.527   1.200
 9339SOL    HW128916   6.009   6.526   1.270
 9339SOL    HW228917   6.160   6.575   1.235
 9340SOL     OW28918   4.383   4.641   3.801
 9340SOL    HW128919   4.286   4.665   3.808
 9340SOL    HW228920   4.414   4.654   3.706
 9341SOL     OW28921   0.153   5.330   1.035
 9341SOL    HW128922   0.112   5.403   0.979
 9341SOL    HW228923   0.103   5.245   1.019
 9342SOL     OW28924   3.294   6.290   3.664
 9342SOL    HW128925   3.390   6.285   3.691
 9342SOL    HW228926   3.270   6.385   3.645
 9343SOL     OW28927   5.573   4.359   1.691
 9343SOL    HW128928   5.611   4.451   1.682
 9343SOL    HW228929   5.604   4.319   1.778
 9344SOL     OW28930   5.071   6.955   2.909
 9344SOL    HW128931   5.124   6.873   2.931
 9344SOL    HW228932   4.974   6.937   2.925
 9345SOL     OW28933   6.677   5.746   1.858
 9345SOL    HW128934   6.738   5.748   1.779
 9345SOL    HW228935   6.732   5.735   1.941
 9346SOL     OW28936   5.517   1.142   1.326
 9346SOL    HW128937   5.567   1.170   1.245
 9346SOL    HW228938   5.423   1.118   1.301
 9347SOL     OW28939   3.159   3.672   0.208
 9347SOL    HW128940   3.142   3.597   0.272
 9347SOL    HW228941   3.082   3.737   0.210
 9348SOL     OW28942   2.853   6.598   2.680
 9348SOL    HW128943   2.756   6.611   2.699
 9348SOL    HW228944   2.904   6.600   2.766
 9349SOL     OW28945   6.385   5.139   2.834
 9349SOL    HW128946   6.456   5.068   2.838
 9349SOL    HW228947   6.420   5.218   2.783
 9350SOL     OW28948   6.883   2.756   5.100
 9350SOL    HW128949   6.844   2.668   5.124
 9350SOL    HW228950   6.974   2.742   5.059
 9351SOL     OW28951   2.889   6.374   6.622
 9351SOL    HW128952   2.952   6.297   6.634
 9351SOL    HW228953   2.828   6.356   6.545
 9352SOL     OW28954   3.960   1.917   6.065
 9352SOL    HW128955   3.960   1.981   5.987
 9352SOL    HW228956   3.904   1.955   6.138
 9353SOL     OW28957   0.919   4.359   0.913
 9353SOL    HW128958   0.990   4.318   0.971
 9353SOL    HW228959   0.841   4.296   0.906
 9354SOL     OW28960   0.299   1.883   6.287
 9354SOL    HW128961   0.272   1.806   6.230
 9354SOL    HW228962   0.398   1.880   6.303
 9355SOL     OW28963   0.291   1.972   4.420
 9355SOL    HW128964   0.303   2.036   4.344
 9355SOL    HW228965   0.258   2.021   4.500
 9356SOL     OW28966   4.560   6.781   2.251
 9356SOL    HW128967   4.583   6.742   2.341
 9356SOL    HW228968   4.472   6.745   2.220
 9357SOL     OW28969   1.355   3.709   6.536
 9357SOL    HW128970   1.315   3.647   6.469
 9357SOL    HW228971   1.304   3.703   6.622
 9358SOL     OW28972   0.316   2.672   1.938
 9358SOL    HW128973   0.381   2.741   1.908
 9358SOL    HW228974   0.344   2.635   2.027
 9359SOL     OW28975   1.918   4.008   5.376
 9359SOL    HW128976   1.942   4.080   5.441
 9359SOL    HW228977   1.968   4.022   5.291
 9360SOL     OW28978   0.928   4.802   6.777
 9360SOL    HW128979   0.955   4.833   6.868
 9360SOL    HW228980   0.847   4.854   6.747
 9361SOL     OW28981   1.254   5.257   2.712
 9361SOL    HW128982   1.339   5.206   2.697
 9361SOL    HW228983   1.259   5.305   2.799
 9362SOL     OW28984   1.884   2.719   3.118
 9362SOL    HW128985   1.890   2.679   3.027
 9362SOL    HW228986   1.934   2.661   3.183
 9363SOL     OW28987   3.289   6.573   1.349
 9363SOL    HW128988   3.342   6.653   1.321
 9363SOL    HW228989   3.328   6.491   1.307
 9364SOL     OW28990   2.943   3.408   6.500
 9364SOL    HW128991   2.973   3.315   6.483
 9364SOL    HW228992   3.020   3.471   6.486
 9365SOL     OW28993   2.439   2.018   3.840
 9365SOL    HW128994   2.518   1.982   3.889
 9365SOL    HW228995   2.355   1.982   3.882
 9366SOL     OW28996   3.741   5.414   5.931
 9366SOL    HW128997   3.778   5.459   6.013
 9366SOL    HW228998   3.715   5.320   5.953
 9367SOL     OW28999   6.797   6.433   2.616
 9367SOL    HW129000   6.829   6.413   2.709
 9367SOL    HW229001   6.857   6.501   2.575
 9368SOL     OW29002   3.180   0.593   2.862
 9368SOL    HW129003   3.165   0.636   2.950
 9368SOL    HW229004   3.262   0.632   2.820
 9369SOL     OW29005   6.990   6.540   4.261
 9369SOL    HW129006   6.955   6.623   4.305
 9369SOL    HW229007   6.915   6.479   4.239
 9370SOL     OW29008   5.404   0.639   3.921
 9370SOL    HW129009   5.388   0.736   3.939
 9370SOL    HW229010   5.342   0.584   3.977
 9371SOL     OW29011   2.560   4.941   0.328
 9371SOL    HW129012   2.658   4.927   0.335
 9371SOL    HW229013   2.524   4.977   0.414
 9372SOL     OW29014   4.651   0.388   1.665
 9372SOL    HW129015   4.732   0.375   1.607
 9372SOL    HW229016   4.666   0.466   1.725
 9373SOL     OW29017   4.528   1.947   1.612
 9373SOL    HW129018   4.459   2.014   1.585
 9373SOL    HW229019   4.601   1.945   1.545
 9374SOL     OW29020   0.441   3.061   0.576
 9374SOL    HW129021   0.464   2.973   0.534
 9374SOL    HW229022   0.522   3.120   0.576
 9375SOL     OW29023   0.725   1.676   1.221
 9375SOL    HW129024   0.675   1.589   1.219
 9375SOL    HW229025   0.672   1.747   1.174
 9376SOL     OW29026   2.212   3.991   1.395
 9376SOL    HW129027   2.278   3.919   1.414
 9376SOL    HW229028   2.205   4.051   1.474
 9377SOL     OW29029   1.893   5.332   3.243
 9377SOL    HW129030   1.982   5.373   3.224
 9377SOL    HW229031   1.822   5.403   3.236
 9378SOL     OW29032   2.431   1.126   3.495
 9378SOL    HW129033   2.398   1.031   3.489
 9378SOL    HW229034   2.525   1.131   3.463
 9379SOL     OW29035   4.597   0.227   5.446
 9379SOL    HW129036   4.638   0.299   5.390
 9379SOL    HW229037   4.670   0.175   5.491
 9380SOL     OW29038   4.029   5.637   5.705
 9380SOL    HW129039   4.107   5.605   5.760
 9380SOL    HW229040   3.983   5.558   5.663
 9381SOL     OW29041   5.025   2.751   5.743
 9381SOL    HW129042   5.118   2.714   5.741
 9381SOL    HW229043   5.026   2.841   5.787
 9382SOL     OW29044   3.797   0.539   4.003
 9382SOL    HW129045   3.811   0.603   4.078
 9382SOL    HW229046   3.797   0.588   3.916
 9383SOL     OW29047   5.484   5.263   4.600
 9383SOL    HW129048   5.423   5.330   4.558
 9383SOL    HW229049   5.558   5.311   4.648
 9384SOL     OW29050   4.291   0.469   2.297
 9384SOL    HW129051   4.260   0.503   2.208
 9384SOL    HW229052   4.237   0.389   2.322
 9385SOL     OW29053   4.617   1.508   3.781
 9385SOL    HW129054   4.604   1.586   3.719
 9385SOL    HW229055   4.666   1.538   3.862
 9386SOL     OW29056   3.361   5.880   5.272
 9386SOL    HW129057   3.409   5.884   5.185
 9386SOL    HW229058   3.268   5.844   5.258
 9387SOL     OW29059   2.649   2.061   0.224
 9387SOL    HW129060   2.711   2.053   0.302
 9387SOL    HW229061   2.587   1.982   0.222
 9388SOL     OW29062   2.676   5.741   3.206
 9388SOL    HW129063   2.586   5.780   3.221
 9388SOL    HW229064   2.677   5.646   3.238
 9389SOL     OW29065   2.355   0.137   3.329
 9389SOL    HW129066   2.342   0.237   3.325
 9389SOL    HW229067   2.275   0.095   3.373
 9390SOL     OW29068   5.245   4.486   6.728
 9390SOL    HW129069   5.344   4.492   6.721
 9390SOL    HW229070   5.220   4.431   6.808
 9391SOL     OW29071   1.172   0.744   5.650
 9391SOL    HW129072   1.204   0.826   5.697
 9391SOL    HW229073   1.106   0.770   5.579
 9392SOL     OW29074   5.155   5.522   5.644
 9392SOL    HW129075   5.214   5.473   5.579
 9392SOL    HW229076   5.063   5.483   5.641
 9393SOL     OW29077   2.533   0.180   5.983
 9393SOL    HW129078   2.633   0.181   5.987
 9393SOL    HW229079   2.496   0.228   6.062
 9394SOL     OW29080   6.654   0.948   1.709
 9394SOL    HW129081   6.644   0.852   1.736
 9394SOL    HW229082   6.671   0.952   1.610
 9395SOL     OW29083   2.694   0.535   1.404
 9395SOL    HW129084   2.683   0.606   1.334
 9395SOL    HW229085   2.771   0.559   1.463
 9396SOL     OW29086   2.225   3.952   4.274
 9396SOL    HW129087   2.289   4.027   4.291
 9396SOL    HW229088   2.165   3.942   4.354
 9397SOL     OW29089   3.599   6.041   6.217
 9397SOL    HW129090   3.654   5.965   6.250
 9397SOL    HW229091   3.504   6.012   6.207
 9398SOL     OW29092   6.260   1.004   5.113
 9398SOL    HW129093   6.163   1.029   5.119
 9398SOL    HW229094   6.315   1.079   5.149
 9399SOL     OW29095   0.857   2.869   5.200
 9399SOL    HW129096   0.895   2.812   5.127
 9399SOL    HW229097   0.925   2.937   5.227
 9400SOL     OW29098   5.262   1.034   1.237
 9400SOL    HW129099   5.224   1.094   1.308
 9400SOL    HW229100   5.246   1.076   1.147
 9401SOL     OW29101   6.842   1.671   2.792
 9401SOL    HW129102   6.775   1.607   2.754
 9401SOL    HW229103   6.934   1.643   2.764
 9402SOL     OW29104   1.417   4.611   3.241
 9402SOL    HW129105   1.398   4.701   3.282
 9402SOL    HW229106   1.447   4.548   3.313
 9403SOL     OW29107   6.329   1.321   1.985
 9403SOL    HW129108   6.317   1.235   2.035
 9403SOL    HW229109   6.265   1.389   2.019
 9404SOL     OW29110   0.797   1.943   0.836
 9404SOL    HW129111   0.704   1.979   0.829
 9404SOL    HW229112   0.848   1.967   0.754
 9405SOL     OW29113   2.089   4.291   3.683
 9405SOL    HW129114   2.110   4.208   3.736
 9405SOL    HW229115   2.116   4.277   3.588
 9406SOL     OW29116   0.900   2.440   6.319
 9406SOL    HW129117   0.927   2.347   6.344
 9406SOL    HW229118   0.971   2.481   6.262
 9407SOL     OW29119   2.233   5.197   3.677
 9407SOL    HW129120   2.255   5.214   3.581
 9407SOL    HW229121   2.317   5.174   3.726
 9408SOL     OW29122   6.807   3.620   6.066
 9408SOL    HW129123   6.898   3.659   6.054
 9408SOL    HW229124   6.750   3.642   5.987
 9409SOL     OW29125   6.494   5.687   1.303
 9409SOL    HW129126   6.523   5.637   1.222
 9409SOL    HW229127   6.423   5.635   1.351
 9410SOL     OW29128   2.224   0.771   2.435
 9410SOL    HW129129   2.261   0.804   2.522
 9410SOL    HW229130   2.163   0.693   2.453
 9411SOL     OW29131   3.617   3.305   3.422
 9411SOL    HW129132   3.681   3.358   3.368
 9411SOL    HW229133   3.641   3.208   3.416
 9412SOL     OW29134   1.808   1.190   2.159
 9412SOL    HW129135   1.843   1.099   2.182
 9412SOL    HW229136   1.788   1.240   2.243
 9413SOL     OW29137   4.869   4.691   3.273
 9413SOL    HW129138   4.914   4.776   3.245
 9413SOL    HW229139   4.929   4.613   3.253
 9414SOL     OW29140   2.608   1.275   3.853
 9414SOL    HW129141   2.573   1.368   3.864
 9414SOL    HW229142   2.564   1.214   3.920
 9415SOL     OW29143   1.996   0.171   2.509
 9415SOL    HW129144   2.083   0.137   2.474
 9415SOL    HW229145   1.940   0.206   2.434
 9416SOL     OW29146   0.385   0.952   6.035
 9416SOL    HW129147   0.453   1.017   6.002
 9416SOL    HW229148   0.314   0.939   5.965
 9417SOL     OW29149   3.404   0.837   1.394
 9417SOL    HW129150   3.420   0.792   1.306
 9417SOL    HW229151   3.391   0.767   1.464
 9418SOL     OW29152   1.785   1.308   1.202
 9418SOL    HW129153   1.761   1.374   1.273
 9418SOL    HW229154   1.872   1.263   1.225
 9419SOL     OW29155   2.033   3.582   6.701
 9419SOL    HW129156   1.979   3.577   6.785
 9419SOL    HW229157   2.074   3.493   6.683
 9420SOL     OW29158   6.069   4.790   0.677
 9420SOL    HW129159   6.137   4.862   0.660
 9420SOL    HW229160   6.113   4.700   0.672
 9421SOL     OW29161   3.124   6.131   4.951
 9421SOL    HW129162   3.031   6.138   4.916
 9421SOL    HW229163   3.182   6.198   4.904
 9422SOL     OW29164   2.924   5.485   3.054
 9422SOL    HW129165   2.964   5.471   2.964
 9422SOL    HW229166   2.992   5.527   3.115
 9423SOL     OW29167   3.908   6.311   3.564
 9423SOL    HW129168   3.987   6.273   3.516
 9423SOL    HW229169   3.903   6.410   3.546
 9424SOL     OW29170   4.905   2.184   4.175
 9424SOL    HW129171   4.824   2.126   4.180
 9424SOL    HW229172   4.977   2.137   4.124
 9425SOL     OW29173   5.277   4.094   1.659
 9425SOL    HW129174   5.199   4.141   1.700
 9425SOL    HW229175   5.250   4.055   1.571
 9426SOL     OW29176   3.511   1.429   6.349
 9426SOL    HW129177   3.531   1.522   6.316
 9426SOL    HW229178   3.552   1.417   6.440
 9427SOL     OW29179   3.115   5.133   3.120
 9427SOL    HW129180   3.020   5.164   3.114
 9427SOL    HW229181   3.117   5.033   3.124
 9428SOL     OW29182   0.185   0.250   1.072
 9428SOL    HW129183   0.243   0.197   1.011
 9428SOL    HW229184   0.109   0.290   1.020
 9429SOL     OW29185   2.087   3.522   3.965
 9429SOL    HW129186   2.037   3.447   3.923
 9429SOL    HW229187   2.160   3.552   3.905
 9430SOL     OW29188   0.582   2.410   4.946
 9430SOL    HW129189   0.511   2.480   4.937
 9430SOL    HW229190   0.628   2.397   4.859
 9431SOL     OW29191   6.516   4.542   1.396
 9431SOL    HW129192   6.547   4.620   1.342
 9431SOL    HW229193   6.595   4.489   1.426
 9432SOL     OW29194   6.328   0.512   4.221
 9432SOL    HW129195   6.338   0.429   4.166
 9432SOL    HW229196   6.407   0.571   4.207
 9433SOL     OW29197   3.132   6.592   3.240
 9433SOL    HW129198   3.067   6.596   3.317
 9433SOL    HW229199   3.191   6.672   3.243
 9434SOL     OW29200   5.549   6.094   2.008
 9434SOL    HW129201   5.577   6.006   1.968
 9434SOL    HW229202   5.620   6.125   2.070
 9435SOL     OW29203   6.989   2.208   3.425
 9435SOL    HW129204   6.923   2.262   3.477
 9435SOL    HW229205   6.950   2.118   3.405
 9436SOL     OW29206   1.337   1.917   2.431
 9436SOL    HW129207   1.330   1.850   2.505
 9436SOL    HW229208   1.303   1.876   2.346
 9437SOL     OW29209   0.286   6.138   3.242
 9437SOL    HW129210   0.319   6.121   3.149
 9437SOL    HW229211   0.287   6.236   3.261
 9438SOL     OW29212   0.838   0.211   1.936
 9438SOL    HW129213   0.858   0.308   1.917
 9438SOL    HW229214   0.904   0.153   1.888
 9439SOL     OW29215   0.845   3.187   0.803
 9439SOL    HW129216   0.876   3.099   0.767
 9439SOL    HW229217   0.753   3.177   0.841
 9440SOL     OW29218   3.789   4.861   3.110
 9440SOL    HW129219   3.822   4.890   3.021
 9440SOL    HW229220   3.696   4.824   3.100
 9441SOL     OW29221   6.384   4.994   6.070
 9441SOL    HW129222   6.340   4.962   5.986
 9441SOL    HW229223   6.482   4.976   6.066
 9442SOL     OW29224   5.418   3.866   2.065
 9442SOL    HW129225   5.461   3.919   1.992
 9442SOL    HW229226   5.410   3.770   2.035
 9443SOL     OW29227   2.505   5.396   0.369
 9443SOL    HW129228   2.591   5.433   0.334
 9443SOL    HW229229   2.460   5.344   0.296
 9444SOL     OW29230   1.750   4.051   0.789
 9444SOL    HW129231   1.816   4.085   0.723
 9444SOL    HW229232   1.712   3.964   0.757
 9445SOL     OW29233   6.690   3.516   3.502
 9445SOL    HW129234   6.697   3.430   3.552
 9445SOL    HW229235   6.682   3.592   3.567
 9446SOL     OW29236   6.441   5.500   4.812
 9446SOL    HW129237   6.357   5.470   4.859
 9446SOL    HW229238   6.496   5.554   4.875
 9447SOL     OW29239   5.625   4.745   3.726
 9447SOL    HW129240   5.720   4.716   3.739
 9447SOL    HW229241   5.579   4.683   3.662
 9448SOL     OW29242   6.670   0.265   6.090
 9448SOL    HW129243   6.629   0.184   6.132
 9448SOL    HW229244   6.770   0.258   6.093
 9449SOL     OW29245   5.516   6.445   0.149
 9449SOL    HW129246   5.572   6.363   0.158
 9449SOL    HW229247   5.426   6.429   0.190
 9450SOL     OW29248   2.348   5.795   3.186
 9450SOL    HW129249   2.351   5.802   3.086
 9450SOL    HW229250   2.356   5.699   3.213
 9451SOL     OW29251   3.888   5.508   5.496
 9451SOL    HW129252   3.874   5.409   5.498
 9451SOL    HW229253   3.825   5.550   5.431
 9452SOL     OW29254   1.504   4.126   0.007
 9452SOL    HW129255   1.540   4.132   0.100
 9452SOL    HW229256   1.552   4.191   6.969
 9453SOL     OW29257   2.833   5.512   2.652
 9453SOL    HW129258   2.772   5.583   2.685
 9453SOL    HW229259   2.908   5.498   2.718
 9454SOL     OW29260   3.747   3.729   6.529
 9454SOL    HW129261   3.707   3.815   6.497
 9454SOL    HW229262   3.757   3.666   6.452
 9455SOL     OW29263   2.837   2.094   3.583
 9455SOL    HW129264   2.871   2.155   3.655
 9455SOL    HW229265   2.740   2.112   3.568
 9456SOL     OW29266   6.473   3.663   0.866
 9456SOL    HW129267   6.471   3.692   0.961
 9456SOL    HW229268   6.538   3.587   0.855
 9457SOL     OW29269   0.723   4.601   4.334
 9457SOL    HW129270   0.774   4.647   4.261
 9457SOL    HW229271   0.627   4.595   4.308
 9458SOL     OW29272   0.678   3.908   6.625
 9458SOL    HW129273   0.760   3.960   6.652
 9458SOL    HW229274   0.618   3.967   6.571
 9459SOL     OW29275   5.052   4.759   4.215
 9459SOL    HW129276   5.096   4.837   4.260
 9459SOL    HW229277   5.099   4.675   4.241
 9460SOL     OW29278   2.092   3.665   5.068
 9460SOL    HW129279   2.106   3.647   4.971
 9460SOL    HW229280   2.132   3.590   5.122
 9461SOL     OW29281   0.510   2.049   1.791
 9461SOL    HW129282   0.502   1.959   1.833
 9461SOL    HW229283   0.499   2.040   1.692
 9462SOL     OW29284   1.011   2.877   3.612
 9462SOL    HW129285   1.093   2.932   3.597
 9462SOL    HW229286   1.032   2.802   3.675
 9463SOL     OW29287   5.820   0.260   1.442
 9463SOL    HW129288   5.723   0.277   1.455
 9463SOL    HW229289   5.872   0.317   1.506
 9464SOL     OW29290   5.968   0.510   0.968
 9464SOL    HW129291   5.985   0.606   0.990
 9464SOL    HW229292   5.886   0.478   1.015
 9465SOL     OW29293   0.351   3.583   2.009
 9465SOL    HW129294   0.255   3.579   2.039
 9465SOL    HW229295   0.355   3.568   1.910
 9466SOL     OW29296   3.416   4.631   5.360
 9466SOL    HW129297   3.443   4.722   5.390
 9466SOL    HW229298   3.332   4.603   5.407
 9467SOL     OW29299   0.974   3.229   1.030
 9467SOL    HW129300   0.896   3.233   1.093
 9467SOL    HW229301   0.942   3.247   0.937
 9468SOL     OW29302   5.543   3.970   6.417
 9468SOL    HW129303   5.535   4.033   6.494
 9468SOL    HW229304   5.552   3.876   6.451
 9469SOL     OW29305   1.076   5.831   1.291
 9469SOL    HW129306   1.111   5.902   1.230
 9469SOL    HW229307   1.005   5.870   1.350
 9470SOL     OW29308   5.042   3.499   0.092
 9470SOL    HW129309   5.062   3.421   0.033
 9470SOL    HW229310   5.126   3.547   0.114
 9471SOL     OW29311   6.749   2.179   4.599
 9471SOL    HW129312   6.765   2.268   4.555
 9471SOL    HW229313   6.816   2.166   4.672
 9472SOL     OW29314   0.111   3.240   5.224
 9472SOL    HW129315   0.057   3.314   5.183
 9472SOL    HW229316   0.049   3.171   5.262
 9473SOL     OW29317   3.231   4.414   6.986
 9473SOL    HW129318   3.167   4.379   0.033
 9473SOL    HW229319   3.324   4.385   7.009
 9474SOL     OW29320   6.795   3.637   1.370
 9474SOL    HW129321   6.766   3.690   1.449
 9474SOL    HW229322   6.754   3.546   1.374
 9475SOL     OW29323   3.994   3.288   0.964
 9475SOL    HW129324   4.003   3.340   1.049
 9475SOL    HW229325   4.026   3.343   0.887
 9476SOL     OW29326   3.993   3.865   4.628
 9476SOL    HW129327   4.046   3.840   4.709
 9476SOL    HW229328   4.007   3.797   4.556
 9477SOL     OW29329   0.305   2.910   0.877
 9477SOL    HW129330   0.369   2.883   0.805
 9477SOL    HW229331   0.239   2.975   0.840
 9478SOL     OW29332   5.464   3.384   1.125
 9478SOL    HW129333   5.446   3.427   1.037
 9478SOL    HW229334   5.377   3.358   1.167
 9479SOL     OW29335   4.202   6.540   0.479
 9479SOL    HW129336   4.236   6.582   0.563
 9479SOL    HW229337   4.163   6.450   0.499
 9480SOL     OW29338   6.377   5.202   0.379
 9480SOL    HW129339   6.424   5.121   0.344
 9480SOL    HW229340   6.359   5.190   0.477
 9481SOL     OW29341   4.943   2.620   2.374
 9481SOL    HW129342   4.861   2.649   2.424
 9481SOL    HW229343   5.024   2.661   2.415
 9482SOL     OW29344   0.618   0.802   3.299
 9482SOL    HW129345   0.558   0.815   3.221
 9482SOL    HW229346   0.705   0.763   3.268
 9483SOL     OW29347   1.128   0.309   0.596
 9483SOL    HW129348   1.089   0.344   0.682
 9483SOL    HW229349   1.077   0.346   0.519
 9484SOL     OW29350   3.712   0.520   4.743
 9484SOL    HW129351   3.622   0.549   4.711
 9484SOL    HW229352   3.710   0.424   4.769
 9485SOL     OW29353   0.395   1.110   1.050
 9485SOL    HW129354   0.484   1.092   1.009
 9485SOL    HW229355   0.344   1.173   0.992
 9486SOL     OW29356   4.054   6.006   0.711
 9486SOL    HW129357   4.078   5.910   0.700
 9486SOL    HW229358   3.965   6.014   0.754
 9487SOL     OW29359   3.382   4.186   3.831
 9487SOL    HW129360   3.298   4.142   3.863
 9487SOL    HW229361   3.436   4.216   3.909
 9488SOL     OW29362   3.013   6.992   1.028
 9488SOL    HW129363   2.916   6.981   1.048
 9488SOL    HW229364   3.057   0.021   1.103
 9489SOL     OW29365   5.297   4.408   1.221
 9489SOL    HW129366   5.333   4.482   1.164
 9489SOL    HW229367   5.364   4.383   1.290
 9490SOL     OW29368   6.399   5.316   3.557
 9490SOL    HW129369   6.366   5.408   3.539
 9490SOL    HW229370   6.391   5.297   3.655
 9491SOL     OW29371   5.194   5.016   3.699
 9491SOL    HW129372   5.177   5.059   3.787
 9491SOL    HW229373   5.110   5.018   3.644
 9492SOL     OW29374   3.773   3.638   4.631
 9492SOL    HW129375   3.785   3.550   4.677
 9492SOL    HW229376   3.852   3.656   4.573
 9493SOL     OW29377   2.918   5.718   3.947
 9493SOL    HW129378   2.998   5.692   4.001
 9493SOL    HW229379   2.885   5.639   3.895
 9494SOL     OW29380   5.464   2.942   2.792
 9494SOL    HW129381   5.485   2.896   2.706
 9494SOL    HW229382   5.488   3.039   2.785
 9495SOL     OW29383   6.825   1.976   2.848
 9495SOL    HW129384   6.895   2.006   2.912
 9495SOL    HW229385   6.838   1.879   2.826
 9496SOL     OW29386   5.906   3.754   1.453
 9496SOL    HW129387   5.901   3.816   1.532
 9496SOL    HW229388   5.925   3.661   1.485
 9497SOL     OW29389   4.832   5.900   4.915
 9497SOL    HW129390   4.884   5.984   4.900
 9497SOL    HW229391   4.894   5.828   4.946
 9498SOL     OW29392   5.655   5.441   4.789
 9498SOL    HW129393   5.736   5.382   4.791
 9498SOL    HW229394   5.678   5.528   4.746
 9499SOL     OW29395   1.416   5.624   5.550
 9499SOL    HW129396   1.357   5.703   5.537
 9499SOL    HW229397   1.511   5.653   5.555
 9500SOL     OW29398   4.258   6.620   0.222
 9500SOL    HW129399   4.248   6.584   0.315
 9500SOL    HW229400   4.168   6.619   0.177
 9501SOL     OW29401   2.617   1.439   4.957
 9501SOL    HW129402   2.620   1.499   4.877
 9501SOL    HW229403   2.700   1.451   5.012
 9502SOL     OW29404   5.642   3.261   4.700
 9502SOL    HW129405   5.547   3.270   4.729
 9502SOL    HW229406   5.649   3.289   4.604
 9503SOL     OW29407   0.154   1.964   0.901
 9503SOL    HW129408   0.191   2.016   0.824
 9503SOL    HW229409   0.162   2.019   0.984
 9504SOL     OW29410   6.930   3.735   1.168
 9504SOL    HW129411   6.949   3.833   1.167
 9504SOL    HW229412   6.867   3.714   1.244
 9505SOL     OW29413   5.263   4.414   5.125
 9505SOL    HW129414   5.267   4.406   5.025
 9505SOL    HW229415   5.173   4.449   5.152
 9506SOL     OW29416   1.551   2.517   0.304
 9506SOL    HW129417   1.624   2.504   0.237
 9506SOL    HW229418   1.572   2.464   0.387
 9507SOL     OW29419   0.502   0.991   2.118
 9507SOL    HW129420   0.546   0.919   2.170
 9507SOL    HW229421   0.406   0.998   2.145
 9508SOL     OW29422   6.106   1.846   2.199
 9508SOL    HW129423   6.011   1.830   2.174
 9508SOL    HW229424   6.110   1.893   2.288
 9509SOL     OW29425   0.286   1.103   3.786
 9509SOL    HW129426   0.314   1.131   3.878
 9509SOL    HW229427   0.188   1.085   3.785
 9510SOL     OW29428   1.395   4.016   3.849
 9510SOL    HW129429   1.475   4.036   3.793
 9510SOL    HW229430   1.404   4.061   3.938
 9511SOL     OW29431   1.802   0.054   0.895
 9511SOL    HW129432   1.869   7.001   0.891
 9511SOL    HW229433   1.718   0.027   0.848
 9512SOL     OW29434   6.679   1.465   0.892
 9512SOL    HW129435   6.711   1.379   0.853
 9512SOL    HW229436   6.656   1.452   0.989
 9513SOL     OW29437   2.319   4.140   6.196
 9513SOL    HW129438   2.327   4.047   6.162
 9513SOL    HW229439   2.264   4.195   6.133
 9514SOL     OW29440   2.302   4.885   6.161
 9514SOL    HW129441   2.256   4.973   6.168
 9514SOL    HW229442   2.396   4.898   6.128
 9515SOL     OW29443   1.740   5.863   2.104
 9515SOL    HW129444   1.661   5.826   2.055
 9515SOL    HW229445   1.742   5.963   2.093
 9516SOL     OW29446   5.426   5.059   6.732
 9516SOL    HW129447   5.520   5.047   6.763
 9516SOL    HW229448   5.371   5.097   6.806
 9517SOL     OW29449   1.591   4.176   1.592
 9517SOL    HW129450   1.548   4.086   1.582
 9517SOL    HW229451   1.571   4.213   1.683
 9518SOL     OW29452   2.097   1.544   0.752
 9518SOL    HW129453   2.127   1.506   0.665
 9518SOL    HW229454   2.116   1.643   0.754
 9519SOL     OW29455   3.339   3.061   5.301
 9519SOL    HW129456   3.423   3.035   5.253
 9519SOL    HW229457   3.284   3.120   5.242
 9520SOL     OW29458   2.542   1.113   2.958
 9520SOL    HW129459   2.624   1.125   2.902
 9520SOL    HW229460   2.548   1.173   3.037
 9521SOL     OW29461   5.001   5.893   2.550
 9521SOL    HW129462   5.070   5.908   2.620
 9521SOL    HW229463   5.027   5.812   2.496
 9522SOL     OW29464   2.915   5.671   1.177
 9522SOL    HW129465   2.927   5.738   1.103
 9522SOL    HW229466   2.995   5.612   1.181
 9523SOL     OW29467   3.840   5.152   4.520
 9523SOL    HW129468   3.743   5.128   4.526
 9523SOL    HW229469   3.871   5.141   4.426
 9524SOL     OW29470   3.758   2.073   1.042
 9524SOL    HW129471   3.667   2.040   1.018
 9524SOL    HW229472   3.778   2.050   1.137
 9525SOL     OW29473   2.753   2.885   5.910
 9525SOL    HW129474   2.783   2.980   5.904
 9525SOL    HW229475   2.828   2.824   5.884
 9526SOL     OW29476   5.076   5.725   2.123
 9526SOL    HW129477   5.131   5.777   2.058
 9526SOL    HW229478   4.979   5.744   2.108
 9527SOL     OW29479   0.651   0.439   2.728
 9527SOL    HW129480   0.691   0.530   2.715
 9527SOL    HW229481   0.662   0.385   2.645
 9528SOL     OW29482   6.644   0.512   0.852
 9528SOL    HW129483   6.671   0.593   0.801
 9528SOL    HW229484   6.550   0.487   0.828
 9529SOL     OW29485   6.388   3.083   5.284
 9529SOL    HW129486   6.405   3.169   5.333
 9529SOL    HW229487   6.421   3.090   5.190
 9530SOL     OW29488   1.958   2.975   3.117
 9530SOL    HW129489   2.038   2.979   3.177
 9530SOL    HW229490   1.929   2.880   3.106
 9531SOL     OW29491   4.091   5.805   2.885
 9531SOL    HW129492   4.073   5.747   2.964
 9531SOL    HW229493   4.179   5.851   2.898
 9532SOL     OW29494   0.979   6.614   1.770
 9532SOL    HW129495   0.901   6.552   1.775
 9532SOL    HW229496   1.023   6.605   1.680
 9533SOL     OW29497   6.681   0.688   5.001
 9533SOL    HW129498   6.601   0.712   4.945
 9533SOL    HW229499   6.758   0.745   4.975
 9534SOL     OW29500   5.891   3.175   5.017
 9534SOL    HW129501   5.882   3.261   4.966
 9534SOL    HW229502   5.963   3.184   5.085
 9535SOL     OW29503   2.586   1.101   5.407
 9535SOL    HW129504   2.656   1.127   5.339
 9535SOL    HW229505   2.618   1.125   5.498
 9536SOL     OW29506   3.209   4.922   5.053
 9536SOL    HW129507   3.183   4.856   5.123
 9536SOL    HW229508   3.166   4.896   4.966
 9537SOL     OW29509   2.198   0.055   2.384
 9537SOL    HW129510   2.284   0.087   2.346
 9537SOL    HW229511   2.193   6.976   2.377
 9538SOL     OW29512   6.731   1.907   3.575
 9538SOL    HW129513   6.774   1.819   3.592
 9538SOL    HW229514   6.662   1.925   3.646
 9539SOL     OW29515   2.097   3.620   5.456
 9539SOL    HW129516   2.029   3.551   5.433
 9539SOL    HW229517   2.148   3.647   5.374
 9540SOL     OW29518   4.834   4.035   4.525
 9540SOL    HW129519   4.855   4.030   4.623
 9540SOL    HW229520   4.767   4.107   4.510
 9541SOL     OW29521   2.757   1.821   5.625
 9541SOL    HW129522   2.816   1.842   5.547
 9541SOL    HW229523   2.669   1.868   5.614
 9542SOL     OW29524   4.862   4.012   4.782
 9542SOL    HW129525   4.861   3.937   4.848
 9542SOL    HW229526   4.827   4.095   4.826
 9543SOL     OW29527   3.527   0.994   4.482
 9543SOL    HW129528   3.479   1.065   4.431
 9543SOL    HW229529   3.579   1.035   4.557
 9544SOL     OW29530   6.885   1.142   2.533
 9544SOL    HW129531   6.864   1.100   2.621
 9544SOL    HW229532   6.826   1.102   2.463
 9545SOL     OW29533   6.714   4.583   3.733
 9545SOL    HW129534   6.724   4.545   3.825
 9545SOL    HW229535   6.804   4.613   3.699
 9546SOL     OW29536   2.466   2.891   5.790
 9546SOL    HW129537   2.450   2.852   5.699
 9546SOL    HW229538   2.563   2.882   5.814
 9547SOL     OW29539   1.658   5.998   4.000
 9547SOL    HW129540   1.742   5.957   3.966
 9547SOL    HW229541   1.669   6.098   4.004
 9548SOL     OW29542   6.232   6.038   4.868
 9548SOL    HW129543   6.186   5.992   4.792
 9548SOL    HW229544   6.252   6.132   4.842
 9549SOL     OW29545   2.873   4.265   1.437
 9549SOL    HW129546   2.857   4.344   1.496
 9549SOL    HW229547   2.787   4.238   1.393
 9550SOL     OW29548   6.877   1.272   6.991
 9550SOL    HW129549   6.932   1.207   0.024
 9550SOL    HW229550   6.832   1.223   6.917
 9551SOL     OW29551   6.952   0.253   4.425
 9551SOL    HW129552   6.996   0.325   4.372
 9551SOL    HW229553   6.853   0.270   4.429
 9552SOL     OW29554   0.731   6.152   2.270
 9552SOL    HW129555   0.818   6.135   2.316
 9552SOL    HW229556   0.692   6.065   2.240
 9553SOL     OW29557   6.020   4.151   6.596
 9553SOL    HW129558   6.096   4.125   6.537
 9553SOL    HW229559   6.040   4.238   6.641
 9554SOL     OW29560   2.502   0.344   1.473
 9554SOL    HW129561   2.545   0.297   1.550
 9554SOL    HW229562   2.571   0.396   1.423
 9555SOL     OW29563   0.039   1.027   0.983
 9555SOL    HW129564   0.125   1.043   0.935
 9555SOL    HW229565   0.053   1.036   1.081
 9556SOL     OW29566   2.475   2.720   1.191
 9556SOL    HW129567   2.456   2.730   1.093
 9556SOL    HW229568   2.451   2.627   1.220
 9557SOL     OW29569   6.335   1.030   2.877
 9557SOL    HW129570   6.352   1.080   2.792
 9557SOL    HW229571   6.246   0.985   2.872
 9558SOL     OW29572   5.473   5.207   4.206
 9558SOL    HW129573   5.426   5.161   4.131
 9558SOL    HW229574   5.541   5.145   4.245
 9559SOL     OW29575   0.156   3.597   1.725
 9559SOL    HW129576   0.216   3.581   1.647
 9559SOL    HW229577   0.072   3.641   1.695
 9560SOL     OW29578   1.056   1.651   2.498
 9560SOL    HW129579   1.000   1.691   2.570
 9560SOL    HW229580   1.152   1.648   2.529
 9561SOL     OW29581   1.730   6.669   0.544
 9561SOL    HW129582   1.691   6.664   0.636
 9561SOL    HW229583   1.804   6.602   0.535
 9562SOL     OW29584   3.094   6.652   5.183
 9562SOL    HW129585   3.061   6.589   5.112
 9562SOL    HW229586   3.147   6.725   5.141
 9563SOL     OW29587   6.377   6.441   0.108
 9563SOL    HW129588   6.316   6.509   0.067
 9563SOL    HW229589   6.434   6.485   0.177
 9564SOL     OW29590   2.472   0.162   6.474
 9564SOL    HW129591   2.479   0.071   6.516
 9564SOL    HW229592   2.478   0.232   6.544
 9565SOL     OW29593   4.173   6.133   5.101
 9565SOL    HW129594   4.268   6.165   5.102
 9565SOL    HW229595   4.164   6.053   5.160
 9566SOL     OW29596   3.332   4.676   0.552
 9566SOL    HW129597   3.284   4.623   0.482
 9566SOL    HW229598   3.286   4.665   0.640
 9567SOL     OW29599   6.636   5.654   6.604
 9567SOL    HW129600   6.550   5.608   6.629
 9567SOL    HW229601   6.622   5.707   6.521
 9568SOL     OW29602   4.549   2.560   6.201
 9568SOL    HW129603   4.566   2.578   6.104
 9568SOL    HW229604   4.623   2.502   6.238
 9569SOL     OW29605   6.957   0.875   1.648
 9569SOL    HW129606   0.020   0.864   1.701
 9569SOL    HW229607   6.948   0.971   1.620
 9570SOL     OW29608   1.182   2.099   1.888
 9570SOL    HW129609   1.160   2.146   1.803
 9570SOL    HW229610   1.211   2.005   1.869
 9571SOL     OW29611   2.859   3.423   6.960
 9571SOL    HW129612   2.791   3.447   0.008
 9571SOL    HW229613   2.848   3.326   6.934
 9572SOL     OW29614   2.027   5.596   0.799
 9572SOL    HW129615   1.991   5.507   0.830
 9572SOL    HW229616   2.126   5.588   0.784
 9573SOL     OW29617   0.435   1.711   6.663
 9573SOL    HW129618   0.384   1.659   6.732
 9573SOL    HW229619   0.521   1.663   6.642
 9574SOL     OW29620   4.013   3.196   4.771
 9574SOL    HW129621   3.968   3.114   4.734
 9574SOL    HW229622   4.051   3.174   4.861
 9575SOL     OW29623   5.332   0.787   0.967
 9575SOL    HW129624   5.322   0.858   0.898
 9575SOL    HW229625   5.242   0.761   1.003
 9576SOL     OW29626   3.279   1.504   2.624
 9576SOL    HW129627   3.378   1.516   2.630
 9576SOL    HW229628   3.256   1.458   2.538
 9577SOL     OW29629   1.340   0.353   2.781
 9577SOL    HW129630   1.394   0.285   2.731
 9577SOL    HW229631   1.399   0.427   2.812
 9578SOL     OW29632   6.520   3.404   3.214
 9578SOL    HW129633   6.537   3.451   3.127
 9578SOL    HW229634   6.480   3.469   3.279
 9579SOL     OW29635   1.238   6.235   2.630
 9579SOL    HW129636   1.296   6.166   2.588
 9579SOL    HW229637   1.177   6.192   2.696
 9580SOL     OW29638   5.412   3.473   0.368
 9580SOL    HW129639   5.336   3.486   0.431
 9580SOL    HW229640   5.404   3.537   0.292
 9581SOL     OW29641   1.673   5.447   6.099
 9581SOL    HW129642   1.727   5.381   6.151
 9581SOL    HW229643   1.634   5.403   6.019
 9582SOL     OW29644   4.218   4.757   4.441
 9582SOL    HW129645   4.177   4.765   4.531
 9582SOL    HW229646   4.312   4.724   4.450
 9583SOL     OW29647   2.331   3.424   1.402
 9583SOL    HW129648   2.338   3.473   1.490
 9583SOL    HW229649   2.310   3.490   1.330
 9584SOL     OW29650   5.613   6.083   6.696
 9584SOL    HW129651   5.602   6.169   6.646
 9584SOL    HW229652   5.710   6.061   6.706
 9585SOL     OW29653   6.512   0.672   2.965
 9585SOL    HW129654   6.511   0.768   2.992
 9585SOL    HW229655   6.444   0.657   2.894
 9586SOL     OW29656   5.683   4.385   2.387
 9586SOL    HW129657   5.706   4.290   2.405
 9586SOL    HW229658   5.590   4.404   2.419
 9587SOL     OW29659   6.506   0.551   2.308
 9587SOL    HW129660   6.453   0.568   2.225
 9587SOL    HW229661   6.580   0.486   2.287
 9588SOL     OW29662   0.621   1.239   2.017
 9588SOL    HW129663   0.537   1.258   1.967
 9588SOL    HW229664   0.608   1.158   2.074
 9589SOL     OW29665   2.781   5.552   6.755
 9589SOL    HW129666   2.749   5.644   6.778
 9589SOL    HW229667   2.710   5.503   6.705
 9590SOL     OW29668   6.966   4.947   2.302
 9590SOL    HW129669   6.868   4.931   2.290
 9590SOL    HW229670   6.980   5.019   2.370
 9591SOL     OW29671   3.151   6.154   0.169
 9591SOL    HW129672   3.210   6.082   0.133
 9591SOL    HW229673   3.081   6.176   0.100
 9592SOL     OW29674   3.856   5.434   2.152
 9592SOL    HW129675   3.822   5.413   2.243
 9592SOL    HW229676   3.944   5.388   2.138
 9593SOL     OW29677   5.460   1.205   4.679
 9593SOL    HW129678   5.547   1.226   4.635
 9593SOL    HW229679   5.389   1.198   4.609
 9594SOL     OW29680   6.975   5.928   3.499
 9594SOL    HW129681   6.951   5.831   3.507
 9594SOL    HW229682   6.962   5.973   3.587
 9595SOL     OW29683   2.127   4.858   4.755
 9595SOL    HW129684   2.223   4.857   4.781
 9595SOL    HW229685   2.086   4.946   4.779
 9596SOL     OW29686   0.275   5.009   6.494
 9596SOL    HW129687   0.284   4.909   6.497
 9596SOL    HW229688   0.340   5.050   6.558
 9597SOL     OW29689   0.234   3.885   1.326
 9597SOL    HW129690   0.244   3.815   1.255
 9597SOL    HW229691   0.146   3.931   1.315
 9598SOL     OW29692   0.683   3.980   5.552
 9598SOL    HW129693   0.592   3.993   5.593
 9598SOL    HW229694   0.672   3.946   5.458
 9599SOL     OW29695   3.774   0.976   4.843
 9599SOL    HW129696   3.795   0.886   4.805
 9599SOL    HW229697   3.698   1.017   4.792
 9600SOL     OW29698   1.875   0.303   6.025
 9600SOL    HW129699   1.967   0.310   5.987
 9600SOL    HW229700   1.844   0.208   6.021
 9601SOL     OW29701   6.259   4.141   6.201
 9601SOL    HW129702   6.238   4.074   6.273
 9601SOL    HW229703   6.288   4.092   6.119
 9602SOL     OW29704   6.746   4.677   6.716
 9602SOL    HW129705   6.818   4.745   6.730
 9602SOL    HW229706   6.658   4.717   6.742
 9603SOL     OW29707   2.370   6.731   4.552
 9603SOL    HW129708   2.374   6.663   4.624
 9603SOL    HW229709   2.327   6.814   4.587
 9604SOL     OW29710   5.316   0.736   0.027
 9604SOL    HW129711   5.219   0.739   0.005
 9604SOL    HW229712   5.355   0.828   0.023
 9605SOL     OW29713   0.619   4.839   5.425
 9605SOL    HW129714   0.554   4.914   5.440
 9605SOL    HW229715   0.661   4.814   5.512
 9606SOL     OW29716   1.292   6.990   4.404
 9606SOL    HW129717   1.235   0.045   4.371
 9606SOL    HW229718   1.236   6.907   4.411
 9607SOL     OW29719   0.985   1.883   1.676
 9607SOL    HW129720   1.078   1.860   1.705
 9607SOL    HW229721   0.921   1.861   1.749
 9608SOL     OW29722   6.957   6.832   2.606
 9608SOL    HW129723   6.873   6.857   2.558
 9608SOL    HW229724   0.013   6.832   2.542
 9609SOL     OW29725   0.964   3.960   4.417
 9609SOL    HW129726   0.917   3.875   4.443
 9609SOL    HW229727   1.057   3.959   4.453
 9610SOL     OW29728   1.034   3.116   5.231
 9610SOL    HW129729   0.983   3.103   5.316
 9610SOL    HW229730   0.973   3.152   5.161
 9611SOL     OW29731   0.118   6.736   1.319
 9611SOL    HW129732   0.149   6.830   1.303
 9611SOL    HW229733   0.040   6.716   1.259
 9612SOL     OW29734   6.303   2.890   0.586
 9612SOL    HW129735   6.242   2.869   0.509
 9612SOL    HW229736   6.300   2.987   0.606
 9613SOL     OW29737   5.628   6.166   4.357
 9613SOL    HW129738   5.615   6.244   4.418
 9613SOL    HW229739   5.582   6.184   4.270
 9614SOL     OW29740   4.317   3.846   1.795
 9614SOL    HW129741   4.400   3.822   1.745
 9614SOL    HW229742   4.299   3.944   1.785
 9615SOL     OW29743   2.293   5.996   3.349
 9615SOL    HW129744   2.310   5.935   3.272
 9615SOL    HW229745   2.313   5.947   3.435
 9616SOL     OW29746   4.320   3.288   1.244
 9616SOL    HW129747   4.311   3.312   1.148
 9616SOL    HW229748   4.298   3.191   1.256
 9617SOL     OW29749   1.283   3.872   3.666
 9617SOL    HW129750   1.326   3.913   3.746
 9617SOL    HW229751   1.280   3.938   3.592
 9618SOL     OW29752   3.354   0.599   6.695
 9618SOL    HW129753   3.352   0.659   6.614
 9618SOL    HW229754   3.449   0.575   6.716
 9619SOL     OW29755   0.621   6.786   1.062
 9619SOL    HW129756   0.602   6.800   0.964
 9619SOL    HW229757   0.537   6.758   1.108
 9620SOL     OW29758   4.198   1.385   6.695
 9620SOL    HW129759   4.200   1.339   6.784
 9620SOL    HW229760   4.209   1.317   6.622
 9621SOL     OW29761   1.507   1.266   1.647
 9621SOL    HW129762   1.466   1.217   1.571
 9621SOL    HW229763   1.597   1.227   1.667
 9622SOL     OW29764   6.416   1.151   6.838
 9622SOL    HW129765   6.453   1.134   6.747
 9622SOL    HW229766   6.408   1.250   6.853
 9623SOL     OW29767   4.590   5.307   6.847
 9623SOL    HW129768   4.655   5.328   6.921
 9623SOL    HW229769   4.585   5.385   6.784
 9624SOL     OW29770   5.012   4.626   5.721
 9624SOL    HW129771   5.103   4.620   5.679
 9624SOL    HW229772   4.971   4.535   5.723
 9625SOL     OW29773   4.650   4.597   6.665
 9625SOL    HW129774   4.677   4.545   6.746
 9625SOL    HW229775   4.648   4.538   6.585
 9626SOL     OW29776   1.775   5.438   4.462
 9626SOL    HW129777   1.771   5.510   4.531
 9626SOL    HW229778   1.870   5.422   4.435
 9627SOL     OW29779   0.873   4.622   4.723
 9627SOL    HW129780   0.959   4.657   4.761
 9627SOL    HW229781   0.819   4.582   4.797
 9628SOL     OW29782   5.976   3.875   0.788
 9628SOL    HW129783   5.915   3.851   0.864
 9628SOL    HW229784   6.060   3.820   0.794
 9629SOL     OW29785   6.854   6.326   3.489
 9629SOL    HW129786   6.828   6.270   3.410
 9629SOL    HW229787   6.932   6.383   3.465
 9630SOL     OW29788   5.951   5.550   5.074
 9630SOL    HW129789   5.868   5.503   5.042
 9630SOL    HW229790   5.935   5.586   5.166
 9631SOL     OW29791   4.366   1.127   1.702
 9631SOL    HW129792   4.266   1.117   1.704
 9631SOL    HW229793   4.405   1.056   1.644
 9632SOL     OW29794   1.987   5.353   1.644
 9632SOL    HW129795   2.074   5.399   1.624
 9632SOL    HW229796   1.993   5.306   1.732
 9633SOL     OW29797   4.241   3.111   1.471
 9633SOL    HW129798   4.330   3.148   1.499
 9633SOL    HW229799   4.230   3.019   1.510
 9634SOL     OW29800   5.905   5.267   3.030
 9634SOL    HW129801   5.910   5.167   3.028
 9634SOL    HW229802   5.964   5.302   3.102
 9635SOL     OW29803   7.007   4.650   5.101
 9635SOL    HW129804   6.947   4.718   5.057
 9635SOL    HW229805   7.007   4.665   5.200
 9636SOL     OW29806   3.881   1.501   6.293
 9636SOL    HW129807   3.829   1.537   6.371
 9636SOL    HW229808   3.871   1.402   6.290
 9637SOL     OW29809   3.515   3.386   1.657
 9637SOL    HW129810   3.573   3.312   1.691
 9637SOL    HW229811   3.444   3.407   1.724
 9638SOL     OW29812   6.863   4.013   6.199
 9638SOL    HW129813   6.853   4.004   6.298
 9638SOL    HW229814   6.960   4.011   6.174
 9639SOL     OW29815   4.506   2.835   1.711
 9639SOL    HW129816   4.540   2.906   1.772
 9639SOL    HW229817   4.546   2.845   1.620
 9640SOL     OW29818   3.855   1.531   2.123
 9640SOL    HW129819   3.849   1.467   2.200
 9640SOL    HW229820   3.928   1.598   2.141
 9641SOL     OW29821   4.796   6.324   2.535
 9641SOL    HW129822   4.787   6.312   2.436
 9641SOL    HW229823   4.832   6.415   2.555
 9642SOL     OW29824   1.106   0.155   4.330
 9642SOL    HW129825   1.105   0.240   4.277
 9642SOL    HW229826   1.024   0.151   4.388
 9643SOL     OW29827   5.146   3.808   3.671
 9643SOL    HW129828   5.202   3.729   3.644
 9643SOL    HW229829   5.054   3.777   3.695
 9644SOL     OW29830   2.158   5.937   4.972
 9644SOL    HW129831   2.224   5.953   4.898
 9644SOL    HW229832   2.129   6.025   5.009
 9645SOL     OW29833   1.042   3.961   5.080
 9645SOL    HW129834   1.032   4.006   4.992
 9645SOL    HW229835   1.136   3.927   5.089
 9646SOL     OW29836   2.816   6.148   3.071
 9646SOL    HW129837   2.775   6.173   2.983
 9646SOL    HW229838   2.840   6.232   3.120
 9647SOL     OW29839   6.885   6.350   2.859
 9647SOL    HW129840   6.929   6.284   2.919
 9647SOL    HW229841   6.904   6.443   2.892
 9648SOL     OW29842   5.218   3.301   1.233
 9648SOL    HW129843   5.248   3.282   1.327
 9648SOL    HW229844   5.178   3.219   1.194
 9649SOL     OW29845   2.668   3.941   6.457
 9649SOL    HW129846   2.746   3.888   6.423
 9649SOL    HW229847   2.624   3.891   6.532
 9650SOL     OW29848   4.958   4.369   3.428
 9650SOL    HW129849   4.929   4.274   3.438
 9650SOL    HW229850   4.905   4.427   3.489
 9651SOL     OW29851   4.028   1.137   1.436
 9651SOL    HW129852   4.055   1.112   1.529
 9651SOL    HW229853   3.958   1.074   1.404
 9652SOL     OW29854   0.652   4.882   0.765
 9652SOL    HW129855   0.697   4.795   0.781
 9652SOL    HW229856   0.711   4.940   0.709
 9653SOL     OW29857   4.427   4.286   6.093
 9653SOL    HW129858   4.520   4.280   6.057
 9653SOL    HW229859   4.386   4.373   6.063
 9654SOL     OW29860   3.052   3.283   2.528
 9654SOL    HW129861   3.121   3.354   2.535
 9654SOL    HW229862   2.991   3.302   2.451
 9655SOL     OW29863   0.173   1.886   0.427
 9655SOL    HW129864   0.247   1.838   0.474
 9655SOL    HW229865   0.108   1.819   0.392
 9656SOL     OW29866   4.781   2.021   1.025
 9656SOL    HW129867   4.788   2.080   1.105
 9656SOL    HW229868   4.718   2.061   0.959
 9657SOL     OW29869   5.799   4.284   3.430
 9657SOL    HW129870   5.703   4.300   3.454
 9657SOL    HW229871   5.845   4.238   3.506
 9658SOL     OW29872   5.568   1.975   2.699
 9658SOL    HW129873   5.483   1.989   2.749
 9658SOL    HW229874   5.632   2.050   2.720
 9659SOL     OW29875   1.374   2.357   0.203
 9659SOL    HW129876   1.424   2.272   0.186
 9659SOL    HW229877   1.433   2.422   0.251
 9660SOL     OW29878   0.551   0.646   1.787
 9660SOL    HW129879   0.461   0.635   1.744
 9660SOL    HW229880   0.562   0.577   1.858
 9661SOL     OW29881   4.487   5.857   1.222
 9661SOL    HW129882   4.513   5.805   1.141
 9661SOL    HW229883   4.553   5.840   1.295
 9662SOL     OW29884   5.124   3.750   0.506
 9662SOL    HW129885   5.175   3.665   0.519
 9662SOL    HW229886   5.185   3.828   0.519
 9663SOL     OW29887   0.239   5.580   2.452
 9663SOL    HW129888   0.222   5.532   2.539
 9663SOL    HW229889   0.241   5.679   2.469
 9664SOL     OW29890   5.475   4.035   5.137
 9664SOL    HW129891   5.441   3.965   5.199
 9664SOL    HW229892   5.398   4.083   5.094
 9665SOL     OW29893   6.441   6.090   5.952
 9665SOL    HW129894   6.448   6.055   5.858
 9665SOL    HW229895   6.465   6.018   6.016
 9666SOL     OW29896   6.194   3.795   2.156
 9666SOL    HW129897   6.208   3.893   2.175
 9666SOL    HW229898   6.222   3.775   2.063
 9667SOL     OW29899   4.490   3.897   1.529
 9667SOL    HW129900   4.482   3.833   1.452
 9667SOL    HW229901   4.402   3.943   1.543
 9668SOL     OW29902   1.623   1.228   6.224
 9668SOL    HW129903   1.720   1.202   6.232
 9668SOL    HW229904   1.576   1.161   6.166
 9669SOL     OW29905   2.301   6.816   1.005
 9669SOL    HW129906   2.216   6.814   1.057
 9669SOL    HW229907   2.351   6.731   1.019
 9670SOL     OW29908   0.295   5.647   5.148
 9670SOL    HW129909   0.234   5.685   5.218
 9670SOL    HW229910   0.277   5.690   5.060
 9671SOL     OW29911   6.611   4.583   0.718
 9671SOL    HW129912   6.581   4.576   0.623
 9671SOL    HW229913   6.710   4.599   0.721
 9672SOL     OW29914   1.380   4.780   3.470
 9672SOL    HW129915   1.400   4.877   3.451
 9672SOL    HW229916   1.393   4.762   3.567
 9673SOL     OW29917   3.735   3.484   1.170
 9673SOL    HW129918   3.675   3.421   1.219
 9673SOL    HW229919   3.729   3.467   1.072
 9674SOL     OW29920   4.055   6.697   2.998
 9674SOL    HW129921   3.969   6.659   2.965
 9674SOL    HW229922   4.072   6.667   3.092
 9675SOL     OW29923   5.093   2.682   6.735
 9675SOL    HW129924   5.050   2.727   6.657
 9675SOL    HW229925   5.111   2.750   6.807
 9676SOL     OW29926   1.599   3.812   5.533
 9676SOL    HW129927   1.565   3.745   5.599
 9676SOL    HW229928   1.696   3.793   5.515
 9677SOL     OW29929   6.641   4.951   6.121
 9677SOL    HW129930   6.673   5.031   6.172
 9677SOL    HW229931   6.679   4.868   6.161
 9678SOL     OW29932   2.918   3.650   4.327
 9678SOL    HW129933   2.910   3.559   4.369
 9678SOL    HW229934   2.862   3.654   4.245
 9679SOL     OW29935   2.794   0.602   4.199
 9679SOL    HW129936   2.837   0.549   4.272
 9679SOL    HW229937   2.761   0.689   4.236
 9680SOL     OW29938   4.349   0.304   5.376
 9680SOL    HW129939   4.375   0.399   5.359
 9680SOL    HW229940   4.424   0.256   5.423
 9681SOL     OW29941   3.513   2.070   0.693
 9681SOL    HW129942   3.457   2.128   0.634
 9681SOL    HW229943   3.509   2.104   0.787
 9682SOL     OW29944   4.899   3.706   3.735
 9682SOL    HW129945   4.899   3.607   3.724
 9682SOL    HW229946   4.847   3.748   3.660
 9683SOL     OW29947   3.292   5.800   0.306
 9683SOL    HW129948   3.262   5.791   0.401
 9683SOL    HW229949   3.321   5.711   0.272
 9684SOL     OW29950   0.925   4.324   5.013
 9684SOL    HW129951   1.022   4.342   4.995
 9684SOL    HW229952   0.916   4.240   5.066
 9685SOL     OW29953   4.853   3.444   0.529
 9685SOL    HW129954   4.762   3.414   0.499
 9685SOL    HW229955   4.845   3.533   0.575
 9686SOL     OW29956   0.723   3.086   6.655
 9686SOL    HW129957   0.696   3.131   6.740
 9686SOL    HW229958   0.659   3.112   6.582
 9687SOL     OW29959   6.317   0.952   2.432
 9687SOL    HW129960   6.373   0.960   2.350
 9687SOL    HW229961   6.359   1.004   2.507
 9688SOL     OW29962   1.158   3.258   0.664
 9688SOL    HW129963   1.121   3.348   0.641
 9688SOL    HW229964   1.096   3.187   0.632
 9689SOL     OW29965   0.542   4.591   6.954
 9689SOL    HW129966   0.559   4.638   6.868
 9689SOL    HW229967   0.611   4.520   6.968
 9690SOL     OW29968   5.120   6.533   5.495
 9690SOL    HW129969   5.215   6.501   5.495
 9690SOL    HW229970   5.074   6.499   5.414
 9691SOL     OW29971   2.847   3.896   1.715
 9691SOL    HW129972   2.884   3.988   1.727
 9691SOL    HW229973   2.888   3.834   1.781
 9692SOL     OW29974   4.507   5.735   0.983
 9692SOL    HW129975   4.408   5.719   0.983
 9692SOL    HW229976   4.546   5.701   0.898
 9693SOL     OW29977   6.057   4.217   3.343
 9693SOL    HW129978   6.067   4.135   3.286
 9693SOL    HW229979   5.963   4.221   3.377
 9694SOL     OW29980   3.478   1.187   2.535
 9694SOL    HW129981   3.531   1.117   2.583
 9694SOL    HW229982   3.443   1.149   2.449
 9695SOL     OW29983   6.557   2.774   3.178
 9695SOL    HW129984   6.558   2.675   3.196
 9695SOL    HW229985   6.571   2.790   3.080
 9696SOL     OW29986   5.896   2.858   1.567
 9696SOL    HW129987   5.862   2.784   1.625
 9696SOL    HW229988   5.818   2.909   1.529
 9697SOL     OW29989   0.728   6.117   0.316
 9697SOL    HW129990   0.788   6.164   0.251
 9697SOL    HW229991   0.653   6.178   0.343
 9698SOL     OW29992   5.454   2.709   5.618
 9698SOL    HW129993   5.528   2.673   5.561
 9698SOL    HW229994   5.455   2.809   5.615
 9699SOL     OW29995   0.487   5.423   0.232
 9699SOL    HW129996   0.482   5.421   0.132
 9699SOL    HW229997   0.518   5.513   0.262
 9700SOL     OW29998   6.705   5.161   4.865
 9700SOL    HW129999   6.723   5.256   4.840
 9700SOL    HW230000   6.766   5.100   4.815
 9701SOL     OW30001   4.316   4.094   5.833
 9701SOL    HW130002   4.376   4.016   5.816
 9701SOL    HW230003   4.240   4.066   5.891
 9702SOL     OW30004   4.077   1.718   0.446
 9702SOL    HW130005   4.013   1.776   0.497
 9702SOL    HW230006   4.135   1.667   0.510
 9703SOL     OW30007   4.877   3.444   3.677
 9703SOL    HW130008   4.865   3.360   3.624
 9703SOL    HW230009   4.831   3.434   3.765
 9704SOL     OW30010   3.531   5.839   1.818
 9704SOL    HW130011   3.567   5.883   1.900
 9704SOL    HW230012   3.494   5.749   1.841
 9705SOL     OW30013   5.553   4.342   6.059
 9705SOL    HW130014   5.474   4.335   6.119
 9705SOL    HW230015   5.574   4.253   6.020
 9706SOL     OW30016   2.554   1.801   1.506
 9706SOL    HW130017   2.648   1.834   1.505
 9706SOL    HW230018   2.493   1.871   1.468
 9707SOL     OW30019   5.388   5.388   2.503
 9707SOL    HW130020   5.350   5.399   2.596
 9707SOL    HW230021   5.482   5.356   2.509
 9708SOL     OW30022   0.924   1.243   3.443
 9708SOL    HW130023   0.994   1.284   3.385
 9708SOL    HW230024   0.894   1.156   3.404
 9709SOL     OW30025   5.103   4.866   2.343
 9709SOL    HW130026   5.132   4.775   2.373
 9709SOL    HW230027   5.065   4.860   2.250
 9710SOL     OW30028   6.671   1.276   1.437
 9710SOL    HW130029   6.733   1.333   1.383
 9710SOL    HW230030   6.578   1.285   1.402
 9711SOL     OW30031   4.563   5.212   6.036
 9711SOL    HW130032   4.525   5.150   6.105
 9711SOL    HW230033   4.535   5.306   6.055
 9712SOL     OW30034   5.701   3.531   7.011
 9712SOL    HW130035   5.735   3.546   6.919
 9712SOL    HW230036   5.733   3.604   0.050
 9713SOL     OW30037   2.100   4.988   3.304
 9713SOL    HW130038   2.196   4.994   3.278
 9713SOL    HW230039   2.043   5.031   3.234
 9714SOL     OW30040   4.432   6.685   6.340
 9714SOL    HW130041   4.479   6.597   6.343
 9714SOL    HW230042   4.387   6.701   6.427
 9715SOL     OW30043   5.612   4.367   0.036
 9715SOL    HW130044   5.589   4.450   7.006
 9715SOL    HW230045   5.542   4.351   0.106
 9716SOL     OW30046   3.725   4.228   6.905
 9716SOL    HW130047   3.724   4.152   6.970
 9716SOL    HW230048   3.748   4.194   6.814
 9717SOL     OW30049   4.862   6.390   6.170
 9717SOL    HW130050   4.869   6.363   6.266
 9717SOL    HW230051   4.766   6.395   6.143
 9718SOL     OW30052   4.881   3.261   1.361
 9718SOL    HW130053   4.929   3.174   1.364
 9718SOL    HW230054   4.823   3.265   1.279
 9719SOL     OW30055   5.626   0.367   5.753
 9719SOL    HW130056   5.661   0.288   5.704
 9719SOL    HW230057   5.626   0.348   5.851
 9720SOL     OW30058   0.786   3.686   2.375
 9720SOL    HW130059   0.734   3.770   2.359
 9720SOL    HW230060   0.847   3.698   2.453
 9721SOL     OW30061   0.016   1.056   0.033
 9721SOL    HW130062   6.990   0.972   0.006
 9721SOL    HW230063   0.075   1.037   0.112
 9722SOL     OW30064   3.382   1.222   5.312
 9722SOL    HW130065   3.422   1.191   5.226
 9722SOL    HW230066   3.441   1.291   5.353
 9723SOL     OW30067   4.057   6.153   4.276
 9723SOL    HW130068   4.082   6.092   4.351
 9723SOL    HW230069   4.105   6.240   4.286
 9724SOL     OW30070   1.325   4.661   0.504
 9724SOL    HW130071   1.245   4.718   0.521
 9724SOL    HW230072   1.396   4.716   0.459
 9725SOL     OW30073   4.251   6.321   6.141
 9725SOL    HW130074   4.282   6.334   6.047
 9725SOL    HW230075   4.248   6.409   6.189
 9726SOL     OW30076   4.448   1.506   4.038
 9726SOL    HW130077   4.489   1.449   4.109
 9726SOL    HW230078   4.473   1.471   3.948
 9727SOL     OW30079   0.824   1.930   6.635
 9727SOL    HW130080   0.814   1.880   6.549
 9727SOL    HW230081   0.813   2.028   6.619
 9728SOL     OW30082   0.324   1.602   5.192
 9728SOL    HW130083   0.339   1.504   5.210
 9728SOL    HW230084   0.233   1.628   5.223
 9729SOL     OW30085   1.134   4.447   3.971
 9729SOL    HW130086   1.228   4.453   4.004
 9729SOL    HW230087   1.071   4.472   4.044
 9730SOL     OW30088   0.790   4.217   3.592
 9730SOL    HW130089   0.772   4.139   3.531
 9730SOL    HW230090   0.777   4.189   3.687
 9731SOL     OW30091   5.411   5.666   1.950
 9731SOL    HW130092   5.350   5.745   1.961
 9731SOL    HW230093   5.374   5.588   2.001
 9732SOL     OW30094   1.570   3.870   2.265
 9732SOL    HW130095   1.515   3.934   2.211
 9732SOL    HW230096   1.515   3.835   2.341
 9733SOL     OW30097   5.041   5.574   0.263
 9733SOL    HW130098   5.057   5.518   0.346
 9733SOL    HW230099   4.998   5.517   0.193
 9734SOL     OW30100   6.546   0.459   0.491
 9734SOL    HW130101   6.577   0.369   0.523
 9734SOL    HW230102   6.460   0.483   0.538
 9735SOL     OW30103   1.689   2.894   3.605
 9735SOL    HW130104   1.776   2.942   3.602
 9735SOL    HW230105   1.616   2.953   3.571
 9736SOL     OW30106   5.509   1.566   6.255
 9736SOL    HW130107   5.529   1.663   6.271
 9736SOL    HW230108   5.522   1.544   6.158
 9737SOL     OW30109   4.869   2.226   2.794
 9737SOL    HW130110   4.951   2.171   2.778
 9737SOL    HW230111   4.884   2.319   2.762
 9738SOL     OW30112   1.943   6.585   0.942
 9738SOL    HW130113   1.847   6.560   0.957
 9738SOL    HW230114   2.002   6.526   0.996
 9739SOL     OW30115   5.214   5.503   0.726
 9739SOL    HW130116   5.175   5.594   0.710
 9739SOL    HW230117   5.266   5.474   0.646
 9740SOL     OW30118   0.770   1.007   3.399
 9740SOL    HW130119   0.703   0.940   3.368
 9740SOL    HW230120   0.753   1.030   3.495
 9741SOL     OW30121   2.393   1.181   2.680
 9741SOL    HW130122   2.296   1.204   2.689
 9741SOL    HW230123   2.427   1.145   2.767
 9742SOL     OW30124   4.173   0.836   0.562
 9742SOL    HW130125   4.146   0.867   0.653
 9742SOL    HW230126   4.250   0.891   0.530
 9743SOL     OW30127   6.509   4.376   2.910
 9743SOL    HW130128   6.520   4.385   2.811
 9743SOL    HW230129   6.592   4.336   2.949
 9744SOL     OW30130   1.540   0.135   2.110
 9744SOL    HW130131   1.523   0.199   2.035
 9744SOL    HW230132   1.453   0.108   2.151
 9745SOL     OW30133   4.426   2.780   6.318
 9745SOL    HW130134   4.483   2.715   6.267
 9745SOL    HW230135   4.461   2.873   6.303
 9746SOL     OW30136   5.739   0.136   5.663
 9746SOL    HW130137   5.767   0.111   5.570
 9746SOL    HW230138   5.819   0.135   5.723
 9747SOL     OW30139   2.723   2.156   1.922
 9747SOL    HW130140   2.789   2.130   1.851
 9747SOL    HW230141   2.769   2.215   1.989
 9748SOL     OW30142   6.545   6.713   3.767
 9748SOL    HW130143   6.585   6.622   3.757
 9748SOL    HW230144   6.614   6.782   3.747
 9749SOL     OW30145   1.007   0.731   3.951
 9749SOL    HW130146   1.058   0.806   3.994
 9749SOL    HW230147   0.916   0.725   3.992
 9750SOL     OW30148   5.681   5.056   3.289
 9750SOL    HW130149   5.624   4.974   3.298
 9750SOL    HW230150   5.674   5.091   3.196
 9751SOL     OW30151   2.462   0.015   1.116
 9751SOL    HW130152   2.429   0.109   1.114
 9751SOL    HW230153   2.417   6.983   1.045
 9752SOL     OW30154   4.557   1.808   5.092
 9752SOL    HW130155   4.496   1.885   5.111
 9752SOL    HW230156   4.520   1.725   5.134
 9753SOL     OW30157   0.706   5.367   5.525
 9753SOL    HW130158   0.733   5.347   5.431
 9753SOL    HW230159   0.762   5.443   5.560
 9754SOL     OW30160   2.353   0.696   0.793
 9754SOL    HW130161   2.381   0.759   0.866
 9754SOL    HW230162   2.260   0.665   0.810
 9755SOL     OW30163   3.296   3.601   4.321
 9755SOL    HW130164   3.366   3.579   4.389
 9755SOL    HW230165   3.211   3.554   4.345
 9756SOL     OW30166   6.216   2.471   6.110
 9756SOL    HW130167   6.218   2.395   6.174
 9756SOL    HW230168   6.123   2.503   6.099
 9757SOL     OW30169   5.631   4.878   4.997
 9757SOL    HW130170   5.695   4.953   5.010
 9757SOL    HW230171   5.592   4.883   4.904
 9758SOL     OW30172   1.654   1.079   0.692
 9758SOL    HW130173   1.696   1.045   0.776
 9758SOL    HW230174   1.693   1.030   0.614
 9759SOL     OW30175   1.574   1.059   0.206
 9759SOL    HW130176   1.512   1.137   0.196
 9759SOL    HW230177   1.668   1.089   0.195
 9760SOL     OW30178   4.902   3.390   5.703
 9760SOL    HW130179   4.808   3.424   5.697
 9760SOL    HW230180   4.956   3.452   5.760
 9761SOL     OW30181   0.450   2.553   1.698
 9761SOL    HW130182   0.541   2.541   1.737
 9761SOL    HW230183   0.386   2.581   1.770
 9762SOL     OW30184   3.965   1.632   4.749
 9762SOL    HW130185   4.060   1.663   4.741
 9762SOL    HW230186   3.904   1.702   4.710
 9763SOL     OW30187   5.066   1.454   3.537
 9763SOL    HW130188   5.042   1.508   3.457
 9763SOL    HW230189   5.085   1.515   3.614
 9764SOL     OW30190   6.820   2.574   2.811
 9764SOL    HW130191   6.909   2.594   2.852
 9764SOL    HW230192   6.777   2.497   2.860
 9765SOL     OW30193   6.928   6.027   3.242
 9765SOL    HW130194   6.848   6.087   3.227
 9765SOL    HW230195   6.930   5.998   3.338
 9766SOL     OW30196   1.971   6.669   1.924
 9766SOL    HW130197   1.917   6.587   1.941
 9766SOL    HW230198   1.913   6.750   1.933
 9767SOL     OW30199   2.598   2.275   5.791
 9767SOL    HW130200   2.678   2.252   5.846
 9767SOL    HW230201   2.609   2.368   5.754
 9768SOL     OW30202   4.768   1.316   1.241
 9768SOL    HW130203   4.863   1.290   1.259
 9768SOL    HW230204   4.712   1.292   1.320
 9769SOL     OW30205   3.202   1.511   4.929
 9769SOL    HW130206   3.124   1.573   4.934
 9769SOL    HW230207   3.286   1.562   4.945
 9770SOL     OW30208   3.504   0.993   5.785
 9770SOL    HW130209   3.594   0.951   5.799
 9770SOL    HW230210   3.500   1.033   5.694
 9771SOL     OW30211   2.703   5.455   0.914
 9771SOL    HW130212   2.687   5.541   0.962
 9771SOL    HW230213   2.632   5.442   0.844
 9772SOL     OW30214   1.516   6.076   1.693
 9772SOL    HW130215   1.450   6.113   1.758
 9772SOL    HW230216   1.607   6.075   1.735
 9773SOL     OW30217   5.026   5.437   3.666
 9773SOL    HW130218   5.074   5.408   3.749
 9773SOL    HW230219   5.015   5.536   3.668
 9774SOL     OW30220   0.004   4.942   1.815
 9774SOL    HW130221   6.979   5.031   1.816
 9774SOL    HW230222   7.012   4.899   1.726
 9775SOL     OW30223   3.314   0.321   3.523
 9775SOL    HW130224   3.319   0.380   3.604
 9775SOL    HW230225   3.317   0.225   3.551
 9776SOL     OW30226   0.910   5.218   5.694
 9776SOL    HW130227   0.835   5.244   5.634
 9776SOL    HW230228   0.945   5.298   5.742
 9777SOL     OW30229   6.204   4.562   0.629
 9777SOL    HW130230   6.187   4.572   0.531
 9777SOL    HW230231   6.205   4.465   0.654
 9778SOL     OW30232   0.161   1.588   4.453
 9778SOL    HW130233   0.240   1.541   4.494
 9778SOL    HW230234   0.159   1.683   4.484
 9779SOL     OW30235   0.408   1.235   3.996
 9779SOL    HW130236   0.441   1.249   3.903
 9779SOL    HW230237   0.485   1.215   4.057
 9780SOL     OW30238   2.363   2.382   0.271
 9780SOL    HW130239   2.320   2.470   0.293
 9780SOL    HW230240   2.307   2.307   0.307
 9781SOL     OW30241   1.983   2.429   5.115
 9781SOL    HW130242   1.931   2.479   5.184
 9781SOL    HW230243   2.059   2.485   5.084
 9782SOL     OW30244   0.563   2.068   0.433
 9782SOL    HW130245   0.480   2.088   0.380
 9782SOL    HW230246   0.573   2.137   0.506
 9783SOL     OW30247   4.517   2.530   3.516
 9783SOL    HW130248   4.525   2.629   3.526
 9783SOL    HW230249   4.602   2.486   3.547
 9784SOL     OW30250   3.322   0.916   6.468
 9784SOL    HW130251   3.240   0.866   6.440
 9784SOL    HW230252   3.392   0.906   6.398
 9785SOL     OW30253   0.139   2.101   5.476
 9785SOL    HW130254   0.209   2.114   5.546
 9785SOL    HW230255   0.071   2.034   5.508
 9786SOL     OW30256   2.748   4.145   0.309
 9786SOL    HW130257   2.678   4.189   0.365
 9786SOL    HW230258   2.750   4.047   0.329
 9787SOL     OW30259   3.411   2.882   2.603
 9787SOL    HW130260   3.414   2.876   2.703
 9787SOL    HW230261   3.324   2.922   2.575
 9788SOL     OW30262   0.851   7.000   2.453
 9788SOL    HW130263   0.770   7.005   2.396
 9788SOL    HW230264   0.828   0.005   2.547
 9789SOL     OW30265   1.847   5.547   0.549
 9789SOL    HW130266   1.915   5.539   0.623
 9789SOL    HW230267   1.779   5.475   0.558
 9790SOL     OW30268   6.308   4.785   6.551
 9790SOL    HW130269   6.305   4.703   6.493
 9790SOL    HW230270   6.403   4.813   6.564
 9791SOL     OW30271   0.327   0.020   6.587
 9791SOL    HW130272   0.367   6.954   6.559
 9791SOL    HW230273   0.400   0.087   6.602
 9792SOL     OW30274   2.974   4.041   0.853
 9792SOL    HW130275   2.912   3.974   0.812
 9792SOL    HW230276   2.962   4.130   0.808
 9793SOL     OW30277   4.095   0.292   2.362
 9793SOL    HW130278   4.037   0.362   2.405
 9793SOL    HW230279   4.116   0.220   2.428
 9794SOL     OW30280   6.634   4.278   6.363
 9794SOL    HW130281   6.638   4.361   6.419
 9794SOL    HW230282   6.681   4.204   6.410
 9795SOL     OW30283   1.292   1.831   4.618
 9795SOL    HW130284   1.321   1.806   4.711
 9795SOL    HW230285   1.350   1.904   4.584
 9796SOL     OW30286   4.125   3.439   2.310
 9796SOL    HW130287   4.027   3.438   2.286
 9796SOL    HW230288   4.178   3.413   2.229
 9797SOL     OW30289   2.279   5.576   0.726
 9797SOL    HW130290   2.305   5.596   0.631
 9797SOL    HW230291   2.345   5.514   0.767
 9798SOL     OW30292   3.370   0.806   2.398
 9798SOL    HW130293   3.364   0.706   2.393
 9798SOL    HW230294   3.465   0.834   2.387
 9799SOL     OW30295   2.343   4.219   5.673
 9799SOL    HW130296   2.281   4.145   5.645
 9799SOL    HW230297   2.292   4.305   5.676
 9800SOL     OW30298   4.855   5.403   5.047
 9800SOL    HW130299   4.937   5.387   5.103
 9800SOL    HW230300   4.833   5.500   5.048
 9801SOL     OW30301   4.256   3.839   6.778
 9801SOL    HW130302   4.170   3.802   6.742
 9801SOL    HW230303   4.286   3.916   6.721
 9802SOL     OW30304   5.975   4.872   1.849
 9802SOL    HW130305   5.951   4.785   1.891
 9802SOL    HW230306   5.900   4.938   1.862
 9803SOL     OW30307   1.994   2.347   6.426
 9803SOL    HW130308   1.918   2.292   6.391
 9803SOL    HW230309   1.959   2.414   6.491
 9804SOL     OW30310   0.760   6.646   3.101
 9804SOL    HW130311   0.835   6.702   3.137
 9804SOL    HW230312   0.797   6.570   3.048
 9805SOL     OW30313   0.526   6.862   2.758
 9805SOL    HW130314   0.606   6.874   2.818
 9805SOL    HW230315   0.472   6.784   2.789
 9806SOL     OW30316   1.545   1.769   6.729
 9806SOL    HW130317   1.485   1.698   6.692
 9806SOL    HW230318   1.556   1.842   6.661
 9807SOL     OW30319   3.159   3.721   1.641
 9807SOL    HW130320   3.201   3.794   1.694
 9807SOL    HW230321   3.108   3.760   1.564
 9808SOL     OW30322   3.976   6.681   4.896
 9808SOL    HW130323   3.919   6.754   4.859
 9808SOL    HW230324   3.917   6.604   4.923
 9809SOL     OW30325   0.937   3.670   6.784
 9809SOL    HW130326   0.920   3.728   6.705
 9809SOL    HW230327   0.890   3.582   6.772
 9810SOL     OW30328   2.979   2.227   4.499
 9810SOL    HW130329   2.883   2.249   4.481
 9810SOL    HW230330   3.008   2.273   4.583
 9811SOL     OW30331   5.533   4.816   3.306
 9811SOL    HW130332   5.486   4.839   3.391
 9811SOL    HW230333   5.609   4.754   3.325
 9812SOL     OW30334   3.842   1.355   5.499
 9812SOL    HW130335   3.798   1.290   5.437
 9812SOL    HW230336   3.781   1.374   5.576
 9813SOL     OW30337   4.774   1.754   0.750
 9813SOL    HW130338   4.863   1.731   0.710
 9813SOL    HW230339   4.784   1.763   0.849
 9814SOL     OW30340   6.925   0.108   6.607
 9814SOL    HW130341   6.940   0.196   6.651
 9814SOL    HW230342   6.991   0.096   6.533
 9815SOL     OW30343   4.851   3.662   4.414
 9815SOL    HW130344   4.842   3.663   4.514
 9815SOL    HW230345   4.945   3.642   4.389
 9816SOL     OW30346   0.909   1.065   6.026
 9816SOL    HW130347   0.858   1.112   5.954
 9816SOL    HW230348   0.942   0.977   5.991
 9817SOL     OW30349   2.582   6.441   3.544
 9817SOL    HW130350   2.515   6.466   3.474
 9817SOL    HW230351   2.672   6.430   3.501
 9818SOL     OW30352   6.999   0.824   3.764
 9818SOL    HW130353   7.006   0.810   3.665
 9818SOL    HW230354   6.992   0.922   3.783
 9819SOL     OW30355   5.467   3.458   3.449
 9819SOL    HW130356   5.441   3.530   3.385
 9819SOL    HW230357   5.430   3.371   3.418
 9820SOL     OW30358   3.556   2.963   6.572
 9820SOL    HW130359   3.555   2.962   6.472
 9820SOL    HW230360   3.505   3.043   6.605
 9821SOL     OW30361   5.456   1.289   0.039
 9821SOL    HW130362   5.428   1.320   6.969
 9821SOL    HW230363   5.393   1.324   0.107
 9822SOL     OW30364   2.038   6.909   3.074
 9822SOL    HW130365   1.957   6.938   3.126
 9822SOL    HW230366   2.032   6.811   3.055
 9823SOL     OW30367   2.628   0.482   7.003
 9823SOL    HW130368   2.614   0.390   6.964
 9823SOL    HW230369   2.579   0.489   0.068
 9824SOL     OW30370   2.019   5.239   4.479
 9824SOL    HW130371   2.067   5.192   4.553
 9824SOL    HW230372   1.938   5.187   4.453
 9825SOL     OW30373   4.229   5.155   5.293
 9825SOL    HW130374   4.251   5.107   5.208
 9825SOL    HW230375   4.232   5.253   5.278
 9826SOL     OW30376   5.464   5.282   6.302
 9826SOL    HW130377   5.510   5.210   6.354
 9826SOL    HW230378   5.467   5.368   6.353
 9827SOL     OW30379   2.120   3.837   3.515
 9827SOL    HW130380   2.020   3.838   3.507
 9827SOL    HW230381   2.161   3.853   3.425
 9828SOL     OW30382   2.050   2.733   5.995
 9828SOL    HW130383   2.122   2.799   6.015
 9828SOL    HW230384   2.091   2.646   5.968
 9829SOL     OW30385   3.779   5.026   0.307
 9829SOL    HW130386   3.833   5.097   0.262
 9829SOL    HW230387   3.780   5.040   0.405
 9830SOL     OW30388   5.983   2.725   1.899
 9830SOL    HW130389   5.956   2.818   1.875
 9830SOL    HW230390   5.956   2.662   1.827
 9831SOL     OW30391   2.192   4.960   1.304
 9831SOL    HW130392   2.283   4.933   1.335
 9831SOL    HW230393   2.173   4.916   1.216
 9832SOL     OW30394   4.859   5.391   3.098
 9832SOL    HW130395   4.809   5.305   3.089
 9832SOL    HW230396   4.833   5.435   3.184
 9833SOL     OW30397   3.589   3.836   5.243
 9833SOL    HW130398   3.660   3.812   5.176
 9833SOL    HW230399   3.500   3.835   5.197
 9834SOL     OW30400   3.108   4.714   5.230
 9834SOL    HW130401   3.044   4.637   5.219
 9834SOL    HW230402   3.176   4.691   5.299
 9835SOL     OW30403   3.521   3.114   5.650
 9835SOL    HW130404   3.534   3.209   5.623
 9835SOL    HW230405   3.541   3.054   5.573
 9836SOL     OW30406   6.359   5.042   3.788
 9836SOL    HW130407   6.358   4.974   3.714
 9836SOL    HW230408   6.408   5.005   3.867
 9837SOL     OW30409   3.194   0.532   3.288
 9837SOL    HW130410   3.128   0.460   3.264
 9837SOL    HW230411   3.232   0.571   3.205
 9838SOL     OW30412   1.710   6.966   6.603
 9838SOL    HW130413   1.715   6.917   6.516
 9838SOL    HW230414   1.781   0.016   6.605
 9839SOL     OW30415   5.813   0.754   3.769
 9839SOL    HW130416   5.783   0.708   3.686
 9839SOL    HW230417   5.869   0.834   3.745
 9840SOL     OW30418   6.599   1.416   1.133
 9840SOL    HW130419   6.571   1.509   1.158
 9840SOL    HW230420   6.559   1.351   1.197
 9841SOL     OW30421   1.658   4.190   5.133
 9841SOL    HW130422   1.663   4.240   5.220
 9841SOL    HW230423   1.745   4.147   5.114
 9842SOL     OW30424   4.095   3.157   2.520
 9842SOL    HW130425   4.042   3.187   2.441
 9842SOL    HW230426   4.179   3.211   2.527
 9843SOL     OW30427   6.075   0.781   1.032
 9843SOL    HW130428   6.017   0.852   1.072
 9843SOL    HW230429   6.153   0.824   0.987
 9844SOL     OW30430   6.405   0.920   2.168
 9844SOL    HW130431   6.325   0.861   2.156
 9844SOL    HW230432   6.463   0.915   2.087
 9845SOL     OW30433   2.785   2.175   4.059
 9845SOL    HW130434   2.877   2.142   4.083
 9845SOL    HW230435   2.717   2.113   4.097
 9846SOL     OW30436   4.144   3.670   1.607
 9846SOL    HW130437   4.208   3.597   1.583
 9846SOL    HW230438   4.157   3.747   1.545
 9847SOL     OW30439   3.323   2.883   4.113
 9847SOL    HW130440   3.254   2.948   4.082
 9847SOL    HW230441   3.315   2.798   4.060
 9848SOL     OW30442   3.209   3.738   5.265
 9848SOL    HW130443   3.252   3.734   5.175
 9848SOL    HW230444   3.120   3.692   5.262
 9849SOL     OW30445   0.490   6.516   6.432
 9849SOL    HW130446   0.525   6.442   6.490
 9849SOL    HW230447   0.553   6.533   6.357
 9850SOL     OW30448   6.013   0.112   3.915
 9850SOL    HW130449   5.924   0.070   3.933
 9850SOL    HW230450   6.002   0.210   3.900
 9851SOL     OW30451   5.006   0.577   4.797
 9851SOL    HW130452   5.041   0.506   4.735
 9851SOL    HW230453   5.060   0.660   4.785
 9852SOL     OW30454   4.072   2.248   3.657
 9852SOL    HW130455   4.104   2.260   3.563
 9852SOL    HW230456   4.121   2.312   3.717
 9853SOL     OW30457   5.156   3.966   4.765
 9853SOL    HW130458   5.144   3.917   4.678
 9853SOL    HW230459   5.074   4.020   4.784
 9854SOL     OW30460   0.247   5.875   4.672
 9854SOL    HW130461   0.332   5.912   4.634
 9854SOL    HW230462   0.176   5.876   4.602
 9855SOL     OW30463   2.634   2.995   0.675
 9855SOL    HW130464   2.691   2.941   0.614
 9855SOL    HW230465   2.541   2.999   0.639
 9856SOL     OW30466   5.320   4.801   5.311
 9856SOL    HW130467   5.295   4.863   5.237
 9856SOL    HW230468   5.419   4.797   5.319
 9857SOL     OW30469   4.457   2.023   3.659
 9857SOL    HW130470   4.452   2.011   3.560
 9857SOL    HW230471   4.373   1.989   3.701
 9858SOL     OW30472   6.725   0.774   1.206
 9858SOL    HW130473   6.684   0.689   1.174
 9858SOL    HW230474   6.819   0.781   1.175
 9859SOL     OW30475   6.251   0.388   2.231
 9859SOL    HW130476   6.269   0.324   2.157
 9859SOL    HW230477   6.307   0.364   2.310
 9860SOL     OW30478   1.240   1.350   3.942
 9860SOL    HW130479   1.197   1.262   3.922
 9860SOL    HW230480   1.210   1.381   4.033
 9861SOL     OW30481   3.060   0.046   3.432
 9861SOL    HW130482   3.030   0.054   3.337
 9861SOL    HW230483   3.055   0.136   3.476
 9862SOL     OW30484   4.059   3.665   0.074
 9862SOL    HW130485   4.073   3.741   0.137
 9862SOL    HW230486   4.015   3.590   0.123
 9863SOL     OW30487   3.242   6.845   3.262
 9863SOL    HW130488   3.326   6.886   3.226
 9863SOL    HW230489   3.176   6.916   3.282
 9864SOL     OW30490   3.887   6.528   4.200
 9864SOL    HW130491   3.873   6.627   4.196
 9864SOL    HW230492   3.971   6.508   4.250
 9865SOL     OW30493   1.348   1.092   4.500
 9865SOL    HW130494   1.447   1.088   4.493
 9865SOL    HW230495   1.315   1.178   4.462
 9866SOL     OW30496   5.031   4.989   6.136
 9866SOL    HW130497   4.958   5.054   6.116
 9866SOL    HW230498   5.050   4.935   6.053
 9867SOL     OW30499   6.524   0.909   0.885
 9867SOL    HW130500   6.468   0.840   0.930
 9867SOL    HW230501   6.587   0.950   0.950
 9868SOL     OW30502   0.565   3.807   6.335
 9868SOL    HW130503   0.594   3.900   6.360
 9868SOL    HW230504   0.505   3.771   6.407
 9869SOL     OW30505   1.870   3.261   2.359
 9869SOL    HW130506   1.941   3.261   2.429
 9869SOL    HW230507   1.912   3.261   2.268
 9870SOL     OW30508   3.648   5.521   2.574
 9870SOL    HW130509   3.745   5.520   2.551
 9870SOL    HW230510   3.609   5.430   2.560
 9871SOL     OW30511   0.577   5.535   5.768
 9871SOL    HW130512   0.670   5.544   5.733
 9871SOL    HW230513   0.520   5.487   5.701
 9872SOL     OW30514   2.177   5.263   3.949
 9872SOL    HW130515   2.078   5.277   3.937
 9872SOL    HW230516   2.214   5.219   3.867
 9873SOL     OW30517   2.842   2.389   0.115
 9873SOL    HW130518   2.745   2.376   0.132
 9873SOL    HW230519   2.858   2.478   0.072
 9874SOL     OW30520   6.537   3.109   5.056
 9874SOL    HW130521   6.530   3.192   5.001
 9874SOL    HW230522   6.632   3.093   5.082
 9875SOL     OW30523   6.061   6.032   2.047
 9875SOL    HW130524   6.089   6.033   1.951
 9875SOL    HW230525   6.140   6.056   2.104
 9876SOL     OW30526   6.442   0.203   3.427
 9876SOL    HW130527   6.486   0.205   3.337
 9876SOL    HW230528   6.351   0.243   3.420
 9877SOL     OW30529   6.965   6.113   4.150
 9877SOL    HW130530   6.904   6.128   4.072
 9877SOL    HW230531   6.948   6.183   4.219
 9878SOL     OW30532   2.582   4.653   4.963
 9878SOL    HW130533   2.675   4.625   4.987
 9878SOL    HW230534   2.577   4.671   4.865
 9879SOL     OW30535   5.407   5.431   5.105
 9879SOL    HW130536   5.461   5.514   5.117
 9879SOL    HW230537   5.322   5.453   5.056
 9880SOL     OW30538   3.441   0.911   6.229
 9880SOL    HW130539   3.491   0.841   6.178
 9880SOL    HW230540   3.374   0.955   6.169
 9881SOL     OW30541   0.623   0.959   5.032
 9881SOL    HW130542   0.661   0.932   5.120
 9881SOL    HW230543   0.607   1.058   5.032
 9882SOL     OW30544   1.229   3.476   3.874
 9882SOL    HW130545   1.144   3.439   3.909
 9882SOL    HW230546   1.303   3.461   3.940
 9883SOL     OW30547   1.222   6.511   0.136
 9883SOL    HW130548   1.183   6.571   0.067
 9883SOL    HW230549   1.148   6.471   0.191
 9884SOL     OW30550   5.179   2.399   1.584
 9884SOL    HW130551   5.261   2.451   1.560
 9884SOL    HW230552   5.201   2.301   1.587
 9885SOL     OW30553   6.620   2.184   5.077
 9885SOL    HW130554   6.594   2.117   5.146
 9885SOL    HW230555   6.719   2.184   5.066
 9886SOL     OW30556   1.082   4.612   2.716
 9886SOL    HW130557   1.051   4.539   2.654
 9886SOL    HW230558   1.010   4.680   2.724
 9887SOL     OW30559   4.212   0.469   6.549
 9887SOL    HW130560   4.279   0.543   6.548
 9887SOL    HW230561   4.121   0.507   6.534
 9888SOL     OW30562   5.684   4.745   2.609
 9888SOL    HW130563   5.728   4.680   2.547
 9888SOL    HW230564   5.711   4.725   2.703
 9889SOL     OW30565   6.670   4.929   1.508
 9889SOL    HW130566   6.695   5.022   1.480
 9889SOL    HW230567   6.691   4.865   1.434
 9890SOL     OW30568   1.315   2.659   0.788
 9890SOL    HW130569   1.241   2.652   0.855
 9890SOL    HW230570   1.393   2.605   0.817
 9891SOL     OW30571   5.399   3.208   2.168
 9891SOL    HW130572   5.305   3.175   2.166
 9891SOL    HW230573   5.448   3.173   2.089
 9892SOL     OW30574   0.284   4.792   1.011
 9892SOL    HW130575   0.335   4.826   1.090
 9892SOL    HW230576   0.303   4.850   0.932
 9893SOL     OW30577   0.979   0.925   1.262
 9893SOL    HW130578   0.981   1.024   1.269
 9893SOL    HW230579   1.033   0.896   1.183
 9894SOL     OW30580   3.412   2.668   0.579
 9894SOL    HW130581   3.415   2.711   0.489
 9894SOL    HW230582   3.332   2.608   0.586
 9895SOL     OW30583   5.845   5.068   5.037
 9895SOL    HW130584   5.925   5.037   5.088
 9895SOL    HW230585   5.861   5.161   5.004
 9896SOL     OW30586   6.201   1.006   0.412
 9896SOL    HW130587   6.132   0.982   0.481
 9896SOL    HW230588   6.243   1.093   0.436
 9897SOL     OW30589   5.758   6.346   2.508
 9897SOL    HW130590   5.745   6.337   2.607
 9897SOL    HW230591   5.700   6.280   2.460
 9898SOL     OW30592   1.494   5.194   5.102
 9898SOL    HW130593   1.435   5.274   5.093
 9898SOL    HW230594   1.464   5.123   5.038
 9899SOL     OW30595   1.729   5.920   0.785
 9899SOL    HW130596   1.686   5.971   0.710
 9899SOL    HW230597   1.814   5.879   0.754
 9900SOL     OW30598   1.248   2.692   3.424
 9900SOL    HW130599   1.346   2.708   3.422
 9900SOL    HW230600   1.202   2.757   3.364
 9901SOL     OW30601   2.910   0.705   6.681
 9901SOL    HW130602   2.919   0.607   6.698
 9901SOL    HW230603   2.838   0.743   6.738
 9902SOL     OW30604   2.792   4.754   1.511
 9902SOL    HW130605   2.862   4.743   1.440
 9902SOL    HW230606   2.835   4.774   1.598
 9903SOL     OW30607   5.935   2.011   1.975
 9903SOL    HW130608   6.010   1.945   1.974
 9903SOL    HW230609   5.848   1.962   1.988
 9904SOL     OW30610   0.809   4.039   0.340
 9904SOL    HW130611   0.909   4.044   0.334
 9904SOL    HW230612   0.783   3.949   0.376
 9905SOL     OW30613   2.341   0.789   6.228
 9905SOL    HW130614   2.361   0.707   6.282
 9905SOL    HW230615   2.261   0.835   6.265
 9906SOL     OW30616   1.718   3.045   0.656
 9906SOL    HW130617   1.672   2.959   0.631
 9906SOL    HW230618   1.791   3.065   0.591
 9907SOL     OW30619   0.551   0.138   0.726
 9907SOL    HW130620   0.553   0.133   0.626
 9907SOL    HW230621   0.640   0.166   0.760
 9908SOL     OW30622   6.782   1.637   5.572
 9908SOL    HW130623   6.861   1.624   5.632
 9908SOL    HW230624   6.812   1.672   5.483
 9909SOL     OW30625   4.401   1.105   2.713
 9909SOL    HW130626   4.382   1.037   2.784
 9909SOL    HW230627   4.323   1.167   2.704
 9910SOL     OW30628   1.144   4.987   1.914
 9910SOL    HW130629   1.233   5.004   1.873
 9910SOL    HW230630   1.082   4.952   1.844
 9911SOL     OW30631   3.084   6.223   2.375
 9911SOL    HW130632   3.105   6.268   2.288
 9911SOL    HW230633   3.036   6.287   2.435
 9912SOL     OW30634   3.557   1.084   1.244
 9912SOL    HW130635   3.553   1.114   1.148
 9912SOL    HW230636   3.469   1.044   1.270
 9913SOL     OW30637   6.795   4.054   0.647
 9913SOL    HW130638   6.719   3.988   0.642
 9913SOL    HW230639   6.794   4.112   0.565
 9914SOL     OW30640   5.834   1.014   4.661
 9914SOL    HW130641   5.926   1.000   4.626
 9914SOL    HW230642   5.791   0.926   4.678
 9915SOL     OW30643   5.971   0.945   3.704
 9915SOL    HW130644   6.022   0.944   3.790
 9915SOL    HW230645   5.975   1.036   3.664
 9916SOL     OW30646   2.397   2.328   3.287
 9916SOL    HW130647   2.484   2.354   3.245
 9916SOL    HW230648   2.322   2.371   3.237
 9917SOL     OW30649   4.070   3.731   6.230
 9917SOL    HW130650   4.002   3.794   6.193
 9917SOL    HW230651   4.115   3.683   6.154
 9918SOL     OW30652   1.963   2.323   2.907
 9918SOL    HW130653   2.012   2.297   2.824
 9918SOL    HW230654   1.933   2.418   2.900
 9919SOL     OW30655   1.221   5.637   1.084
 9919SOL    HW130656   1.183   5.680   1.165
 9919SOL    HW230657   1.301   5.582   1.109
 9920SOL     OW30658   4.905   0.565   2.546
 9920SOL    HW130659   4.914   0.468   2.569
 9920SOL    HW230660   4.937   0.621   2.622
 9921SOL     OW30661   4.278   6.432   4.820
 9921SOL    HW130662   4.264   6.461   4.915
 9921SOL    HW230663   4.357   6.371   4.815
 9922SOL     OW30664   3.447   3.835   1.151
 9922SOL    HW130665   3.352   3.865   1.163
 9922SOL    HW230666   3.487   3.817   1.241
 9923SOL     OW30667   5.855   4.594   6.790
 9923SOL    HW130668   5.821   4.620   6.699
 9923SOL    HW230669   5.845   4.671   6.853
 9924SOL     OW30670   6.343   1.870   3.442
 9924SOL    HW130671   6.312   1.919   3.361
 9924SOL    HW230672   6.409   1.800   3.416
 9925SOL     OW30673   0.296   5.064   3.906
 9925SOL    HW130674   0.262   5.130   3.973
 9925SOL    HW230675   0.243   4.980   3.913
 9926SOL     OW30676   4.323   2.742   1.291
 9926SOL    HW130677   4.314   2.834   1.251
 9926SOL    HW230678   4.232   2.707   1.312
 9927SOL     OW30679   1.426   6.808   0.673
 9927SOL    HW130680   1.424   6.858   0.759
 9927SOL    HW230681   1.472   6.863   0.603
 9928SOL     OW30682   4.833   5.093   2.875
 9928SOL    HW130683   4.808   5.049   2.962
 9928SOL    HW230684   4.783   5.049   2.800
 9929SOL     OW30685   3.272   4.145   4.626
 9929SOL    HW130686   3.246   4.054   4.594
 9929SOL    HW230687   3.192   4.191   4.666
 9930SOL     OW30688   0.041   6.345   5.719
 9930SOL    HW130689   0.011   6.403   5.644
 9930SOL    HW230690   0.134   6.370   5.746
 9931SOL     OW30691   0.097   5.598   4.570
 9931SOL    HW130692   0.086   5.503   4.596
 9931SOL    HW230693   0.192   5.626   4.582
 9932SOL     OW30694   2.562   3.079   6.225
 9932SOL    HW130695   2.475   3.082   6.176
 9932SOL    HW230696   2.596   2.985   6.229
 9933SOL     OW30697   1.474   6.954   3.697
 9933SOL    HW130698   1.478   6.995   3.788
 9933SOL    HW230699   1.422   6.869   3.701
 9934SOL     OW30700   6.809   2.255   5.624
 9934SOL    HW130701   6.757   2.263   5.538
 9934SOL    HW230702   6.899   2.297   5.613
 9935SOL     OW30703   3.183   6.764   1.100
 9935SOL    HW130704   3.143   6.708   1.173
 9935SOL    HW230705   3.113   6.825   1.062
 9936SOL     OW30706   6.678   4.478   1.142
 9936SOL    HW130707   6.740   4.543   1.096
 9936SOL    HW230708   6.583   4.500   1.118
 9937SOL     OW30709   0.511   2.102   1.517
 9937SOL    HW130710   0.563   2.050   1.449
 9937SOL    HW230711   0.563   2.182   1.545
 9938SOL     OW30712   6.115   4.791   3.980
 9938SOL    HW130713   6.047   4.818   3.910
 9938SOL    HW230714   6.090   4.703   4.018
 9939SOL     OW30715   4.972   2.984   1.284
 9939SOL    HW130716   4.900   2.928   1.243
 9939SOL    HW230717   5.052   2.983   1.224
 9940SOL     OW30718   1.099   0.948   1.727
 9940SOL    HW130719   1.043   0.918   1.805
 9940SOL    HW230720   1.043   1.003   1.665
 9941SOL     OW30721   3.518   3.028   5.088
 9941SOL    HW130722   3.578   3.099   5.050
 9941SOL    HW230723   3.573   2.951   5.120
 9942SOL     OW30724   2.829   5.228   2.668
 9942SOL    HW130725   2.837   5.327   2.679
 9942SOL    HW230726   2.891   5.197   2.596
 9943SOL     OW30727   0.874   4.453   6.542
 9943SOL    HW130728   0.869   4.357   6.514
 9943SOL    HW230729   0.843   4.512   6.467
 9944SOL     OW30730   1.002   4.903   6.529
 9944SOL    HW130731   0.918   4.872   6.484
 9944SOL    HW230732   1.002   4.871   6.624
 9945SOL     OW30733   4.532   6.020   0.058
 9945SOL    HW130734   4.467   5.944   0.046
 9945SOL    HW230735   4.535   6.047   0.154
 9946SOL     OW30736   6.000   0.673   3.371
 9946SOL    HW130737   6.021   0.756   3.423
 9946SOL    HW230738   6.011   0.692   3.273
 9947SOL     OW30739   3.055   2.180   4.806
 9947SOL    HW130740   2.962   2.146   4.814
 9947SOL    HW230741   3.082   2.223   4.893
 9948SOL     OW30742   6.747   4.734   6.255
 9948SOL    HW130743   6.816   4.790   6.300
 9948SOL    HW230744   6.792   4.672   6.190
 9949SOL     OW30745   6.595   4.475   4.040
 9949SOL    HW130746   6.518   4.504   3.984
 9949SOL    HW230747   6.658   4.420   3.985
 9950SOL     OW30748   5.518   6.065   5.846
 9950SOL    HW130749   5.465   5.979   5.846
 9950SOL    HW230750   5.612   6.046   5.873
 9951SOL     OW30751   1.532   2.125   3.806
 9951SOL    HW130752   1.608   2.129   3.741
 9951SOL    HW230753   1.492   2.034   3.806
 9952SOL     OW30754   1.351   4.957   0.547
 9952SOL    HW130755   1.267   4.921   0.507
 9952SOL    HW230756   1.429   4.907   0.511
 9953SOL     OW30757   6.241   2.558   4.439
 9953SOL    HW130758   6.277   2.525   4.352
 9953SOL    HW230759   6.278   2.648   4.459
 9954SOL     OW30760   0.979   0.789   5.911
 9954SOL    HW130761   1.052   0.723   5.894
 9954SOL    HW230762   0.918   0.792   5.832
 9955SOL     OW30763   5.643   4.099   5.962
 9955SOL    HW130764   5.674   4.039   6.036
 9955SOL    HW230765   5.722   4.132   5.910
 9956SOL     OW30766   0.456   5.768   2.766
 9956SOL    HW130767   0.423   5.862   2.757
 9956SOL    HW230768   0.511   5.760   2.849
 9957SOL     OW30769   5.798   0.233   1.994
 9957SOL    HW130770   5.718   0.229   1.933
 9957SOL    HW230771   5.867   0.169   1.963
 9958SOL     OW30772   1.870   5.579   6.336
 9958SOL    HW130773   1.861   5.505   6.269
 9958SOL    HW230774   1.819   5.555   6.418
 9959SOL     OW30775   4.086   3.660   4.236
 9959SOL    HW130776   4.096   3.642   4.138
 9959SOL    HW230777   4.163   3.716   4.267
 9960SOL     OW30778   6.712   0.361   2.246
 9960SOL    HW130779   6.786   0.428   2.251
 9960SOL    HW230780   6.748   0.269   2.258
 9961SOL     OW30781   1.469   5.561   4.541
 9961SOL    HW130782   1.465   5.574   4.442
 9961SOL    HW230783   1.558   5.523   4.566
 9962SOL     OW30784   4.836   6.813   1.820
 9962SOL    HW130785   4.887   6.833   1.736
 9962SOL    HW230786   4.898   6.816   1.898
 9963SOL     OW30787   2.905   2.755   6.238
 9963SOL    HW130788   2.902   2.674   6.179
 9963SOL    HW230789   2.813   2.793   6.246
 9964SOL     OW30790   4.561   3.701   5.606
 9964SOL    HW130791   4.547   3.615   5.557
 9964SOL    HW230792   4.559   3.777   5.541
 9965SOL     OW30793   3.801   4.824   6.391
 9965SOL    HW130794   3.852   4.752   6.345
 9965SOL    HW230795   3.720   4.786   6.434
 9966SOL     OW30796   2.180   5.802   2.160
 9966SOL    HW130797   2.244   5.876   2.180
 9966SOL    HW230798   2.147   5.812   2.065
 9967SOL     OW30799   6.175   6.812   2.234
 9967SOL    HW130800   6.141   6.853   2.319
 9967SOL    HW230801   6.107   6.826   2.161
 9968SOL     OW30802   3.202   3.761   6.621
 9968SOL    HW130803   3.133   3.718   6.680
 9968SOL    HW230804   3.249   3.690   6.568
 9969SOL     OW30805   1.869   2.535   4.239
 9969SOL    HW130806   1.813   2.478   4.180
 9969SOL    HW230807   1.957   2.489   4.255
 9970SOL     OW30808   5.526   4.243   3.014
 9970SOL    HW130809   5.455   4.272   3.078
 9970SOL    HW230810   5.613   4.235   3.063
 9971SOL     OW30811   2.731   3.864   0.329
 9971SOL    HW130812   2.798   3.843   0.258
 9971SOL    HW230813   2.689   3.780   0.361
 9972SOL     OW30814   3.559   4.549   0.641
 9972SOL    HW130815   3.472   4.591   0.614
 9972SOL    HW230816   3.543   4.456   0.673
 9973SOL     OW30817   4.432   1.787   4.106
 9973SOL    HW130818   4.383   1.706   4.074
 9973SOL    HW230819   4.464   1.772   4.199
 9974SOL     OW30820   6.362   4.017   3.335
 9974SOL    HW130821   6.448   4.066   3.348
 9974SOL    HW230822   6.311   4.059   3.261
 9975SOL     OW30823   6.529   4.331   0.786
 9975SOL    HW130824   6.496   4.421   0.755
 9975SOL    HW230825   6.621   4.340   0.823
 9976SOL     OW30826   0.267   5.999   5.440
 9976SOL    HW130827   0.176   6.015   5.479
 9976SOL    HW230828   0.336   6.046   5.496
 9977SOL     OW30829   0.234   5.154   6.003
 9977SOL    HW130830   0.251   5.251   5.988
 9977SOL    HW230831   0.136   5.136   6.003
 9978SOL     OW30832   6.187   3.037   3.201
 9978SOL    HW130833   6.140   3.019   3.114
 9978SOL    HW230834   6.155   3.124   3.239
 9979SOL     OW30835   6.301   5.103   5.550
 9979SOL    HW130836   6.317   5.049   5.467
 9979SOL    HW230837   6.322   5.199   5.531
 9980SOL     OW30838   1.770   1.858   6.059
 9980SOL    HW130839   1.798   1.907   6.142
 9980SOL    HW230840   1.813   1.768   6.058
 9981SOL     OW30841   2.511   2.038   1.806
 9981SOL    HW130842   2.590   2.069   1.857
 9981SOL    HW230843   2.479   2.111   1.745
 9982SOL     OW30844   0.448   0.852   3.799
 9982SOL    HW130845   0.373   0.917   3.807
 9982SOL    HW230846   0.535   0.897   3.820
 9983SOL     OW30847   1.433   2.556   2.982
 9983SOL    HW130848   1.417   2.592   2.890
 9983SOL    HW230849   1.351   2.567   3.037
 9984SOL     OW30850   1.373   0.930   0.387
 9984SOL    HW130851   1.328   0.895   0.305
 9984SOL    HW230852   1.468   0.954   0.366
 9985SOL     OW30853   2.093   0.883   1.933
 9985SOL    HW130854   2.163   0.950   1.958
 9985SOL    HW230855   2.003   0.917   1.961
 9986SOL     OW30856   4.513   3.852   6.270
 9986SOL    HW130857   4.468   3.819   6.353
 9986SOL    HW230858   4.458   3.925   6.229
 9987SOL     OW30859   6.228   2.046   3.261
 9987SOL    HW130860   6.169   2.101   3.321
 9987SOL    HW230861   6.192   2.048   3.168
 9988SOL     OW30862   0.491   5.986   4.571
 9988SOL    HW130863   0.495   6.081   4.539
 9988SOL    HW230864   0.578   5.962   4.613
 9989SOL     OW30865   6.266   4.280   3.547
 9989SOL    HW130866   6.206   4.252   3.472
 9989SOL    HW230867   6.231   4.366   3.586
 9990SOL     OW30868   2.737   6.656   2.189
 9990SOL    HW130869   2.730   6.558   2.207
 9990SOL    HW230870   2.758   6.671   2.092
 9991SOL     OW30871   1.965   3.114   3.943
 9991SOL    HW130872   1.966   3.184   3.873
 9991SOL    HW230873   1.908   3.144   4.020
 9992SOL     OW30874   5.019   4.195   0.215
 9992SOL    HW130875   4.944   4.140   0.178
 9992SOL    HW230876   5.051   4.154   0.301
 9993SOL     OW30877   3.883   0.418   1.906
 9993SOL    HW130878   3.899   0.471   1.990
 9993SOL    HW230879   3.786   0.426   1.881
 9994SOL     OW30880   7.004   4.503   4.001
 9994SOL    HW130881   6.940   4.441   3.957
 9994SOL    HW230882   6.964   4.537   4.086
 9995SOL     OW30883   3.521   1.000   2.958
 9995SOL    HW130884   3.576   1.083   2.949
 9995SOL    HW230885   3.540   0.957   3.046
 9996SOL     OW30886   2.651   3.433   1.797
 9996SOL    HW130887   2.552   3.427   1.813
 9996SOL    HW230888   2.687   3.342   1.778
 9997SOL     OW30889   3.561   1.439   1.105
 9997SOL    HW130890   3.615   1.521   1.086
 9997SOL    HW230891   3.551   1.428   1.204
 9998SOL     OW30892   6.014   4.713   1.141
 9998SOL    HW130893   6.078   4.645   1.177
 9998SOL    HW230894   6.064   4.777   1.082
 9999SOL     OW30895   6.395   2.874   5.057
 9999SOL    HW130896   6.458   2.948   5.082
 9999SOL    HW230897   6.440   2.814   4.990
10000SOL     OW30898   6.513   3.232   0.217
10000SOL    HW130899   6.579   3.160   0.193
10000SOL    HW230900   6.431   3.190   0.256
10001SOL     OW30901   5.162   0.600   1.856
10001SOL    HW130902   5.097   0.648   1.915
10001SOL    HW230903   5.112   0.540   1.794
10002SOL     OW30904   1.814   0.510   1.640
10002SOL    HW130905   1.750   0.533   1.714
10002SOL    HW230906   1.811   0.582   1.571
10003SOL     OW30907   3.911   1.652   4.108
10003SOL    HW130908   3.991   1.611   4.064
10003SOL    HW230909   3.889   1.739   4.063
10004SOL     OW30910   4.532   2.477   4.192
10004SOL    HW130911   4.618   2.493   4.240
10004SOL    HW230912   4.532   2.528   4.106
10005SOL     OW30913   4.168   0.159   3.941
10005SOL    HW130914   4.248   0.137   3.996
10005SOL    HW230915   4.196   0.213   3.861
10006SOL     OW30916   5.082   0.406   3.604
10006SOL    HW130917   5.076   0.367   3.512
10006SOL    HW230918   5.177   0.406   3.634
10007SOL     OW30919   0.638   5.210   4.836
10007SOL    HW130920   0.693   5.157   4.901
10007SOL    HW230921   0.573   5.267   4.887
10008SOL     OW30922   4.294   1.320   4.834
10008SOL    HW130923   4.209   1.363   4.864
10008SOL    HW230924   4.369   1.348   4.894
10009SOL     OW30925   1.844   3.898   1.673
10009SOL    HW130926   1.845   3.924   1.769
10009SOL    HW230927   1.840   3.798   1.665
10010SOL     OW30928   1.899   6.953   6.135
10010SOL    HW130929   1.980   7.011   6.134
10010SOL    HW230930   1.826   6.997   6.082
10011SOL     OW30931   6.028   1.559   4.676
10011SOL    HW130932   6.070   1.580   4.764
10011SOL    HW230933   5.944   1.612   4.665
10012SOL     OW30934   4.799   0.967   3.445
10012SOL    HW130935   4.883   0.962   3.499
10012SOL    HW230936   4.774   1.062   3.431
10013SOL     OW30937   1.271   1.550   3.439
10013SOL    HW130938   1.172   1.556   3.428
10013SOL    HW230939   1.316   1.562   3.351
10014SOL     OW30940   6.814   3.750   0.285
10014SOL    HW130941   6.855   3.701   0.362
10014SOL    HW230942   6.807   3.689   0.206
10015SOL     OW30943   2.042   4.027   0.352
10015SOL    HW130944   2.067   3.994   0.443
10015SOL    HW230945   2.117   4.080   0.313
10016SOL     OW30946   1.790   0.987   5.903
10016SOL    HW130947   1.719   1.046   5.939
10016SOL    HW230948   1.748   0.913   5.850
10017SOL     OW30949   3.017   2.209   2.920
10017SOL    HW130950   3.059   2.186   3.007
10017SOL    HW230951   3.086   2.205   2.847
10018SOL     OW30952   5.078   0.056   5.532
10018SOL    HW130953   5.178   0.049   5.530
10018SOL    HW230954   5.043   0.067   5.439
10019SOL     OW30955   0.124   1.923   2.773
10019SOL    HW130956   0.154   1.858   2.843
10019SOL    HW230957   0.104   2.011   2.816
10020SOL     OW30958   1.370   2.386   1.646
10020SOL    HW130959   1.449   2.389   1.706
10020SOL    HW230960   1.305   2.457   1.672
10021SOL     OW30961   0.299   2.582   1.143
10021SOL    HW130962   0.292   2.493   1.098
10021SOL    HW230963   0.220   2.596   1.202
10022SOL     OW30964   2.924   0.047   6.606
10022SOL    HW130965   2.982   0.003   6.537
10022SOL    HW230966   2.955   0.021   6.697
10023SOL     OW30967   1.315   5.419   6.273
10023SOL    HW130968   1.391   5.484   6.266
10023SOL    HW230969   1.347   5.336   6.320
10024SOL     OW30970   1.763   6.728   1.663
10024SOL    HW130971   1.806   6.808   1.705
10024SOL    HW230972   1.664   6.741   1.659
10025SOL     OW30973   1.868   1.476   1.603
10025SOL    HW130974   1.886   1.378   1.609
10025SOL    HW230975   1.804   1.503   1.675
10026SOL     OW30976   5.423   6.670   3.617
10026SOL    HW130977   5.519   6.693   3.599
10026SOL    HW230978   5.367   6.753   3.610
10027SOL     OW30979   6.672   3.911   5.232
10027SOL    HW130980   6.670   4.000   5.278
10027SOL    HW230981   6.598   3.906   5.165
10028SOL     OW30982   1.760   1.188   1.678
10028SOL    HW130983   1.789   1.110   1.734
10028SOL    HW230984   1.770   1.165   1.582
10029SOL     OW30985   4.395   2.121   4.768
10029SOL    HW130986   4.494   2.104   4.766
10029SOL    HW230987   4.376   2.211   4.729
10030SOL     OW30988   2.713   6.704   3.722
10030SOL    HW130989   2.727   6.609   3.697
10030SOL    HW230990   2.645   6.710   3.795
10031SOL     OW30991   6.459   4.818   4.657
10031SOL    HW130992   6.369   4.777   4.641
10031SOL    HW230993   6.447   4.908   4.700
10032SOL     OW30994   2.204   1.868   5.454
10032SOL    HW130995   2.253   1.941   5.405
10032SOL    HW230996   2.270   1.803   5.491
10033SOL     OW30997   6.121   2.114   3.748
10033SOL    HW130998   6.087   2.023   3.771
10033SOL    HW230999   6.085   2.180   3.814
10034SOL     OW31000   2.600   0.253   3.880
10034SOL    HW131001   2.671   0.287   3.942
10034SOL    HW231002   2.637   0.243   3.788
10035SOL     OW31003   6.293   4.263   2.053
10035SOL    HW131004   6.290   4.181   1.996
10035SOL    HW231005   6.349   4.246   2.134
10036SOL     OW31006   6.333   2.461   1.316
10036SOL    HW131007   6.344   2.372   1.272
10036SOL    HW231008   6.420   2.492   1.353
10037SOL     OW31009   6.816   1.056   0.877
10037SOL    HW131010   6.908   1.043   0.913
10037SOL    HW231011   6.811   1.020   0.784
10038SOL     OW31012   5.075   0.563   6.934
10038SOL    HW131013   5.065   0.502   6.855
10038SOL    HW231014   4.985   0.587   6.969
10039SOL     OW31015   3.143   0.733   3.492
10039SOL    HW131016   3.111   0.716   3.585
10039SOL    HW231017   3.149   0.647   3.443
10040SOL     OW31018   5.073   5.295   6.450
10040SOL    HW131019   4.978   5.262   6.449
10040SOL    HW231020   5.136   5.218   6.456
10041SOL     OW31021   3.948   6.281   6.642
10041SOL    HW131022   3.910   6.190   6.659
10041SOL    HW231023   3.893   6.327   6.572
10042SOL     OW31024   0.744   2.382   3.834
10042SOL    HW131025   0.778   2.472   3.860
10042SOL    HW231026   0.751   2.319   3.911
10043SOL     OW31027   6.740   1.133   5.099
10043SOL    HW131028   6.770   1.114   5.006
10043SOL    HW231029   6.643   1.160   5.098
10044SOL     OW31030   1.788   1.771   4.101
10044SOL    HW131031   1.884   1.743   4.097
10044SOL    HW231032   1.760   1.807   4.012
10045SOL     OW31033   4.250   0.204   2.164
10045SOL    HW131034   4.166   0.211   2.218
10045SOL    HW231035   4.249   0.274   2.092
10046SOL     OW31036   2.222   3.646   0.446
10046SOL    HW131037   2.126   3.669   0.460
10046SOL    HW231038   2.229   3.558   0.399
10047SOL     OW31039   1.168   3.065   4.654
10047SOL    HW131040   1.128   3.066   4.745
10047SOL    HW231041   1.203   3.156   4.632
10048SOL     OW31042   6.977   0.227   2.212
10048SOL    HW131043   0.012   0.146   2.226
10048SOL    HW231044   0.006   0.294   2.157
10049SOL     OW31045   1.472   1.583   5.675
10049SOL    HW131046   1.407   1.530   5.622
10049SOL    HW231047   1.434   1.603   5.765
10050SOL     OW31048   5.728   3.852   5.190
10050SOL    HW131049   5.650   3.802   5.226
10050SOL    HW231050   5.710   3.877   5.095
10051SOL     OW31051   0.518   3.754   4.844
10051SOL    HW131052   0.578   3.830   4.819
10051SOL    HW231053   0.482   3.769   4.936
10052SOL     OW31054   2.133   1.375   3.401
10052SOL    HW131055   2.070   1.311   3.357
10052SOL    HW231056   2.173   1.332   3.482
10053SOL     OW31057   4.577   6.113   4.435
10053SOL    HW131058   4.484   6.076   4.444
10053SOL    HW231059   4.600   6.165   4.517
10054SOL     OW31060   5.963   5.613   5.764
10054SOL    HW131061   5.993   5.591   5.671
10054SOL    HW231062   6.003   5.700   5.792
10055SOL     OW31063   6.112   1.888   5.293
10055SOL    HW131064   6.204   1.849   5.289
10055SOL    HW231065   6.082   1.893   5.388
10056SOL     OW31066   5.272   4.184   3.285
10056SOL    HW131067   5.190   4.137   3.251
10056SOL    HW231068   5.245   4.258   3.346
10057SOL     OW31069   5.330   3.677   5.569
10057SOL    HW131070   5.430   3.674   5.575
10057SOL    HW231071   5.292   3.691   5.661
10058SOL     OW31072   6.233   3.633   5.247
10058SOL    HW131073   6.164   3.623   5.175
10058SOL    HW231074   6.219   3.563   5.317
10059SOL     OW31075   0.111   1.503   0.525
10059SOL    HW131076   0.164   1.447   0.589
10059SOL    HW231077   0.118   1.465   0.433
10060SOL     OW31078   2.216   2.579   2.777
10060SOL    HW131079   2.246   2.490   2.812
10060SOL    HW231080   2.285   2.617   2.716
10061SOL     OW31081   4.654   1.120   3.717
10061SOL    HW131082   4.612   1.191   3.661
10061SOL    HW231083   4.589   1.091   3.787
10062SOL     OW31084   6.665   0.269   4.439
10062SOL    HW131085   6.573   0.305   4.419
10062SOL    HW231086   6.660   0.170   4.448
10063SOL     OW31087   3.109   1.356   4.634
10063SOL    HW131088   3.093   1.296   4.556
10063SOL    HW231089   3.208   1.367   4.648
10064SOL     OW31090   4.754   6.517   6.483
10064SOL    HW131091   4.723   6.466   6.564
10064SOL    HW231092   4.778   6.610   6.510
10065SOL     OW31093   1.986   1.155   1.318
10065SOL    HW131094   2.021   1.191   1.405
10065SOL    HW231095   2.050   1.087   1.282
10066SOL     OW31096   0.277   2.288   5.052
10066SOL    HW131097   0.202   2.295   4.987
10066SOL    HW231098   0.364   2.284   5.003
10067SOL     OW31099   0.235   3.079   6.359
10067SOL    HW131100   0.139   3.079   6.332
10067SOL    HW231101   0.262   3.171   6.388
10068SOL     OW31102   1.054   3.811   3.104
10068SOL    HW131103   0.990   3.859   3.044
10068SOL    HW231104   1.003   3.754   3.169
10069SOL     OW31105   3.104   4.950   1.494
10069SOL    HW131106   3.123   5.048   1.494
10069SOL    HW231107   3.125   4.913   1.403
10070SOL     OW31108   0.403   5.417   5.207
10070SOL    HW131109   0.363   5.503   5.174
10070SOL    HW231110   0.366   5.396   5.297
10071SOL     OW31111   0.688   0.058   4.173
10071SOL    HW131112   0.616   0.085   4.109
10071SOL    HW231113   0.748   7.012   4.129
10072SOL     OW31114   0.357   1.168   3.514
10072SOL    HW131115   0.364   1.085   3.458
10072SOL    HW231116   0.288   1.155   3.585
10073SOL     OW31117   6.895   3.927   3.779
10073SOL    HW131118   6.948   3.974   3.849
10073SOL    HW231119   6.808   3.897   3.818
10074SOL     OW31120   1.964   6.359   6.687
10074SOL    HW131121   2.004   6.268   6.693
10074SOL    HW231122   1.951   6.384   6.591
10075SOL     OW31123   1.338   1.119   2.768
10075SOL    HW131124   1.242   1.142   2.752
10075SOL    HW231125   1.397   1.187   2.724
10076SOL     OW31126   4.564   5.535   2.840
10076SOL    HW131127   4.522   5.598   2.773
10076SOL    HW231128   4.614   5.464   2.791
10077SOL     OW31129   4.805   2.788   1.200
10077SOL    HW131130   4.733   2.758   1.137
10077SOL    HW231131   4.862   2.709   1.224
10078SOL     OW31132   0.112   6.161   4.686
10078SOL    HW131133   0.176   6.093   4.651
10078SOL    HW231134   0.143   6.193   4.776
10079SOL     OW31135   5.870   2.682   2.533
10079SOL    HW131136   5.833   2.739   2.606
10079SOL    HW231137   5.827   2.592   2.535
10080SOL     OW31138   4.699   0.978   6.433
10080SOL    HW131139   4.726   1.069   6.405
10080SOL    HW231140   4.756   0.947   6.509
10081SOL     OW31141   0.878   1.559   0.017
10081SOL    HW131142   0.858   1.653   7.012
10081SOL    HW231143   0.797   1.502   0.002
10082SOL     OW31144   0.876   5.288   3.110
10082SOL    HW131145   0.937   5.211   3.128
10082SOL    HW231146   0.853   5.290   3.013
10083SOL     OW31147   3.199   0.073   3.859
10083SOL    HW131148   3.149   7.008   3.861
10083SOL    HW231149   3.144   0.142   3.813
10084SOL     OW31150   0.336   6.918   5.040
10084SOL    HW131151   0.251   6.967   5.017
10084SOL    HW231152   0.412   6.984   5.044
10085SOL     OW31153   3.799   0.224   0.509
10085SOL    HW131154   3.774   0.257   0.417
10085SOL    HW231155   3.849   0.138   0.501
10086SOL     OW31156   5.767   6.725   3.325
10086SOL    HW131157   5.794   6.802   3.268
10086SOL    HW231158   5.845   6.664   3.340
10087SOL     OW31159   6.689   6.560   4.337
10087SOL    HW131160   6.607   6.515   4.373
10087SOL    HW231161   6.768   6.537   4.393
10088SOL     OW31162   6.820   0.525   1.360
10088SOL    HW131163   6.720   0.521   1.356
10088SOL    HW231164   6.849   0.572   1.443
10089SOL     OW31165   3.207   1.950   2.952
10089SOL    HW131166   3.207   1.974   2.855
10089SOL    HW231167   3.274   1.877   2.968
10090SOL     OW31168   0.421   5.084   2.095
10090SOL    HW131169   0.469   5.149   2.037
10090SOL    HW231170   0.332   5.121   2.122
10091SOL     OW31171   6.387   6.213   6.980
10091SOL    HW131172   6.461   6.247   6.921
10091SOL    HW231173   6.381   6.270   0.041
10092SOL     OW31174   1.221   3.007   5.391
10092SOL    HW131175   1.186   3.057   5.312
10092SOL    HW231176   1.321   3.004   5.387
10093SOL     OW31177   4.863   3.636   4.689
10093SOL    HW131178   4.946   3.614   4.741
10093SOL    HW231179   4.784   3.632   4.750
10094SOL     OW31180   2.474   6.363   0.748
10094SOL    HW131181   2.375   6.370   0.760
10094SOL    HW231182   2.520   6.393   0.831
10095SOL     OW31183   5.402   1.672   4.548
10095SOL    HW131184   5.488   1.664   4.498
10095SOL    HW231185   5.326   1.678   4.483
10096SOL     OW31186   4.698   0.440   2.860
10096SOL    HW131187   4.654   0.442   2.771
10096SOL    HW231188   4.768   0.512   2.864
10097SOL     OW31189   2.338   2.123   6.255
10097SOL    HW131190   2.363   2.143   6.161
10097SOL    HW231191   2.397   2.050   6.290
10098SOL     OW31192   2.838   6.881   4.902
10098SOL    HW131193   2.787   6.853   4.821
10098SOL    HW231194   2.774   6.902   4.976
10099SOL     OW31195   6.351   4.521   2.171
10099SOL    HW131196   6.315   4.435   2.135
10099SOL    HW231197   6.433   4.503   2.225
10100SOL     OW31198   5.541   5.706   5.997
10100SOL    HW131199   5.493   5.777   5.945
10100SOL    HW231200   5.639   5.728   6.000
10101SOL     OW31201   6.655   2.929   1.682
10101SOL    HW131202   6.638   2.884   1.770
10101SOL    HW231203   6.689   2.862   1.616
10102SOL     OW31204   6.548   0.387   1.316
10102SOL    HW131205   6.526   0.464   1.257
10102SOL    HW231206   6.464   0.345   1.350
10103SOL     OW31207   1.476   0.328   4.749
10103SOL    HW131208   1.490   0.427   4.748
10103SOL    HW231209   1.454   0.297   4.657
10104SOL     OW31210   1.929   1.266   5.976
10104SOL    HW131211   1.925   1.202   5.900
10104SOL    HW231212   1.982   1.346   5.950
10105SOL     OW31213   1.961   1.156   6.222
10105SOL    HW131214   1.963   1.197   6.131
10105SOL    HW231215   1.978   1.058   6.216
10106SOL     OW31216   3.771   6.378   1.231
10106SOL    HW131217   3.734   6.466   1.260
10106SOL    HW231218   3.801   6.385   1.136
10107SOL     OW31219   5.499   1.847   6.315
10107SOL    HW131220   5.534   1.935   6.282
10107SOL    HW231221   5.399   1.852   6.323
10108SOL     OW31222   0.482   2.939   1.108
10108SOL    HW131223   0.408   2.920   1.044
10108SOL    HW231224   0.524   2.853   1.138
10109SOL     OW31225   0.596   1.096   0.355
10109SOL    HW131226   0.660   1.162   0.395
10109SOL    HW231227   0.583   1.118   0.258
10110SOL     OW31228   4.709   5.005   3.105
10110SOL    HW131229   4.702   5.070   3.181
10110SOL    HW231230   4.618   4.990   3.066
10111SOL     OW31231   0.411   3.426   2.805
10111SOL    HW131232   0.415   3.356   2.733
10111SOL    HW231233   0.430   3.516   2.765
10112SOL     OW31234   6.085   3.262   3.314
10112SOL    HW131235   6.052   3.356   3.305
10112SOL    HW231236   6.041   3.219   3.393
10113SOL     OW31237   4.145   0.423   0.096
10113SOL    HW131238   4.152   0.334   0.052
10113SOL    HW231239   4.050   0.452   0.097
10114SOL     OW31240   3.814   2.164   3.488
10114SOL    HW131241   3.890   2.218   3.523
10114SOL    HW231242   3.741   2.160   3.557
10115SOL     OW31243   3.694   1.549   4.237
10115SOL    HW131244   3.775   1.572   4.183
10115SOL    HW231245   3.668   1.454   4.219
10116SOL     OW31246   6.944   0.243   6.079
10116SOL    HW131247   6.948   0.298   5.995
10116SOL    HW231248   6.995   0.289   6.152
10117SOL     OW31249   0.010   5.880   5.706
10117SOL    HW131250   0.033   5.948   5.636
10117SOL    HW231251   0.070   5.892   5.785
10118SOL     OW31252   2.729   4.734   4.261
10118SOL    HW131253   2.700   4.728   4.166
10118SOL    HW231254   2.826   4.712   4.268
10119SOL     OW31255   6.878   5.517   4.300
10119SOL    HW131256   6.871   5.481   4.207
10119SOL    HW231257   6.973   5.511   4.331
10120SOL     OW31258   1.235   3.008   3.588
10120SOL    HW131259   1.242   3.108   3.593
10120SOL    HW231260   1.320   2.967   3.621
10121SOL     OW31261   5.964   4.306   1.315
10121SOL    HW131262   5.934   4.265   1.229
10121SOL    HW231263   5.924   4.254   1.392
10122SOL     OW31264   6.487   2.323   3.821
10122SOL    HW131265   6.570   2.369   3.851
10122SOL    HW231266   6.485   2.230   3.859
10123SOL     OW31267   6.025   6.663   0.460
10123SOL    HW131268   6.123   6.650   0.477
10123SOL    HW231269   5.991   6.588   0.403
10124SOL     OW31270   1.723   5.354   1.960
10124SOL    HW131271   1.766   5.264   1.953
10124SOL    HW231272   1.673   5.360   2.046
10125SOL     OW31273   2.342   1.034   1.353
10125SOL    HW131274   2.283   0.954   1.357
10125SOL    HW231275   2.375   1.056   1.445
10126SOL     OW31276   6.428   0.093   6.076
10126SOL    HW131277   6.403   0.139   6.161
10126SOL    HW231278   6.346   0.054   6.034
10127SOL     OW31279   1.214   4.191   6.006
10127SOL    HW131280   1.232   4.232   6.095
10127SOL    HW231281   1.149   4.116   6.017
10128SOL     OW31282   2.748   0.359   6.615
10128SOL    HW131283   2.803   0.325   6.539
10128SOL    HW231284   2.808   0.387   6.690
10129SOL     OW31285   0.360   1.329   1.956
10129SOL    HW131286   0.286   1.268   1.929
10129SOL    HW231287   0.345   1.360   2.050
10130SOL     OW31288   1.015   2.713   1.381
10130SOL    HW131289   1.022   2.777   1.305
10130SOL    HW231290   1.105   2.702   1.424
10131SOL     OW31291   1.609   0.471   4.121
10131SOL    HW131292   1.600   0.537   4.047
10131SOL    HW231293   1.530   0.477   4.182
10132SOL     OW31294   0.941   0.921   2.225
10132SOL    HW131295   0.995   1.002   2.202
10132SOL    HW231296   0.993   0.863   2.287
10133SOL     OW31297   4.089   6.190   1.092
10133SOL    HW131298   4.094   6.218   0.996
10133SOL    HW231299   4.099   6.091   1.098
10134SOL     OW31300   6.988   1.919   3.085
10134SOL    HW131301   6.979   1.917   3.184
10134SOL    HW231302   0.061   1.896   3.060
10135SOL     OW31303   5.738   1.207   3.748
10135SOL    HW131304   5.679   1.280   3.783
10135SOL    HW231305   5.684   1.126   3.729
10136SOL     OW31306   4.481   2.484   2.202
10136SOL    HW131307   4.556   2.541   2.169
10136SOL    HW231308   4.438   2.529   2.280
10137SOL     OW31309   0.667   4.970   5.924
10137SOL    HW131310   0.623   4.880   5.918
10137SOL    HW231311   0.733   4.969   6.000
10138SOL     OW31312   5.449   1.976   0.236
10138SOL    HW131313   5.424   2.058   0.185
10138SOL    HW231314   5.477   1.904   0.172
10139SOL     OW31315   3.816   2.988   4.751
10139SOL    HW131316   3.829   2.922   4.825
10139SOL    HW231317   3.792   2.940   4.667
10140SOL     OW31318   6.718   6.353   6.278
10140SOL    HW131319   6.703   6.333   6.374
10140SOL    HW231320   6.657   6.426   6.248
10141SOL     OW31321   4.229   0.528   3.155
10141SOL    HW131322   4.322   0.548   3.186
10141SOL    HW231323   4.175   0.496   3.232
10142SOL     OW31324   5.844   6.370   5.037
10142SOL    HW131325   5.904   6.308   5.086
10142SOL    HW231326   5.899   6.440   4.991
10143SOL     OW31327   5.930   3.066   0.239
10143SOL    HW131328   6.001   3.026   0.297
10143SOL    HW231329   5.972   3.126   0.171
10144SOL     OW31330   3.894   6.900   5.455
10144SOL    HW131331   3.974   6.959   5.448
10144SOL    HW231332   3.903   6.824   5.390
10145SOL     OW31333   4.073   6.237   2.594
10145SOL    HW131334   3.988   6.198   2.557
10145SOL    HW231335   4.066   6.337   2.595
10146SOL     OW31336   7.004   3.972   4.424
10146SOL    HW131337   6.927   4.001   4.368
10146SOL    HW231338   6.978   3.974   4.521
10147SOL     OW31339   4.856   4.859   0.045
10147SOL    HW131340   4.805   4.834   6.984
10147SOL    HW231341   4.873   4.957   0.046
10148SOL     OW31342   6.490   4.020   1.586
10148SOL    HW131343   6.430   4.099   1.600
10148SOL    HW231344   6.520   3.986   1.675
10149SOL     OW31345   4.468   4.644   1.349
10149SOL    HW131346   4.376   4.644   1.389
10149SOL    HW231347   4.468   4.592   1.264
10150SOL     OW31348   5.308   3.626   1.886
10150SOL    HW131349   5.314   3.702   1.822
10150SOL    HW231350   5.256   3.552   1.844
10151SOL     OW31351   0.473   6.859   5.599
10151SOL    HW131352   0.380   6.824   5.592
10151SOL    HW231353   0.508   6.879   5.507
10152SOL     OW31354   6.069   5.615   3.458
10152SOL    HW131355   5.982   5.566   3.461
10152SOL    HW231356   6.114   5.596   3.370
10153SOL     OW31357   4.384   6.099   3.499
10153SOL    HW131358   4.452   6.059   3.561
10153SOL    HW231359   4.316   6.149   3.553
10154SOL     OW31360   4.205   5.489   5.869
10154SOL    HW131361   4.169   5.457   5.957
10154SOL    HW231362   4.269   5.564   5.883
10155SOL     OW31363   5.213   1.848   6.211
10155SOL    HW131364   5.204   1.769   6.150
10155SOL    HW231365   5.172   1.826   6.299
10156SOL     OW31366   4.464   0.249   1.340
10156SOL    HW131367   4.510   0.207   1.418
10156SOL    HW231368   4.388   0.306   1.372
10157SOL     OW31369   0.331   2.070   0.325
10157SOL    HW131370   0.278   2.151   0.301
10157SOL    HW231371   0.270   1.999   0.359
10158SOL     OW31372   6.116   6.590   2.472
10158SOL    HW131373   6.105   6.683   2.435
10158SOL    HW231374   6.128   6.595   2.571
10159SOL     OW31375   3.302   3.174   2.733
10159SOL    HW131376   3.213   3.136   2.759
10159SOL    HW231377   3.369   3.100   2.724
10160SOL     OW31378   2.389   4.372   3.050
10160SOL    HW131379   2.289   4.372   3.061
10160SOL    HW231380   2.427   4.292   3.096
10161SOL     OW31381   3.854   4.556   6.720
10161SOL    HW131382   3.928   4.620   6.697
10161SOL    HW231383   3.853   4.541   6.819
10162SOL     OW31384   1.952   4.467   1.663
10162SOL    HW131385   1.889   4.467   1.740
10162SOL    HW231386   1.935   4.386   1.606
10163SOL     OW31387   1.103   5.769   5.811
10163SOL    HW131388   1.036   5.844   5.818
10163SOL    HW231389   1.095   5.725   5.722
10164SOL     OW31390   6.673   3.291   3.639
10164SOL    HW131391   6.742   3.254   3.702
10164SOL    HW231392   6.630   3.216   3.589
10165SOL     OW31393   6.040   2.565   3.623
10165SOL    HW131394   6.026   2.658   3.656
10165SOL    HW231395   6.106   2.518   3.683
10166SOL     OW31396   1.748   2.802   0.942
10166SOL    HW131397   1.691   2.849   0.875
10166SOL    HW231398   1.743   2.703   0.926
10167SOL     OW31399   0.227   4.949   6.905
10167SOL    HW131400   0.260   4.998   6.985
10167SOL    HW231401   0.150   4.890   6.932
10168SOL     OW31402   5.959   1.095   5.636
10168SOL    HW131403   6.027   1.160   5.604
10168SOL    HW231404   5.989   1.054   5.722
10169SOL     OW31405   6.852   3.906   2.947
10169SOL    HW131406   6.855   3.857   3.034
10169SOL    HW231407   6.895   3.995   2.956
10170SOL     OW31408   6.416   5.260   6.780
10170SOL    HW131409   6.485   5.222   6.843
10170SOL    HW231410   6.430   5.223   6.689
10171SOL     OW31411   1.026   2.593   5.624
10171SOL    HW131412   1.038   2.575   5.527
10171SOL    HW231413   0.982   2.682   5.637
10172SOL     OW31414   0.321   0.011   4.445
10172SOL    HW131415   0.375   0.090   4.415
10172SOL    HW231416   0.328   6.960   4.376
10173SOL     OW31417   2.967   3.867   0.140
10173SOL    HW131418   2.974   3.966   0.126
10173SOL    HW231419   2.968   3.821   0.052
10174SOL     OW31420   5.303   5.540   3.361
10174SOL    HW131421   5.370   5.569   3.293
10174SOL    HW231422   5.351   5.505   3.442
10175SOL     OW31423   6.728   1.516   3.244
10175SOL    HW131424   6.692   1.457   3.172
10175SOL    HW231425   6.759   1.602   3.203
10176SOL     OW31426   6.614   3.719   5.431
10176SOL    HW131427   6.571   3.660   5.363
10176SOL    HW231428   6.638   3.806   5.390
10177SOL     OW31429   2.198   0.209   1.052
10177SOL    HW131430   2.262   0.279   1.084
10177SOL    HW231431   2.124   0.251   1.000
10178SOL     OW31432   1.346   0.533   0.924
10178SOL    HW131433   1.344   0.499   1.018
10178SOL    HW231434   1.314   0.627   0.922
10179SOL     OW31435   0.144   4.052   0.107
10179SOL    HW131436   0.079   4.118   0.070
10179SOL    HW231437   0.187   4.090   0.189
10180SOL     OW31438   4.816   0.152   0.784
10180SOL    HW131439   4.822   0.147   0.684
10180SOL    HW231440   4.726   0.187   0.810
10181SOL     OW31441   6.855   3.251   1.113
10181SOL    HW131442   6.842   3.320   1.183
10181SOL    HW231443   6.944   3.207   1.126
10182SOL     OW31444   5.149   0.899   0.291
10182SOL    HW131445   5.184   0.943   0.208
10182SOL    HW231446   5.070   0.842   0.268
10183SOL     OW31447   5.947   2.883   5.552
10183SOL    HW131448   6.044   2.885   5.529
10183SOL    HW231449   5.936   2.883   5.651
10184SOL     OW31450   5.531   2.833   5.975
10184SOL    HW131451   5.589   2.883   5.911
10184SOL    HW231452   5.448   2.802   5.928
10185SOL     OW31453   4.563   5.919   2.639
10185SOL    HW131454   4.539   5.964   2.554
10185SOL    HW231455   4.646   5.959   2.677
10186SOL     OW31456   4.842   3.889   5.024
10186SOL    HW131457   4.818   3.792   5.033
10186SOL    HW231458   4.817   3.937   5.108
10187SOL     OW31459   2.230   4.140   5.347
10187SOL    HW131460   2.259   4.236   5.341
10187SOL    HW231461   2.288   4.084   5.287
10188SOL     OW31462   3.371   5.647   6.825
10188SOL    HW131463   3.273   5.656   6.808
10188SOL    HW231464   3.414   5.738   6.824
10189SOL     OW31465   1.242   0.591   0.167
10189SOL    HW131466   1.269   0.685   0.144
10189SOL    HW231467   1.251   0.533   0.086
10190SOL     OW31468   3.423   3.508   1.410
10190SOL    HW131469   3.481   3.431   1.382
10190SOL    HW231470   3.419   3.513   1.510
10191SOL     OW31471   5.809   5.938   1.382
10191SOL    HW131472   5.810   5.840   1.360
10191SOL    HW231473   5.733   5.957   1.445
10192SOL     OW31474   2.367   2.221   4.630
10192SOL    HW131475   2.421   2.299   4.599
10192SOL    HW231476   2.349   2.229   4.728
10193SOL     OW31477   3.241   3.901   2.481
10193SOL    HW131478   3.246   3.819   2.538
10193SOL    HW231479   3.147   3.914   2.450
10194SOL     OW31480   3.417   0.002   5.092
10194SOL    HW131481   3.398   0.088   5.043
10194SOL    HW231482   3.394   6.946   5.033
10195SOL     OW31483   6.654   0.164   1.700
10195SOL    HW131484   6.652   0.067   1.676
10195SOL    HW231485   6.743   0.203   1.674
10196SOL     OW31486   5.864   2.045   3.568
10196SOL    HW131487   5.866   2.110   3.492
10196SOL    HW231488   5.925   2.077   3.641
10197SOL     OW31489   5.580   0.685   4.273
10197SOL    HW131490   5.672   0.646   4.264
10197SOL    HW231491   5.587   0.783   4.290
10198SOL     OW31492   3.527   6.566   0.435
10198SOL    HW131493   3.434   6.555   0.401
10198SOL    HW231494   3.540   6.659   0.470
10199SOL     OW31495   0.842   1.194   6.901
10199SOL    HW131496   0.786   1.267   6.861
10199SOL    HW231497   0.879   1.136   6.828
10200SOL     OW31498   5.182   3.148   5.324
10200SOL    HW131499   5.151   3.212   5.395
10200SOL    HW231500   5.103   3.103   5.282
10201SOL     OW31501   0.439   6.099   1.299
10201SOL    HW131502   0.391   6.118   1.385
10201SOL    HW231503   0.385   6.035   1.244
10202SOL     OW31504   1.472   3.436   0.477
10202SOL    HW131505   1.393   3.463   0.421
10202SOL    HW231506   1.452   3.453   0.573
10203SOL     OW31507   1.803   2.871   1.916
10203SOL    HW131508   1.889   2.884   1.866
10203SOL    HW231509   1.742   2.949   1.898
10204SOL     OW31510   4.083   4.653   6.078
10204SOL    HW131511   4.102   4.751   6.073
10204SOL    HW231512   4.050   4.621   5.989
10205SOL     OW31513   4.018   1.061   3.030
10205SOL    HW131514   4.055   1.087   3.119
10205SOL    HW231515   4.060   0.975   3.000
10206SOL     OW31516   5.199   6.067   6.176
10206SOL    HW131517   5.186   6.127   6.254
10206SOL    HW231518   5.144   6.101   6.099
10207SOL     OW31519   1.359   0.466   1.171
10207SOL    HW131520   1.436   0.529   1.178
10207SOL    HW231521   1.301   0.476   1.252
10208SOL     OW31522   6.811   4.710   4.745
10208SOL    HW131523   6.796   4.688   4.841
10208SOL    HW231524   6.830   4.808   4.736
10209SOL     OW31525   0.568   0.937   5.503
10209SOL    HW131526   0.492   0.874   5.516
10209SOL    HW231527   0.540   1.029   5.527
10210SOL     OW31528   5.043   0.084   1.627
10210SOL    HW131529   4.965   0.048   1.577
10210SOL    HW231530   5.013   0.112   1.719
10211SOL     OW31531   4.550   6.493   5.761
10211SOL    HW131532   4.497   6.525   5.683
10211SOL    HW231533   4.611   6.566   5.793
10212SOL     OW31534   0.331   1.365   4.495
10212SOL    HW131535   0.280   1.344   4.412
10212SOL    HW231536   0.425   1.390   4.470
10213SOL     OW31537   6.240   1.768   2.718
10213SOL    HW131538   6.332   1.737   2.697
10213SOL    HW231539   6.181   1.689   2.736
10214SOL     OW31540   0.692   1.052   2.368
10214SOL    HW131541   0.742   1.116   2.310
10214SOL    HW231542   0.674   0.968   2.317
10215SOL     OW31543   3.560   2.772   5.154
10215SOL    HW131544   3.610   2.712   5.092
10215SOL    HW231545   3.477   2.725   5.186
10216SOL     OW31546   6.944   7.020   0.786
10216SOL    HW131547   0.017   0.007   0.817
10216SOL    HW231548   6.891   0.077   0.819
10217SOL     OW31549   2.227   1.251   3.624
10217SOL    HW131550   2.252   1.252   3.721
10217SOL    HW231551   2.300   1.209   3.571
10218SOL     OW31552   0.820   1.265   0.863
10218SOL    HW131553   0.770   1.330   0.806
10218SOL    HW231554   0.911   1.301   0.884
10219SOL     OW31555   0.400   2.943   1.893
10219SOL    HW131556   0.488   2.963   1.936
10219SOL    HW231557   0.401   2.975   1.799
10220SOL     OW31558   4.190   1.508   2.235
10220SOL    HW131559   4.237   1.595   2.222
10220SOL    HW231560   4.108   1.522   2.290
10221SOL     OW31561   1.421   1.859   3.882
10221SOL    HW131562   1.359   1.864   3.960
10221SOL    HW231563   1.386   1.792   3.816
10222SOL     OW31564   0.693   3.390   5.690
10222SOL    HW131565   0.785   3.379   5.652
10222SOL    HW231566   0.630   3.329   5.642
10223SOL     OW31567   2.187   5.805   6.392
10223SOL    HW131568   2.169   5.707   6.388
10223SOL    HW231569   2.224   5.836   6.304
10224SOL     OW31570   0.259   1.043   4.651
10224SOL    HW131571   0.227   1.019   4.559
10224SOL    HW231572   0.252   1.142   4.664
10225SOL     OW31573   1.641   6.324   5.323
10225SOL    HW131574   1.562   6.283   5.277
10225SOL    HW231575   1.640   6.423   5.308
10226SOL     OW31576   2.785   0.436   0.357
10226SOL    HW131577   2.693   0.451   0.323
10226SOL    HW231578   2.824   0.524   0.386
10227SOL     OW31579   4.607   4.715   1.038
10227SOL    HW131580   4.704   4.706   1.015
10227SOL    HW231581   4.597   4.781   1.113
10228SOL     OW31582   0.783   5.498   2.403
10228SOL    HW131583   0.719   5.548   2.344
10228SOL    HW231584   0.832   5.430   2.349
10229SOL     OW31585   1.231   1.323   4.360
10229SOL    HW131586   1.211   1.416   4.390
10229SOL    HW231587   1.145   1.273   4.349
10230SOL     OW31588   6.893   0.159   3.457
10230SOL    HW131589   6.888   0.104   3.374
10230SOL    HW231590   6.804   0.159   3.503
10231SOL     OW31591   0.352   6.152   5.886
10231SOL    HW131592   0.285   6.078   5.898
10231SOL    HW231593   0.411   6.156   5.966
10232SOL     OW31594   3.241   0.567   4.119
10232SOL    HW131595   3.307   0.642   4.119
10232SOL    HW231596   3.275   0.493   4.060
10233SOL     OW31597   5.208   3.312   5.058
10233SOL    HW131598   5.290   3.256   5.070
10233SOL    HW231599   5.156   3.278   4.980
10234SOL     OW31600   5.462   0.481   1.010
10234SOL    HW131601   5.401   0.440   0.942
10234SOL    HW231602   5.459   0.580   1.003
10235SOL     OW31603   4.663   1.932   0.583
10235SOL    HW131604   4.586   1.881   0.545
10235SOL    HW231605   4.706   1.878   0.656
10236SOL     OW31606   1.493   6.197   2.239
10236SOL    HW131607   1.423   6.252   2.193
10236SOL    HW231608   1.452   6.148   2.316
10237SOL     OW31609   6.035   4.122   1.050
10237SOL    HW131610   6.034   4.033   1.096
10237SOL    HW231611   6.129   4.147   1.028
10238SOL     OW31612   3.437   4.142   4.400
10238SOL    HW131613   3.363   4.208   4.402
10238SOL    HW231614   3.471   4.126   4.493
10239SOL     OW31615   1.314   3.892   5.136
10239SOL    HW131616   1.383   3.831   5.096
10239SOL    HW231617   1.321   3.889   5.236
10240SOL     OW31618   1.739   4.710   3.063
10240SOL    HW131619   1.726   4.750   2.972
10240SOL    HW231620   1.652   4.712   3.113
10241SOL     OW31621   0.377   0.675   2.091
10241SOL    HW131622   0.417   0.594   2.049
10241SOL    HW231623   0.448   0.727   2.139
10242SOL     OW31624   6.562   1.851   6.873
10242SOL    HW131625   6.571   1.829   6.971
10242SOL    HW231626   6.474   1.817   6.840
10243SOL     OW31627   0.367   5.350   1.217
10243SOL    HW131628   0.402   5.259   1.241
10243SOL    HW231629   0.279   5.340   1.171
10244SOL     OW31630   1.812   4.547   6.872
10244SOL    HW131631   1.841   4.495   6.792
10244SOL    HW231632   1.893   4.577   6.923
10245SOL     OW31633   3.026   4.124   0.126
10245SOL    HW131634   2.984   4.208   0.090
10245SOL    HW231635   3.125   4.135   0.129
10246SOL     OW31636   2.973   3.826   3.904
10246SOL    HW131637   2.965   3.790   3.811
10246SOL    HW231638   3.003   3.753   3.966
10247SOL     OW31639   0.449   5.521   4.599
10247SOL    HW131640   0.429   5.484   4.508
10247SOL    HW231641   0.457   5.621   4.592
10248SOL     OW31642   2.917   0.153   1.883
10248SOL    HW131643   2.876   0.114   1.966
10248SOL    HW231644   3.017   0.144   1.888
10249SOL     OW31645   3.137   0.754   5.977
10249SOL    HW131646   3.123   0.826   6.044
10249SOL    HW231647   3.195   0.683   6.017
10250SOL     OW31648   6.958   2.013   1.148
10250SOL    HW131649   6.918   2.071   1.220
10250SOL    HW231650   0.010   2.062   1.103
10251SOL     OW31651   2.244   2.614   5.151
10251SOL    HW131652   2.320   2.605   5.086
10251SOL    HW231653   2.221   2.711   5.162
10252SOL     OW31654   6.959   5.764   0.285
10252SOL    HW131655   6.912   5.831   0.228
10252SOL    HW231656   6.892   5.711   0.337
10253SOL     OW31657   5.387   6.089   0.605
10253SOL    HW131658   5.471   6.117   0.558
10253SOL    HW231659   5.307   6.118   0.552
10254SOL     OW31660   4.358   2.238   5.057
10254SOL    HW131661   4.329   2.333   5.052
10254SOL    HW231662   4.439   2.225   5.000
10255SOL     OW31663   2.664   5.233   1.989
10255SOL    HW131664   2.569   5.238   1.957
10255SOL    HW231665   2.683   5.141   2.022
10256SOL     OW31666   5.391   0.488   1.763
10256SOL    HW131667   5.299   0.510   1.794
10256SOL    HW231668   5.423   0.560   1.700
10257SOL     OW31669   2.189   5.106   4.193
10257SOL    HW131670   2.209   5.183   4.132
10257SOL    HW231671   2.093   5.109   4.221
10258SOL     OW31672   4.449   0.167   4.038
10258SOL    HW131673   4.469   0.206   4.128
10258SOL    HW231674   4.535   0.154   3.988
10259SOL     OW31675   0.806   5.245   3.396
10259SOL    HW131676   0.870   5.285   3.331
10259SOL    HW231677   0.795   5.306   3.474
10260SOL     OW31678   0.208   0.531   3.293
10260SOL    HW131679   0.291   0.545   3.239
10260SOL    HW231680   0.149   0.465   3.248
10261SOL     OW31681   6.866   6.252   2.338
10261SOL    HW131682   6.924   6.171   2.328
10261SOL    HW231683   6.777   6.224   2.376
10262SOL     OW31684   2.899   6.105   4.770
10262SOL    HW131685   2.929   6.011   4.756
10262SOL    HW231686   2.818   6.123   4.714
10263SOL     OW31687   4.620   1.267   6.568
10263SOL    HW131688   4.717   1.292   6.571
10263SOL    HW231689   4.568   1.341   6.524
10264SOL     OW31690   5.637   1.999   6.986
10264SOL    HW131691   5.682   2.077   0.008
10264SOL    HW231692   5.699   1.920   6.986
10265SOL     OW31693   3.572   2.066   2.902
10265SOL    HW131694   3.495   2.101   2.954
10265SOL    HW231695   3.556   2.081   2.804
10266SOL     OW31696   3.581   2.909   5.456
10266SOL    HW131697   3.561   2.866   5.369
10266SOL    HW231698   3.667   2.873   5.492
10267SOL     OW31699   6.498   2.053   6.347
10267SOL    HW131700   6.422   2.047   6.282
10267SOL    HW231701   6.526   2.148   6.357
10268SOL     OW31702   3.881   6.171   1.767
10268SOL    HW131703   3.791   6.188   1.728
10268SOL    HW231704   3.939   6.251   1.754
10269SOL     OW31705   1.844   2.238   5.468
10269SOL    HW131706   1.915   2.194   5.412
10269SOL    HW231707   1.803   2.169   5.528
10270SOL     OW31708   2.276   5.337   2.797
10270SOL    HW131709   2.370   5.311   2.774
10270SOL    HW231710   2.227   5.363   2.713
10271SOL     OW31711   4.094   3.289   7.017
10271SOL    HW131712   4.168   3.235   6.976
10271SOL    HW231713   4.037   3.231   0.053
10272SOL     OW31714   0.892   6.969   4.423
10272SOL    HW131715   0.813   6.933   4.373
10272SOL    HW231716   0.869   6.974   4.520
10273SOL     OW31717   4.844   5.293   3.545
10273SOL    HW131718   4.913   5.350   3.588
10273SOL    HW231719   4.755   5.311   3.588
10274SOL     OW31720   1.202   4.327   4.934
10274SOL    HW131721   1.235   4.403   4.879
10274SOL    HW231722   1.276   4.261   4.947
10275SOL     OW31723   0.845   6.857   2.031
10275SOL    HW131724   0.830   6.929   2.098
10275SOL    HW231725   0.823   6.891   1.940
10276SOL     OW31726   6.315   5.544   6.306
10276SOL    HW131727   6.301   5.595   6.391
10276SOL    HW231728   6.385   5.474   6.320
10277SOL     OW31729   2.742   5.799   4.160
10277SOL    HW131730   2.830   5.839   4.136
10277SOL    HW231731   2.715   5.732   4.091
10278SOL     OW31732   5.517   0.696   4.867
10278SOL    HW131733   5.541   0.792   4.872
10278SOL    HW231734   5.570   0.644   4.933
10279SOL     OW31735   2.622   6.675   3.992
10279SOL    HW131736   2.587   6.672   4.086
10279SOL    HW231737   2.712   6.632   3.989
10280SOL     OW31738   2.000   3.764   1.065
10280SOL    HW131739   2.095   3.755   1.033
10280SOL    HW231740   1.999   3.763   1.165
10281SOL     OW31741   6.505   2.294   2.710
10281SOL    HW131742   6.500   2.343   2.623
10281SOL    HW231743   6.601   2.286   2.738
10282SOL     OW31744   6.312   3.876   4.141
10282SOL    HW131745   6.255   3.873   4.223
10282SOL    HW231746   6.317   3.970   4.107
10283SOL     OW31747   1.218   3.222   0.241
10283SOL    HW131748   1.274   3.161   0.298
10283SOL    HW231749   1.224   3.315   0.276
10284SOL     OW31750   4.921   4.329   5.713
10284SOL    HW131751   4.836   4.318   5.662
10284SOL    HW231752   4.960   4.239   5.733
10285SOL     OW31753   4.741   0.536   0.819
10285SOL    HW131754   4.824   0.550   0.765
10285SOL    HW231755   4.685   0.466   0.776
10286SOL     OW31756   3.203   2.041   4.148
10286SOL    HW131757   3.111   2.021   4.181
10286SOL    HW231758   3.198   2.108   4.074
10287SOL     OW31759   1.325   6.485   1.650
10287SOL    HW131760   1.401   6.425   1.624
10287SOL    HW231761   1.249   6.471   1.586
10288SOL     OW31762   5.099   6.300   2.134
10288SOL    HW131763   5.105   6.393   2.097
10288SOL    HW231764   5.017   6.255   2.099
10289SOL     OW31765   3.849   0.682   2.449
10289SOL    HW131766   3.936   0.720   2.480
10289SOL    HW231767   3.836   0.703   2.353
10290SOL     OW31768   3.939   3.711   2.520
10290SOL    HW131769   3.911   3.779   2.588
10290SOL    HW231770   4.027   3.673   2.546
10291SOL     OW31771   3.967   1.066   4.255
10291SOL    HW131772   3.981   1.054   4.353
10291SOL    HW231773   3.871   1.046   4.233
10292SOL     OW31774   0.699   1.492   4.576
10292SOL    HW131775   0.648   1.549   4.641
10292SOL    HW231776   0.646   1.482   4.492
10293SOL     OW31777   1.892   6.217   3.421
10293SOL    HW131778   1.894   6.253   3.328
10293SOL    HW231779   1.798   6.216   3.454
10294SOL     OW31780   4.877   3.264   3.208
10294SOL    HW131781   4.908   3.252   3.114
10294SOL    HW231782   4.912   3.352   3.243
10295SOL     OW31783   6.310   5.266   6.148
10295SOL    HW131784   6.214   5.279   6.126
10295SOL    HW231785   6.331   5.168   6.149
10296SOL     OW31786   5.060   3.033   6.332
10296SOL    HW131787   5.010   2.991   6.255
10296SOL    HW231788   5.056   3.132   6.323
10297SOL     OW31789   2.281   6.568   5.007
10297SOL    HW131790   2.277   6.608   5.098
10297SOL    HW231791   2.208   6.608   4.950
10298SOL     OW31792   4.165   5.050   2.542
10298SOL    HW131793   4.185   4.955   2.568
10298SOL    HW231794   4.246   5.106   2.557
10299SOL     OW31795   4.493   4.601   2.357
10299SOL    HW131796   4.454   4.561   2.440
10299SOL    HW231797   4.489   4.701   2.363
10300SOL     OW31798   2.016   4.694   2.642
10300SOL    HW131799   1.943   4.626   2.648
10300SOL    HW231800   2.062   4.701   2.731
10301SOL     OW31801   5.910   1.964   2.849
10301SOL    HW131802   5.927   1.923   2.760
10301SOL    HW231803   5.871   1.895   2.911
10302SOL     OW31804   0.979   6.181   4.092
10302SOL    HW131805   1.005   6.188   4.188
10302SOL    HW231806   1.060   6.197   4.035
10303SOL     OW31807   3.215   4.905   1.179
10303SOL    HW131808   3.305   4.899   1.222
10303SOL    HW231809   3.226   4.917   1.081
10304SOL     OW31810   5.497   0.904   2.730
10304SOL    HW131811   5.462   0.990   2.693
10304SOL    HW231812   5.574   0.923   2.792
10305SOL     OW31813   0.070   5.372   6.534
10305SOL    HW131814   0.038   5.356   6.441
10305SOL    HW231815   0.092   5.284   6.578
10306SOL     OW31816   4.452   6.338   6.534
10306SOL    HW131817   4.353   6.345   6.523
10306SOL    HW231818   4.498   6.378   6.455
10307SOL     OW31819   2.433   1.955   4.538
10307SOL    HW131820   2.389   1.931   4.452
10307SOL    HW231821   2.397   2.042   4.571
10308SOL     OW31822   2.667   4.943   3.945
10308SOL    HW131823   2.620   4.856   3.933
10308SOL    HW231824   2.641   4.983   4.033
10309SOL     OW31825   6.336   0.449   3.824
10309SOL    HW131826   6.359   0.389   3.901
10309SOL    HW231827   6.279   0.399   3.759
10310SOL     OW31828   3.780   2.764   1.381
10310SOL    HW131829   3.693   2.714   1.385
10310SOL    HW231830   3.845   2.714   1.324
10311SOL     OW31831   0.797   5.845   0.776
10311SOL    HW131832   0.862   5.805   0.840
10311SOL    HW231833   0.713   5.870   0.824
10312SOL     OW31834   3.189   5.366   1.022
10312SOL    HW131835   3.202   5.423   1.103
10312SOL    HW231836   3.246   5.401   0.947
10313SOL     OW31837   3.818   6.747   2.260
10313SOL    HW131838   3.743   6.682   2.263
10313SOL    HW231839   3.869   6.735   2.175
10314SOL     OW31840   5.877   0.903   1.624
10314SOL    HW131841   5.788   0.933   1.590
10314SOL    HW231842   5.917   0.975   1.681
10315SOL     OW31843   6.433   6.055   4.549
10315SOL    HW131844   6.376   5.976   4.529
10315SOL    HW231845   6.376   6.138   4.550
10316SOL     OW31846   6.405   3.802   5.068
10316SOL    HW131847   6.328   3.767   5.015
10316SOL    HW231848   6.456   3.725   5.107
10317SOL     OW31849   3.638   4.591   6.216
10317SOL    HW131850   3.616   4.676   6.168
10317SOL    HW231851   3.735   4.589   6.239
10318SOL     OW31852   6.597   5.385   1.279
10318SOL    HW131853   6.529   5.394   1.352
10318SOL    HW231854   6.551   5.373   1.191
10319SOL     OW31855   1.048   3.618   5.317
10319SOL    HW131856   1.008   3.687   5.377
10319SOL    HW231857   1.141   3.598   5.347
10320SOL     OW31858   0.633   0.743   0.387
10320SOL    HW131859   0.605   0.728   0.292
10320SOL    HW231860   0.650   0.655   0.431
10321SOL     OW31861   4.066   0.391   5.093
10321SOL    HW131862   4.119   0.391   5.178
10321SOL    HW231863   4.044   0.486   5.068
10322SOL     OW31864   6.429   5.973   0.036
10322SOL    HW131865   6.415   6.062   7.013
10322SOL    HW231866   6.411   5.981   0.134
10323SOL     OW31867   6.485   3.733   6.115
10323SOL    HW131868   6.526   3.809   6.164
10323SOL    HW231869   6.540   3.651   6.129
10324SOL     OW31870   3.074   3.102   3.441
10324SOL    HW131871   3.129   3.027   3.404
10324SOL    HW231872   3.049   3.165   3.368
10325SOL     OW31873   6.375   4.495   3.893
10325SOL    HW131874   6.286   4.541   3.888
10325SOL    HW231875   6.384   4.433   3.815
10326SOL     OW31876   4.867   2.742   0.402
10326SOL    HW131877   4.814   2.675   0.351
10326SOL    HW231878   4.846   2.734   0.500
10327SOL     OW31879   2.808   1.663   2.367
10327SOL    HW131880   2.787   1.566   2.355
10327SOL    HW231881   2.733   1.718   2.330
10328SOL     OW31882   6.168   3.256   1.483
10328SOL    HW131883   6.249   3.315   1.489
10328SOL    HW231884   6.184   3.173   1.536
10329SOL     OW31885   2.749   0.335   4.921
10329SOL    HW131886   2.819   0.267   4.942
10329SOL    HW231887   2.659   0.301   4.951
10330SOL     OW31888   3.058   5.413   2.816
10330SOL    HW131889   3.109   5.341   2.863
10330SOL    HW231890   3.100   5.431   2.727
10331SOL     OW31891   6.361   0.439   3.063
10331SOL    HW131892   6.317   0.503   2.999
10331SOL    HW231893   6.395   0.490   3.142
10332SOL     OW31894   6.746   1.642   0.628
10332SOL    HW131895   6.700   1.553   0.624
10332SOL    HW231896   6.677   1.714   0.640
10333SOL     OW31897   5.883   4.434   4.353
10333SOL    HW131898   5.855   4.529   4.365
10333SOL    HW231899   5.829   4.376   4.413
10334SOL     OW31900   2.025   5.943   3.254
10334SOL    HW131901   1.936   5.982   3.277
10334SOL    HW231902   2.098   6.003   3.289
10335SOL     OW31903   1.573   4.256   6.652
10335SOL    HW131904   1.478   4.227   6.662
10335SOL    HW231905   1.605   4.295   6.738
10336SOL     OW31906   5.219   6.724   2.998
10336SOL    HW131907   5.194   6.694   3.090
10336SOL    HW231908   5.231   6.644   2.940
10337SOL     OW31909   0.127   5.685   5.384
10337SOL    HW131910   0.152   5.591   5.357
10337SOL    HW231911   0.054   5.681   5.452
10338SOL     OW31912   3.432   6.326   1.279
10338SOL    HW131913   3.519   6.347   1.323
10338SOL    HW231914   3.446   6.321   1.180
10339SOL     OW31915   3.604   4.716   0.856
10339SOL    HW131916   3.564   4.679   0.772
10339SOL    HW231917   3.671   4.650   0.892
10340SOL     OW31918   1.594   5.862   6.750
10340SOL    HW131919   1.675   5.877   6.693
10340SOL    HW231920   1.512   5.890   6.699
10341SOL     OW31921   2.028   2.939   1.778
10341SOL    HW131922   1.958   2.936   1.707
10341SOL    HW231923   2.117   2.960   1.737
10342SOL     OW31924   2.394   5.831   5.510
10342SOL    HW131925   2.427   5.793   5.424
10342SOL    HW231926   2.465   5.888   5.551
10343SOL     OW31927   2.367   4.035   0.108
10343SOL    HW131928   2.368   3.938   0.133
10343SOL    HW231929   2.404   4.046   0.016
10344SOL     OW31930   4.087   3.732   3.301
10344SOL    HW131931   4.134   3.788   3.233
10344SOL    HW231932   4.004   3.779   3.332
10345SOL     OW31933   2.035   1.072   6.765
10345SOL    HW131934   1.968   1.141   6.790
10345SOL    HW231935   2.076   1.095   6.676
10346SOL     OW31936   5.905   0.583   1.248
10346SOL    HW131937   5.991   0.552   1.207
10346SOL    HW231938   5.863   0.650   1.188
10347SOL     OW31939   5.078   2.282   1.195
10347SOL    HW131940   5.115   2.243   1.111
10347SOL    HW231941   5.130   2.247   1.273
10348SOL     OW31942   6.750   0.867   6.295
10348SOL    HW131943   6.708   0.914   6.372
10348SOL    HW231944   6.762   0.770   6.318
10349SOL     OW31945   6.177   0.536   1.138
10349SOL    HW131946   6.209   0.445   1.163
10349SOL    HW231947   6.108   0.528   1.065
10350SOL     OW31948   3.339   6.565   4.604
10350SOL    HW131949   3.345   6.664   4.611
10350SOL    HW231950   3.409   6.522   4.661
10351SOL     OW31951   5.713   4.940   5.729
10351SOL    HW131952   5.743   5.033   5.705
10351SOL    HW231953   5.614   4.933   5.716
10352SOL     OW31954   5.534   2.123   6.358
10352SOL    HW131955   5.552   2.208   6.307
10352SOL    HW231956   5.568   2.132   6.451
10353SOL     OW31957   6.636   2.909   3.833
10353SOL    HW131958   6.593   2.826   3.869
10353SOL    HW231959   6.735   2.896   3.828
10354SOL     OW31960   0.715   3.952   0.879
10354SOL    HW131961   0.782   3.893   0.925
10354SOL    HW231962   0.629   3.949   0.930
10355SOL     OW31963   0.953   0.824   0.779
10355SOL    HW131964   0.976   0.854   0.687
10355SOL    HW231965   0.854   0.810   0.786
10356SOL     OW31966   0.141   3.579   6.611
10356SOL    HW131967   0.049   3.560   6.579
10356SOL    HW231968   0.145   3.570   6.711
10357SOL     OW31969   2.776   2.068   5.835
10357SOL    HW131970   2.711   2.050   5.762
10357SOL    HW231971   2.869   2.071   5.798
10358SOL     OW31972   1.196   3.409   3.175
10358SOL    HW131973   1.185   3.479   3.244
10358SOL    HW231974   1.294   3.390   3.162
10359SOL     OW31975   4.772   2.307   2.112
10359SOL    HW131976   4.849   2.310   2.177
10359SOL    HW231977   4.733   2.398   2.102
10360SOL     OW31978   4.959   5.268   2.323
10360SOL    HW131979   4.934   5.350   2.374
10360SOL    HW231980   5.059   5.260   2.320
10361SOL     OW31981   2.814   0.727   2.433
10361SOL    HW131982   2.889   0.749   2.496
10361SOL    HW231983   2.727   0.735   2.482
10362SOL     OW31984   0.648   5.199   2.406
10362SOL    HW131985   0.600   5.122   2.364
10362SOL    HW231986   0.742   5.203   2.373
10363SOL     OW31987   4.972   2.932   0.894
10363SOL    HW131988   4.887   2.967   0.935
10363SOL    HW231989   5.014   2.866   0.956
10364SOL     OW31990   5.254   4.713   1.895
10364SOL    HW131991   5.194   4.639   1.927
10364SOL    HW231992   5.322   4.675   1.833
10365SOL     OW31993   5.722   4.814   0.410
10365SOL    HW131994   5.811   4.857   0.399
10365SOL    HW231995   5.695   4.771   0.324
10366SOL     OW31996   4.360   6.677   3.486
10366SOL    HW131997   4.311   6.600   3.528
10366SOL    HW231998   4.318   6.763   3.517
10367SOL     OW31999   0.152   1.497   1.858
10367SOL    HW132000   0.185   1.585   1.824
10367SOL    HW232001   0.160   1.494   1.957
10368SOL     OW32002   2.075   1.050   2.710
10368SOL    HW132003   2.123   0.962   2.707
10368SOL    HW232004   1.998   1.048   2.646
10369SOL     OW32005   2.627   6.461   6.230
10369SOL    HW132006   2.704   6.458   6.166
10369SOL    HW232007   2.644   6.532   6.299
10370SOL     OW32008   6.381   1.602   4.780
10370SOL    HW132009   6.308   1.622   4.844
10370SOL    HW232010   6.460   1.566   4.830
10371SOL     OW32011   2.889   6.822   3.511
10371SOL    HW132012   2.937   6.906   3.488
10371SOL    HW232013   2.831   6.838   3.592
10372SOL     OW32014   2.582   1.026   1.211
10372SOL    HW132015   2.493   1.015   1.254
10372SOL    HW232016   2.615   1.120   1.225
10373SOL     OW32017   0.794   6.501   4.755
10373SOL    HW132018   0.779   6.415   4.803
10373SOL    HW232019   0.743   6.574   4.800
10374SOL     OW32020   2.776   0.250   4.637
10374SOL    HW132021   2.863   0.205   4.621
10374SOL    HW232022   2.778   0.298   4.725
10375SOL     OW32023   2.931   2.139   6.310
10375SOL    HW132024   2.975   2.209   6.253
10375SOL    HW232025   2.945   2.161   6.407
10376SOL     OW32026   1.144   6.161   3.870
10376SOL    HW132027   1.091   6.108   3.802
10376SOL    HW232028   1.238   6.128   3.871
10377SOL     OW32029   0.817   2.025   1.522
10377SOL    HW132030   0.750   1.959   1.488
10377SOL    HW232031   0.867   1.985   1.598
10378SOL     OW32032   6.768   5.195   6.154
10378SOL    HW132033   6.817   5.222   6.237
10378SOL    HW232034   6.729   5.277   6.111
10379SOL     OW32035   3.664   5.436   3.647
10379SOL    HW132036   3.682   5.497   3.569
10379SOL    HW232037   3.677   5.487   3.732
10380SOL     OW32038   1.072   2.316   5.049
10380SOL    HW132039   0.974   2.331   5.032
10380SOL    HW232040   1.083   2.269   5.137
10381SOL     OW32041   4.199   3.897   0.422
10381SOL    HW132042   4.112   3.945   0.414
10381SOL    HW232043   4.192   3.826   0.492
10382SOL     OW32044   3.074   6.395   1.686
10382SOL    HW132045   3.070   6.305   1.729
10382SOL    HW232046   3.064   6.467   1.755
10383SOL     OW32047   2.333   3.804   0.245
10383SOL    HW132048   2.362   3.711   0.221
10383SOL    HW232049   2.240   3.802   0.280
10384SOL     OW32050   6.967   6.580   0.755
10384SOL    HW132051   0.005   6.535   0.823
10384SOL    HW232052   6.908   6.511   0.712
10385SOL     OW32053   4.015   5.919   6.425
10385SOL    HW132054   4.010   6.002   6.369
10385SOL    HW232055   4.015   5.943   6.522
10386SOL     OW32056   1.023   0.830   5.428
10386SOL    HW132057   0.967   0.747   5.429
10386SOL    HW232058   1.073   0.835   5.341
10387SOL     OW32059   4.659   2.466   2.688
10387SOL    HW132060   4.600   2.386   2.697
10387SOL    HW232061   4.748   2.437   2.652
10388SOL     OW32062   1.948   6.841   0.862
10388SOL    HW132063   1.956   6.745   0.887
10388SOL    HW232064   1.991   6.856   0.773
10389SOL     OW32065   5.572   3.540   1.611
10389SOL    HW132066   5.564   3.551   1.512
10389SOL    HW232067   5.544   3.624   1.656
10390SOL     OW32068   1.794   2.436   6.596
10390SOL    HW132069   1.740   2.425   6.680
10390SOL    HW232070   1.734   2.432   6.517
10391SOL     OW32071   0.981   6.321   3.561
10391SOL    HW132072   0.909   6.356   3.621
10391SOL    HW232073   1.007   6.229   3.590
10392SOL     OW32074   5.829   5.215   5.388
10392SOL    HW132075   5.841   5.274   5.308
10392SOL    HW232076   5.761   5.145   5.367
10393SOL     OW32077   2.149   3.662   3.718
10393SOL    HW132078   2.127   3.748   3.673
10393SOL    HW232079   2.237   3.629   3.685
10394SOL     OW32080   2.606   5.590   4.759
10394SOL    HW132081   2.519   5.618   4.799
10394SOL    HW232082   2.601   5.599   4.660
10395SOL     OW32083   6.965   0.135   1.432
10395SOL    HW132084   6.960   0.199   1.509
10395SOL    HW232085   6.931   0.180   1.350
10396SOL     OW32086   3.994   1.676   3.786
10396SOL    HW132087   3.946   1.589   3.772
10396SOL    HW232088   4.015   1.717   3.697
10397SOL     OW32089   3.106   1.748   4.086
10397SOL    HW132090   3.168   1.826   4.085
10397SOL    HW232091   3.122   1.693   4.167
10398SOL     OW32092   6.138   2.851   1.079
10398SOL    HW132093   6.060   2.799   1.111
10398SOL    HW232094   6.221   2.796   1.089
10399SOL     OW32095   5.901   2.235   3.277
10399SOL    HW132096   5.907   2.297   3.356
10399SOL    HW232097   5.967   2.263   3.208
10400SOL     OW32098   4.078   5.572   0.148
10400SOL    HW132099   4.053   5.661   0.186
10400SOL    HW232100   4.071   5.575   0.048
10401SOL     OW32101   0.283   6.561   2.020
10401SOL    HW132102   0.375   6.553   2.058
10401SOL    HW232103   0.249   6.654   2.034
10402SOL     OW32104   6.544   1.829   5.593
10402SOL    HW132105   6.584   1.911   5.635
10402SOL    HW232106   6.618   1.767   5.566
10403SOL     OW32107   4.807   2.098   3.661
10403SOL    HW132108   4.829   2.191   3.630
10403SOL    HW232109   4.791   2.099   3.759
10404SOL     OW32110   5.882   6.217   4.378
10404SOL    HW132111   5.795   6.169   4.381
10404SOL    HW232112   5.874   6.298   4.320
10405SOL     OW32113   0.947   0.296   4.829
10405SOL    HW132114   1.026   0.274   4.886
10405SOL    HW232115   0.974   0.355   4.754
10406SOL     OW32116   2.000   4.509   3.345
10406SOL    HW132117   1.991   4.510   3.444
10406SOL    HW232118   1.983   4.600   3.308
10407SOL     OW32119   2.603   6.917   6.267
10407SOL    HW132120   2.596   6.824   6.304
10407SOL    HW232121   2.651   6.976   6.333
10408SOL     OW32122   4.141   0.036   1.270
10408SOL    HW132123   4.101   6.976   1.228
10408SOL    HW232124   4.208   0.077   1.208
10409SOL     OW32125   0.354   4.950   0.806
10409SOL    HW132126   0.451   4.926   0.800
10409SOL    HW232127   0.308   4.922   0.722
10410SOL     OW32128   5.443   2.084   1.807
10410SOL    HW132129   5.381   2.118   1.877
10410SOL    HW232130   5.401   2.096   1.717
10411SOL     OW32131   3.459   6.651   3.424
10411SOL    HW132132   3.406   6.583   3.373
10411SOL    HW232133   3.401   6.728   3.447
10412SOL     OW32134   0.414   1.224   0.099
10412SOL    HW132135   0.398   1.216   0.001
10412SOL    HW232136   0.512   1.234   0.116
10413SOL     OW32137   0.286   2.800   0.234
10413SOL    HW132138   0.281   2.748   0.320
10413SOL    HW232139   0.374   2.784   0.191
10414SOL     OW32140   4.036   5.288   5.736
10414SOL    HW132141   4.109   5.348   5.768
10414SOL    HW232142   3.955   5.302   5.793
10415SOL     OW32143   1.552   3.746   5.052
10415SOL    HW132144   1.591   3.692   5.127
10415SOL    HW232145   1.622   3.806   5.014
10416SOL     OW32146   6.126   0.401   4.785
10416SOL    HW132147   6.032   0.365   4.778
10416SOL    HW232148   6.124   0.500   4.772
10417SOL     OW32149   3.283   5.277   3.821
10417SOL    HW132150   3.330   5.207   3.768
10417SOL    HW232151   3.204   5.236   3.868
10418SOL     OW32152   6.841   4.055   6.916
10418SOL    HW132153   6.890   4.100   6.841
10418SOL    HW232154   6.870   3.960   6.922
10419SOL     OW32155   2.777   6.839   6.019
10419SOL    HW132156   2.775   6.821   6.117
10419SOL    HW232157   2.684   6.839   5.983
10420SOL     OW32158   0.636   3.940   3.847
10420SOL    HW132159   0.675   4.029   3.872
10420SOL    HW232160   0.709   3.875   3.830
10421SOL     OW32161   0.819   1.998   3.860
10421SOL    HW132162   0.827   1.978   3.762
10421SOL    HW232163   0.730   2.039   3.878
10422SOL     OW32164   6.094   3.187   5.245
10422SOL    HW132165   6.078   3.208   5.341
10422SOL    HW232166   6.155   3.108   5.238
10423SOL     OW32167   6.209   5.371   5.497
10423SOL    HW132168   6.219   5.399   5.593
10423SOL    HW232169   6.287   5.405   5.445
10424SOL     OW32170   5.258   2.773   0.015
10424SOL    HW132171   5.313   2.716   0.077
10424SOL    HW232172   5.192   2.826   0.068
10425SOL     OW32173   1.056   0.108   1.846
10425SOL    HW132174   1.123   0.136   1.914
10425SOL    HW232175   1.070   0.011   1.823
10426SOL     OW32176   5.736   5.218   0.747
10426SOL    HW132177   5.798   5.139   0.751
10426SOL    HW232178   5.642   5.186   0.744
10427SOL     OW32179   3.985   1.135   6.446
10427SOL    HW132180   4.083   1.128   6.460
10427SOL    HW232181   3.946   1.200   6.511
10428SOL     OW32182   3.374   1.186   4.041
10428SOL    HW132183   3.356   1.092   4.069
10428SOL    HW232184   3.458   1.190   3.988
10429SOL     OW32185   0.292   4.293   1.230
10429SOL    HW132186   0.357   4.218   1.238
10429SOL    HW232187   0.228   4.275   1.155
10430SOL     OW32188   4.976   0.012   4.313
10430SOL    HW132189   5.045   7.003   4.247
10430SOL    HW232190   5.014   0.085   4.370
10431SOL     OW32191   2.945   6.150   4.237
10431SOL    HW132192   3.030   6.198   4.258
10431SOL    HW232193   2.964   6.075   4.174
10432SOL     OW32194   5.438   0.068   5.034
10432SOL    HW132195   5.456   0.047   4.938
10432SOL    HW232196   5.433   0.167   5.046
10433SOL     OW32197   1.225   5.892   1.513
10433SOL    HW132198   1.292   5.818   1.518
10433SOL    HW232199   1.167   5.879   1.432
10434SOL     OW32200   4.028   6.381   3.173
10434SOL    HW132201   4.037   6.324   3.255
10434SOL    HW232202   4.067   6.471   3.190
10435SOL     OW32203   6.748   1.099   4.806
10435SOL    HW132204   6.705   1.184   4.837
10435SOL    HW232205   6.809   1.118   4.729
10436SOL     OW32206   0.563   4.994   5.683
10436SOL    HW132207   0.627   4.976   5.758
10436SOL    HW232208   0.479   4.941   5.696
10437SOL     OW32209   4.729   4.081   5.654
10437SOL    HW132210   4.765   4.013   5.718
10437SOL    HW232211   4.651   4.043   5.605
10438SOL     OW32212   5.962   6.574   0.042
10438SOL    HW132213   5.907   6.631   0.103
10438SOL    HW232214   6.059   6.589   0.060
10439SOL     OW32215   3.810   1.064   5.624
10439SOL    HW132216   3.861   1.068   5.538
10439SOL    HW232217   3.737   1.132   5.623
10440SOL     OW32218   1.145   0.292   0.126
10440SOL    HW132219   1.213   0.285   0.198
10440SOL    HW232220   1.090   0.375   0.140
10441SOL     OW32221   3.086   0.455   1.754
10441SOL    HW132222   3.083   0.444   1.854
10441SOL    HW232223   2.996   0.436   1.716
10442SOL     OW32224   3.559   6.593   5.978
10442SOL    HW132225   3.509   6.513   5.947
10442SOL    HW232226   3.635   6.565   6.037
10443SOL     OW32227   4.746   4.185   3.959
10443SOL    HW132228   4.672   4.250   3.975
10443SOL    HW232229   4.771   4.185   3.862
10444SOL     OW32230   4.161   6.380   4.397
10444SOL    HW132231   4.168   6.477   4.418
10444SOL    HW232232   4.194   6.326   4.475
10445SOL     OW32233   0.475   4.747   4.627
10445SOL    HW132234   0.475   4.769   4.725
10445SOL    HW232235   0.518   4.823   4.577
10446SOL     OW32236   1.514   2.887   5.095
10446SOL    HW132237   1.530   2.965   5.033
10446SOL    HW232238   1.506   2.920   5.189
10447SOL     OW32239   0.496   1.085   1.627
10447SOL    HW132240   0.527   1.018   1.694
10447SOL    HW232241   0.530   1.060   1.536
10448SOL     OW32242   4.350   0.590   2.550
10448SOL    HW132243   4.292   0.670   2.568
10448SOL    HW232244   4.327   0.552   2.460
10449SOL     OW32245   2.801   5.112   4.592
10449SOL    HW132246   2.719   5.083   4.542
10449SOL    HW232247   2.777   5.186   4.654
10450SOL     OW32248   0.695   1.833   0.512
10450SOL    HW132249   0.783   1.877   0.527
10450SOL    HW232250   0.626   1.903   0.493
10451SOL     OW32251   0.931   5.929   2.394
10451SOL    HW132252   0.936   5.835   2.362
10451SOL    HW232253   1.018   5.975   2.375
10452SOL     OW32254   6.446   3.420   2.366
10452SOL    HW132255   6.399   3.335   2.345
10452SOL    HW232256   6.383   3.497   2.352
10453SOL     OW32257   3.822   6.729   1.309
10453SOL    HW132258   3.752   6.732   1.238
10453SOL    HW232259   3.788   6.676   1.387
10454SOL     OW32260   4.387   3.591   0.381
10454SOL    HW132261   4.351   3.538   0.305
10454SOL    HW232262   4.312   3.627   0.436
10455SOL     OW32263   6.545   6.159   3.549
10455SOL    HW132264   6.522   6.256   3.541
10455SOL    HW232265   6.479   6.113   3.609
10456SOL     OW32266   3.297   6.519   0.804
10456SOL    HW132267   3.230   6.485   0.870
10456SOL    HW232268   3.283   6.474   0.716
10457SOL     OW32269   2.956   3.749   1.927
10457SOL    HW132270   2.902   3.672   1.962
10457SOL    HW232271   3.053   3.723   1.926
10458SOL     OW32272   0.022   1.742   6.377
10458SOL    HW132273   0.047   1.738   6.280
10458SOL    HW232274   6.954   1.786   6.387
10459SOL     OW32275   4.596   6.111   1.191
10459SOL    HW132276   4.555   6.028   1.229
10459SOL    HW232277   4.523   6.171   1.157
10460SOL     OW32278   1.548   4.745   1.827
10460SOL    HW132279   1.471   4.689   1.798
10460SOL    HW232280   1.603   4.769   1.747
10461SOL     OW32281   1.030   4.896   5.402
10461SOL    HW132282   1.118   4.877   5.447
10461SOL    HW232283   0.958   4.899   5.470
10462SOL     OW32284   6.384   2.036   3.655
10462SOL    HW132285   6.307   2.089   3.689
10462SOL    HW232286   6.354   1.978   3.579
10463SOL     OW32287   3.762   3.003   5.805
10463SOL    HW132288   3.760   2.906   5.783
10463SOL    HW232289   3.688   3.050   5.756
10464SOL     OW32290   6.501   6.609   1.028
10464SOL    HW132291   6.510   6.683   0.961
10464SOL    HW232292   6.522   6.644   1.119
10465SOL     OW32293   6.919   5.802   1.379
10465SOL    HW132294   6.873   5.889   1.368
10465SOL    HW232295   6.874   5.749   1.451
10466SOL     OW32296   4.500   5.315   6.368
10466SOL    HW132297   4.562   5.349   6.439
10466SOL    HW232298   4.542   5.238   6.321
10467SOL     OW32299   1.999   2.092   6.057
10467SOL    HW132300   2.026   2.173   6.108
10467SOL    HW232301   2.045   2.012   6.094
10468SOL     OW32302   3.565   4.983   2.851
10468SOL    HW132303   3.482   4.957   2.902
10468SOL    HW232304   3.552   5.072   2.809
10469SOL     OW32305   4.099   3.525   5.744
10469SOL    HW132306   4.078   3.501   5.838
10469SOL    HW232307   4.132   3.620   5.741
10470SOL     OW32308   2.701   2.358   3.853
10470SOL    HW132309   2.716   2.291   3.925
10470SOL    HW232310   2.638   2.429   3.886
10471SOL     OW32311   2.752   2.123   0.876
10471SOL    HW132312   2.709   2.036   0.852
10471SOL    HW232313   2.754   2.133   0.975
10472SOL     OW32314   3.650   5.504   0.323
10472SOL    HW132315   3.708   5.465   0.252
10472SOL    HW232316   3.628   5.599   0.300
10473SOL     OW32317   6.504   0.748   0.114
10473SOL    HW132318   6.544   0.736   0.205
10473SOL    HW232319   6.411   0.781   0.122
10474SOL     OW32320   4.837   1.686   4.616
10474SOL    HW132321   4.897   1.757   4.579
10474SOL    HW232322   4.762   1.728   4.667
10475SOL     OW32323   5.364   6.901   2.628
10475SOL    HW132324   5.374   7.000   2.627
10475SOL    HW232325   5.341   6.871   2.721
10476SOL     OW32326   0.021   6.266   6.745
10476SOL    HW132327   6.992   6.259   6.658
10476SOL    HW232328   0.100   6.326   6.733
10477SOL     OW32329   6.675   1.705   4.064
10477SOL    HW132330   6.750   1.677   4.124
10477SOL    HW232331   6.588   1.687   4.110
10478SOL     OW32332   0.357   0.720   0.849
10478SOL    HW132333   0.295   0.666   0.906
10478SOL    HW232334   0.309   0.748   0.766
10479SOL     OW32335   0.229   2.538   1.523
10479SOL    HW132336   0.148   2.567   1.574
10479SOL    HW232337   0.297   2.501   1.586
10480SOL     OW32338   6.593   0.687   1.834
10480SOL    HW132339   6.581   0.614   1.767
10480SOL    HW232340   6.531   0.672   1.911
10481SOL     OW32341   2.312   6.993   4.659
10481SOL    HW132342   2.406   0.006   4.658
10481SOL    HW232343   2.261   0.018   4.732
10482SOL     OW32344   6.874   5.594   4.766
10482SOL    HW132345   6.916   5.635   4.847
10482SOL    HW232346   6.938   5.597   4.689
10483SOL     OW32347   0.124   5.174   0.611
10483SOL    HW132348   0.176   5.246   0.565
10483SOL    HW232349   0.047   5.214   0.661
10484SOL     OW32350   5.865   1.200   1.864
10484SOL    HW132351   5.950   1.189   1.813
10484SOL    HW232352   5.867   1.142   1.945
10485SOL     OW32353   3.085   3.962   2.112
10485SOL    HW132354   3.029   3.888   2.076
10485SOL    HW232355   3.106   4.027   2.038
10486SOL     OW32356   6.256   0.622   5.690
10486SOL    HW132357   6.159   0.625   5.669
10486SOL    HW232358   6.278   0.534   5.733
10487SOL     OW32359   4.259   2.038   1.910
10487SOL    HW132360   4.164   2.004   1.910
10487SOL    HW232361   4.261   2.132   1.944
10488SOL     OW32362   2.246   1.724   6.447
10488SOL    HW132363   2.204   1.647   6.495
10488SOL    HW232364   2.345   1.713   6.448
10489SOL     OW32365   5.887   6.713   4.093
10489SOL    HW132366   5.920   6.793   4.042
10489SOL    HW232367   5.837   6.653   4.030
10490SOL     OW32368   6.262   1.560   0.693
10490SOL    HW132369   6.239   1.463   0.682
10490SOL    HW232370   6.186   1.606   0.739
10491SOL     OW32371   2.617   2.351   5.286
10491SOL    HW132372   2.518   2.347   5.302
10491SOL    HW232373   2.650   2.444   5.305
10492SOL     OW32374   4.866   6.112   1.234
10492SOL    HW132375   4.887   6.032   1.178
10492SOL    HW232376   4.767   6.122   1.242
10493SOL     OW32377   2.576   6.550   1.621
10493SOL    HW132378   2.478   6.572   1.622
10493SOL    HW232379   2.603   6.520   1.529
10494SOL     OW32380   5.751   4.481   6.195
10494SOL    HW132381   5.720   4.573   6.173
10494SOL    HW232382   5.690   4.414   6.154
10495SOL     OW32383   0.004   0.335   0.888
10495SOL    HW132384   0.026   0.423   0.846
10495SOL    HW232385   6.929   0.313   0.871
10496SOL     OW32386   6.308   4.655   6.015
10496SOL    HW132387   6.227   4.603   5.989
10496SOL    HW232388   6.306   4.673   6.113
10497SOL     OW32389   0.997   6.445   2.114
10497SOL    HW132390   1.074   6.498   2.078
10497SOL    HW232391   0.916   6.503   2.120
10498SOL     OW32392   5.898   5.583   0.572
10498SOL    HW132393   5.988   5.559   0.608
10498SOL    HW232394   5.853   5.500   0.537
10499SOL     OW32395   4.753   0.342   2.162
10499SOL    HW132396   4.726   0.383   2.249
10499SOL    HW232397   4.690   0.267   2.140
10500SOL     OW32398   6.048   1.892   6.002
10500SOL    HW132399   5.955   1.913   6.033
10500SOL    HW232400   6.103   1.975   6.003
10501SOL     OW32401   2.439   5.948   1.999
10501SOL    HW132402   2.433   5.994   2.088
10501SOL    HW232403   2.450   6.016   1.927
10502SOL     OW32404   2.888   3.451   1.174
10502SOL    HW132405   2.821   3.376   1.177
10502SOL    HW232406   2.925   3.466   1.266
10503SOL     OW32407   5.889   3.541   0.605
10503SOL    HW132408   5.816   3.492   0.558
10503SOL    HW232409   5.906   3.628   0.558
10504SOL     OW32410   0.143   2.933   5.754
10504SOL    HW132411   0.057   2.928   5.702
10504SOL    HW232412   0.197   2.851   5.735
10505SOL     OW32413   5.811   6.118   1.162
10505SOL    HW132414   5.824   6.067   1.247
10505SOL    HW232415   5.895   6.115   1.108
10506SOL     OW32416   0.793   3.343   6.877
10506SOL    HW132417   0.873   3.329   6.820
10506SOL    HW232418   0.747   3.428   6.850
10507SOL     OW32419   2.242   5.425   0.093
10507SOL    HW132420   2.211   5.470   0.176
10507SOL    HW232421   2.291   5.341   0.116
10508SOL     OW32422   0.230   5.974   4.324
10508SOL    HW132423   0.173   5.938   4.398
10508SOL    HW232424   0.298   6.036   4.362
10509SOL     OW32425   6.314   4.719   4.992
10509SOL    HW132426   6.249   4.652   5.029
10509SOL    HW232427   6.405   4.679   4.987
10510SOL     OW32428   4.383   6.201   0.372
10510SOL    HW132429   4.400   6.281   0.315
10510SOL    HW232430   4.466   6.177   0.422
10511SOL     OW32431   3.187   1.264   2.461
10511SOL    HW132432   3.269   1.308   2.425
10511SOL    HW232433   3.126   1.241   2.385
10512SOL     OW32434   3.374   0.168   6.228
10512SOL    HW132435   3.378   0.240   6.297
10512SOL    HW232436   3.279   0.156   6.198
10513SOL     OW32437   6.654   3.004   3.021
10513SOL    HW132438   6.579   3.047   3.071
10513SOL    HW232439   6.618   2.933   2.962
10514SOL     OW32440   1.126   2.548   1.736
10514SOL    HW132441   1.067   2.528   1.658
10514SOL    HW232442   1.096   2.496   1.816
10515SOL     OW32443   1.499   3.669   4.570
10515SOL    HW132444   1.456   3.698   4.656
10515SOL    HW232445   1.431   3.675   4.496
10516SOL     OW32446   3.006   1.752   0.228
10516SOL    HW132447   3.024   1.835   0.280
10516SOL    HW232448   3.029   1.672   0.284
10517SOL     OW32449   1.365   3.907   1.876
10517SOL    HW132450   1.285   3.849   1.890
10517SOL    HW232451   1.408   3.926   1.965
10518SOL     OW32452   6.853   6.378   1.447
10518SOL    HW132453   6.836   6.280   1.435
10518SOL    HW232454   6.818   6.427   1.367
10519SOL     OW32455   3.146   3.847   0.951
10519SOL    HW132456   3.092   3.925   0.919
10519SOL    HW232457   3.192   3.804   0.874
10520SOL     OW32458   0.161   2.409   5.866
10520SOL    HW132459   0.098   2.448   5.934
10520SOL    HW232460   0.242   2.375   5.913
10521SOL     OW32461   0.344   5.771   1.479
10521SOL    HW132462   0.261   5.758   1.425
10521SOL    HW232463   0.423   5.740   1.427
10522SOL     OW32464   0.085   2.633   3.546
10522SOL    HW132465   0.167   2.603   3.497
10522SOL    HW232466   0.111   2.695   3.620
10523SOL     OW32467   0.478   4.324   3.309
10523SOL    HW132468   0.411   4.396   3.289
10523SOL    HW232469   0.570   4.364   3.312
10524SOL     OW32470   0.179   6.380   4.386
10524SOL    HW132471   0.088   6.419   4.370
10524SOL    HW232472   0.200   6.382   4.484
10525SOL     OW32473   3.756   0.873   5.180
10525SOL    HW132474   3.734   0.826   5.095
10525SOL    HW232475   3.672   0.886   5.234
10526SOL     OW32476   0.729   0.078   1.368
10526SOL    HW132477   0.675   7.015   1.377
10526SOL    HW232478   0.674   0.156   1.401
10527SOL     OW32479   1.364   0.878   5.957
10527SOL    HW132480   1.323   0.865   6.047
10527SOL    HW232481   1.398   0.790   5.923
10528SOL     OW32482   1.265   4.103   6.347
10528SOL    HW132483   1.296   4.192   6.313
10528SOL    HW232484   1.206   4.059   6.279
10529SOL     OW32485   2.482   5.983   4.345
10529SOL    HW132486   2.474   5.979   4.246
10529SOL    HW232487   2.579   5.989   4.370
10530SOL     OW32488   1.169   6.750   6.268
10530SOL    HW132489   1.082   6.772   6.311
10530SOL    HW232490   1.199   6.659   6.296
10531SOL     OW32491   2.713   2.189   4.386
10531SOL    HW132492   2.659   2.162   4.306
10531SOL    HW232493   2.734   2.109   4.442
10532SOL     OW32494   0.171   6.764   6.222
10532SOL    HW132495   0.143   6.740   6.129
10532SOL    HW232496   0.091   6.797   6.273
10533SOL     OW32497   3.463   5.860   3.546
10533SOL    HW132498   3.384   5.802   3.564
10533SOL    HW232499   3.449   5.912   3.462
10534SOL     OW32500   6.335   4.780   2.260
10534SOL    HW132501   6.342   4.698   2.204
10534SOL    HW232502   6.389   4.853   2.219
10535SOL     OW32503   2.079   1.759   2.134
10535SOL    HW132504   2.012   1.689   2.161
10535SOL    HW232505   2.092   1.824   2.209
10536SOL     OW32506   4.497   0.928   4.209
10536SOL    HW132507   4.430   1.001   4.219
10536SOL    HW232508   4.549   0.919   4.294
10537SOL     OW32509   5.011   6.701   3.786
10537SOL    HW132510   4.985   6.674   3.693
10537SOL    HW232511   4.949   6.658   3.852
10538SOL     OW32512   6.755   3.296   0.544
10538SOL    HW132513   6.701   3.224   0.587
10538SOL    HW232514   6.699   3.346   0.478
10539SOL     OW32515   6.211   5.720   1.203
10539SOL    HW132516   6.175   5.637   1.245
10539SOL    HW232517   6.292   5.698   1.148
10540SOL     OW32518   2.096   2.892   5.574
10540SOL    HW132519   2.180   2.936   5.545
10540SOL    HW232520   2.032   2.888   5.497
10541SOL     OW32521   3.795   3.377   3.208
10541SOL    HW132522   3.813   3.475   3.205
10541SOL    HW232523   3.882   3.327   3.198
10542SOL     OW32524   6.785   1.026   5.353
10542SOL    HW132525   6.871   0.987   5.320
10542SOL    HW232526   6.753   1.095   5.288
10543SOL     OW32527   0.943   1.788   3.998
10543SOL    HW132528   0.901   1.856   3.939
10543SOL    HW232529   0.978   1.833   4.081
10544SOL     OW32530   2.188   6.211   1.792
10544SOL    HW132531   2.288   6.211   1.802
10544SOL    HW232532   2.149   6.139   1.850
10545SOL     OW32533   1.734   2.365   1.559
10545SOL    HW132534   1.830   2.388   1.568
10545SOL    HW232535   1.685   2.395   1.641
10546SOL     OW32536   2.975   6.467   0.791
10546SOL    HW132537   2.899   6.435   0.736
10546SOL    HW232538   2.952   6.554   0.834
10547SOL     OW32539   5.505   2.417   3.932
10547SOL    HW132540   5.593   2.441   3.891
10547SOL    HW232541   5.432   2.469   3.887
10548SOL     OW32542   0.285   4.263   4.252
10548SOL    HW132543   0.186   4.274   4.247
10548SOL    HW232544   0.313   4.186   4.193
10549SOL     OW32545   0.560   1.276   0.849
10549SOL    HW132546   0.519   1.207   0.789
10549SOL    HW232547   0.641   1.238   0.892
10550SOL     OW32548   4.579   6.321   3.784
10550SOL    HW132549   4.678   6.330   3.790
10550SOL    HW232550   4.555   6.240   3.732
10551SOL     OW32551   1.712   1.750   6.942
10551SOL    HW132552   1.673   1.672   6.992
10551SOL    HW232553   1.654   1.770   6.863
10552SOL     OW32554   1.665   0.701   5.215
10552SOL    HW132555   1.610   0.671   5.137
10552SOL    HW232556   1.645   0.797   5.235
10553SOL     OW32557   0.583   4.810   1.174
10553SOL    HW132558   0.602   4.728   1.121
10553SOL    HW232559   0.643   4.884   1.145
10554SOL     OW32560   5.041   5.559   1.702
10554SOL    HW132561   5.088   5.478   1.738
10554SOL    HW232562   4.977   5.531   1.630
10555SOL     OW32563   2.694   2.776   0.947
10555SOL    HW132564   2.747   2.799   0.865
10555SOL    HW232565   2.754   2.780   1.027
10556SOL     OW32566   2.887   0.756   3.400
10556SOL    HW132567   2.985   0.748   3.419
10556SOL    HW232568   2.868   0.720   3.308
10557SOL     OW32569   1.434   2.901   3.755
10557SOL    HW132570   1.378   2.818   3.753
10557SOL    HW232571   1.530   2.877   3.743
10558SOL     OW32572   3.723   6.040   5.783
10558SOL    HW132573   3.765   5.971   5.724
10558SOL    HW232574   3.677   6.109   5.727
10559SOL     OW32575   3.768   0.021   1.487
10559SOL    HW132576   3.738   0.055   1.398
10559SOL    HW232577   3.708   6.968   1.517
10560SOL     OW32578   4.856   0.223   2.929
10560SOL    HW132579   4.863   0.157   2.854
10560SOL    HW232580   4.832   0.312   2.892
10561SOL     OW32581   3.716   4.275   1.704
10561SOL    HW132582   3.778   4.350   1.680
10561SOL    HW232583   3.660   4.302   1.782
10562SOL     OW32584   3.906   5.392   0.537
10562SOL    HW132585   3.930   5.364   0.444
10562SOL    HW232586   3.819   5.349   0.563
10563SOL     OW32587   0.950   0.876   1.961
10563SOL    HW132588   0.891   0.954   1.946
10563SOL    HW232589   0.960   0.860   2.060
10564SOL     OW32590   5.769   6.454   3.507
10564SOL    HW132591   5.852   6.498   3.474
10564SOL    HW232592   5.702   6.446   3.433
10565SOL     OW32593   6.720   6.291   5.606
10565SOL    HW132594   6.658   6.217   5.635
10565SOL    HW232595   6.775   6.260   5.528
10566SOL     OW32596   3.305   1.746   6.422
10566SOL    HW132597   3.245   1.803   6.365
10566SOL    HW232598   3.364   1.691   6.364
10567SOL     OW32599   1.873   2.920   5.851
10567SOL    HW132600   1.927   2.849   5.896
10567SOL    HW232601   1.927   2.962   5.778
10568SOL     OW32602   6.071   2.970   0.847
10568SOL    HW132603   6.102   2.918   0.927
10568SOL    HW232604   6.019   3.049   0.877
10569SOL     OW32605   5.589   0.541   2.206
10569SOL    HW132606   5.638   0.491   2.277
10569SOL    HW232607   5.511   0.588   2.247
10570SOL     OW32608   1.807   4.763   3.686
10570SOL    HW132609   1.865   4.844   3.681
10570SOL    HW232610   1.854   4.691   3.736
10571SOL     OW32611   0.060   4.056   5.111
10571SOL    HW132612   6.993   4.073   5.066
10571SOL    HW232613   0.128   4.119   5.075
10572SOL     OW32614   6.811   4.654   2.774
10572SOL    HW132615   6.800   4.702   2.687
10572SOL    HW232616   6.883   4.700   2.828
10573SOL     OW32617   4.902   0.329   5.102
10573SOL    HW132618   4.933   0.422   5.083
10573SOL    HW232619   4.853   0.327   5.189
10574SOL     OW32620   0.215   1.704   4.128
10574SOL    HW132621   0.223   1.717   4.227
10574SOL    HW232622   0.123   1.730   4.099
10575SOL     OW32623   7.020   0.812   3.499
10575SOL    HW132624   0.077   0.750   3.492
10575SOL    HW232625   6.936   0.760   3.481
10576SOL     OW32626   0.775   6.007   3.244
10576SOL    HW132627   0.716   6.077   3.202
10576SOL    HW232628   0.738   5.983   3.334
10577SOL     OW32629   1.489   4.333   0.375
10577SOL    HW132630   1.587   4.349   0.361
10577SOL    HW232631   1.475   4.279   0.457
10578SOL     OW32632   3.872   1.384   3.095
10578SOL    HW132633   3.960   1.403   3.141
10578SOL    HW232634   3.840   1.468   3.051
10579SOL     OW32635   3.972   2.874   1.581
10579SOL    HW132636   4.069   2.862   1.601
10579SOL    HW232637   3.925   2.787   1.595
10580SOL     OW32638   6.319   6.509   5.965
10580SOL    HW132639   6.377   6.428   5.972
10580SOL    HW232640   6.231   6.484   5.926
10581SOL     OW32641   5.963   0.684   2.821
10581SOL    HW132642   5.873   0.692   2.779
10581SOL    HW232643   5.993   0.589   2.822
10582SOL     OW32644   4.347   4.565   6.104
10582SOL    HW132645   4.388   4.621   6.032
10582SOL    HW232646   4.248   4.578   6.103
10583SOL     OW32647   4.495   0.601   3.848
10583SOL    HW132648   4.471   0.628   3.754
10583SOL    HW232649   4.449   0.661   3.913
10584SOL     OW32650   6.254   0.192   0.174
10584SOL    HW132651   6.280   0.214   0.268
10584SOL    HW232652   6.318   0.126   0.136
10585SOL     OW32653   2.814   1.857   5.366
10585SOL    HW132654   2.871   1.810   5.298
10585SOL    HW232655   2.792   1.949   5.333
10586SOL     OW32656   5.320   5.167   5.773
10586SOL    HW132657   5.336   5.074   5.740
10586SOL    HW232658   5.319   5.167   5.873
10587SOL     OW32659   6.618   5.069   6.784
10587SOL    HW132660   6.648   5.096   6.692
10587SOL    HW232661   6.595   4.972   6.784
10588SOL     OW32662   1.599   1.970   4.804
10588SOL    HW132663   1.562   1.898   4.862
10588SOL    HW232664   1.586   2.059   4.847
10589SOL     OW32665   4.866   0.841   4.603
10589SOL    HW132666   4.873   0.847   4.703
10589SOL    HW232667   4.921   0.765   4.570
10590SOL     OW32668   0.176   0.154   0.445
10590SOL    HW132669   0.084   0.185   0.423
10590SOL    HW232670   0.197   0.179   0.540
10591SOL     OW32671   2.376   2.101   0.423
10591SOL    HW132672   2.408   2.182   0.472
10591SOL    HW232673   2.435   2.085   0.344
10592SOL     OW32674   5.539   4.036   4.103
10592SOL    HW132675   5.512   3.991   4.018
10592SOL    HW232676   5.613   4.100   4.086
10593SOL     OW32677   3.211   5.910   0.823
10593SOL    HW132678   3.311   5.919   0.826
10593SOL    HW232679   3.182   5.906   0.727
10594SOL     OW32680   4.823   1.931   2.085
10594SOL    HW132681   4.742   1.976   2.122
10594SOL    HW232682   4.842   1.848   2.138
10595SOL     OW32683   5.767   0.048   0.346
10595SOL    HW132684   5.713   0.036   0.429
10595SOL    HW232685   5.755   0.141   0.311
10596SOL     OW32686   4.415   0.823   0.217
10596SOL    HW132687   4.355   0.771   0.154
10596SOL    HW232688   4.449   0.904   0.170
10597SOL     OW32689   3.286   1.676   6.034
10597SOL    HW132690   3.357   1.625   6.083
10597SOL    HW232691   3.292   1.654   5.937
10598SOL     OW32692   3.579   2.873   6.825
10598SOL    HW132693   3.581   2.891   6.727
10598SOL    HW232694   3.618   2.783   6.844
10599SOL     OW32695   5.805   3.597   6.775
10599SOL    HW132696   5.808   3.690   6.738
10599SOL    HW232697   5.866   3.538   6.722
10600SOL     OW32698   3.208   2.540   1.734
10600SOL    HW132699   3.113   2.570   1.727
10600SOL    HW232700   3.240   2.551   1.828
10601SOL     OW32701   1.376   4.541   5.731
10601SOL    HW132702   1.387   4.576   5.638
10601SOL    HW232703   1.442   4.585   5.792
10602SOL     OW32704   0.966   1.205   1.216
10602SOL    HW132705   0.983   1.200   1.117
10602SOL    HW232706   1.034   1.265   1.258
10603SOL     OW32707   4.210   0.175   3.331
10603SOL    HW132708   4.250   0.174   3.240
10603SOL    HW232709   4.141   0.103   3.338
10604SOL     OW32710   6.369   5.199   5.065
10604SOL    HW132711   6.285   5.234   5.108
10604SOL    HW232712   6.440   5.269   5.072
10605SOL     OW32713   2.004   6.709   6.925
10605SOL    HW132714   1.904   6.714   6.934
10605SOL    HW232715   2.035   6.778   6.859
10606SOL     OW32716   0.123   1.043   1.233
10606SOL    HW132717   0.195   0.975   1.244
10606SOL    HW232718   0.147   1.126   1.281
10607SOL     OW32719   4.134   4.797   0.095
10607SOL    HW132720   4.221   4.828   0.058
10607SOL    HW232721   4.122   4.699   0.076
10608SOL     OW32722   6.972   3.611   4.298
10608SOL    HW132723   0.003   3.641   4.378
10608SOL    HW232724   6.996   3.669   4.220
10609SOL     OW32725   2.850   6.622   6.732
10609SOL    HW132726   2.873   6.534   6.692
10609SOL    HW232727   2.935   6.672   6.755
10610SOL     OW32728   0.597   2.147   3.931
10610SOL    HW132729   0.521   2.089   3.900
10610SOL    HW232730   0.562   2.235   3.962
10611SOL     OW32731   3.232   4.655   6.617
10611SOL    HW132732   3.154   4.592   6.611
10611SOL    HW232733   3.225   4.724   6.545
10612SOL     OW32734   4.975   1.861   3.986
10612SOL    HW132735   4.931   1.829   4.071
10612SOL    HW232736   4.991   1.959   3.992
10613SOL     OW32737   6.499   5.622   5.928
10613SOL    HW132738   6.464   5.664   5.844
10613SOL    HW232739   6.526   5.527   5.909
10614SOL     OW32740   5.045   1.186   4.153
10614SOL    HW132741   5.125   1.223   4.200
10614SOL    HW232742   5.063   1.180   4.055
10615SOL     OW32743   3.369   1.086   6.000
10615SOL    HW132744   3.415   1.053   5.918
10615SOL    HW232745   3.436   1.125   6.063
10616SOL     OW32746   3.139   6.473   0.030
10616SOL    HW132747   3.208   6.462   0.102
10616SOL    HW232748   3.061   6.524   0.066
10617SOL     OW32749   3.056   4.037   1.434
10617SOL    HW132750   2.972   4.088   1.452
10617SOL    HW232751   3.131   4.079   1.484
10618SOL     OW32752   1.144   4.426   5.903
10618SOL    HW132753   1.225   4.464   5.857
10618SOL    HW232754   1.161   4.331   5.929
10619SOL     OW32755   6.844   3.039   3.585
10619SOL    HW132756   6.792   3.004   3.507
10619SOL    HW232757   6.901   3.115   3.555
10620SOL     OW32758   0.948   0.019   4.850
10620SOL    HW132759   1.023   7.016   4.912
10620SOL    HW232760   0.948   0.118   4.834
10621SOL     OW32761   0.854   4.901   2.170
10621SOL    HW132762   0.924   4.833   2.149
10621SOL    HW232763   0.864   4.932   2.265
10622SOL     OW32764   4.637   2.058   2.433
10622SOL    HW132765   4.570   2.099   2.372
10622SOL    HW232766   4.627   2.097   2.525
10623SOL     OW32767   6.685   4.942   5.795
10623SOL    HW132768   6.588   4.920   5.785
10623SOL    HW232769   6.714   4.923   5.889
10624SOL     OW32770   0.254   2.663   5.721
10624SOL    HW132771   0.320   2.672   5.647
10624SOL    HW232772   0.198   2.582   5.706
10625SOL     OW32773   0.988   4.310   1.251
10625SOL    HW132774   0.907   4.252   1.252
10625SOL    HW232775   0.963   4.402   1.281
10626SOL     OW32776   3.613   2.802   1.001
10626SOL    HW132777   3.614   2.857   1.084
10626SOL    HW232778   3.537   2.831   0.943
10627SOL     OW32779   5.512   1.749   0.105
10627SOL    HW132780   5.544   1.705   0.022
10627SOL    HW232781   5.412   1.743   0.110
10628SOL     OW32782   4.260   6.502   0.928
10628SOL    HW132783   4.251   6.546   1.017
10628SOL    HW232784   4.354   6.513   0.895
10629SOL     OW32785   2.598   5.020   4.461
10629SOL    HW132786   2.527   5.080   4.422
10629SOL    HW232787   2.601   4.935   4.410
10630SOL     OW32788   6.490   1.763   2.650
10630SOL    HW132789   6.539   1.839   2.691
10630SOL    HW232790   6.549   1.718   2.583
10631SOL     OW32791   4.105   4.576   5.379
10631SOL    HW132792   4.036   4.648   5.370
10631SOL    HW232793   4.063   4.487   5.367
10632SOL     OW32794   5.299   6.770   3.355
10632SOL    HW132795   5.221   6.816   3.398
10632SOL    HW232796   5.272   6.679   3.325
10633SOL     OW32797   2.633   2.643   1.658
10633SOL    HW132798   2.622   2.596   1.746
10633SOL    HW232799   2.608   2.739   1.668
10634SOL     OW32800   2.161   4.818   0.582
10634SOL    HW132801   2.105   4.791   0.661
10634SOL    HW232802   2.113   4.887   0.529
10635SOL     OW32803   1.720   3.337   6.686
10635SOL    HW132804   1.709   3.297   6.778
10635SOL    HW232805   1.779   3.278   6.632
10636SOL     OW32806   0.770   2.246   1.055
10636SOL    HW132807   0.841   2.274   0.991
10636SOL    HW232808   0.722   2.326   1.090
10637SOL     OW32809   0.937   4.961   5.722
10637SOL    HW132810   0.932   4.943   5.820
10637SOL    HW232811   0.926   5.059   5.706
10638SOL     OW32812   5.445   6.192   2.803
10638SOL    HW132813   5.451   6.141   2.717
10638SOL    HW232814   5.351   6.190   2.837
10639SOL     OW32815   1.156   3.694   2.746
10639SOL    HW132816   1.224   3.623   2.762
10639SOL    HW232817   1.201   3.780   2.720
10640SOL     OW32818   4.442   0.134   3.487
10640SOL    HW132819   4.365   0.153   3.426
10640SOL    HW232820   4.422   0.052   3.541
10641SOL     OW32821   2.486   1.608   2.519
10641SOL    HW132822   2.553   1.630   2.590
10641SOL    HW232823   2.409   1.671   2.526
10642SOL     OW32824   6.507   1.687   0.818
10642SOL    HW132825   6.421   1.651   0.782
10642SOL    HW232826   6.569   1.612   0.839
10643SOL     OW32827   2.604   5.622   4.502
10643SOL    HW132828   2.691   5.661   4.472
10643SOL    HW232829   2.530   5.662   4.449
10644SOL     OW32830   5.611   2.848   1.286
10644SOL    HW132831   5.627   2.775   1.352
10644SOL    HW232832   5.513   2.871   1.286
10645SOL     OW32833   1.762   2.889   4.146
10645SOL    HW132834   1.665   2.910   4.135
10645SOL    HW232835   1.784   2.805   4.096
10646SOL     OW32836   0.521   6.949   5.866
10646SOL    HW132837   0.593   7.015   5.889
10646SOL    HW232838   0.520   6.934   5.767
10647SOL     OW32839   3.176   5.688   4.361
10647SOL    HW132840   3.184   5.628   4.282
10647SOL    HW232841   3.136   5.775   4.332
10648SOL     OW32842   5.729   4.761   6.183
10648SOL    HW132843   5.693   4.854   6.188
10648SOL    HW232844   5.804   4.751   6.249
10649SOL     OW32845   0.530   4.240   3.026
10649SOL    HW132846   0.510   4.143   3.016
10649SOL    HW232847   0.475   4.278   3.101
10650SOL     OW32848   0.944   6.988   4.130
10650SOL    HW132849   0.979   6.973   4.038
10650SOL    HW232850   1.021   7.008   4.192
10651SOL     OW32851   5.890   6.703   6.557
10651SOL    HW132852   5.909   6.644   6.636
10651SOL    HW232853   5.853   6.647   6.483
10652SOL     OW32854   3.032   6.240   5.830
10652SOL    HW132855   3.020   6.225   5.731
10652SOL    HW232856   2.971   6.179   5.880
10653SOL     OW32857   4.007   5.773   4.458
10653SOL    HW132858   3.983   5.807   4.367
10653SOL    HW232859   3.958   5.825   4.527
10654SOL     OW32860   5.160   0.478   6.553
10654SOL    HW132861   5.107   0.412   6.499
10654SOL    HW232862   5.202   0.431   6.631
10655SOL     OW32863   2.344   5.590   0.475
10655SOL    HW132864   2.411   5.665   0.476
10655SOL    HW232865   2.387   5.508   0.437
10656SOL     OW32866   0.093   1.806   2.530
10656SOL    HW132867   0.067   1.715   2.561
10656SOL    HW232868   0.115   1.863   2.609
10657SOL     OW32869   5.968   0.172   5.149
10657SOL    HW132870   6.032   0.226   5.094
10657SOL    HW232871   5.938   0.226   5.228
10658SOL     OW32872   6.725   4.467   4.785
10658SOL    HW132873   6.742   4.561   4.755
10658SOL    HW232874   6.740   4.404   4.709
10659SOL     OW32875   0.969   5.484   0.893
10659SOL    HW132876   0.872   5.496   0.871
10659SOL    HW232877   0.983   5.393   0.931
10660SOL     OW32878   5.299   3.706   6.251
10660SOL    HW132879   5.211   3.665   6.226
10660SOL    HW232880   5.288   3.805   6.261
10661SOL     OW32881   0.637   0.066   1.100
10661SOL    HW132882   0.600   7.002   1.139
10661SOL    HW232883   0.661   0.129   1.175
10662SOL     OW32884   4.706   0.474   2.391
10662SOL    HW132885   4.776   0.513   2.451
10662SOL    HW232886   4.617   0.475   2.437
10663SOL     OW32887   0.888   1.903   2.492
10663SOL    HW132888   0.970   1.908   2.434
10663SOL    HW232889   0.812   1.867   2.439
10664SOL     OW32890   6.336   4.277   5.316
10664SOL    HW132891   6.268   4.292   5.387
10664SOL    HW232892   6.336   4.180   5.290
10665SOL     OW32893   0.802   1.859   0.035
10665SOL    HW132894   0.756   1.845   6.968
10665SOL    HW232895   0.742   1.828   0.109
10666SOL     OW32896   3.578   3.771   1.779
10666SOL    HW132897   3.627   3.719   1.709
10666SOL    HW232898   3.622   3.757   1.868
10667SOL     OW32899   4.854   2.409   4.047
10667SOL    HW132900   4.920   2.484   4.048
10667SOL    HW232901   4.893   2.331   4.095
10668SOL     OW32902   2.776   1.082   5.197
10668SOL    HW132903   2.792   0.984   5.187
10668SOL    HW232904   2.845   1.132   5.143
10669SOL     OW32905   5.531   0.260   1.457
10669SOL    HW132906   5.505   0.315   1.378
10669SOL    HW232907   5.471   0.280   1.534
10670SOL     OW32908   5.447   5.123   5.116
10670SOL    HW132909   5.515   5.158   5.052
10670SOL    HW232910   5.421   5.196   5.179
10671SOL     OW32911   1.918   2.047   3.839
10671SOL    HW132912   1.901   2.145   3.854
10671SOL    HW232913   1.840   1.994   3.871
10672SOL     OW32914   6.272   3.990   1.910
10672SOL    HW132915   6.347   3.969   1.972
10672SOL    HW232916   6.240   3.905   1.867
10673SOL     OW32917   0.422   1.122   6.844
10673SOL    HW132918   0.444   1.029   6.815
10673SOL    HW232919   0.323   1.136   6.841
10674SOL     OW32920   3.763   3.647   3.160
10674SOL    HW132921   3.819   3.700   3.224
10674SOL    HW232922   3.802   3.653   3.068
10675SOL     OW32923   1.796   0.053   6.980
10675SOL    HW132924   1.738   7.008   6.933
10675SOL    HW232925   1.830   0.013   0.044
10676SOL     OW32926   6.526   6.086   5.398
10676SOL    HW132927   6.537   6.175   5.354
10676SOL    HW232928   6.524   6.015   5.328
10677SOL     OW32929   1.439   0.769   1.090
10677SOL    HW132930   1.392   0.857   1.092
10677SOL    HW232931   1.512   0.772   1.021
10678SOL     OW32932   4.812   5.672   4.185
10678SOL    HW132933   4.781   5.751   4.238
10678SOL    HW232934   4.794   5.688   4.088
10679SOL     OW32935   4.325   5.512   6.613
10679SOL    HW132936   4.286   5.603   6.625
10679SOL    HW232937   4.423   5.514   6.631
10680SOL     OW32938   3.903   1.935   4.397
10680SOL    HW132939   3.810   1.906   4.375
10680SOL    HW232940   3.915   2.031   4.371
10681SOL     OW32941   1.026   4.016   0.686
10681SOL    HW132942   1.091   4.068   0.631
10681SOL    HW232943   0.938   4.012   0.638
10682SOL     OW32944   0.366   1.336   5.262
10682SOL    HW132945   0.462   1.308   5.252
10682SOL    HW232946   0.307   1.256   5.251
10683SOL     OW32947   4.693   1.702   3.998
10683SOL    HW132948   4.731   1.689   4.090
10683SOL    HW232949   4.600   1.737   4.006
10684SOL     OW32950   5.167   4.688   3.214
10684SOL    HW132951   5.221   4.628   3.156
10684SOL    HW232952   5.223   4.764   3.246
10685SOL     OW32953   0.942   5.727   1.724
10685SOL    HW132954   0.946   5.739   1.824
10685SOL    HW232955   1.028   5.687   1.692
10686SOL     OW32956   0.768   4.297   5.750
10686SOL    HW132957   0.746   4.269   5.657
10686SOL    HW232958   0.817   4.384   5.748
10687SOL     OW32959   5.807   5.427   3.723
10687SOL    HW132960   5.882   5.405   3.784
10687SOL    HW232961   5.729   5.367   3.742
10688SOL     OW32962   6.667   3.457   1.858
10688SOL    HW132963   6.758   3.492   1.835
10688SOL    HW232964   6.676   3.376   1.915
10689SOL     OW32965   0.181   6.544   3.643
10689SOL    HW132966   0.131   6.547   3.556
10689SOL    HW232967   0.131   6.486   3.707
10690SOL     OW32968   6.969   5.623   4.029
10690SOL    HW132969   6.993   5.671   3.944
10690SOL    HW232970   6.958   5.689   4.103
10691SOL     OW32971   0.864   2.410   2.151
10691SOL    HW132972   0.892   2.502   2.174
10691SOL    HW232973   0.840   2.360   2.235
10692SOL     OW32974   3.215   6.179   3.428
10692SOL    HW132975   3.260   6.220   3.508
10692SOL    HW232976   3.279   6.119   3.381
10693SOL     OW32977   1.970   6.365   0.384
10693SOL    HW132978   1.902   6.389   0.315
10693SOL    HW232979   2.057   6.343   0.339
10694SOL     OW32980   5.411   6.774   1.141
10694SOL    HW132981   5.489   6.726   1.181
10694SOL    HW232982   5.344   6.795   1.212
10695SOL     OW32983   0.025   2.335   2.659
10695SOL    HW132984   0.083   2.299   2.585
10695SOL    HW232985   0.054   2.428   2.681
10696SOL     OW32986   0.069   4.236   3.664
10696SOL    HW132987   0.058   4.150   3.614
10696SOL    HW232988   0.085   4.216   3.761
10697SOL     OW32989   6.636   5.623   4.987
10697SOL    HW132990   6.732   5.638   4.963
10697SOL    HW232991   6.586   5.709   4.980
10698SOL     OW32992   5.333   4.360   6.217
10698SOL    HW132993   5.262   4.379   6.150
10698SOL    HW232994   5.320   4.418   6.297
10699SOL     OW32995   3.788   4.021   2.115
10699SOL    HW132996   3.873   4.015   2.063
10699SOL    HW232997   3.806   4.000   2.211
10700SOL     OW32998   6.564   6.981   0.964
10700SOL    HW132999   6.639   6.980   1.031
10700SOL    HW233000   6.482   6.942   1.006
10701SOL     OW33001   3.203   6.431   6.790
10701SOL    HW133002   3.236   6.340   6.763
10701SOL    HW233003   3.187   6.432   6.889
10702SOL     OW33004   5.727   2.683   1.686
10702SOL    HW133005   5.712   2.645   1.595
10702SOL    HW233006   5.742   2.608   1.751
10703SOL     OW33007   3.273   2.962   4.961
10703SOL    HW133008   3.215   2.927   5.035
10703SOL    HW233009   3.369   2.959   4.990
10704SOL     OW33010   6.047   5.917   1.536
10704SOL    HW133011   6.125   5.950   1.483
10704SOL    HW233012   5.963   5.930   1.483
10705SOL     OW33013   5.430   4.708   2.473
10705SOL    HW133014   5.496   4.717   2.548
10705SOL    HW233015   5.432   4.615   2.436
10706SOL     OW33016   5.543   0.048   2.126
10706SOL    HW133017   5.476   0.042   2.052
10706SOL    HW233018   5.628   0.088   2.092
10707SOL     OW33019   0.039   0.009   4.378
10707SOL    HW133020   0.126   0.006   4.428
10707SOL    HW233021   7.014   0.096   4.397
10708SOL     OW33022   3.949   0.550   2.162
10708SOL    HW133023   4.044   0.581   2.156
10708SOL    HW233024   3.887   0.626   2.142
10709SOL     OW33025   5.946   5.529   5.489
10709SOL    HW133026   5.850   5.529   5.518
10709SOL    HW233027   5.976   5.435   5.474
10710SOL     OW33028   0.245   0.057   4.704
10710SOL    HW133029   0.269   0.154   4.713
10710SOL    HW233030   0.264   0.027   4.610
10711SOL     OW33031   1.842   6.625   4.379
10711SOL    HW133032   1.875   6.535   4.351
10711SOL    HW233033   1.813   6.677   4.299
10712SOL     OW33034   3.539   0.705   1.879
10712SOL    HW133035   3.519   0.707   1.781
10712SOL    HW233036   3.470   0.650   1.926
10713SOL     OW33037   0.621   3.418   1.495
10713SOL    HW133038   0.705   3.433   1.442
10713SOL    HW233039   0.644   3.377   1.583
10714SOL     OW33040   6.154   3.922   4.906
10714SOL    HW133041   6.209   3.855   4.856
10714SOL    HW233042   6.192   4.013   4.891
10715SOL     OW33043   4.834   0.754   2.271
10715SOL    HW133044   4.837   0.667   2.321
10715SOL    HW233045   4.739   0.782   2.259
10716SOL     OW33046   5.643   2.230   4.298
10716SOL    HW133047   5.741   2.238   4.280
10716SOL    HW233048   5.615   2.302   4.363
10717SOL     OW33049   1.228   2.045   1.128
10717SOL    HW133050   1.231   1.970   1.193
10717SOL    HW233051   1.186   2.014   1.043
10718SOL     OW33052   1.086   2.871   6.320
10718SOL    HW133053   1.085   2.916   6.231
10718SOL    HW233054   1.095   2.939   6.393
10719SOL     OW33055   6.595   5.638   2.245
10719SOL    HW133056   6.620   5.717   2.301
10719SOL    HW233057   6.669   5.571   2.246
10720SOL     OW33058   0.626   4.157   5.129
10720SOL    HW133059   0.534   4.189   5.150
10720SOL    HW233060   0.640   4.157   5.030
10721SOL     OW33061   5.970   4.487   4.831
10721SOL    HW133062   5.891   4.433   4.861
10721SOL    HW233063   6.027   4.509   4.910
10722SOL     OW33064   1.297   5.108   0.326
10722SOL    HW133065   1.321   5.072   0.416
10722SOL    HW233066   1.197   5.109   0.316
10723SOL     OW33067   0.411   4.070   6.157
10723SOL    HW133068   0.447   4.160   6.131
10723SOL    HW233069   0.434   4.003   6.086
10724SOL     OW33070   5.661   1.191   6.815
10724SOL    HW133071   5.583   1.253   6.820
10724SOL    HW233072   5.740   1.234   6.860
10725SOL     OW33073   0.878   5.222   4.693
10725SOL    HW133074   0.856   5.166   4.613
10725SOL    HW233075   0.803   5.219   4.758
10726SOL     OW33076   5.016   0.246   5.749
10726SOL    HW133077   5.036   0.214   5.656
10726SOL    HW233078   5.063   0.332   5.766
10727SOL     OW33079   0.260   4.920   4.531
10727SOL    HW133080   0.293   5.013   4.543
10727SOL    HW233081   0.334   4.856   4.553
10728SOL     OW33082   6.875   6.231   0.510
10728SOL    HW133083   6.812   6.167   0.465
10728SOL    HW233084   6.847   6.244   0.605
10729SOL     OW33085   5.359   1.274   1.692
10729SOL    HW133086   5.458   1.262   1.688
10729SOL    HW233087   5.332   1.346   1.629
10730SOL     OW33088   1.884   0.233   1.553
10730SOL    HW133089   1.841   0.317   1.585
10730SOL    HW233090   1.934   0.190   1.629
10731SOL     OW33091   3.187   6.207   0.641
10731SOL    HW133092   3.281   6.178   0.622
10731SOL    HW233093   3.147   6.147   0.711
10732SOL     OW33094   5.448   4.613   3.507
10732SOL    HW133095   5.408   4.568   3.587
10732SOL    HW233096   5.379   4.671   3.463
10733SOL     OW33097   6.247   2.592   0.440
10733SOL    HW133098   6.282   2.556   0.353
10733SOL    HW233099   6.321   2.640   0.487
10734SOL     OW33100   0.830   0.533   6.538
10734SOL    HW133101   0.880   0.464   6.590
10734SOL    HW233102   0.795   0.491   6.454
10735SOL     OW33103   1.678   3.061   3.126
10735SOL    HW133104   1.627   3.091   3.045
10735SOL    HW233105   1.776   3.058   3.104
10736SOL     OW33106   1.294   0.246   3.204
10736SOL    HW133107   1.352   0.165   3.198
10736SOL    HW233108   1.327   0.305   3.277
10737SOL     OW33109   1.952   2.117   6.975
10737SOL    HW133110   1.954   2.115   6.875
10737SOL    HW233111   2.021   2.054   7.011
10738SOL     OW33112   2.553   0.690   3.833
10738SOL    HW133113   2.562   0.627   3.910
10738SOL    HW233114   2.640   0.738   3.819
10739SOL     OW33115   0.522   1.525   0.942
10739SOL    HW133116   0.541   1.433   0.906
10739SOL    HW233117   0.482   1.516   1.034
10740SOL     OW33118   0.495   4.643   5.208
10740SOL    HW133119   0.407   4.667   5.166
10740SOL    HW233120   0.518   4.711   5.278
10741SOL     OW33121   0.083   6.761   2.006
10741SOL    HW133122   0.020   6.726   2.075
10741SOL    HW233123   0.037   6.761   1.917
10742SOL     OW33124   6.085   0.739   1.841
10742SOL    HW133125   6.149   0.737   1.764
10742SOL    HW233126   5.992   0.725   1.807
10743SOL     OW33127   3.290   2.140   5.679
10743SOL    HW133128   3.368   2.160   5.738
10743SOL    HW233129   3.282   2.212   5.609
10744SOL     OW33130   3.453   1.087   1.600
10744SOL    HW133131   3.452   1.019   1.527
10744SOL    HW233132   3.548   1.113   1.619
10745SOL     OW33133   0.780   5.232   0.185
10745SOL    HW133134   0.702   5.169   0.195
10745SOL    HW233135   0.777   5.273   0.094
10746SOL     OW33136   1.876   4.138   1.019
10746SOL    HW133137   1.843   4.072   0.952
10746SOL    HW233138   1.807   4.151   1.090
10747SOL     OW33139   4.144   0.791   3.074
10747SOL    HW133140   4.050   0.764   3.097
10747SOL    HW233141   4.201   0.710   3.068
10748SOL     OW33142   4.091   0.829   1.794
10748SOL    HW133143   4.094   0.755   1.727
10748SOL    HW233144   4.183   0.852   1.823
10749SOL     OW33145   6.923   5.412   3.311
10749SOL    HW133146   7.009   5.387   3.356
10749SOL    HW233147   6.943   5.462   3.227
10750SOL     OW33148   4.665   6.247   4.665
10750SOL    HW133149   4.754   6.200   4.666
10750SOL    HW233150   4.616   6.226   4.750
10751SOL     OW33151   1.549   4.971   4.009
10751SOL    HW133152   1.642   4.934   4.016
10751SOL    HW233153   1.486   4.897   3.986
10752SOL     OW33154   6.024   4.482   6.409
10752SOL    HW133155   5.999   4.576   6.384
10752SOL    HW233156   6.002   4.421   6.334
10753SOL     OW33157   4.176   6.920   4.371
10753SOL    HW133158   4.276   6.926   4.373
10753SOL    HW233159   4.137   7.013   4.373
10754SOL     OW33160   1.325   1.347   3.680
10754SOL    HW133161   1.315   1.348   3.780
10754SOL    HW233162   1.297   1.435   3.643
10755SOL     OW33163   0.257   1.289   6.597
10755SOL    HW133164   0.219   1.381   6.608
10755SOL    HW233165   0.213   1.227   6.662
10756SOL     OW33166   6.833   4.231   0.844
10756SOL    HW133167   6.802   4.185   0.761
10756SOL    HW233168   6.822   4.169   0.922
10757SOL     OW33169   1.554   2.772   0.028
10757SOL    HW133170   1.502   2.747   0.110
10757SOL    HW233171   1.633   2.711   0.019
10758SOL     OW33172   0.962   6.518   4.524
10758SOL    HW133173   0.886   6.516   4.459
10758SOL    HW233174   0.927   6.505   4.617
10759SOL     OW33175   1.676   2.846   0.409
10759SOL    HW133176   1.590   2.815   0.367
10759SOL    HW233177   1.693   2.941   0.382
10760SOL     OW33178   6.164   1.797   1.327
10760SOL    HW133179   6.182   1.699   1.336
10760SOL    HW233180   6.075   1.818   1.369
10761SOL     OW33181   0.911   1.545   6.424
10761SOL    HW133182   0.874   1.471   6.368
10761SOL    HW233183   1.007   1.559   6.403
10762SOL     OW33184   4.108   2.081   4.807
10762SOL    HW133185   4.099   1.990   4.848
10762SOL    HW233186   4.205   2.106   4.803
10763SOL     OW33187   4.544   6.225   1.775
10763SOL    HW133188   4.484   6.182   1.843
10763SOL    HW233189   4.597   6.297   1.819
10764SOL     OW33190   5.549   2.042   5.806
10764SOL    HW133191   5.527   1.996   5.720
10764SOL    HW233192   5.576   2.136   5.787
10765SOL     OW33193   5.491   2.550   0.799
10765SOL    HW133194   5.400   2.578   0.828
10765SOL    HW233195   5.559   2.611   0.840
10766SOL     OW33196   5.304   3.272   1.477
10766SOL    HW133197   5.374   3.261   1.547
10766SOL    HW233198   5.254   3.357   1.493
10767SOL     OW33199   0.785   0.791   0.110
10767SOL    HW133200   0.690   0.821   0.097
10767SOL    HW233201   0.826   0.844   0.184
10768SOL     OW33202   4.665   4.282   0.909
10768SOL    HW133203   4.677   4.189   0.942
10768SOL    HW233204   4.694   4.346   0.980
10769SOL     OW33205   2.594   4.722   4.672
10769SOL    HW133206   2.682   4.766   4.690
10769SOL    HW233207   2.606   4.653   4.600
10770SOL     OW33208   5.626   0.305   4.956
10770SOL    HW133209   5.634   0.255   5.043
10770SOL    HW233210   5.531   0.330   4.941
10771SOL     OW33211   5.158   1.085   3.189
10771SOL    HW133212   5.226   1.026   3.234
10771SOL    HW233213   5.124   1.152   3.254
10772SOL     OW33214   0.089   0.027   4.908
10772SOL    HW133215   0.148   0.037   4.828
10772SOL    HW233216   0.053   0.116   4.934
10773SOL     OW33217   6.787   5.709   6.894
10773SOL    HW133218   6.821   5.801   6.873
10773SOL    HW233219   6.846   5.642   6.850
10774SOL     OW33220   1.652   1.078   6.529
10774SOL    HW133221   1.641   1.162   6.475
10774SOL    HW233222   1.666   1.101   6.625
10775SOL     OW33223   0.546   3.906   1.092
10775SOL    HW133224   0.506   3.817   1.111
10775SOL    HW233225   0.505   3.975   1.152
10776SOL     OW33226   1.568   6.328   6.431
10776SOL    HW133227   1.571   6.358   6.336
10776SOL    HW233228   1.482   6.359   6.473
10777SOL     OW33229   3.678   6.271   3.067
10777SOL    HW133230   3.606   6.247   3.001
10777SOL    HW233231   3.767   6.258   3.024
10778SOL     OW33232   5.803   6.628   4.453
10778SOL    HW133233   5.804   6.715   4.403
10778SOL    HW233234   5.712   6.610   4.489
10779SOL     OW33235   6.649   4.942   3.326
10779SOL    HW133236   6.618   4.880   3.398
10779SOL    HW233237   6.647   5.036   3.360
10780SOL     OW33238   1.675   0.492   3.782
10780SOL    HW133239   1.655   0.394   3.775
10780SOL    HW233240   1.774   0.506   3.775
10781SOL     OW33241   4.129   0.266   3.574
10781SOL    HW133242   4.213   0.254   3.627
10781SOL    HW233243   4.147   0.248   3.478
10782SOL     OW33244   5.784   1.824   2.575
10782SOL    HW133245   5.688   1.852   2.583
10782SOL    HW233246   5.834   1.893   2.523
10783SOL     OW33247   0.729   3.511   3.017
10783SOL    HW133248   0.829   3.505   3.015
10783SOL    HW233249   0.697   3.494   3.111
10784SOL     OW33250   3.545   0.779   4.186
10784SOL    HW133251   3.640   0.748   4.186
10784SOL    HW233252   3.504   0.761   4.275
10785SOL     OW33253   0.012   5.498   2.296
10785SOL    HW133254   0.099   5.488   2.344
10785SOL    HW233255   6.988   5.582   2.326
10786SOL     OW33256   4.934   4.341   2.832
10786SOL    HW133257   4.870   4.282   2.881
10786SOL    HW233258   4.910   4.437   2.848
10787SOL     OW33259   2.252   1.796   4.721
10787SOL    HW133260   2.346   1.829   4.710
10787SOL    HW233261   2.254   1.698   4.742
10788SOL     OW33262   2.222   4.765   6.409
10788SOL    HW133263   2.243   4.796   6.316
10788SOL    HW233264   2.297   4.792   6.470
10789SOL     OW33265   6.611   2.793   6.469
10789SOL    HW133266   6.665   2.723   6.517
10789SOL    HW233267   6.537   2.748   6.419
10790SOL     OW33268   1.427   1.501   1.733
10790SOL    HW133269   1.327   1.501   1.739
10790SOL    HW233270   1.459   1.411   1.705
10791SOL     OW33271   0.576   6.882   0.253
10791SOL    HW133272   0.489   6.929   0.237
10791SOL    HW233273   0.651   6.948   0.254
10792SOL     OW33274   3.455   3.569   3.656
10792SOL    HW133275   3.527   3.504   3.679
10792SOL    HW233276   3.424   3.615   3.739
10793SOL     OW33277   6.251   3.563   4.333
10793SOL    HW133278   6.340   3.586   4.296
10793SOL    HW233279   6.196   3.516   4.263
10794SOL     OW33280   2.955   3.763   3.638
10794SOL    HW133281   2.955   3.677   3.587
10794SOL    HW233282   2.948   3.839   3.574
10795SOL     OW33283   6.812   4.393   2.768
10795SOL    HW133284   6.902   4.358   2.744
10795SOL    HW233285   6.815   4.492   2.775
10796SOL     OW33286   5.607   6.661   0.389
10796SOL    HW133287   5.574   6.750   0.420
10796SOL    HW233288   5.569   6.641   0.298
10797SOL     OW33289   4.113   2.545   1.310
10797SOL    HW133290   4.172   2.469   1.333
10797SOL    HW233291   4.017   2.515   1.312
10798SOL     OW33292   3.167   6.310   0.390
10798SOL    HW133293   3.144   6.262   0.474
10798SOL    HW233294   3.169   6.245   0.314
10799SOL     OW33295   3.743   0.710   2.141
10799SOL    HW133296   3.678   0.635   2.153
10799SOL    HW233297   3.702   0.782   2.084
10800SOL     OW33298   0.446   6.792   6.499
10800SOL    HW133299   0.481   6.711   6.453
10800SOL    HW233300   0.483   6.797   6.592
10801SOL     OW33301   0.591   5.996   6.069
10801SOL    HW133302   0.577   5.897   6.070
10801SOL    HW233303   0.624   6.025   6.158
10802SOL     OW33304   0.568   2.146   3.275
10802SOL    HW133305   0.578   2.130   3.373
10802SOL    HW233306   0.587   2.242   3.255
10803SOL     OW33307   2.844   3.881   5.842
10803SOL    HW133308   2.774   3.876   5.772
10803SOL    HW233309   2.812   3.937   5.918
10804SOL     OW33310   5.567   3.571   1.950
10804SOL    HW133311   5.473   3.580   1.916
10804SOL    HW233312   5.618   3.508   1.891
10805SOL     OW33313   3.850   0.158   0.086
10805SOL    HW133314   3.808   0.212   0.158
10805SOL    HW233315   3.823   0.062   0.095
10806SOL     OW33316   4.861   3.876   6.079
10806SOL    HW133317   4.864   3.792   6.025
10806SOL    HW233318   4.838   3.854   6.174
10807SOL     OW33319   1.281   0.229   1.939
10807SOL    HW133320   1.317   0.314   1.901
10807SOL    HW233321   1.331   0.151   1.901
10808SOL     OW33322   6.756   3.271   6.544
10808SOL    HW133323   6.736   3.183   6.588
10808SOL    HW233324   6.713   3.274   6.454
10809SOL     OW33325   3.259   5.510   3.342
10809SOL    HW133326   3.297   5.484   3.431
10809SOL    HW233327   3.256   5.429   3.282
10810SOL     OW33328   1.601   0.313   4.362
10810SOL    HW133329   1.619   0.217   4.379
10810SOL    HW233330   1.637   0.339   4.272
10811SOL     OW33331   3.792   4.163   5.791
10811SOL    HW133332   3.839   4.250   5.808
10811SOL    HW233333   3.727   4.146   5.864
10812SOL     OW33334   0.753   4.160   1.208
10812SOL    HW133335   0.691   4.229   1.172
10812SOL    HW233336   0.728   4.070   1.171
10813SOL     OW33337   1.850   4.785   6.163
10813SOL    HW133338   1.883   4.737   6.082
10813SOL    HW233339   1.900   4.871   6.174
10814SOL     OW33340   1.904   6.454   6.092
10814SOL    HW133341   1.989   6.439   6.041
10814SOL    HW233342   1.829   6.410   6.043
10815SOL     OW33343   4.387   4.671   3.466
10815SOL    HW133344   4.352   4.723   3.388
10815SOL    HW233345   4.482   4.645   3.450
10816SOL     OW33346   3.136   3.286   1.709
10816SOL    HW133347   3.046   3.331   1.709
10816SOL    HW233348   3.193   3.327   1.781
10817SOL     OW33349   4.782   6.639   3.023
10817SOL    HW133350   4.788   6.725   2.974
10817SOL    HW233351   4.839   6.571   2.978
10818SOL     OW33352   4.408   4.405   5.454
10818SOL    HW133353   4.333   4.353   5.494
10818SOL    HW233354   4.494   4.377   5.497
10819SOL     OW33355   6.469   4.711   0.018
10819SOL    HW133356   6.492   4.616   0.001
10819SOL    HW233357   6.370   4.724   0.009
10820SOL     OW33358   6.135   5.876   4.051
10820SOL    HW133359   6.222   5.853   4.096
10820SOL    HW233360   6.078   5.928   4.115
10821SOL     OW33361   6.037   0.302   2.343
10821SOL    HW133362   6.057   0.369   2.414
10821SOL    HW233363   6.112   0.301   2.276
10822SOL     OW33364   7.012   3.485   2.872
10822SOL    HW133365   7.006   3.581   2.846
10822SOL    HW233366   6.935   3.435   2.831
10823SOL     OW33367   1.523   6.353   1.297
10823SOL    HW133368   1.492   6.390   1.210
10823SOL    HW233369   1.445   6.343   1.359
10824SOL     OW33370   6.881   0.597   3.415
10824SOL    HW133371   6.921   0.506   3.420
10824SOL    HW233372   6.835   0.608   3.326
10825SOL     OW33373   2.375   1.194   6.530
10825SOL    HW133374   2.369   1.257   6.608
10825SOL    HW233375   2.415   1.242   6.452
10826SOL     OW33376   1.309   2.672   3.741
10826SOL    HW133377   1.286   2.618   3.660
10826SOL    HW233378   1.233   2.669   3.806
10827SOL     OW33379   6.506   3.556   4.197
10827SOL    HW133380   6.579   3.601   4.248
10827SOL    HW233381   6.508   3.588   4.102
10828SOL     OW33382   1.192   5.249   0.914
10828SOL    HW133383   1.092   5.247   0.917
10828SOL    HW233384   1.222   5.274   0.821
10829SOL     OW33385   3.793   2.360   0.995
10829SOL    HW133386   3.892   2.373   0.995
10829SOL    HW233387   3.772   2.265   1.020
10830SOL     OW33388   5.634   2.224   3.055
10830SOL    HW133389   5.651   2.319   3.082
10830SOL    HW233390   5.658   2.163   3.130
10831SOL     OW33391   2.778   5.878   2.267
10831SOL    HW133392   2.746   5.783   2.266
10831SOL    HW233393   2.745   5.925   2.185
10832SOL     OW33394   0.706   2.581   6.220
10832SOL    HW133395   0.783   2.531   6.260
10832SOL    HW233396   0.705   2.675   6.255
10833SOL     OW33397   1.273   1.092   2.096
10833SOL    HW133398   1.183   1.131   2.118
10833SOL    HW233399   1.287   1.094   1.997
10834SOL     OW33400   0.771   2.168   0.281
10834SOL    HW133401   0.707   2.124   0.344
10834SOL    HW233402   0.719   2.220   0.213
10835SOL     OW33403   5.917   1.968   6.964
10835SOL    HW133404   5.976   1.888   6.956
10835SOL    HW233405   5.926   2.008   0.034
10836SOL     OW33406   6.641   1.791   4.954
10836SOL    HW133407   6.597   1.841   4.879
10836SOL    HW233408   6.641   1.693   4.932
10837SOL     OW33409   0.022   5.473   1.516
10837SOL    HW133410   6.978   5.399   1.535
10837SOL    HW233411   0.037   5.526   1.600
10838SOL     OW33412   5.557   5.913   4.851
10838SOL    HW133413   5.618   5.925   4.929
10838SOL    HW233414   5.593   5.841   4.792
10839SOL     OW33415   4.295   3.118   1.775
10839SOL    HW133416   4.296   3.212   1.743
10839SOL    HW233417   4.385   3.093   1.808
10840SOL     OW33418   2.670   5.625   2.263
10840SOL    HW133419   2.641   5.556   2.330
10840SOL    HW233420   2.669   5.585   2.172
10841SOL     OW33421   5.199   5.265   6.890
10841SOL    HW133422   5.185   5.328   6.813
10841SOL    HW233423   5.203   5.316   6.975
10842SOL     OW33424   5.029   2.473   1.918
10842SOL    HW133425   4.948   2.512   1.873
10842SOL    HW233426   5.069   2.541   1.980
10843SOL     OW33427   1.253   2.697   1.521
10843SOL    HW133428   1.214   2.642   1.595
10843SOL    HW233429   1.319   2.761   1.560
10844SOL     OW33430   0.284   6.939   3.305
10844SOL    HW133431   0.383   6.935   3.317
10844SOL    HW233432   0.255   6.872   3.237
10845SOL     OW33433   3.308   0.348   5.403
10845SOL    HW133434   3.380   0.416   5.393
10845SOL    HW233435   3.333   0.282   5.473
10846SOL     OW33436   4.564   1.664   0.561
10846SOL    HW133437   4.604   1.663   0.652
10846SOL    HW233438   4.621   1.610   0.499
10847SOL     OW33439   3.785   3.146   6.640
10847SOL    HW133440   3.698   3.122   6.596
10847SOL    HW233441   3.810   3.240   6.616
10848SOL     OW33442   3.413   3.546   6.684
10848SOL    HW133443   3.350   3.576   6.755
10848SOL    HW233444   3.490   3.498   6.725
10849SOL     OW33445   1.811   5.957   2.798
10849SOL    HW133446   1.768   5.869   2.815
10849SOL    HW233447   1.898   5.943   2.750
10850SOL     OW33448   2.695   4.874   6.532
10850SOL    HW133449   2.783   4.919   6.549
10850SOL    HW233450   2.684   4.798   6.596
10851SOL     OW33451   1.699   3.187   6.936
10851SOL    HW133452   1.652   3.151   7.017
10851SOL    HW233453   1.781   3.133   6.918
10852SOL     OW33454   1.194   0.402   6.603
10852SOL    HW133455   1.240   0.345   6.671
10852SOL    HW233456   1.225   0.376   6.511
10853SOL     OW33457   2.120   1.727   5.892
10853SOL    HW133458   2.125   1.742   5.991
10853SOL    HW233459   2.210   1.740   5.852
10854SOL     OW33460   4.242   5.726   4.908
10854SOL    HW133461   4.176   5.741   4.981
10854SOL    HW233462   4.205   5.662   4.841
10855SOL     OW33463   2.754   6.968   0.578
10855SOL    HW133464   2.843   6.949   0.620
10855SOL    HW233465   2.764   0.022   0.512
10856SOL     OW33466   5.450   1.528   0.416
10856SOL    HW133467   5.501   1.466   0.475
10856SOL    HW233468   5.506   1.609   0.396
10857SOL     OW33469   6.913   2.753   2.391
10857SOL    HW133470   6.889   2.658   2.412
10857SOL    HW233471   6.831   2.810   2.395
10858SOL     OW33472   0.687   1.807   5.926
10858SOL    HW133473   0.769   1.800   5.868
10858SOL    HW233474   0.634   1.887   5.899
10859SOL     OW33475   2.038   3.517   4.372
10859SOL    HW133476   2.101   3.543   4.299
10859SOL    HW233477   1.987   3.598   4.403
10860SOL     OW33478   6.977   1.645   5.727
10860SOL    HW133479   0.054   1.632   5.741
10860SOL    HW233480   6.929   1.635   5.814
10861SOL     OW33481   3.489   3.329   2.851
10861SOL    HW133482   3.425   3.261   2.815
10861SOL    HW233483   3.583   3.301   2.828
10862SOL     OW33484   2.488   2.128   6.703
10862SOL    HW133485   2.460   2.032   6.711
10862SOL    HW233486   2.429   2.174   6.637
10863SOL     OW33487   3.416   0.879   3.460
10863SOL    HW133488   3.357   0.807   3.496
10863SOL    HW233489   3.360   0.954   3.425
10864SOL     OW33490   2.980   5.239   0.454
10864SOL    HW133491   2.919   5.203   0.525
10864SOL    HW233492   3.070   5.197   0.463
10865SOL     OW33493   6.958   1.515   2.402
10865SOL    HW133494   0.016   1.575   2.392
10865SOL    HW233495   6.937   1.473   2.313
10866SOL     OW33496   5.078   4.805   0.432
10866SOL    HW133497   4.985   4.841   0.428
10866SOL    HW233498   5.098   4.754   0.349
10867SOL     OW33499   3.856   3.434   0.501
10867SOL    HW133500   3.761   3.418   0.527
10867SOL    HW233501   3.880   3.529   0.522
10868SOL     OW33502   3.740   2.101   4.142
10868SOL    HW133503   3.648   2.090   4.106
10868SOL    HW233504   3.799   2.140   4.072
10869NA      NA33505   0.252   2.160   5.255
10870NA      NA33506   4.345   4.564   5.282
10871NA      NA33507   2.046   3.942   2.500
10872NA      NA33508   4.927   4.067   4.083
10873NA      NA33509   4.392   2.546   5.248
10874NA      NA33510   3.146   4.825   1.709
10875NA      NA33511   0.166   4.270   0.664
10876NA      NA33512   3.119   3.468   3.391
10877NA      NA33513   5.249   5.539   0.985
10878NA      NA33514   3.443   6.663   5.590
10879NA      NA33515   5.916   5.464   1.741
10880NA      NA33516   2.273   0.985   4.483
10881NA      NA33517   3.854   5.040   2.092
10882NA      NA33518   4.074   3.761   1.828
   7.02097   7.02097   7.02097
