Generated by trjconv : CNT in water t= 582.00000
33518
    1C        C    1   2.840   2.768   4.745
    1C        C    2   2.903   2.724   4.863
    1C        C    3   2.844   2.769   4.982
    1C        C    4   2.846   2.771   4.259
    1C        C    5   2.902   2.727   4.382
    1C        C    6   2.849   2.774   4.504
    1C        C    7   3.010   2.635   4.624
    1C        C    8   2.899   2.722   4.625
    1C        C    9   3.074   2.593   4.743
    1C        C   10   3.011   2.633   4.863
    1C        C   11   3.180   2.492   4.977
    1C        C   12   3.061   2.564   4.975
    1C        C   13   2.853   2.776   3.771
    1C        C   14   2.902   2.724   3.893
    1C        C   15   2.850   2.773   4.015
    1C        C   16   3.017   2.644   4.136
    1C        C   17   2.901   2.725   4.138
    1C        C   18   3.082   2.620   4.259
    1C        C   19   3.022   2.652   4.383
    1C        C   20   3.211   2.558   4.504
    1C        C   21   3.079   2.609   4.504
    1C        C   22   3.281   2.536   4.624
    1C        C   23   3.208   2.546   4.745
    1C        C   24   3.411   2.483   4.866
    1C        C   25   3.269   2.500   4.865
    1C        C   26   3.489   2.473   4.982
    1C        C   27   2.849   2.770   3.281
    1C        C   28   2.905   2.728   3.403
    1C        C   29   2.850   2.772   3.526
    1C        C   30   3.018   2.643   3.647
    1C        C   31   2.905   2.728   3.648
    1C        C   32   3.078   2.605   3.770
    1C        C   33   3.016   2.641   3.892
    1C        C   34   3.209   2.555   4.015
    1C        C   35   3.079   2.610   4.014
    1C        C   36   3.276   2.529   4.137
    1C        C   37   3.209   2.559   4.257
    1C        C   38   3.417   2.520   4.380
    1C        C   39   3.277   2.541   4.380
    1C        C   40   3.486   2.501   4.502
    1C        C   41   3.418   2.503   4.626
    1C        C   42   3.631   2.478   4.744
    1C        C   43   3.488   2.482   4.746
    1C        C   44   3.704   2.486   4.865
    1C        C   45   3.628   2.479   4.983
    1C        C   46   2.839   2.753   2.791
    1C        C   47   2.895   2.712   2.914
    1C        C   48   2.846   2.763   3.037
    1C        C   49   3.021   2.644   3.161
    1C        C   50   2.904   2.724   3.159
    1C        C   51   3.082   2.608   3.283
    1C        C   52   3.020   2.646   3.404
    1C        C   53   3.210   2.549   3.527
    1C        C   54   3.082   2.610   3.526
    1C        C   55   3.279   2.533   3.649
    1C        C   56   3.211   2.558   3.770
    1C        C   57   3.416   2.509   3.892
    1C        C   58   3.278   2.538   3.893
    1C        C   59   3.485   2.500   4.016
    1C        C   60   3.415   2.504   4.138
    1C        C   61   3.630   2.496   4.261
    1C        C   62   3.489   2.505   4.259
    1C        C   63   3.701   2.505   4.383
    1C        C   64   3.627   2.500   4.503
    1C        C   65   3.835   2.538   4.622
    1C        C   66   3.701   2.493   4.623
    1C        C   67   3.905   2.563   4.742
    1C        C   68   3.839   2.525   4.862
    1C        C   69   4.052   2.582   4.975
    1C        C   70   3.923   2.527   4.974
    1C        C   71   2.828   2.735   2.306
    1C        C   72   2.883   2.692   2.429
    1C        C   73   2.835   2.746   2.550
    1C        C   74   3.011   2.625   2.672
    1C        C   75   2.893   2.703   2.671
    1C        C   76   3.076   2.595   2.794
    1C        C   77   3.015   2.637   2.915
    1C        C   78   3.206   2.547   3.037
    1C        C   79   3.078   2.606   3.037
    1C        C   80   3.277   2.528   3.158
    1C        C   81   3.213   2.556   3.281
    1C        C   82   3.414   2.496   3.401
    1C        C   83   3.276   2.526   3.404
    1C        C   84   3.486   2.495   3.523
    1C        C   85   3.418   2.507   3.646
    1C        C   86   3.627   2.500   3.770
    1C        C   87   3.486   2.498   3.770
    1C        C   88   3.695   2.511   3.893
    1C        C   89   3.626   2.502   4.016
    1C        C   90   3.835   2.537   4.134
    1C        C   91   3.698   2.502   4.138
    1C        C   92   3.900   2.568   4.256
    1C        C   93   3.836   2.545   4.379
    1C        C   94   4.027   2.634   4.497
    1C        C   95   3.904   2.564   4.502
    1C        C   96   4.089   2.672   4.619
    1C        C   97   4.032   2.626   4.739
    1C        C   98   4.188   2.767   4.864
    1C        C   99   4.098   2.656   4.862
    1C        C  100   4.203   2.851   4.975
    1C        C  101   2.820   2.723   2.068
    1C        C  102   2.993   2.591   2.191
    1C        C  103   2.876   2.674   2.187
    1C        C  104   3.065   2.573   2.312
    1C        C  105   3.004   2.620   2.430
    1C        C  106   3.202   2.533   2.551
    1C        C  107   3.073   2.590   2.550
    1C        C  108   3.274   2.525   2.672
    1C        C  109   3.207   2.543   2.796
    1C        C  110   3.414   2.492   2.914
    1C        C  111   3.275   2.520   2.917
    1C        C  112   3.485   2.491   3.036
    1C        C  113   3.415   2.497   3.159
    1C        C  114   3.627   2.495   3.279
    1C        C  115   3.486   2.484   3.280
    1C        C  116   3.696   2.505   3.402
    1C        C  117   3.627   2.499   3.525
    1C        C  118   3.835   2.536   3.647
    1C        C  119   3.697   2.506   3.648
    1C        C  120   3.900   2.569   3.769
    1C        C  121   3.833   2.543   3.890
    1C        C  122   4.024   2.634   4.013
    1C        C  123   3.901   2.565   4.012
    1C        C  124   4.087   2.668   4.135
    1C        C  125   4.026   2.633   4.257
    1C        C  126   4.192   2.770   4.374
    1C        C  127   4.088   2.675   4.377
    1C        C  128   4.237   2.822   4.498
    1C        C  129   4.189   2.772   4.621
    1C        C  130   4.317   2.942   4.738
    1C        C  131   4.235   2.826   4.743
    1C        C  132   4.347   3.009   4.859
    1C        C  133   4.278   2.968   4.973
    1C        C  134   3.171   2.468   2.084
    1C        C  135   3.037   2.511   2.081
    1C        C  136   3.261   2.473   2.192
    1C        C  137   3.195   2.514   2.309
    1C        C  138   3.407   2.479   2.427
    1C        C  139   3.267   2.500   2.430
    1C        C  140   3.482   2.482   2.547
    1C        C  141   3.412   2.497   2.669
    1C        C  142   3.624   2.488   2.789
    1C        C  143   3.482   2.487   2.790
    1C        C  144   3.695   2.495   2.910
    1C        C  145   3.626   2.494   3.034
    1C        C  146   3.833   2.532   3.156
    1C        C  147   3.696   2.499   3.156
    1C        C  148   3.898   2.558   3.278
    1C        C  149   3.833   2.536   3.402
    1C        C  150   4.028   2.620   3.523
    1C        C  151   3.902   2.556   3.524
    1C        C  152   4.084   2.662   3.645
    1C        C  153   4.026   2.633   3.770
    1C        C  154   4.194   2.764   3.888
    1C        C  155   4.085   2.673   3.892
    1C        C  156   4.244   2.812   4.011
    1C        C  157   4.197   2.757   4.133
    1C        C  158   4.340   2.921   4.251
    1C        C  159   4.248   2.814   4.252
    1C        C  160   4.371   2.985   4.373
    1C        C  161   4.326   2.931   4.496
    1C        C  162   4.437   3.117   4.614
    1C        C  163   4.363   2.996   4.616
    1C        C  164   4.468   3.183   4.735
    1C        C  165   4.429   3.124   4.857
    1C        C  166   4.513   3.326   4.970
    1C        C  167   4.481   3.191   4.969
    1C        C  168   3.475   2.430   2.073
    1C        C  169   3.399   2.444   2.190
    1C        C  170   3.620   2.457   2.307
    1C        C  171   3.477   2.455   2.307
    1C        C  172   3.695   2.479   2.424
    1C        C  173   3.623   2.488   2.546
    1C        C  174   3.831   2.533   2.665
    1C        C  175   3.695   2.495   2.667
    1C        C  176   3.897   2.554   2.788
    1C        C  177   3.833   2.525   2.910
    1C        C  178   4.020   2.626   3.030
    1C        C  179   3.898   2.555   3.032
    1C        C  180   4.080   2.663   3.152
    1C        C  181   4.023   2.625   3.276
    1C        C  182   4.193   2.749   3.399
    1C        C  183   4.083   2.660   3.399
    1C        C  184   4.239   2.806   3.519
    1C        C  185   4.189   2.757   3.642
    1C        C  186   4.335   2.914   3.762
    1C        C  187   4.241   2.808   3.763
    1C        C  188   4.376   2.973   3.883
    1C        C  189   4.331   2.922   4.007
    1C        C  190   4.440   3.106   4.126
    1C        C  191   4.379   2.979   4.128
    1C        C  192   4.466   3.172   4.248
    1C        C  193   4.438   3.109   4.372
    1C        C  194   4.513   3.313   4.489
    1C        C  195   4.467   3.179   4.491
    1C        C  196   4.525   3.387   4.608
    1C        C  197   4.511   3.318   4.731
    1C        C  198   4.555   3.535   4.850
    1C        C  199   4.533   3.394   4.849
    1C        C  200   4.578   3.621   4.962
    1C        C  201   3.615   2.418   2.070
    1C        C  202   3.824   2.512   2.179
    1C        C  203   3.690   2.463   2.184
    1C        C  204   3.897   2.542   2.297
    1C        C  205   3.831   2.517   2.419
    1C        C  206   4.021   2.615   2.543
    1C        C  207   3.896   2.549   2.540
    1C        C  208   4.085   2.651   2.664
    1C        C  209   4.022   2.619   2.786
    1C        C  210   4.192   2.751   2.908
    1C        C  211   4.081   2.662   2.907
    1C        C  212   4.244   2.798   3.030
    1C        C  213   4.194   2.746   3.152
    1C        C  214   4.326   2.910   3.269
    1C        C  215   4.244   2.794   3.275
    1C        C  216   4.361   2.970   3.392
    1C        C  217   4.323   2.919   3.518
    1C        C  218   4.431   3.103   3.636
    1C        C  219   4.369   2.976   3.640
    1C        C  220   4.458   3.168   3.759
    1C        C  221   4.438   3.101   3.881
    1C        C  222   4.497   3.307   4.002
    1C        C  223   4.465   3.169   4.002
    1C        C  224   4.514   3.378   4.123
    1C        C  225   4.507   3.307   4.245
    1C        C  226   4.522   3.521   4.363
    1C        C  227   4.523   3.380   4.365
    1C        C  228   4.515   3.597   4.482
    1C        C  229   4.530   3.528   4.605
    1C        C  230   4.499   3.739   4.725
    1C        C  231   4.536   3.601   4.725
    1C        C  232   4.497   3.818   4.841
    1C        C  233   4.550   3.758   4.956
    1C        C  234   4.019   2.605   2.062
    1C        C  235   3.896   2.540   2.062
    1C        C  236   4.083   2.648   2.179
    1C        C  237   4.024   2.607   2.300
    1C        C  238   4.199   2.731   2.419
    1C        C  239   4.083   2.649   2.421
    1C        C  240   4.251   2.782   2.540
    1C        C  241   4.196   2.739   2.663
    1C        C  242   4.332   2.904   2.783
    1C        C  243   4.243   2.795   2.784
    1C        C  244   4.374   2.961   2.905
    1C        C  245   4.331   2.909   3.030
    1C        C  246   4.431   3.099   3.147
    1C        C  247   4.368   2.973   3.150
    1C        C  248   4.448   3.164   3.271
    1C        C  249   4.423   3.097   3.393
    1C        C  250   4.496   3.301   3.513
    1C        C  251   4.455   3.166   3.512
    1C        C  252   4.509   3.372   3.635
    1C        C  253   4.497   3.304   3.758
    1C        C  254   4.524   3.516   3.875
    1C        C  255   4.514   3.375   3.879
    1C        C  256   4.522   3.587   3.997
    1C        C  257   4.526   3.519   4.121
    1C        C  258   4.500   3.732   4.240
    1C        C  259   4.523   3.593   4.241
    1C        C  260   4.479   3.805   4.359
    1C        C  261   4.490   3.736   4.482
    1C        C  262   4.431   3.941   4.600
    1C        C  263   4.475   3.807   4.603
    1C        C  264   4.398   4.006   4.721
    1C        C  265   4.439   3.946   4.843
    1C        C  266   4.317   4.125   4.956
    1C        C  267   4.397   4.012   4.960
    1C        C  268   4.257   2.776   2.059
    1C        C  269   4.200   2.727   2.178
    1C        C  270   4.343   2.889   2.297
    1C        C  271   4.257   2.776   2.298
    1C        C  272   4.379   2.953   2.418
    1C        C  273   4.339   2.893   2.539
    1C        C  274   4.444   3.081   2.657
    1C        C  275   4.373   2.959   2.659
    1C        C  276   4.467   3.150   2.778
    1C        C  277   4.441   3.085   2.901
    1C        C  278   4.497   3.292   3.020
    1C        C  279   4.463   3.155   3.021
    1C        C  280   4.513   3.362   3.142
    1C        C  281   4.493   3.299   3.266
    1C        C  282   4.512   3.509   3.387
    1C        C  283   4.504   3.368   3.389
    1C        C  284   4.512   3.581   3.509
    1C        C  285   4.515   3.513   3.632
    1C        C  286   4.492   3.726   3.752
    1C        C  287   4.517   3.587   3.753
    1C        C  288   4.477   3.793   3.875
    1C        C  289   4.496   3.726   3.998
    1C        C  290   4.428   3.932   4.114
    1C        C  291   4.480   3.800   4.118
    1C        C  292   4.395   3.997   4.235
    1C        C  293   4.428   3.937   4.358
    1C        C  294   4.321   4.123   4.478
    1C        C  295   4.397   4.005   4.479
    1C        C  296   4.284   4.187   4.598
    1C        C  297   4.325   4.127   4.720
    1C        C  298   4.201   4.310   4.837
    1C        C  299   4.287   4.195   4.839
    1C        C  300   4.170   4.398   4.945
    1C        C  301   4.349   2.880   2.057
    1C        C  302   4.469   3.064   2.172
    1C        C  303   4.392   2.943   2.175
    1C        C  304   4.476   3.141   2.291
    1C        C  305   4.441   3.080   2.414
    1C        C  306   4.503   3.284   2.535
    1C        C  307   4.471   3.147   2.534
    1C        C  308   4.518   3.355   2.656
    1C        C  309   4.501   3.287   2.779
    1C        C  310   4.529   3.502   2.898
    1C        C  311   4.516   3.361   2.898
    1C        C  312   4.524   3.574   3.019
    1C        C  313   4.524   3.503   3.141
    1C        C  314   4.488   3.714   3.262
    1C        C  315   4.515   3.575   3.263
    1C        C  316   4.471   3.784   3.384
    1C        C  317   4.489   3.721   3.508
    1C        C  318   4.429   3.926   3.627
    1C        C  319   4.477   3.793   3.629
    1C        C  320   4.393   3.985   3.751
    1C        C  321   4.429   3.926   3.874
    1C        C  322   4.317   4.113   3.990
    1C        C  323   4.396   3.995   3.992
    1C        C  324   4.276   4.172   4.111
    1C        C  325   4.320   4.117   4.233
    1C        C  326   4.181   4.280   4.353
    1C        C  327   4.278   4.177   4.354
    1C        C  328   4.133   4.337   4.473
    1C        C  329   4.191   4.293   4.594
    1C        C  330   4.025   4.431   4.714
    1C        C  331   4.139   4.346   4.714
    1C        C  332   3.970   4.487   4.831
    1C        C  333   4.053   4.475   4.944
    1C        C  334   4.548   3.264   2.058
    1C        C  335   4.532   3.125   2.059
    1C        C  336   4.538   3.347   2.170
    1C        C  337   4.508   3.279   2.291
    1C        C  338   4.525   3.493   2.411
    1C        C  339   4.516   3.352   2.411
    1C        C  340   4.524   3.568   2.531
    1C        C  341   4.529   3.496   2.653
    1C        C  342   4.495   3.708   2.771
    1C        C  343   4.524   3.569   2.773
    1C        C  344   4.481   3.777   2.893
    1C        C  345   4.499   3.713   3.018
    1C        C  346   4.428   3.915   3.137
    1C        C  347   4.472   3.781   3.139
    1C        C  348   4.395   3.980   3.258
    1C        C  349   4.424   3.918   3.382
    1C        C  350   4.317   4.102   3.503
    1C        C  351   4.398   3.986   3.503
    1C        C  352   4.275   4.162   3.623
    1C        C  353   4.317   4.104   3.745
    1C        C  354   4.172   4.262   3.866
    1C        C  355   4.272   4.162   3.865
    1C        C  356   4.119   4.313   3.986
    1C        C  357   4.174   4.270   4.109
    1C        C  358   4.007   4.400   4.228
    1C        C  359   4.124   4.321   4.231
    1C        C  360   3.953   4.446   4.351
    1C        C  361   4.017   4.417   4.473
    1C        C  362   3.825   4.512   4.593
    1C        C  363   3.955   4.458   4.594
    1C        C  364   3.763   4.551   4.714
    1C        C  365   3.837   4.535   4.833
    1C        C  366   3.629   4.596   4.947
    1C        C  367   3.765   4.571   4.948
    1C        C  368   4.510   3.560   2.050
    1C        C  369   4.523   3.487   2.169
    1C        C  370   4.496   3.702   2.287
    1C        C  371   4.516   3.562   2.289
    1C        C  372   4.483   3.776   2.406
    1C        C  373   4.503   3.707   2.528
    1C        C  374   4.427   3.907   2.649
    1C        C  375   4.478   3.776   2.649
    1C        C  376   4.397   3.972   2.771
    1C        C  377   4.429   3.909   2.893
    1C        C  378   4.318   4.093   3.010
    1C        C  379   4.398   3.976   3.014
    1C        C  380   4.276   4.152   3.131
    1C        C  381   4.312   4.094   3.255
    1C        C  382   4.169   4.247   3.377
    1C        C  383   4.270   4.149   3.378
    1C        C  384   4.116   4.296   3.498
    1C        C  385   4.173   4.260   3.622
    1C        C  386   4.004   4.390   3.741
    1C        C  387   4.119   4.309   3.743
    1C        C  388   3.941   4.427   3.862
    1C        C  389   4.004   4.395   3.984
    1C        C  390   3.815   4.492   4.109
    1C        C  391   3.944   4.433   4.106
    1C        C  392   3.749   4.515   4.232
    1C        C  393   3.823   4.502   4.351
    1C        C  394   3.617   4.557   4.475
    1C        C  395   3.755   4.531   4.472
    1C        C  396   3.543   4.568   4.595
    1C        C  397   3.623   4.568   4.712
    1C        C  398   3.412   4.547   4.838
    1C        C  399   3.550   4.577   4.833
    1C        C  400   3.341   4.513   4.954
    1C        C  401   4.502   3.699   2.053
    1C        C  402   4.455   3.915   2.167
    1C        C  403   4.490   3.778   2.168
    1C        C  404   4.412   3.978   2.286
    1C        C  405   4.436   3.909   2.407
    1C        C  406   4.325   4.093   2.524
    1C        C  407   4.399   3.973   2.527
    1C        C  408   4.277   4.148   2.646
    1C        C  409   4.316   4.088   2.768
    1C        C  410   4.174   4.249   2.888
    1C        C  411   4.271   4.146   2.888
    1C        C  412   4.121   4.295   3.010
    1C        C  413   4.171   4.247   3.134
    1C        C  414   3.998   4.372   3.252
    1C        C  415   4.116   4.295   3.255
    1C        C  416   3.939   4.410   3.375
    1C        C  417   4.000   4.377   3.498
    1C        C  418   3.810   4.476   3.620
    1C        C  419   3.939   4.419   3.619
    1C        C  420   3.744   4.504   3.742
    1C        C  421   3.811   4.482   3.865
    1C        C  422   3.608   4.536   3.986
    1C        C  423   3.747   4.510   3.987
    1C        C  424   3.539   4.545   4.109
    1C        C  425   3.610   4.538   4.232
    1C        C  426   3.401   4.551   4.355
    1C        C  427   3.542   4.552   4.355
    1C        C  428   3.330   4.549   4.478
    1C        C  429   3.402   4.563   4.599
    1C        C  430   3.194   4.521   4.724
    1C        C  431   3.334   4.548   4.721
    1C        C  432   3.125   4.493   4.844
    1C        C  433   3.204   4.489   4.960
    1C        C  434   4.384   4.116   2.050
    1C        C  435   4.448   3.992   2.051
    1C        C  436   4.302   4.158   2.160
    1C        C  437   4.334   4.097   2.284
    1C        C  438   4.179   4.248   2.402
    1C        C  439   4.282   4.152   2.403
    1C        C  440   4.124   4.297   2.523
    1C        C  441   4.178   4.249   2.644
    1C        C  442   4.001   4.369   2.767
    1C        C  443   4.119   4.291   2.765
    1C        C  444   3.941   4.409   2.889
    1C        C  445   4.005   4.375   3.010
    1C        C  446   3.810   4.468   3.130
    1C        C  447   3.940   4.414   3.130
    1C        C  448   3.745   4.492   3.253
    1C        C  449   3.811   4.469   3.375
    1C        C  450   3.606   4.525   3.494
    1C        C  451   3.745   4.499   3.497
    1C        C  452   3.539   4.538   3.618
    1C        C  453   3.606   4.536   3.742
    1C        C  454   3.396   4.550   3.863
    1C        C  455   3.537   4.547   3.864
    1C        C  456   3.329   4.539   3.987
    1C        C  457   3.398   4.547   4.110
    1C        C  458   3.193   4.505   4.236
    1C        C  459   3.330   4.540   4.234
    1C        C  460   3.126   4.486   4.359
    1C        C  461   3.193   4.516   4.480
    1C        C  462   2.998   4.435   4.601
    1C        C  463   3.127   4.493   4.602
    1C        C  464   2.930   4.403   4.720
    1C        C  465   2.989   4.446   4.842
    1C        C  466   2.802   4.335   4.957
    1C        C  467   2.907   4.427   4.958
    1C        C  468   4.124   4.291   2.044
    1C        C  469   4.190   4.247   2.159
    1C        C  470   4.007   4.369   2.279
    1C        C  471   4.126   4.291   2.278
    1C        C  472   3.944   4.406   2.400
    1C        C  473   4.006   4.375   2.523
    1C        C  474   3.814   4.466   2.643
    1C        C  475   3.942   4.407   2.645
    1C        C  476   3.747   4.495   2.764
    1C        C  477   3.814   4.470   2.886
    1C        C  478   3.606   4.521   3.008
    1C        C  479   3.745   4.493   3.007
    1C        C  480   3.534   4.527   3.129
    1C        C  481   3.606   4.519   3.251
    1C        C  482   3.394   4.536   3.373
    1C        C  483   3.535   4.530   3.372
    1C        C  484   3.327   4.531   3.497
    1C        C  485   3.397   4.540   3.619
    1C        C  486   3.189   4.502   3.743
    1C        C  487   3.325   4.539   3.741
    1C        C  488   3.127   4.477   3.868
    1C        C  489   3.193   4.502   3.990
    1C        C  490   3.006   4.408   4.115
    1C        C  491   3.127   4.482   4.113
    1C        C  492   2.944   4.379   4.239
    1C        C  493   2.997   4.428   4.360
    1C        C  494   2.829   4.298   4.481
    1C        C  495   2.935   4.392   4.482
    1C        C  496   2.780   4.250   4.604
    1C        C  497   2.823   4.309   4.725
    1C        C  498   2.661   4.164   4.842
    1C        C  499   2.755   4.270   4.842
    1C        C  500   2.595   4.115   4.955
    1C        C  501   4.004   4.362   2.041
    1C        C  502   3.816   4.467   2.156
    1C        C  503   3.944   4.408   2.159
    1C        C  504   3.744   4.482   2.277
    1C        C  505   3.813   4.459   2.398
    1C        C  506   3.607   4.506   2.521
    1C        C  507   3.746   4.481   2.520
    1C        C  508   3.534   4.518   2.642
    1C        C  509   3.607   4.518   2.763
    1C        C  510   3.395   4.530   2.885
    1C        C  511   3.537   4.527   2.885
    1C        C  512   3.321   4.529   3.005
    1C        C  513   3.393   4.533   3.127
    1C        C  514   3.188   4.493   3.254
    1C        C  515   3.324   4.531   3.250
    1C        C  516   3.120   4.470   3.376
    1C        C  517   3.189   4.498   3.496
    1C        C  518   3.000   4.409   3.624
    1C        C  519   3.124   4.477   3.620
    1C        C  520   2.948   4.364   3.747
    1C        C  521   3.003   4.410   3.869
    1C        C  522   2.836   4.285   3.994
    1C        C  523   2.945   4.374   3.993
    1C        C  524   2.789   4.234   4.117
    1C        C  525   2.836   4.288   4.239
    1C        C  526   2.694   4.130   4.364
    1C        C  527   2.782   4.242   4.361
    1C        C  528   2.651   4.074   4.486
    1C        C  529   2.690   4.141   4.604
    1C        C  530   2.586   3.957   4.732
    1C        C  531   2.640   4.088   4.725
    1C        C  532   2.539   3.899   4.853
    1C        C  533   2.527   3.993   4.961
    1C        C  534   3.621   4.561   2.042
    1C        C  535   3.755   4.522   2.043
    1C        C  536   3.537   4.534   2.155
    1C        C  537   3.604   4.508   2.277
    1C        C  538   3.394   4.522   2.400
    1C        C  539   3.535   4.514   2.400
    1C        C  540   3.321   4.515   2.521
    1C        C  541   3.393   4.520   2.642
    1C        C  542   3.184   4.491   2.764
    1C        C  543   3.323   4.518   2.765
    1C        C  544   3.118   4.464   2.886
    1C        C  545   3.185   4.490   3.008
    1C        C  546   2.999   4.397   3.135
    1C        C  547   3.122   4.467   3.132
    1C        C  548   2.940   4.358   3.257
    1C        C  549   2.996   4.402   3.379
    1C        C  550   2.837   4.272   3.506
    1C        C  551   2.938   4.371   3.503
    1C        C  552   2.788   4.224   3.629
    1C        C  553   2.839   4.275   3.751
    1C        C  554   2.705   4.112   3.873
    1C        C  555   2.790   4.225   3.874
    1C        C  556   2.664   4.060   3.998
    1C        C  557   2.703   4.122   4.119
    1C        C  558   2.598   3.941   4.244
    1C        C  559   2.659   4.069   4.242
    1C        C  560   2.569   3.875   4.366
    1C        C  561   2.589   3.947   4.486
    1C        C  562   2.532   3.749   4.612
    1C        C  563   2.567   3.886   4.611
    1C        C  564   2.512   3.681   4.734
    1C        C  565   2.516   3.758   4.854
    1C        C  566   2.531   3.546   4.975
    1C        C  567   2.519   3.685   4.973
    1C        C  568   3.330   4.472   2.040
    1C        C  569   3.397   4.506   2.158
    1C        C  570   3.186   4.477   2.281
    1C        C  571   3.322   4.515   2.279
    1C        C  572   3.114   4.457   2.401
    1C        C  573   3.183   4.483   2.522
    1C        C  574   2.992   4.397   2.646
    1C        C  575   3.114   4.468   2.644
    1C        C  576   2.934   4.356   2.768
    1C        C  577   2.996   4.393   2.890
    1C        C  578   2.828   4.269   3.015
    1C        C  579   2.938   4.359   3.013
    1C        C  580   2.780   4.217   3.137
    1C        C  581   2.828   4.271   3.258
    1C        C  582   2.704   4.107   3.385
    1C        C  583   2.788   4.220   3.384
    1C        C  584   2.662   4.053   3.508
    1C        C  585   2.700   4.114   3.630
    1C        C  586   2.594   3.930   3.756
    1C        C  587   2.661   4.055   3.752
    1C        C  588   2.567   3.870   3.881
    1C        C  589   2.597   3.936   4.003
    1C        C  590   2.532   3.734   4.126
    1C        C  591   2.571   3.870   4.125
    1C        C  592   2.518   3.667   4.249
    1C        C  593   2.531   3.739   4.370
    1C        C  594   2.508   3.532   4.496
    1C        C  595   2.514   3.673   4.494
    1C        C  596   2.517   3.463   4.619
    1C        C  597   2.517   3.539   4.738
    1C        C  598   2.536   3.326   4.861
    1C        C  599   2.527   3.467   4.859
    1C        C  600   2.542   3.250   4.978
    1C        C  601   3.196   4.440   2.045
    1C        C  602   2.983   4.392   2.157
    1C        C  603   3.120   4.435   2.162
    1C        C  604   2.927   4.353   2.281
    1C        C  605   2.988   4.393   2.402
    1C        C  606   2.826   4.261   2.527
    1C        C  607   2.931   4.355   2.526
    1C        C  608   2.776   4.213   2.650
    1C        C  609   2.826   4.265   2.771
    1C        C  610   2.686   4.109   2.894
    1C        C  611   2.776   4.218   2.895
    1C        C  612   2.648   4.051   3.017
    1C        C  613   2.689   4.108   3.139
    1C        C  614   2.596   3.923   3.265
    1C        C  615   2.657   4.050   3.264
    1C        C  616   2.568   3.863   3.390
    1C        C  617   2.595   3.928   3.512
    1C        C  618   2.526   3.729   3.638
    1C        C  619   2.567   3.864   3.634
    1C        C  620   2.509   3.663   3.762
    1C        C  621   2.522   3.737   3.882
    1C        C  622   2.502   3.525   4.006
    1C        C  623   2.511   3.666   4.004
    1C        C  624   2.507   3.456   4.129
    1C        C  625   2.506   3.526   4.252
    1C        C  626   2.533   3.320   4.378
    1C        C  627   2.505   3.458   4.376
    1C        C  628   2.550   3.250   4.499
    1C        C  629   2.528   3.322   4.619
    1C        C  630   2.595   3.119   4.741
    1C        C  631   2.548   3.253   4.740
    1C        C  632   2.616   3.049   4.863
    1C        C  633   2.567   3.112   4.982
    1C        C  634   2.786   4.300   2.054
    1C        C  635   2.889   4.395   2.049
    1C        C  636   2.748   4.226   2.167
    1C        C  637   2.813   4.268   2.285
    1C        C  638   2.680   4.104   2.408
    1C        C  639   2.763   4.219   2.408
    1C        C  640   2.644   4.043   2.531
    1C        C  641   2.689   4.102   2.651
    1C        C  642   2.584   3.918   2.775
    1C        C  643   2.649   4.044   2.774
    1C        C  644   2.560   3.852   2.897
    1C        C  645   2.589   3.922   3.017
    1C        C  646   2.524   3.725   3.145
    1C        C  647   2.568   3.860   3.142
    1C        C  648   2.513   3.658   3.269
    1C        C  649   2.529   3.727   3.391
    1C        C  650   2.509   3.519   3.515
    1C        C  651   2.516   3.660   3.515
    1C        C  652   2.510   3.452   3.640
    1C        C  653   2.502   3.522   3.762
    1C        C  654   2.524   3.312   3.887
    1C        C  655   2.503   3.452   3.885
    1C        C  656   2.544   3.246   4.011
    1C        C  657   2.531   3.317   4.132
    1C        C  658   2.600   3.118   4.255
    1C        C  659   2.550   3.250   4.256
    1C        C  660   2.631   3.053   4.377
    1C        C  661   2.599   3.117   4.498
    1C        C  662   2.703   2.933   4.621
    1C        C  663   2.629   3.053   4.621
    1C        C  664   2.745   2.874   4.742
    1C        C  665   2.696   2.930   4.864
    1C        C  666   2.748   2.870   4.979
    1C        C  667   2.682   4.021   2.052
    1C        C  668   2.682   4.102   2.167
    1C        C  669   2.588   3.909   2.291
    1C        C  670   2.648   4.038   2.288
    1C        C  671   2.561   3.844   2.413
    1C        C  672   2.584   3.916   2.532
    1C        C  673   2.512   3.716   2.658
    1C        C  674   2.552   3.852   2.654
    1C        C  675   2.503   3.647   2.780
    1C        C  676   2.521   3.717   2.902
    1C        C  677   2.495   3.511   3.030
    1C        C  678   2.506   3.652   3.026
    1C        C  679   2.499   3.441   3.153
    1C        C  680   2.501   3.517   3.272
    1C        C  681   2.527   3.307   3.400
    1C        C  682   2.503   3.446   3.394
    1C        C  683   2.547   3.242   3.523
    1C        C  684   2.531   3.313   3.645
    1C        C  685   2.604   3.113   3.769
    1C        C  686   2.550   3.243   3.766
    1C        C  687   2.638   3.052   3.892
    1C        C  688   2.600   3.116   4.011
    1C        C  689   2.712   2.936   4.138
    1C        C  690   2.635   3.054   4.134
    1C        C  691   2.755   2.879   4.259
    1C        C  692   2.714   2.939   4.380
    1C        C  693   2.751   2.876   4.501
    1C        C  694   2.631   3.891   2.056
    1C        C  695   2.526   3.701   2.175
    1C        C  696   2.579   3.832   2.172
    1C        C  697   2.510   3.633   2.297
    1C        C  698   2.521   3.708   2.416
    1C        C  699   2.484   3.501   2.541
    1C        C  700   2.497   3.641   2.539
    1C        C  701   2.498   3.432   2.663
    1C        C  702   2.496   3.506   2.784
    1C        C  703   2.520   3.299   2.910
    1C        C  704   2.496   3.438   2.908
    1C        C  705   2.536   3.231   3.032
    1C        C  706   2.522   3.302   3.154
    1C        C  707   2.596   3.106   3.278
    1C        C  708   2.542   3.237   3.278
    1C        C  709   2.630   3.044   3.401
    1C        C  710   2.600   3.111   3.522
    1C        C  711   2.710   2.933   3.647
    1C        C  712   2.629   3.049   3.645
    1C        C  713   2.757   2.879   3.769
    1C        C  714   2.717   2.935   3.892
    1C        C  715   2.757   2.880   4.016
    1C        C  716   2.445   3.496   2.064
    1C        C  717   2.490   3.629   2.061
    1C        C  718   2.460   3.417   2.183
    1C        C  719   2.477   3.495   2.301
    1C        C  720   2.512   3.285   2.423
    1C        C  721   2.481   3.423   2.423
    1C        C  722   2.536   3.220   2.546
    1C        C  723   2.523   3.293   2.666
    1C        C  724   2.591   3.096   2.789
    1C        C  725   2.539   3.227   2.789
    1C        C  726   2.624   3.035   2.912
    1C        C  727   2.590   3.100   3.033
    1C        C  728   2.708   2.927   3.156
    1C        C  729   2.626   3.041   3.156
    1C        C  730   2.750   2.872   3.279
    1C        C  731   2.710   2.928   3.402
    1C        C  732   2.752   2.874   3.526
    1C        C  733   2.491   3.196   2.069
    1C        C  734   2.490   3.277   2.183
    1C        C  735   2.583   3.081   2.302
    1C        C  736   2.525   3.211   2.303
    1C        C  737   2.613   3.019   2.425
    1C        C  738   2.582   3.086   2.546
    1C        C  739   2.700   2.912   2.668
    1C        C  740   2.619   3.027   2.669
    1C        C  741   2.746   2.860   2.791
    1C        C  742   2.701   2.916   2.912
    1C        C  743   2.753   2.869   3.035
    1C        C  744   2.545   3.068   2.068
    1C        C  745   2.692   2.900   2.182
    1C        C  746   2.609   3.014   2.181
    1C        C  747   2.735   2.843   2.303
    1C        C  748   2.690   2.900   2.424
    1C        C  749   2.740   2.852   2.547
    1C        C  750   2.741   2.838   2.066
    1C        C  751   3.657   2.295   2.000
    1C        O  752   3.677   2.192   2.071
    1C        O  753   3.666   2.298   1.861
    1C        C  754   4.639   3.060   1.980
    1C        O  755   4.639   3.075   1.855
    1C        O  756   4.752   2.999   2.036
    1C        C  757   4.409   4.203   1.933
    1C        O  758   4.444   4.323   1.949
    1C        O  759   4.453   4.148   1.811
    1C        C  760   3.612   4.680   1.955
    1C        O  761   3.604   4.797   2.000
    1C        O  762   3.578   4.685   1.819
    1C        C  763   2.865   4.506   1.955
    1C        O  764   2.846   4.487   1.832
    1C        O  765   2.790   4.618   1.992
    1C        C  766   2.345   3.473   1.958
    1C        O  767   2.384   3.447   1.841
    1C        O  768   2.218   3.422   1.987
    1C        C  769   4.709   3.605   5.031
    1C        O  770   4.717   3.582   5.154
    1C        O  771   4.831   3.641   4.973
    1C        C  772   4.273   4.439   5.043
    1C        O  773   4.248   4.444   5.167
    1C        O  774   4.358   4.546   5.013
    1C        C  775   4.143   2.515   5.070
    1C        O  776   4.167   2.392   5.062
    1C        O  777   4.177   2.562   5.198
    1C        C  778   2.874   4.547   5.038
    1C        O  779   2.855   4.659   4.985
    1C        O  780   2.948   4.567   5.155
    1C        C  781   2.489   3.038   5.084
    1C        O  782   2.386   2.976   5.046
    1C        O  783   2.537   3.020   5.213
    1C        C  784   2.424   3.982   5.067
    1C        O  785   2.298   3.987   5.056
    1C        O  786   2.452   3.976   5.204
    1C        C  787   2.941   2.420   2.015
    1C        O  788   2.958   2.386   1.895
    1C        O  789   2.881   2.317   2.088
    1C        C  790   3.171   2.375   5.068
    1C        O  791   3.152   2.261   5.017
    1C        O  792   3.142   2.377   5.205
    1C        H  793   4.305   3.005   5.070
    1C        H  794   4.124   2.847   5.048
    1C        H  795   4.487   3.134   5.059
    1C        H  796   4.459   3.381   5.045
    1C        H  797   4.574   3.816   5.043
    1C        H  798   4.439   3.982   5.054
    1C        H  799   4.262   4.146   5.046
    1C        H  800   4.025   4.523   5.035
    1C        H  801   3.819   4.608   5.032
    1C        H  802   3.596   4.675   5.012
    1C        H  803   3.400   4.491   5.041
    1C        H  804   3.160   4.512   5.054
    1C        H  805   3.897   2.466   5.058
    1C        H  806   3.674   2.506   5.075
    1C        H  807   3.010   2.573   5.069
    1C        H  808   3.436   2.494   5.072
    1C        H  809   2.849   2.710   5.071
    1C        H  810   2.686   2.872   5.066
    1C        H  811   2.518   3.298   5.070
    1C        H  812   2.598   3.512   5.050
    1C        H  813   2.527   3.739   5.065
    1C        H  814   2.571   4.182   5.035
    1C        H  815   2.733   4.346   5.038
    1C        H  816   2.733   2.889   1.973
    1C        H  817   2.782   2.649   2.001
    1C        H  818   3.212   2.435   1.991
    1C        H  819   3.428   2.466   1.984
    1C        H  820   3.850   2.524   1.967
    1C        H  821   4.054   2.637   1.966
    1C        H  822   4.269   2.701   1.984
    1C        H  823   4.340   2.939   1.968
    1C        H  824   4.578   3.310   1.966
    1C        H  825   4.449   3.511   1.977
    1C        H  826   4.513   3.746   1.957
    1C        H  827   3.805   4.524   1.948
    1C        H  828   3.952   4.370   1.948
    1C        H  829   4.185   4.313   1.959
    1C        H  830   4.527   3.976   1.980
    1C        H  831   2.657   3.830   1.972
    1C        H  832   2.767   4.030   1.988
    1C        H  833   2.707   4.305   1.982
    1C        H  834   3.377   4.473   1.944
    1C        H  835   3.152   4.416   1.950
    1C        H  836   2.523   3.005   1.984
    1C        H  837   2.424   3.218   1.988
    1C        H  838   2.516   3.664   1.963
    2V3OU   H29  839   2.796   3.543   6.301
    2V3OU   C27  840   2.776   3.496   6.401
    2V3OU   H27  841   2.719   3.563   6.471
    2V3OU   H28  842   2.721   3.399   6.398
    2V3OU   O11  843   2.902   3.475   6.466
    2V3OU   C15  844   2.923   3.394   6.576
    2V3OU   C13  845   3.049   3.375   6.635
    2V3OU   C14  846   3.074   3.268   6.723
    2V3OU   C16  847   2.968   3.189   6.766
    2V3OU    H6  848   2.990   3.096   6.821
    2V3OU   C12  849   3.213   3.227   6.753
    2V3OU    O2  850   3.226   3.124   6.822
    2V3OU   C10  851   3.327   3.308   6.707
    2V3OU    C8  852   3.456   3.266   6.737
    2V3OU   O10  853   3.484   3.164   6.823
    2V3OU   H26  854   3.399   3.123   6.846
    2V3OU    C6  855   3.564   3.348   6.692
    2V3OU    C5  856   3.538   3.466   6.624
    2V3OU    C4  857   3.702   3.290   6.696
    2V3OU    H4  858   3.724   3.229   6.789
    2V3OU    H5  859   3.710   3.223   6.606
    2V3OU    C2  860   3.815   3.393   6.697
    2V3OU    O6  861   3.811   3.475   6.814
    2V3OU   H21  862   3.762   3.554   6.786
    2V3OU    C3  863   3.783   3.493   6.585
    2V3OU    H2  864   3.860   3.574   6.575
    2V3OU    H3  865   3.782   3.438   6.487
    2V3OU   C25  866   3.948   3.318   6.686
    2V3OU    O7  867   3.996   3.290   6.577
    2V3OU   C26  868   4.029   3.285   6.810
    2V3OU   H22  869   4.069   3.376   6.862
    2V3OU   H23  870   4.115   3.219   6.784
    2V3OU    O8  871   3.965   3.206   6.908
    2V3OU   H24  872   3.922   3.267   6.971
    2V3OU    C1  873   3.649   3.563   6.599
    2V3OU    H1  874   3.627   3.618   6.503
    2V3OU    O3  875   3.663   3.657   6.706
    2V3OU   C19  876   3.621   3.792   6.684
    2V3OU    H9  877   3.523   3.797   6.628
    2V3OU    O4  878   3.715   3.849   6.596
    2V3OU   C20  879   3.844   3.874   6.653
    2V3OU   H10  880   3.897   3.775   6.665
    2V3OU   C24  881   3.610   3.856   6.823
    2V3OU   H16  882   3.544   3.793   6.887
    2V3OU   H17  883   3.561   3.956   6.809
    2V3OU   C23  884   3.748   3.872   6.887
    2V3OU   H15  885   3.794   3.768   6.897
    2V3OU    N1  886   3.732   3.954   7.006
    2V3OU   H19  887   3.807   3.924   0.044
    2V3OU   H20  888   3.647   3.927   0.030
    2V3OU   C21  889   3.844   3.946   6.788
    2V3OU   H11  890   3.947   3.930   6.832
    2V3OU    O5  891   3.824   4.087   6.796
    2V3OU   H18  892   3.784   4.100   6.884
    2V3OU   C22  893   3.910   3.951   6.541
    2V3OU   H12  894   3.863   4.052   6.528
    2V3OU   H13  895   3.906   3.892   6.445
    2V3OU   H14  896   4.021   3.961   6.559
    2V3OU   C11  897   3.158   3.471   6.614
    2V3OU    O1  898   3.131   3.591   6.588
    2V3OU    C9  899   3.297   3.425   6.632
    2V3OU    C7  900   3.404   3.503   6.590
    2V3OU    O9  901   3.382   3.621   6.521
    2V3OU   H25  902   3.285   3.620   6.519
    2V3OU   C17  903   2.820   3.311   6.625
    2V3OU    H7  904   2.717   3.335   6.597
    2V3OU   C18  905   2.840   3.207   6.714
    2V3OU    H8  906   2.761   3.144   6.757
    3SOL     OW  907   3.015   3.665   5.050
    3SOL    HW1  908   3.105   3.634   5.080
    3SOL    HW2  909   2.983   3.738   5.111
    4SOL     OW  910   1.294   0.389   0.302
    4SOL    HW1  911   1.317   0.389   0.400
    4SOL    HW2  912   1.333   0.471   0.259
    5SOL     OW  913   4.168   1.704   0.501
    5SOL    HW1  914   4.174   1.802   0.521
    5SOL    HW2  915   4.138   1.656   0.583
    6SOL     OW  916   3.120   2.174   1.860
    6SOL    HW1  917   3.046   2.240   1.874
    6SOL    HW2  918   3.206   2.223   1.849
    7SOL     OW  919   1.826   3.045   4.553
    7SOL    HW1  920   1.878   3.124   4.584
    7SOL    HW2  921   1.730   3.056   4.578
    8SOL     OW  922   1.522   1.810   6.101
    8SOL    HW1  923   1.562   1.848   6.184
    8SOL    HW2  924   1.433   1.770   6.121
    9SOL     OW  925   2.194   2.265   5.460
    9SOL    HW1  926   2.275   2.316   5.432
    9SOL    HW2  927   2.114   2.326   5.459
   10SOL     OW  928   5.544   5.002   1.082
   10SOL    HW1  929   5.632   4.993   1.037
   10SOL    HW2  930   5.509   4.912   1.106
   11SOL     OW  931   2.975   1.327   0.866
   11SOL    HW1  932   2.915   1.346   0.944
   11SOL    HW2  933   2.984   1.228   0.855
   12SOL     OW  934   5.421   5.129   1.290
   12SOL    HW1  935   5.414   5.073   1.373
   12SOL    HW2  936   5.470   5.078   1.220
   13SOL     OW  937   4.473   5.697   1.600
   13SOL    HW1  938   4.465   5.602   1.571
   13SOL    HW2  939   4.400   5.751   1.557
   14SOL     OW  940   4.391   5.869   0.741
   14SOL    HW1  941   4.302   5.828   0.720
   14SOL    HW2  942   4.386   5.968   0.726
   15SOL     OW  943   0.363   0.420   6.557
   15SOL    HW1  944   0.361   0.476   6.474
   15SOL    HW2  945   0.449   0.369   6.560
   16SOL     OW  946   1.779   4.736   5.426
   16SOL    HW1  947   1.766   4.726   5.328
   16SOL    HW2  948   1.751   4.827   5.455
   17SOL     OW  949   7.010   2.209   4.236
   17SOL    HW1  950   7.021   2.111   4.224
   17SOL    HW2  951   6.920   2.237   4.204
   18SOL     OW  952   2.471   0.084   5.466
   18SOL    HW1  953   2.472   0.162   5.529
   18SOL    HW2  954   2.386   0.086   5.412
   19SOL     OW  955   4.385   6.053   3.123
   19SOL    HW1  956   4.461   6.031   3.184
   19SOL    HW2  957   4.325   5.974   3.114
   20SOL     OW  958   0.081   1.799   4.743
   20SOL    HW1  959   0.005   1.862   4.726
   20SOL    HW2  960   0.158   1.825   4.686
   21SOL     OW  961   1.992   3.174   1.835
   21SOL    HW1  962   2.001   3.083   1.794
   21SOL    HW2  963   1.897   3.202   1.833
   22SOL     OW  964   0.290   0.572   0.262
   22SOL    HW1  965   0.238   0.507   0.318
   22SOL    HW2  966   0.238   0.656   0.252
   23SOL     OW  967   0.458   5.754   0.503
   23SOL    HW1  968   0.458   5.692   0.581
   23SOL    HW2  969   0.551   5.788   0.487
   24SOL     OW  970   4.689   0.747   6.639
   24SOL    HW1  971   4.774   0.794   6.662
   24SOL    HW2  972   4.611   0.809   6.649
   25SOL     OW  973   1.756   0.766   5.711
   25SOL    HW1  974   1.737   0.669   5.729
   25SOL    HW2  975   1.706   0.795   5.630
   26SOL     OW  976   2.265   6.648   5.530
   26SOL    HW1  977   2.212   6.600   5.599
   26SOL    HW2  978   2.213   6.727   5.496
   27SOL     OW  979   6.874   0.389   2.529
   27SOL    HW1  980   6.900   0.329   2.453
   27SOL    HW2  981   6.837   0.474   2.492
   28SOL     OW  982   1.902   0.633   5.168
   28SOL    HW1  983   1.896   0.643   5.267
   28SOL    HW2  984   1.907   0.723   5.125
   29SOL     OW  985   5.455   0.693   1.693
   29SOL    HW1  986   5.370   0.642   1.680
   29SOL    HW2  987   5.463   0.763   1.621
   30SOL     OW  988   4.912   0.099   4.579
   30SOL    HW1  989   4.880   0.079   4.671
   30SOL    HW2  990   4.974   0.027   4.549
   31SOL     OW  991   6.209   3.875   4.420
   31SOL    HW1  992   6.222   3.784   4.458
   31SOL    HW2  993   6.202   3.870   4.321
   32SOL     OW  994   3.375   1.330   1.690
   32SOL    HW1  995   3.318   1.339   1.608
   32SOL    HW2  996   3.457   1.277   1.668
   33SOL     OW  997   1.883   4.335   5.106
   33SOL    HW1  998   1.849   4.426   5.085
   33SOL    HW2  999   1.891   4.323   5.205
   34SOL     OW 1000   2.721   6.999   5.508
   34SOL    HW1 1001   2.632   0.004   5.470
   34SOL    HW2 1002   2.732   0.019   5.599
   35SOL     OW 1003   1.102   3.402   4.740
   35SOL    HW1 1004   1.071   3.338   4.811
   35SOL    HW2 1005   1.151   3.352   4.669
   36SOL     OW 1006   5.425   1.433   4.214
   36SOL    HW1 1007   5.518   1.398   4.225
   36SOL    HW2 1008   5.428   1.530   4.194
   37SOL     OW 1009   1.158   5.535   3.977
   37SOL    HW1 1010   1.117   5.450   4.010
   37SOL    HW2 1011   1.091   5.610   3.987
   38SOL     OW 1012   0.587   3.387   1.590
   38SOL    HW1 1013   0.570   3.306   1.646
   38SOL    HW2 1014   0.669   3.434   1.624
   39SOL     OW 1015   6.457   5.500   1.358
   39SOL    HW1 1016   6.522   5.430   1.389
   39SOL    HW2 1017   6.364   5.470   1.378
   40SOL     OW 1018   4.082   0.612   5.936
   40SOL    HW1 1019   4.157   0.551   5.912
   40SOL    HW2 1020   4.097   0.702   5.895
   41SOL     OW 1021   0.117   3.856   0.963
   41SOL    HW1 1022   0.021   3.883   0.954
   41SOL    HW2 1023   0.170   3.897   0.889
   42SOL     OW 1024   2.680   3.620   0.832
   42SOL    HW1 1025   2.586   3.647   0.851
   42SOL    HW2 1026   2.683   3.564   0.749
   43SOL     OW 1027   4.904   0.678   3.564
   43SOL    HW1 1028   4.951   0.637   3.486
   43SOL    HW2 1029   4.894   0.777   3.550
   44SOL     OW 1030   0.196   1.133   6.932
   44SOL    HW1 1031   0.235   1.044   6.952
   44SOL    HW2 1032   0.097   1.131   6.950
   45SOL     OW 1033   2.126   3.760   5.741
   45SOL    HW1 1034   2.187   3.714   5.805
   45SOL    HW2 1035   2.031   3.743   5.768
   46SOL     OW 1036   0.945   5.012   4.373
   46SOL    HW1 1037   1.014   4.978   4.309
   46SOL    HW2 1038   0.874   5.060   4.323
   47SOL     OW 1039   0.157   4.232   5.886
   47SOL    HW1 1040   0.228   4.166   5.861
   47SOL    HW2 1041   0.104   4.197   5.963
   48SOL     OW 1042   0.489   4.431   0.179
   48SOL    HW1 1043   0.582   4.397   0.162
   48SOL    HW2 1044   0.491   4.531   0.184
   49SOL     OW 1045   3.251   0.301   0.261
   49SOL    HW1 1046   3.196   0.288   0.179
   49SOL    HW2 1047   3.348   0.310   0.236
   50SOL     OW 1048   4.745   1.652   5.668
   50SOL    HW1 1049   4.750   1.567   5.720
   50SOL    HW2 1050   4.793   1.641   5.581
   51SOL     OW 1051   1.183   6.018   2.045
   51SOL    HW1 1052   1.216   6.098   2.096
   51SOL    HW2 1053   1.206   6.029   1.948
   52SOL     OW 1054   5.199   3.135   3.047
   52SOL    HW1 1055   5.269   3.142   2.976
   52SOL    HW2 1056   5.223   3.193   3.124
   53SOL     OW 1057   3.907   6.540   1.184
   53SOL    HW1 1058   3.893   6.453   1.137
   53SOL    HW2 1059   3.990   6.584   1.149
   54SOL     OW 1060   0.918   1.914   5.953
   54SOL    HW1 1061   0.917   1.981   5.879
   54SOL    HW2 1062   1.010   1.877   5.963
   55SOL     OW 1063   2.415   3.546   6.325
   55SOL    HW1 1064   2.440   3.522   6.418
   55SOL    HW2 1065   2.478   3.616   6.291
   56SOL     OW 1066   1.786   2.186   0.111
   56SOL    HW1 1067   1.798   2.211   0.015
   56SOL    HW2 1068   1.691   2.203   0.138
   57SOL     OW 1069   4.175   5.587   1.604
   57SOL    HW1 1070   4.093   5.556   1.653
   57SOL    HW2 1071   4.233   5.508   1.585
   58SOL     OW 1072   0.401   0.521   0.023
   58SOL    HW1 1073   0.343   0.564   0.092
   58SOL    HW2 1074   0.490   0.567   0.021
   59SOL     OW 1075   4.509   3.540   6.958
   59SOL    HW1 1076   4.565   3.525   0.018
   59SOL    HW2 1077   4.482   3.451   6.920
   60SOL     OW 1078   6.340   2.554   2.151
   60SOL    HW1 1079   6.328   2.647   2.185
   60SOL    HW2 1080   6.414   2.509   2.202
   61SOL     OW 1081   1.632   5.336   2.571
   61SOL    HW1 1082   1.625   5.369   2.665
   61SOL    HW2 1083   1.541   5.317   2.535
   62SOL     OW 1084   4.990   3.365   3.186
   62SOL    HW1 1085   4.953   3.283   3.142
   62SOL    HW2 1086   5.064   3.339   3.248
   63SOL     OW 1087   4.414   6.866   6.290
   63SOL    HW1 1088   4.510   6.862   6.263
   63SOL    HW2 1089   4.381   6.774   6.312
   64SOL     OW 1090   2.426   1.957   6.715
   64SOL    HW1 1091   2.405   1.863   6.687
   64SOL    HW2 1092   2.355   1.989   6.778
   65SOL     OW 1093   0.817   5.499   5.107
   65SOL    HW1 1094   0.879   5.424   5.126
   65SOL    HW2 1095   0.831   5.532   5.013
   66SOL     OW 1096   4.273   1.390   1.375
   66SOL    HW1 1097   4.300   1.380   1.279
   66SOL    HW2 1098   4.354   1.398   1.432
   67SOL     OW 1099   0.102   2.933   2.403
   67SOL    HW1 1100   0.049   2.906   2.484
   67SOL    HW2 1101   0.198   2.908   2.417
   68SOL     OW 1102   0.413   1.074   6.114
   68SOL    HW1 1103   0.414   1.170   6.142
   68SOL    HW2 1104   0.453   1.019   6.187
   69SOL     OW 1105   1.701   0.693   6.286
   69SOL    HW1 1106   1.642   0.717   6.363
   69SOL    HW2 1107   1.792   0.733   6.300
   70SOL     OW 1108   5.088   5.110   2.846
   70SOL    HW1 1109   5.115   5.030   2.899
   70SOL    HW2 1110   5.014   5.159   2.893
   71SOL     OW 1111   5.467   1.108   5.499
   71SOL    HW1 1112   5.405   1.031   5.510
   71SOL    HW2 1113   5.431   1.171   5.431
   72SOL     OW 1114   0.088   1.787   2.922
   72SOL    HW1 1115   0.000   1.740   2.934
   72SOL    HW2 1116   0.085   1.874   2.973
   73SOL     OW 1117   2.615   0.942   1.025
   73SOL    HW1 1118   2.554   0.999   1.082
   73SOL    HW2 1119   2.630   0.988   0.938
   74SOL     OW 1120   2.418   0.644   0.773
   74SOL    HW1 1121   2.321   0.632   0.792
   74SOL    HW2 1122   2.469   0.648   0.859
   75SOL     OW 1123   2.663   2.922   1.131
   75SOL    HW1 1124   2.665   2.935   1.032
   75SOL    HW2 1125   2.569   2.905   1.160
   76SOL     OW 1126   2.761   5.183   6.466
   76SOL    HW1 1127   2.729   5.137   6.549
   76SOL    HW2 1128   2.810   5.118   6.408
   77SOL     OW 1129   0.375   4.726   4.770
   77SOL    HW1 1130   0.375   4.712   4.671
   77SOL    HW2 1131   0.466   4.705   4.806
   78SOL     OW 1132   5.043   1.559   0.619
   78SOL    HW1 1133   5.017   1.525   0.528
   78SOL    HW2 1134   5.059   1.482   0.680
   79SOL     OW 1135   2.264   4.118   4.241
   79SOL    HW1 1136   2.231   4.041   4.295
   79SOL    HW2 1137   2.246   4.101   4.144
   80SOL     OW 1138   4.152   2.143   5.328
   80SOL    HW1 1139   4.097   2.060   5.320
   80SOL    HW2 1140   4.245   2.125   5.296
   81SOL     OW 1141   2.486   4.492   2.956
   81SOL    HW1 1142   2.546   4.467   2.880
   81SOL    HW2 1143   2.394   4.511   2.922
   82SOL     OW 1144   2.590   0.543   1.620
   82SOL    HW1 1145   2.628   0.582   1.536
   82SOL    HW2 1146   2.499   0.506   1.601
   83SOL     OW 1147   6.245   2.330   3.621
   83SOL    HW1 1148   6.265   2.422   3.588
   83SOL    HW2 1149   6.225   2.333   3.719
   84SOL     OW 1150   5.058   2.473   2.829
   84SOL    HW1 1151   4.973   2.500   2.784
   84SOL    HW2 1152   5.060   2.373   2.838
   85SOL     OW 1153   2.057   5.372   2.833
   85SOL    HW1 1154   1.982   5.422   2.789
   85SOL    HW2 1155   2.142   5.425   2.823
   86SOL     OW 1156   4.229   1.092   6.227
   86SOL    HW1 1157   4.328   1.095   6.239
   86SOL    HW2 1158   4.207   1.066   6.133
   87SOL     OW 1159   3.229   2.294   6.695
   87SOL    HW1 1160   3.149   2.312   6.753
   87SOL    HW2 1161   3.312   2.312   6.747
   88SOL     OW 1162   1.354   2.372   0.602
   88SOL    HW1 1163   1.316   2.455   0.643
   88SOL    HW2 1164   1.418   2.329   0.667
   89SOL     OW 1165   4.065   3.620   5.840
   89SOL    HW1 1166   4.095   3.700   5.789
   89SOL    HW2 1167   4.108   3.538   5.803
   90SOL     OW 1168   6.895   4.192   1.622
   90SOL    HW1 1169   6.820   4.130   1.600
   90SOL    HW2 1170   6.915   4.187   1.719
   91SOL     OW 1171   5.275   5.293   0.622
   91SOL    HW1 1172   5.369   5.271   0.648
   91SOL    HW2 1173   5.213   5.225   0.662
   92SOL     OW 1174   6.309   6.605   6.981
   92SOL    HW1 1175   6.301   6.695   0.002
   92SOL    HW2 1176   6.222   6.581   6.938
   93SOL     OW 1177   2.943   3.276   2.805
   93SOL    HW1 1178   2.981   3.260   2.714
   93SOL    HW2 1179   2.844   3.286   2.798
   94SOL     OW 1180   3.545   1.284   4.245
   94SOL    HW1 1181   3.509   1.377   4.246
   94SOL    HW2 1182   3.571   1.258   4.339
   95SOL     OW 1183   0.961   6.445   4.121
   95SOL    HW1 1184   0.997   6.487   4.204
   95SOL    HW2 1185   1.011   6.360   4.104
   96SOL     OW 1186   0.249   6.517   0.343
   96SOL    HW1 1187   0.296   6.429   0.331
   96SOL    HW2 1188   0.286   6.564   0.423
   97SOL     OW 1189   3.290   4.942   4.332
   97SOL    HW1 1190   3.214   4.913   4.274
   97SOL    HW2 1191   3.277   4.907   4.424
   98SOL     OW 1192   6.580   2.098   4.970
   98SOL    HW1 1193   6.588   2.166   5.042
   98SOL    HW2 1194   6.490   2.107   4.925
   99SOL     OW 1195   4.751   4.161   4.925
   99SOL    HW1 1196   4.703   4.213   4.854
   99SOL    HW2 1197   4.730   4.201   5.015
  100SOL     OW 1198   2.332   2.048   5.600
  100SOL    HW1 1199   2.292   2.130   5.560
  100SOL    HW2 1200   2.293   1.967   5.555
  101SOL     OW 1201   5.349   2.967   2.509
  101SOL    HW1 1202   5.436   2.924   2.531
  101SOL    HW2 1203   5.365   3.049   2.454
  102SOL     OW 1204   4.828   6.430   1.063
  102SOL    HW1 1205   4.886   6.349   1.062
  102SOL    HW2 1206   4.849   6.487   0.983
  103SOL     OW 1207   2.405   2.083   0.947
  103SOL    HW1 1208   2.476   2.019   0.977
  103SOL    HW2 1209   2.338   2.035   0.890
  104SOL     OW 1210   0.831   3.521   1.568
  104SOL    HW1 1211   0.882   3.441   1.536
  104SOL    HW2 1212   0.813   3.582   1.491
  105SOL     OW 1213   0.523   1.892   4.742
  105SOL    HW1 1214   0.486   1.960   4.679
  105SOL    HW2 1215   0.454   1.866   4.809
  106SOL     OW 1216   5.352   3.651   1.521
  106SOL    HW1 1217   5.274   3.710   1.499
  106SOL    HW2 1218   5.426   3.707   1.558
  107SOL     OW 1219   4.660   0.318   2.496
  107SOL    HW1 1220   4.644   0.266   2.580
  107SOL    HW2 1221   4.754   0.302   2.465
  108SOL     OW 1222   3.750   1.070   5.143
  108SOL    HW1 1223   3.728   1.051   5.239
  108SOL    HW2 1224   3.814   1.146   5.138
  109SOL     OW 1225   2.492   1.552   4.482
  109SOL    HW1 1226   2.514   1.649   4.472
  109SOL    HW2 1227   2.424   1.541   4.555
  110SOL     OW 1228   4.299   5.030   5.413
  110SOL    HW1 1229   4.268   4.995   5.501
  110SOL    HW2 1230   4.300   5.130   5.415
  111SOL     OW 1231   6.956   3.412   0.523
  111SOL    HW1 1232   7.020   3.366   0.461
  111SOL    HW2 1233   6.902   3.343   0.571
  112SOL     OW 1234   3.638   6.407   4.743
  112SOL    HW1 1235   3.638   6.502   4.713
  112SOL    HW2 1236   3.609   6.349   4.667
  113SOL     OW 1237   1.529   4.973   2.268
  113SOL    HW1 1238   1.602   5.021   2.317
  113SOL    HW2 1239   1.520   4.880   2.304
  114SOL     OW 1240   6.797   2.511   2.064
  114SOL    HW1 1241   6.743   2.545   1.987
  114SOL    HW2 1242   6.783   2.413   2.074
  115SOL     OW 1243   4.370   0.988   3.207
  115SOL    HW1 1244   4.271   0.975   3.212
  115SOL    HW2 1245   4.398   1.056   3.276
  116SOL     OW 1246   6.039   5.830   6.559
  116SOL    HW1 1247   6.021   5.881   6.475
  116SOL    HW2 1248   6.102   5.755   6.540
  117SOL     OW 1249   1.993   1.409   0.410
  117SOL    HW1 1250   1.982   1.423   0.509
  117SOL    HW2 1251   2.009   1.312   0.392
  118SOL     OW 1252   1.278   2.420   1.277
  118SOL    HW1 1253   1.330   2.443   1.360
  118SOL    HW2 1254   1.181   2.415   1.299
  119SOL     OW 1255   5.328   5.400   4.324
  119SOL    HW1 1256   5.372   5.324   4.371
  119SOL    HW2 1257   5.376   5.419   4.238
  120SOL     OW 1258   4.442   1.576   3.956
  120SOL    HW1 1259   4.359   1.559   4.008
  120SOL    HW2 1260   4.424   1.561   3.859
  121SOL     OW 1261   6.633   4.998   5.527
  121SOL    HW1 1262   6.637   5.066   5.600
  121SOL    HW2 1263   6.720   4.996   5.478
  122SOL     OW 1264   0.312   4.902   5.520
  122SOL    HW1 1265   0.237   4.854   5.565
  122SOL    HW2 1266   0.330   4.988   5.568
  123SOL     OW 1267   0.799   2.001   0.848
  123SOL    HW1 1268   0.891   2.029   0.822
  123SOL    HW2 1269   0.796   1.901   0.860
  124SOL     OW 1270   2.050   3.564   6.469
  124SOL    HW1 1271   2.094   3.648   6.501
  124SOL    HW2 1272   2.096   3.532   6.386
  125SOL     OW 1273   4.049   3.247   1.345
  125SOL    HW1 1274   4.003   3.287   1.424
  125SOL    HW2 1275   3.981   3.201   1.287
  126SOL     OW 1276   3.652   3.446   5.343
  126SOL    HW1 1277   3.707   3.425   5.424
  126SOL    HW2 1278   3.558   3.417   5.359
  127SOL     OW 1279   6.998   4.414   5.816
  127SOL    HW1 1280   6.962   4.432   5.724
  127SOL    HW2 1281   0.050   4.347   5.810
  128SOL     OW 1282   4.794   4.266   6.067
  128SOL    HW1 1283   4.867   4.221   6.119
  128SOL    HW2 1284   4.794   4.364   6.087
  129SOL     OW 1285   0.758   5.426   2.259
  129SOL    HW1 1286   0.683   5.489   2.239
  129SOL    HW2 1287   0.815   5.462   2.333
  130SOL     OW 1288   6.448   4.167   4.731
  130SOL    HW1 1289   6.474   4.241   4.670
  130SOL    HW2 1290   6.353   4.141   4.714
  131SOL     OW 1291   0.560   2.923   1.723
  131SOL    HW1 1292   0.654   2.906   1.753
  131SOL    HW2 1293   0.546   2.883   1.632
  132SOL     OW 1294   3.787   4.025   2.468
  132SOL    HW1 1295   3.811   4.011   2.564
  132SOL    HW2 1296   3.842   4.100   2.431
  133SOL     OW 1297   4.306   4.284   5.657
  133SOL    HW1 1298   4.352   4.201   5.689
  133SOL    HW2 1299   4.227   4.302   5.716
  134SOL     OW 1300   6.991   2.028   0.013
  134SOL    HW1 1301   0.065   2.045   7.010
  134SOL    HW2 1302   6.935   2.030   6.952
  135SOL     OW 1303   4.529   5.197   3.772
  135SOL    HW1 1304   4.472   5.276   3.749
  135SOL    HW2 1305   4.482   5.140   3.839
  136SOL     OW 1306   3.894   5.972   6.037
  136SOL    HW1 1307   3.972   5.924   6.077
  136SOL    HW2 1308   3.899   6.069   6.059
  137SOL     OW 1309   1.928   4.278   6.980
  137SOL    HW1 1310   1.940   4.359   6.922
  137SOL    HW2 1311   1.953   4.300   0.052
  138SOL     OW 1312   0.559   6.233   1.454
  138SOL    HW1 1313   0.493   6.305   1.436
  138SOL    HW2 1314   0.651   6.265   1.431
  139SOL     OW 1315   1.243   0.070   1.012
  139SOL    HW1 1316   1.312   7.019   1.019
  139SOL    HW2 1317   1.193   0.076   1.098
  140SOL     OW 1318   2.860   6.908   3.101
  140SOL    HW1 1319   2.955   6.930   3.080
  140SOL    HW2 1320   2.834   6.825   3.052
  141SOL     OW 1321   2.468   1.857   0.069
  141SOL    HW1 1322   2.408   1.808   0.132
  141SOL    HW2 1323   2.426   1.864   7.001
  142SOL     OW 1324   1.634   4.664   6.230
  142SOL    HW1 1325   1.560   4.598   6.214
  142SOL    HW2 1326   1.702   4.656   6.157
  143SOL     OW 1327   5.224   6.327   2.219
  143SOL    HW1 1328   5.167   6.394   2.172
  143SOL    HW2 1329   5.231   6.244   2.163
  144SOL     OW 1330   2.420   4.949   3.392
  144SOL    HW1 1331   2.386   4.928   3.483
  144SOL    HW2 1332   2.389   4.880   3.327
  145SOL     OW 1333   6.271   5.944   2.970
  145SOL    HW1 1334   6.175   5.954   2.995
  145SOL    HW2 1335   6.299   6.020   2.912
  146SOL     OW 1336   6.592   1.245   4.436
  146SOL    HW1 1337   6.689   1.268   4.436
  146SOL    HW2 1338   6.565   1.212   4.345
  147SOL     OW 1339   6.343   6.993   5.449
  147SOL    HW1 1340   6.330   0.042   5.379
  147SOL    HW2 1341   6.258   6.941   5.460
  148SOL     OW 1342   1.892   6.821   3.462
  148SOL    HW1 1343   1.858   6.766   3.385
  148SOL    HW2 1344   1.821   6.829   3.532
  149SOL     OW 1345   1.643   2.316   4.842
  149SOL    HW1 1346   1.687   2.399   4.877
  149SOL    HW2 1347   1.638   2.320   4.742
  150SOL     OW 1348   5.072   2.729   4.707
  150SOL    HW1 1349   5.051   2.632   4.695
  150SOL    HW2 1350   4.990   2.778   4.736
  151SOL     OW 1351   6.062   2.777   1.806
  151SOL    HW1 1352   6.047   2.746   1.900
  151SOL    HW2 1353   5.973   2.784   1.760
  152SOL     OW 1354   6.225   2.026   0.121
  152SOL    HW1 1355   6.197   2.111   0.075
  152SOL    HW2 1356   6.314   1.998   0.085
  153SOL     OW 1357   2.295   2.059   4.113
  153SOL    HW1 1358   2.329   2.081   4.022
  153SOL    HW2 1359   2.202   2.021   4.106
  154SOL     OW 1360   0.453   1.706   3.586
  154SOL    HW1 1361   0.436   1.752   3.673
  154SOL    HW2 1362   0.545   1.726   3.554
  155SOL     OW 1363   5.660   5.107   3.362
  155SOL    HW1 1364   5.674   5.053   3.279
  155SOL    HW2 1365   5.570   5.087   3.400
  156SOL     OW 1366   4.459   6.895   1.060
  156SOL    HW1 1367   4.455   6.974   0.999
  156SOL    HW2 1368   4.376   6.841   1.050
  157SOL     OW 1369   4.966   0.967   0.813
  157SOL    HW1 1370   4.960   0.958   0.714
  157SOL    HW2 1371   5.050   1.018   0.836
  158SOL     OW 1372   1.235   2.774   5.548
  158SOL    HW1 1373   1.244   2.870   5.574
  158SOL    HW2 1374   1.319   2.744   5.502
  159SOL     OW 1375   0.124   5.029   6.682
  159SOL    HW1 1376   0.045   5.037   6.622
  159SOL    HW2 1377   0.205   5.068   6.637
  160SOL     OW 1378   3.861   7.000   1.799
  160SOL    HW1 1379   3.820   0.053   1.852
  160SOL    HW2 1380   3.851   6.914   1.849
  161SOL     OW 1381   5.567   6.566   1.026
  161SOL    HW1 1382   5.503   6.584   1.101
  161SOL    HW2 1383   5.570   6.468   1.007
  162SOL     OW 1384   4.197   0.340   5.030
  162SOL    HW1 1385   4.272   0.274   5.021
  162SOL    HW2 1386   4.228   0.430   5.001
  163SOL     OW 1387   1.490   3.493   2.676
  163SOL    HW1 1388   1.556   3.450   2.615
  163SOL    HW2 1389   1.417   3.534   2.622
  164SOL     OW 1390   1.643   2.612   2.119
  164SOL    HW1 1391   1.616   2.590   2.213
  164SOL    HW2 1392   1.667   2.527   2.071
  165SOL     OW 1393   0.451   5.797   5.120
  165SOL    HW1 1394   0.410   5.880   5.080
  165SOL    HW2 1395   0.534   5.823   5.169
  166SOL     OW 1396   0.570   5.235   3.581
  166SOL    HW1 1397   0.669   5.244   3.590
  166SOL    HW2 1398   0.545   5.232   3.484
  167SOL     OW 1399   0.485   1.279   3.557
  167SOL    HW1 1400   0.469   1.332   3.641
  167SOL    HW2 1401   0.433   1.319   3.482
  168SOL     OW 1402   3.376   4.078   4.817
  168SOL    HW1 1403   3.308   4.071   4.743
  168SOL    HW2 1404   3.397   3.986   4.851
  169SOL     OW 1405   4.953   2.970   5.972
  169SOL    HW1 1406   4.983   2.881   6.007
  169SOL    HW2 1407   4.873   3.000   6.024
  170SOL     OW 1408   6.351   5.338   2.670
  170SOL    HW1 1409   6.357   5.247   2.709
  170SOL    HW2 1410   6.309   5.333   2.579
  171SOL     OW 1411   3.602   3.158   0.866
  171SOL    HW1 1412   3.574   3.119   0.954
  171SOL    HW2 1413   3.525   3.206   0.825
  172SOL     OW 1414   1.842   0.955   0.305
  172SOL    HW1 1415   1.767   1.002   0.351
  172SOL    HW2 1416   1.831   0.857   0.315
  173SOL     OW 1417   5.347   0.887   4.862
  173SOL    HW1 1418   5.307   0.961   4.916
  173SOL    HW2 1419   5.447   0.889   4.871
  174SOL     OW 1420   6.224   4.804   4.356
  174SOL    HW1 1421   6.284   4.883   4.343
  174SOL    HW2 1422   6.227   4.775   4.452
  175SOL     OW 1423   0.666   5.186   2.426
  175SOL    HW1 1424   0.714   5.274   2.422
  175SOL    HW2 1425   0.588   5.188   2.363
  176SOL     OW 1426   5.795   3.908   0.828
  176SOL    HW1 1427   5.718   3.845   0.823
  176SOL    HW2 1428   5.863   3.884   0.759
  177SOL     OW 1429   5.203   2.461   3.476
  177SOL    HW1 1430   5.241   2.389   3.418
  177SOL    HW2 1431   5.157   2.529   3.419
  178SOL     OW 1432   1.727   5.186   4.395
  178SOL    HW1 1433   1.822   5.207   4.372
  178SOL    HW2 1434   1.707   5.221   4.486
  179SOL     OW 1435   2.941   3.734   2.224
  179SOL    HW1 1436   2.979   3.674   2.295
  179SOL    HW2 1437   2.841   3.731   2.229
  180SOL     OW 1438   4.450   0.462   5.638
  180SOL    HW1 1439   4.388   0.476   5.561
  180SOL    HW2 1440   4.495   0.374   5.629
  181SOL     OW 1441   3.193   6.579   5.239
  181SOL    HW1 1442   3.125   6.583   5.313
  181SOL    HW2 1443   3.204   6.484   5.209
  182SOL     OW 1444   3.309   2.611   5.499
  182SOL    HW1 1445   3.390   2.585   5.446
  182SOL    HW2 1446   3.336   2.675   5.571
  183SOL     OW 1447   2.040   1.085   2.853
  183SOL    HW1 1448   2.028   1.067   2.951
  183SOL    HW2 1449   2.124   1.042   2.822
  184SOL     OW 1450   5.921   6.835   3.915
  184SOL    HW1 1451   5.944   6.772   3.841
  184SOL    HW2 1452   5.980   6.916   3.908
  185SOL     OW 1453   0.489   5.909   5.488
  185SOL    HW1 1454   0.551   5.961   5.546
  185SOL    HW2 1455   0.449   5.970   5.419
  186SOL     OW 1456   3.291   5.452   0.788
  186SOL    HW1 1457   3.212   5.467   0.730
  186SOL    HW2 1458   3.313   5.355   0.790
  187SOL     OW 1459   3.785   5.262   0.534
  187SOL    HW1 1460   3.857   5.314   0.580
  187SOL    HW2 1461   3.723   5.325   0.489
  188SOL     OW 1462   1.358   4.219   3.955
  188SOL    HW1 1463   1.400   4.147   3.900
  188SOL    HW2 1464   1.335   4.297   3.897
  189SOL     OW 1465   6.173   4.096   5.841
  189SOL    HW1 1466   6.258   4.072   5.887
  189SOL    HW2 1467   6.139   4.183   5.876
  190SOL     OW 1468   6.085   6.428   6.866
  190SOL    HW1 1469   5.990   6.418   6.837
  190SOL    HW2 1470   6.099   6.378   6.952
  191SOL     OW 1471   2.387   3.540   6.058
  191SOL    HW1 1472   2.390   3.517   6.155
  191SOL    HW2 1473   2.421   3.633   6.045
  192SOL     OW 1474   0.952   6.730   0.667
  192SOL    HW1 1475   0.986   6.798   0.732
  192SOL    HW2 1476   0.932   6.774   0.580
  193SOL     OW 1477   2.718   6.816   1.855
  193SOL    HW1 1478   2.687   6.872   1.779
  193SOL    HW2 1479   2.815   6.836   1.874
  194SOL     OW 1480   4.116   6.333   3.609
  194SOL    HW1 1481   4.154   6.297   3.524
  194SOL    HW2 1482   4.052   6.407   3.588
  195SOL     OW 1483   3.215   1.256   1.442
  195SOL    HW1 1484   3.130   1.255   1.494
  195SOL    HW2 1485   3.268   1.173   1.463
  196SOL     OW 1486   3.905   3.296   1.566
  196SOL    HW1 1487   3.830   3.238   1.535
  196SOL    HW2 1488   3.975   3.240   1.610
  197SOL     OW 1489   0.601   6.908   1.324
  197SOL    HW1 1490   0.654   6.825   1.341
  197SOL    HW2 1491   0.573   6.911   1.228
  198SOL     OW 1492   6.082   0.240   5.650
  198SOL    HW1 1493   6.176   0.270   5.638
  198SOL    HW2 1494   6.076   0.174   5.725
  199SOL     OW 1495   1.918   0.682   3.191
  199SOL    HW1 1496   1.976   0.658   3.269
  199SOL    HW2 1497   1.964   0.656   3.106
  200SOL     OW 1498   1.626   3.298   3.467
  200SOL    HW1 1499   1.537   3.317   3.425
  200SOL    HW2 1500   1.612   3.238   3.546
  201SOL     OW 1501   5.107   1.271   6.795
  201SOL    HW1 1502   5.106   1.339   6.868
  201SOL    HW2 1503   5.132   1.182   6.833
  202SOL     OW 1504   4.200   0.874   2.861
  202SOL    HW1 1505   4.285   0.864   2.914
  202SOL    HW2 1506   4.178   0.971   2.853
  203SOL     OW 1507   5.540   2.888   0.878
  203SOL    HW1 1508   5.544   2.897   0.779
  203SOL    HW2 1509   5.632   2.875   0.914
  204SOL     OW 1510   2.506   5.918   0.560
  204SOL    HW1 1511   2.558   6.003   0.561
  204SOL    HW2 1512   2.531   5.863   0.640
  205SOL     OW 1513   5.461   0.694   1.353
  205SOL    HW1 1514   5.514   0.659   1.276
  205SOL    HW2 1515   5.403   0.621   1.390
  206SOL     OW 1516   0.075   5.882   1.644
  206SOL    HW1 1517   0.137   5.860   1.568
  206SOL    HW2 1518   0.079   5.809   1.711
  207SOL     OW 1519   6.648   2.383   5.491
  207SOL    HW1 1520   6.592   2.399   5.573
  207SOL    HW2 1521   6.645   2.287   5.467
  208SOL     OW 1522   5.051   3.388   1.351
  208SOL    HW1 1523   5.084   3.465   1.297
  208SOL    HW2 1524   5.017   3.317   1.290
  209SOL     OW 1525   6.334   0.568   4.297
  209SOL    HW1 1526   6.378   0.639   4.242
  209SOL    HW2 1527   6.338   0.594   4.393
  210SOL     OW 1528   4.927   2.513   6.842
  210SOL    HW1 1529   4.925   2.457   6.924
  210SOL    HW2 1530   4.987   2.471   6.774
  211SOL     OW 1531   0.403   4.421   2.163
  211SOL    HW1 1532   0.336   4.436   2.089
  211SOL    HW2 1533   0.391   4.329   2.200
  212SOL     OW 1534   1.245   5.558   5.017
  212SOL    HW1 1535   1.244   5.639   5.076
  212SOL    HW2 1536   1.195   5.484   5.062
  213SOL     OW 1537   4.180   2.298   1.633
  213SOL    HW1 1538   4.248   2.307   1.706
  213SOL    HW2 1539   4.090   2.281   1.674
  214SOL     OW 1540   0.410   5.412   4.027
  214SOL    HW1 1541   0.418   5.331   4.085
  214SOL    HW2 1542   0.456   5.396   3.940
  215SOL     OW 1543   4.116   3.589   3.726
  215SOL    HW1 1544   4.063   3.505   3.721
  215SOL    HW2 1545   4.166   3.593   3.813
  216SOL     OW 1546   4.007   6.749   4.631
  216SOL    HW1 1547   3.912   6.779   4.639
  216SOL    HW2 1548   4.022   6.706   4.542
  217SOL     OW 1549   6.137   2.258   4.958
  217SOL    HW1 1550   6.182   2.295   5.039
  217SOL    HW2 1551   6.067   2.322   4.927
  218SOL     OW 1552   2.570   4.485   5.669
  218SOL    HW1 1553   2.580   4.533   5.756
  218SOL    HW2 1554   2.654   4.434   5.649
  219SOL     OW 1555   3.736   6.565   6.656
  219SOL    HW1 1556   3.665   6.582   6.724
  219SOL    HW2 1557   3.805   6.637   6.661
  220SOL     OW 1558   1.046   5.199   0.283
  220SOL    HW1 1559   1.087   5.244   0.363
  220SOL    HW2 1560   1.079   5.244   0.200
  221SOL     OW 1561   6.148   4.354   4.751
  221SOL    HW1 1562   6.214   4.415   4.795
  221SOL    HW2 1563   6.056   4.391   4.764
  222SOL     OW 1564   1.461   0.442   4.500
  222SOL    HW1 1565   1.382   0.480   4.548
  222SOL    HW2 1566   1.527   0.408   4.567
  223SOL     OW 1567   5.675   5.509   1.671
  223SOL    HW1 1568   5.591   5.526   1.722
  223SOL    HW2 1569   5.661   5.528   1.574
  224SOL     OW 1570   5.325   4.384   2.406
  224SOL    HW1 1571   5.367   4.293   2.407
  224SOL    HW2 1572   5.249   4.385   2.341
  225SOL     OW 1573   4.296   5.879   1.836
  225SOL    HW1 1574   4.211   5.893   1.887
  225SOL    HW2 1575   4.298   5.786   1.799
  226SOL     OW 1576   1.824   5.522   2.213
  226SOL    HW1 1577   1.855   5.524   2.118
  226SOL    HW2 1578   1.777   5.435   2.231
  227SOL     OW 1579   0.680   3.885   2.724
  227SOL    HW1 1580   0.597   3.856   2.677
  227SOL    HW2 1581   0.656   3.922   2.814
  228SOL     OW 1582   3.891   5.677   3.555
  228SOL    HW1 1583   3.898   5.611   3.630
  228SOL    HW2 1584   3.969   5.740   3.559
  229SOL     OW 1585   5.911   6.227   2.406
  229SOL    HW1 1586   5.853   6.265   2.477
  229SOL    HW2 1587   6.005   6.260   2.418
  230SOL     OW 1588   1.471   4.625   5.145
  230SOL    HW1 1589   1.418   4.646   5.063
  230SOL    HW2 1590   1.434   4.675   5.223
  231SOL     OW 1591   0.256   1.831   6.764
  231SOL    HW1 1592   0.314   1.810   6.843
  231SOL    HW2 1593   0.162   1.805   6.783
  232SOL     OW 1594   1.836   3.251   0.011
  232SOL    HW1 1595   1.929   3.214   0.003
  232SOL    HW2 1596   1.835   3.346   7.002
  233SOL     OW 1597   3.613   6.816   0.609
  233SOL    HW1 1598   3.527   6.774   0.638
  233SOL    HW2 1599   3.614   6.824   0.509
  234SOL     OW 1600   1.502   5.053   0.242
  234SOL    HW1 1601   1.403   5.061   0.256
  234SOL    HW2 1602   1.532   4.960   0.262
  235SOL     OW 1603   4.085   3.077   5.839
  235SOL    HW1 1604   4.172   3.084   5.791
  235SOL    HW2 1605   4.012   3.054   5.774
  236SOL     OW 1606   0.017   0.485   6.831
  236SOL    HW1 1607   6.990   0.410   6.786
  236SOL    HW2 1608   0.105   0.452   6.866
  237SOL     OW 1609   6.064   0.055   2.406
  237SOL    HW1 1610   6.164   0.064   2.398
  237SOL    HW2 1611   6.021   0.144   2.393
  238SOL     OW 1612   0.727   2.164   3.254
  238SOL    HW1 1613   0.722   2.120   3.343
  238SOL    HW2 1614   0.639   2.208   3.234
  239SOL     OW 1615   6.602   4.915   6.511
  239SOL    HW1 1616   6.547   4.891   6.591
  239SOL    HW2 1617   6.625   4.833   6.460
  240SOL     OW 1618   0.112   2.687   4.395
  240SOL    HW1 1619   0.141   2.633   4.316
  240SOL    HW2 1620   0.181   2.679   4.468
  241SOL     OW 1621   6.354   2.721   4.406
  241SOL    HW1 1622   6.397   2.725   4.316
  241SOL    HW2 1623   6.373   2.806   4.456
  242SOL     OW 1624   2.769   2.329   3.363
  242SOL    HW1 1625   2.787   2.230   3.365
  242SOL    HW2 1626   2.759   2.362   3.457
  243SOL     OW 1627   4.791   1.508   6.567
  243SOL    HW1 1628   4.888   1.531   6.557
  243SOL    HW2 1629   4.769   1.428   6.510
  244SOL     OW 1630   1.352   0.450   5.838
  244SOL    HW1 1631   1.348   0.472   5.740
  244SOL    HW2 1632   1.421   0.507   5.882
  245SOL     OW 1633   4.935   1.774   4.777
  245SOL    HW1 1634   4.976   1.725   4.854
  245SOL    HW2 1635   4.855   1.723   4.744
  246SOL     OW 1636   5.881   3.878   4.351
  246SOL    HW1 1637   5.931   3.876   4.264
  246SOL    HW2 1638   5.816   3.802   4.353
  247SOL     OW 1639   2.174   0.134   2.809
  247SOL    HW1 1640   2.236   0.103   2.881
  247SOL    HW2 1641   2.212   0.214   2.764
  248SOL     OW 1642   6.745   2.705   3.314
  248SOL    HW1 1643   6.691   2.675   3.236
  248SOL    HW2 1644   6.712   2.794   3.346
  249SOL     OW 1645   2.180   6.186   4.818
  249SOL    HW1 1646   2.202   6.089   4.829
  249SOL    HW2 1647   2.138   6.200   4.729
  250SOL     OW 1648   5.668   2.868   6.829
  250SOL    HW1 1649   5.759   2.868   6.788
  250SOL    HW2 1650   5.599   2.851   6.759
  251SOL     OW 1651   2.288   0.060   2.195
  251SOL    HW1 1652   2.355   0.014   2.253
  251SOL    HW2 1653   2.335   0.124   2.134
  252SOL     OW 1654   6.636   3.141   6.524
  252SOL    HW1 1655   6.705   3.069   6.524
  252SOL    HW2 1656   6.627   3.178   6.617
  253SOL     OW 1657   1.769   4.474   5.550
  253SOL    HW1 1658   1.775   4.559   5.498
  253SOL    HW2 1659   1.804   4.490   5.642
  254SOL     OW 1660   4.917   3.403   6.977
  254SOL    HW1 1661   4.864   3.325   7.012
  254SOL    HW2 1662   5.014   3.378   6.973
  255SOL     OW 1663   4.196   2.281   2.077
  255SOL    HW1 1664   4.228   2.298   1.983
  255SOL    HW2 1665   4.099   2.256   2.074
  256SOL     OW 1666   0.280   6.388   1.451
  256SOL    HW1 1667   0.303   6.484   1.432
  256SOL    HW2 1668   0.288   6.335   1.366
  257SOL     OW 1669   3.270   5.836   6.569
  257SOL    HW1 1670   3.303   5.926   6.540
  257SOL    HW2 1671   3.320   5.765   6.521
  258SOL     OW 1672   4.921   5.641   4.435
  258SOL    HW1 1673   4.983   5.717   4.414
  258SOL    HW2 1674   4.828   5.665   4.409
  259SOL     OW 1675   0.230   1.065   1.917
  259SOL    HW1 1676   0.254   1.020   2.003
  259SOL    HW2 1677   0.160   1.011   1.870
  260SOL     OW 1678   5.935   6.874   5.695
  260SOL    HW1 1679   5.914   6.792   5.641
  260SOL    HW2 1680   5.978   6.847   5.781
  261SOL     OW 1681   0.553   1.450   3.150
  261SOL    HW1 1682   0.473   1.422   3.204
  261SOL    HW2 1683   0.634   1.447   3.208
  262SOL     OW 1684   1.955   5.630   1.024
  262SOL    HW1 1685   1.966   5.591   0.932
  262SOL    HW2 1686   1.909   5.563   1.082
  263SOL     OW 1687   0.945   5.200   4.961
  263SOL    HW1 1688   0.858   5.247   4.951
  263SOL    HW2 1689   0.932   5.115   5.012
  264SOL     OW 1690   3.764   3.916   0.806
  264SOL    HW1 1691   3.797   3.883   0.895
  264SOL    HW2 1692   3.664   3.909   0.804
  265SOL     OW 1693   4.416   5.620   4.175
  265SOL    HW1 1694   4.489   5.553   4.186
  265SOL    HW2 1695   4.456   5.712   4.167
  266SOL     OW 1696   4.409   3.781   6.953
  266SOL    HW1 1697   4.475   3.847   6.988
  266SOL    HW2 1698   4.452   3.691   6.945
  267SOL     OW 1699   2.616   1.926   6.165
  267SOL    HW1 1700   2.711   1.924   6.137
  267SOL    HW2 1701   2.599   2.007   6.222
  268SOL     OW 1702   1.471   3.825   2.479
  268SOL    HW1 1703   1.498   3.846   2.385
  268SOL    HW2 1704   1.374   3.845   2.491
  269SOL     OW 1705   3.000   1.197   6.027
  269SOL    HW1 1706   2.981   1.099   6.030
  269SOL    HW2 1707   2.953   1.238   5.949
  270SOL     OW 1708   5.574   5.376   4.555
  270SOL    HW1 1709   5.623   5.416   4.632
  270SOL    HW2 1710   5.476   5.374   4.575
  271SOL     OW 1711   2.430   0.717   0.371
  271SOL    HW1 1712   2.442   0.790   0.304
  271SOL    HW2 1713   2.494   0.730   0.447
  272SOL     OW 1714   5.459   4.410   0.018
  272SOL    HW1 1715   5.554   4.396   0.047
  272SOL    HW2 1716   5.424   4.494   0.060
  273SOL     OW 1717   0.496   5.877   4.246
  273SOL    HW1 1718   0.441   5.914   4.172
  273SOL    HW2 1719   0.593   5.883   4.222
  274SOL     OW 1720   5.026   3.187   2.243
  274SOL    HW1 1721   5.010   3.228   2.153
  274SOL    HW2 1722   5.106   3.229   2.286
  275SOL     OW 1723   5.727   4.688   5.457
  275SOL    HW1 1724   5.743   4.700   5.358
  275SOL    HW2 1725   5.629   4.678   5.474
  276SOL     OW 1726   0.702   0.521   4.668
  276SOL    HW1 1727   0.724   0.453   4.598
  276SOL    HW2 1728   0.774   0.589   4.672
  277SOL     OW 1729   4.186   3.388   5.776
  277SOL    HW1 1730   4.171   3.312   5.713
  277SOL    HW2 1731   4.239   3.355   5.855
  278SOL     OW 1732   6.186   5.036   1.780
  278SOL    HW1 1733   6.117   5.095   1.739
  278SOL    HW2 1734   6.223   5.080   1.862
  279SOL     OW 1735   6.675   3.170   4.122
  279SOL    HW1 1736   6.722   3.245   4.075
  279SOL    HW2 1737   6.719   3.084   4.098
  280SOL     OW 1738   4.419   0.836   2.675
  280SOL    HW1 1739   4.384   0.912   2.619
  280SOL    HW2 1740   4.350   0.809   2.742
  281SOL     OW 1741   5.107   5.803   5.745
  281SOL    HW1 1742   5.084   5.778   5.839
  281SOL    HW2 1743   5.109   5.903   5.736
  282SOL     OW 1744   0.845   1.706   6.853
  282SOL    HW1 1745   0.783   1.677   6.781
  282SOL    HW2 1746   0.918   1.639   6.863
  283SOL     OW 1747   6.348   4.068   1.923
  283SOL    HW1 1748   6.315   4.159   1.901
  283SOL    HW2 1749   6.310   4.038   2.010
  284SOL     OW 1750   5.779   6.852   2.631
  284SOL    HW1 1751   5.875   6.828   2.619
  284SOL    HW2 1752   5.758   6.935   2.580
  285SOL     OW 1753   4.960   6.078   6.181
  285SOL    HW1 1754   4.897   6.052   6.254
  285SOL    HW2 1755   5.053   6.055   6.207
  286SOL     OW 1756   3.621   5.958   5.254
  286SOL    HW1 1757   3.528   5.970   5.289
  286SOL    HW2 1758   3.619   5.960   5.154
  287SOL     OW 1759   3.877   6.362   0.988
  287SOL    HW1 1760   3.968   6.358   0.947
  287SOL    HW2 1761   3.823   6.432   0.941
  288SOL     OW 1762   3.167   0.817   0.753
  288SOL    HW1 1763   3.116   0.798   0.837
  288SOL    HW2 1764   3.256   0.858   0.776
  289SOL     OW 1765   5.211   5.100   4.691
  289SOL    HW1 1766   5.144   5.121   4.762
  289SOL    HW2 1767   5.249   5.009   4.707
  290SOL     OW 1768   2.884   1.083   4.752
  290SOL    HW1 1769   2.875   1.094   4.851
  290SOL    HW2 1770   2.947   1.008   4.731
  291SOL     OW 1771   5.906   1.372   5.036
  291SOL    HW1 1772   5.994   1.399   5.075
  291SOL    HW2 1773   5.838   1.365   5.109
  292SOL     OW 1774   1.948   0.699   3.750
  292SOL    HW1 1775   1.930   0.770   3.683
  292SOL    HW2 1776   2.015   0.733   3.817
  293SOL     OW 1777   5.733   0.879   3.301
  293SOL    HW1 1778   5.660   0.932   3.258
  293SOL    HW2 1779   5.745   0.793   3.252
  294SOL     OW 1780   6.567   0.870   6.551
  294SOL    HW1 1781   6.515   0.793   6.514
  294SOL    HW2 1782   6.612   0.919   6.476
  295SOL     OW 1783   0.538   1.012   5.103
  295SOL    HW1 1784   0.562   1.062   5.186
  295SOL    HW2 1785   0.510   0.919   5.128
  296SOL     OW 1786   6.870   1.198   6.702
  296SOL    HW1 1787   6.897   1.194   6.798
  296SOL    HW2 1788   6.877   1.292   6.669
  297SOL     OW 1789   5.190   4.244   2.684
  297SOL    HW1 1790   5.123   4.309   2.649
  297SOL    HW2 1791   5.143   4.161   2.714
  298SOL     OW 1792   4.047   6.761   5.273
  298SOL    HW1 1793   3.998   6.834   5.225
  298SOL    HW2 1794   3.982   6.693   5.305
  299SOL     OW 1795   0.101   1.115   6.077
  299SOL    HW1 1796   0.190   1.078   6.052
  299SOL    HW2 1797   0.103   1.141   6.174
  300SOL     OW 1798   4.199   6.245   4.536
  300SOL    HW1 1799   4.188   6.344   4.529
  300SOL    HW2 1800   4.143   6.200   4.467
  301SOL     OW 1801   6.549   6.906   5.097
  301SOL    HW1 1802   6.569   6.810   5.118
  301SOL    HW2 1803   6.454   6.926   5.122
  302SOL     OW 1804   0.774   6.699   2.198
  302SOL    HW1 1805   0.856   6.643   2.210
  302SOL    HW2 1806   0.733   6.679   2.109
  303SOL     OW 1807   4.952   5.657   2.646
  303SOL    HW1 1808   4.871   5.599   2.648
  303SOL    HW2 1809   5.033   5.601   2.664
  304SOL     OW 1810   1.497   1.503   5.197
  304SOL    HW1 1811   1.474   1.447   5.118
  304SOL    HW2 1812   1.589   1.480   5.229
  305SOL     OW 1813   2.982   1.906   1.372
  305SOL    HW1 1814   3.075   1.886   1.342
  305SOL    HW2 1815   2.917   1.867   1.306
  306SOL     OW 1816   0.679   6.497   2.979
  306SOL    HW1 1817   0.641   6.442   3.052
  306SOL    HW2 1818   0.767   6.536   3.009
  307SOL     OW 1819   3.987   3.794   4.861
  307SOL    HW1 1820   4.031   3.754   4.781
  307SOL    HW2 1821   3.975   3.724   4.932
  308SOL     OW 1822   6.257   3.135   1.133
  308SOL    HW1 1823   6.347   3.174   1.115
  308SOL    HW2 1824   6.251   3.044   1.093
  309SOL     OW 1825   1.971   5.209   0.436
  309SOL    HW1 1826   2.028   5.288   0.461
  309SOL    HW2 1827   1.876   5.228   0.462
  310SOL     OW 1828   5.107   6.319   5.565
  310SOL    HW1 1829   5.144   6.405   5.601
  310SOL    HW2 1830   5.097   6.253   5.639
  311SOL     OW 1831   1.649   6.373   2.139
  311SOL    HW1 1832   1.713   6.354   2.213
  311SOL    HW2 1833   1.699   6.387   2.054
  312SOL     OW 1834   3.190   0.631   4.457
  312SOL    HW1 1835   3.258   0.626   4.530
  312SOL    HW2 1836   3.236   0.620   4.369
  313SOL     OW 1837   3.803   2.949   3.440
  313SOL    HW1 1838   3.735   3.009   3.397
  313SOL    HW2 1839   3.822   2.981   3.532
  314SOL     OW 1840   2.158   4.531   6.246
  314SOL    HW1 1841   2.192   4.454   6.301
  314SOL    HW2 1842   2.060   4.542   6.262
  315SOL     OW 1843   5.822   6.934   4.593
  315SOL    HW1 1844   5.808   6.881   4.509
  315SOL    HW2 1845   5.760   7.012   4.593
  316SOL     OW 1846   4.103   1.234   4.877
  316SOL    HW1 1847   4.174   1.164   4.864
  316SOL    HW2 1848   4.056   1.217   4.964
  317SOL     OW 1849   0.578   1.383   1.818
  317SOL    HW1 1850   0.651   1.409   1.755
  317SOL    HW2 1851   0.494   1.366   1.767
  318SOL     OW 1852   1.098   1.669   3.622
  318SOL    HW1 1853   1.137   1.753   3.662
  318SOL    HW2 1854   1.036   1.694   3.548
  319SOL     OW 1855   0.129   1.962   2.039
  319SOL    HW1 1856   0.139   1.968   2.139
  319SOL    HW2 1857   0.032   1.955   2.016
  320SOL     OW 1858   5.087   1.260   6.514
  320SOL    HW1 1859   5.089   1.237   6.611
  320SOL    HW2 1860   5.178   1.290   6.485
  321SOL     OW 1861   4.130   3.462   1.174
  321SOL    HW1 1862   4.125   3.381   1.233
  321SOL    HW2 1863   4.132   3.433   1.079
  322SOL     OW 1864   2.959   1.980   0.504
  322SOL    HW1 1865   2.895   1.904   0.512
  322SOL    HW2 1866   3.026   1.960   0.432
  323SOL     OW 1867   0.472   4.625   1.863
  323SOL    HW1 1868   0.401   4.659   1.925
  323SOL    HW2 1869   0.429   4.570   1.790
  324SOL     OW 1870   6.265   0.346   3.546
  324SOL    HW1 1871   6.217   0.431   3.525
  324SOL    HW2 1872   6.330   0.361   3.620
  325SOL     OW 1873   6.523   2.621   0.680
  325SOL    HW1 1874   6.426   2.643   0.691
  325SOL    HW2 1875   6.532   2.528   0.643
  326SOL     OW 1876   6.187   5.904   6.210
  326SOL    HW1 1877   6.186   5.953   6.123
  326SOL    HW2 1878   6.093   5.892   6.243
  327SOL     OW 1879   4.186   6.031   6.362
  327SOL    HW1 1880   4.194   6.043   6.461
  327SOL    HW2 1881   4.204   6.118   6.316
  328SOL     OW 1882   2.299   4.261   3.614
  328SOL    HW1 1883   2.210   4.306   3.608
  328SOL    HW2 1884   2.372   4.329   3.600
  329SOL     OW 1885   3.176   3.088   2.995
  329SOL    HW1 1886   3.225   3.022   2.939
  329SOL    HW2 1887   3.130   3.154   2.936
  330SOL     OW 1888   2.352   3.963   6.522
  330SOL    HW1 1889   2.343   3.996   6.428
  330SOL    HW2 1890   2.409   4.027   6.574
  331SOL     OW 1891   4.979   5.801   3.896
  331SOL    HW1 1892   4.934   5.712   3.900
  331SOL    HW2 1893   5.002   5.822   3.801
  332SOL     OW 1894   6.508   2.323   2.830
  332SOL    HW1 1895   6.496   2.376   2.915
  332SOL    HW2 1896   6.471   2.231   2.844
  333SOL     OW 1897   3.303   6.296   3.649
  333SOL    HW1 1898   3.216   6.249   3.660
  333SOL    HW2 1899   3.296   6.389   3.684
  334SOL     OW 1900   3.722   3.277   4.515
  334SOL    HW1 1901   3.652   3.250   4.581
  334SOL    HW2 1902   3.811   3.241   4.544
  335SOL     OW 1903   4.190   1.189   0.216
  335SOL    HW1 1904   4.238   1.225   0.296
  335SOL    HW2 1905   4.245   1.119   0.172
  336SOL     OW 1906   3.708   1.983   4.768
  336SOL    HW1 1907   3.729   1.975   4.866
  336SOL    HW2 1908   3.610   1.989   4.755
  337SOL     OW 1909   1.293   1.813   5.173
  337SOL    HW1 1910   1.348   1.859   5.243
  337SOL    HW2 1911   1.229   1.879   5.133
  338SOL     OW 1912   4.866   1.486   1.840
  338SOL    HW1 1913   4.892   1.548   1.915
  338SOL    HW2 1914   4.771   1.458   1.853
  339SOL     OW 1915   3.344   4.951   5.519
  339SOL    HW1 1916   3.387   5.001   5.595
  339SOL    HW2 1917   3.398   4.965   5.436
  340SOL     OW 1918   5.510   3.919   4.631
  340SOL    HW1 1919   5.472   3.915   4.723
  340SOL    HW2 1920   5.506   3.828   4.589
  341SOL     OW 1921   6.053   0.313   1.729
  341SOL    HW1 1922   6.038   0.365   1.814
  341SOL    HW2 1923   6.109   0.233   1.749
  342SOL     OW 1924   4.709   0.939   1.417
  342SOL    HW1 1925   4.610   0.950   1.407
  342SOL    HW2 1926   4.755   1.007   1.360
  343SOL     OW 1927   5.467   0.459   2.025
  343SOL    HW1 1928   5.514   0.444   1.938
  343SOL    HW2 1929   5.379   0.411   2.024
  344SOL     OW 1930   6.592   2.748   1.415
  344SOL    HW1 1931   6.580   2.652   1.388
  344SOL    HW2 1932   6.522   2.804   1.369
  345SOL     OW 1933   0.356   3.399   3.707
  345SOL    HW1 1934   0.313   3.405   3.616
  345SOL    HW2 1935   0.430   3.332   3.704
  346SOL     OW 1936   0.723   0.299   3.115
  346SOL    HW1 1937   0.676   0.216   3.086
  346SOL    HW2 1938   0.819   0.279   3.132
  347SOL     OW 1939   1.757   4.289   1.399
  347SOL    HW1 1940   1.819   4.212   1.384
  347SOL    HW2 1941   1.789   4.368   1.347
  348SOL     OW 1942   5.777   4.974   0.916
  348SOL    HW1 1943   5.803   4.999   0.823
  348SOL    HW2 1944   5.840   4.904   0.950
  349SOL     OW 1945   6.106   5.492   6.961
  349SOL    HW1 1946   6.064   5.542   6.885
  349SOL    HW2 1947   6.091   5.394   6.950
  350SOL     OW 1948   2.414   0.149   0.693
  350SOL    HW1 1949   2.353   0.093   0.636
  350SOL    HW2 1950   2.486   0.188   0.636
  351SOL     OW 1951   3.501   4.305   1.105
  351SOL    HW1 1952   3.419   4.303   1.048
  351SOL    HW2 1953   3.571   4.247   1.064
  352SOL     OW 1954   3.830   0.707   2.224
  352SOL    HW1 1955   3.856   0.686   2.318
  352SOL    HW2 1956   3.735   0.741   2.223
  353SOL     OW 1957   2.684   6.096   0.377
  353SOL    HW1 1958   2.648   6.065   0.289
  353SOL    HW2 1959   2.609   6.135   0.431
  354SOL     OW 1960   2.427   2.251   0.483
  354SOL    HW1 1961   2.492   2.194   0.533
  354SOL    HW2 1962   2.341   2.257   0.535
  355SOL     OW 1963   0.479   2.474   2.101
  355SOL    HW1 1964   0.388   2.440   2.079
  355SOL    HW2 1965   0.473   2.569   2.132
  356SOL     OW 1966   3.076   0.096   5.831
  356SOL    HW1 1967   3.024   0.015   5.803
  356SOL    HW2 1968   3.021   0.150   5.895
  357SOL     OW 1969   6.312   6.184   4.455
  357SOL    HW1 1970   6.371   6.166   4.533
  357SOL    HW2 1971   6.234   6.121   4.457
  358SOL     OW 1972   3.445   5.900   0.225
  358SOL    HW1 1973   3.355   5.887   0.267
  358SOL    HW2 1974   3.515   5.901   0.297
  359SOL     OW 1975   1.805   2.344   0.735
  359SOL    HW1 1976   1.863   2.417   0.770
  359SOL    HW2 1977   1.814   2.337   0.636
  360SOL     OW 1978   2.066   4.255   2.827
  360SOL    HW1 1979   2.039   4.160   2.814
  360SOL    HW2 1980   2.098   4.293   2.740
  361SOL     OW 1981   6.228   3.062   2.288
  361SOL    HW1 1982   6.155   3.058   2.357
  361SOL    HW2 1983   6.292   3.135   2.311
  362SOL     OW 1984   3.986   3.833   2.935
  362SOL    HW1 1985   3.959   3.793   2.847
  362SOL    HW2 1986   4.052   3.772   2.980
  363SOL     OW 1987   4.896   5.370   0.886
  363SOL    HW1 1988   4.979   5.318   0.869
  363SOL    HW2 1989   4.890   5.392   0.983
  364SOL     OW 1990   1.155   0.607   0.423
  364SOL    HW1 1991   1.178   0.688   0.477
  364SOL    HW2 1992   1.219   0.533   0.443
  365SOL     OW 1993   4.813   0.509   3.973
  365SOL    HW1 1994   4.863   0.562   4.042
  365SOL    HW2 1995   4.800   0.565   3.891
  366SOL     OW 1996   5.378   1.547   0.098
  366SOL    HW1 1997   5.395   1.640   0.068
  366SOL    HW2 1998   5.456   1.515   0.153
  367SOL     OW 1999   6.188   0.070   6.950
  367SOL    HW1 2000   6.238   0.020   6.880
  367SOL    HW2 2001   6.175   0.012   0.008
  368SOL     OW 2002   2.771   1.156   5.613
  368SOL    HW1 2003   2.840   1.102   5.564
  368SOL    HW2 2004   2.685   1.152   5.563
  369SOL     OW 2005   4.974   3.906   0.074
  369SOL    HW1 2006   4.938   3.869   0.160
  369SOL    HW2 2007   5.050   3.967   0.093
  370SOL     OW 2008   1.928   2.133   3.817
  370SOL    HW1 2009   1.883   2.061   3.763
  370SOL    HW2 2010   1.997   2.178   3.761
  371SOL     OW 2011   2.857   4.665   0.610
  371SOL    HW1 2012   2.832   4.608   0.688
  371SOL    HW2 2013   2.786   4.734   0.596
  372SOL     OW 2014   2.975   6.070   6.014
  372SOL    HW1 2015   3.008   6.160   6.044
  372SOL    HW2 2016   2.925   6.079   5.929
  373SOL     OW 2017   5.441   4.280   2.786
  373SOL    HW1 2018   5.355   4.275   2.734
  373SOL    HW2 2019   5.466   4.189   2.818
  374SOL     OW 2020   2.549   2.545   2.340
  374SOL    HW1 2021   2.496   2.624   2.308
  374SOL    HW2 2022   2.554   2.546   2.440
  375SOL     OW 2023   0.175   5.176   3.777
  375SOL    HW1 2024   0.125   5.114   3.836
  375SOL    HW2 2025   0.151   5.271   3.800
  376SOL     OW 2026   4.430   0.628   3.474
  376SOL    HW1 2027   4.416   0.558   3.543
  376SOL    HW2 2028   4.519   0.616   3.431
  377SOL     OW 2029   2.628   3.298   6.041
  377SOL    HW1 2030   2.536   3.273   6.071
  377SOL    HW2 2031   2.640   3.397   6.051
  378SOL     OW 2032   4.193   0.610   1.231
  378SOL    HW1 2033   4.106   0.619   1.184
  378SOL    HW2 2034   4.188   0.535   1.297
  379SOL     OW 2035   3.184   3.578   0.211
  379SOL    HW1 2036   3.172   3.567   0.310
  379SOL    HW2 2037   3.231   3.498   0.174
  380SOL     OW 2038   4.798   1.635   0.251
  380SOL    HW1 2039   4.740   1.645   0.332
  380SOL    HW2 2040   4.842   1.722   0.230
  381SOL     OW 2041   0.530   3.219   2.099
  381SOL    HW1 2042   0.508   3.128   2.063
  381SOL    HW2 2043   0.482   3.234   2.185
  382SOL     OW 2044   6.198   0.326   0.754
  382SOL    HW1 2045   6.250   0.241   0.757
  382SOL    HW2 2046   6.150   0.333   0.666
  383SOL     OW 2047   5.308   3.194   1.106
  383SOL    HW1 2048   5.243   3.262   1.070
  383SOL    HW2 2049   5.372   3.240   1.167
  384SOL     OW 2050   0.878   2.975   4.678
  384SOL    HW1 2051   0.789   2.948   4.643
  384SOL    HW2 2052   0.944   2.981   4.603
  385SOL     OW 2053   5.002   3.081   6.999
  385SOL    HW1 2054   5.015   3.010   6.931
  385SOL    HW2 2055   5.074   3.150   6.990
  386SOL     OW 2056   3.261   5.884   5.114
  386SOL    HW1 2057   3.218   5.939   5.043
  386SOL    HW2 2058   3.215   5.796   5.121
  387SOL     OW 2059   2.107   6.469   3.703
  387SOL    HW1 2060   2.059   6.504   3.623
  387SOL    HW2 2061   2.159   6.542   3.746
  388SOL     OW 2062   1.142   5.469   5.637
  388SOL    HW1 2063   1.171   5.385   5.683
  388SOL    HW2 2064   1.166   5.547   5.694
  389SOL     OW 2065   3.682   2.419   0.160
  389SOL    HW1 2066   3.768   2.375   0.187
  389SOL    HW2 2067   3.635   2.363   0.091
  390SOL     OW 2068   3.330   1.492   4.324
  390SOL    HW1 2069   3.268   1.415   4.312
  390SOL    HW2 2070   3.295   1.571   4.275
  391SOL     OW 2071   0.685   1.452   0.482
  391SOL    HW1 2072   0.652   1.373   0.431
  391SOL    HW2 2073   0.609   1.492   0.534
  392SOL     OW 2074   4.202   5.555   4.319
  392SOL    HW1 2075   4.153   5.476   4.282
  392SOL    HW2 2076   4.277   5.580   4.258
  393SOL     OW 2077   6.226   2.871   5.943
  393SOL    HW1 2078   6.191   2.880   5.850
  393SOL    HW2 2079   6.151   2.851   6.006
  394SOL     OW 2080   1.770   1.246   6.500
  394SOL    HW1 2081   1.761   1.251   6.401
  394SOL    HW2 2082   1.844   1.305   6.530
  395SOL     OW 2083   0.188   3.248   0.939
  395SOL    HW1 2084   0.153   3.164   0.897
  395SOL    HW2 2085   0.144   3.327   0.897
  396SOL     OW 2086   4.256   2.725   5.494
  396SOL    HW1 2087   4.303   2.678   5.419
  396SOL    HW2 2088   4.158   2.704   5.490
  397SOL     OW 2089   4.762   0.079   6.634
  397SOL    HW1 2090   4.844   0.025   6.615
  397SOL    HW2 2091   4.708   0.033   6.705
  398SOL     OW 2092   6.075   4.286   2.595
  398SOL    HW1 2093   6.010   4.246   2.530
  398SOL    HW2 2094   6.105   4.216   2.660
  399SOL     OW 2095   2.932   5.701   1.271
  399SOL    HW1 2096   3.025   5.715   1.239
  399SOL    HW2 2097   2.899   5.612   1.240
  400SOL     OW 2098   2.304   4.492   5.724
  400SOL    HW1 2099   2.399   4.491   5.695
  400SOL    HW2 2100   2.248   4.442   5.658
  401SOL     OW 2101   6.119   1.417   1.534
  401SOL    HW1 2102   6.037   1.367   1.562
  401SOL    HW2 2103   6.152   1.380   1.447
  402SOL     OW 2104   0.407   5.552   0.730
  402SOL    HW1 2105   0.430   5.486   0.658
  402SOL    HW2 2106   0.426   5.512   0.819
  403SOL     OW 2107   4.947   5.065   0.504
  403SOL    HW1 2108   4.982   5.069   0.411
  403SOL    HW2 2109   4.876   5.135   0.517
  404SOL     OW 2110   6.996   5.857   4.624
  404SOL    HW1 2111   7.018   5.955   4.629
  404SOL    HW2 2112   0.025   5.815   4.548
  405SOL     OW 2113   1.238   1.424   1.585
  405SOL    HW1 2114   1.255   1.345   1.526
  405SOL    HW2 2115   1.274   1.405   1.676
  406SOL     OW 2116   1.154   3.146   3.710
  406SOL    HW1 2117   1.128   3.175   3.618
  406SOL    HW2 2118   1.234   3.086   3.704
  407SOL     OW 2119   3.244   2.056   4.027
  407SOL    HW1 2120   3.211   2.112   4.104
  407SOL    HW2 2121   3.198   2.084   3.943
  408SOL     OW 2122   2.278   0.406   3.721
  408SOL    HW1 2123   2.316   0.437   3.808
  408SOL    HW2 2124   2.184   0.438   3.712
  409SOL     OW 2125   0.208   4.465   4.424
  409SOL    HW1 2126   0.307   4.463   4.433
  409SOL    HW2 2127   0.167   4.441   4.512
  410SOL     OW 2128   2.646   6.499   6.028
  410SOL    HW1 2129   2.642   6.467   6.123
  410SOL    HW2 2130   2.666   6.422   5.968
  411SOL     OW 2131   0.242   4.321   5.595
  411SOL    HW1 2132   0.247   4.373   5.680
  411SOL    HW2 2133   0.302   4.363   5.527
  412SOL     OW 2134   3.388   6.311   2.981
  412SOL    HW1 2135   3.468   6.302   2.921
  412SOL    HW2 2136   3.381   6.405   3.014
  413SOL     OW 2137   1.831   0.530   1.925
  413SOL    HW1 2138   1.849   0.623   1.892
  413SOL    HW2 2139   1.885   0.513   2.007
  414SOL     OW 2140   5.117   4.732   0.780
  414SOL    HW1 2141   5.179   4.741   0.858
  414SOL    HW2 2142   5.046   4.665   0.801
  415SOL     OW 2143   3.975   0.076   3.142
  415SOL    HW1 2144   4.070   0.107   3.145
  415SOL    HW2 2145   3.954   0.039   3.052
  416SOL     OW 2146   3.546   5.676   0.100
  416SOL    HW1 2147   3.533   5.740   0.176
  416SOL    HW2 2148   3.537   5.582   0.133
  417SOL     OW 2149   5.200   5.544   0.774
  417SOL    HW1 2150   5.166   5.578   0.687
  417SOL    HW2 2151   5.154   5.593   0.849
  418SOL     OW 2152   0.088   5.194   6.422
  418SOL    HW1 2153   0.035   5.275   6.448
  418SOL    HW2 2154   0.025   5.123   6.389
  419SOL     OW 2155   4.879   5.408   6.560
  419SOL    HW1 2156   4.967   5.424   6.515
  419SOL    HW2 2157   4.867   5.475   6.634
  420SOL     OW 2158   5.805   3.957   6.625
  420SOL    HW1 2159   5.718   3.930   6.667
  420SOL    HW2 2160   5.787   4.010   6.542
  421SOL     OW 2161   1.603   5.955   6.272
  421SOL    HW1 2162   1.696   5.933   6.241
  421SOL    HW2 2163   1.549   5.871   6.277
  422SOL     OW 2164   6.431   3.741   6.484
  422SOL    HW1 2165   6.363   3.770   6.417
  422SOL    HW2 2166   6.401   3.657   6.529
  423SOL     OW 2167   0.990   3.247   6.140
  423SOL    HW1 2168   0.902   3.260   6.186
  423SOL    HW2 2169   0.990   3.160   6.091
  424SOL     OW 2170   2.332   4.423   6.057
  424SOL    HW1 2171   2.322   4.505   6.114
  424SOL    HW2 2172   2.329   4.450   5.961
  425SOL     OW 2173   2.654   0.625   0.634
  425SOL    HW1 2174   2.659   0.708   0.577
  425SOL    HW2 2175   2.563   0.620   0.676
  426SOL     OW 2176   0.677   3.617   0.053
  426SOL    HW1 2177   0.696   3.520   0.035
  426SOL    HW2 2178   0.627   3.625   0.139
  427SOL     OW 2179   4.140   2.925   0.196
  427SOL    HW1 2180   4.171   2.928   0.291
  427SOL    HW2 2181   4.104   3.015   0.171
  428SOL     OW 2182   3.846   1.339   4.699
  428SOL    HW1 2183   3.783   1.398   4.751
  428SOL    HW2 2184   3.925   1.316   4.756
  429SOL     OW 2185   3.766   6.353   0.393
  429SOL    HW1 2186   3.802   6.373   0.484
  429SOL    HW2 2187   3.675   6.393   0.384
  430SOL     OW 2188   2.834   0.825   4.535
  430SOL    HW1 2189   2.885   0.773   4.603
  430SOL    HW2 2190   2.894   0.894   4.494
  431SOL     OW 2191   3.749   1.048   6.691
  431SOL    HW1 2192   3.816   1.034   6.764
  431SOL    HW2 2193   3.674   0.983   6.700
  432SOL     OW 2194   6.574   1.358   1.050
  432SOL    HW1 2195   6.598   1.384   1.143
  432SOL    HW2 2196   6.586   1.260   1.039
  433SOL     OW 2197   3.497   6.290   5.189
  433SOL    HW1 2198   3.569   6.240   5.141
  433SOL    HW2 2199   3.427   6.318   5.124
  434SOL     OW 2200   6.428   3.271   0.691
  434SOL    HW1 2201   6.348   3.329   0.678
  434SOL    HW2 2202   6.488   3.278   0.612
  435SOL     OW 2203   3.787   3.219   0.689
  435SOL    HW1 2204   3.717   3.204   0.759
  435SOL    HW2 2205   3.849   3.291   0.720
  436SOL     OW 2206   2.459   1.434   1.241
  436SOL    HW1 2207   2.379   1.473   1.195
  436SOL    HW2 2208   2.485   1.348   1.197
  437SOL     OW 2209   6.294   6.547   6.100
  437SOL    HW1 2210   6.305   6.560   6.199
  437SOL    HW2 2211   6.198   6.529   6.079
  438SOL     OW 2212   1.452   3.468   0.653
  438SOL    HW1 2213   1.492   3.383   0.686
  438SOL    HW2 2214   1.361   3.449   0.614
  439SOL     OW 2215   6.571   5.119   1.653
  439SOL    HW1 2216   6.505   5.049   1.625
  439SOL    HW2 2217   6.552   5.148   1.747
  440SOL     OW 2218   1.462   3.154   2.516
  440SOL    HW1 2219   1.550   3.200   2.501
  440SOL    HW2 2220   1.455   3.127   2.612
  441SOL     OW 2221   0.134   1.176   3.324
  441SOL    HW1 2222   0.165   1.088   3.362
  441SOL    HW2 2223   0.110   1.164   3.228
  442SOL     OW 2224   1.258   5.200   6.251
  442SOL    HW1 2225   1.219   5.111   6.227
  442SOL    HW2 2226   1.216   5.233   6.335
  443SOL     OW 2227   0.111   4.870   5.951
  443SOL    HW1 2228   0.088   4.775   5.974
  443SOL    HW2 2229   0.028   4.925   5.950
  444SOL     OW 2230   5.316   3.040   6.807
  444SOL    HW1 2231   5.377   3.060   6.731
  444SOL    HW2 2232   5.275   3.125   6.840
  445SOL     OW 2233   1.155   3.265   3.041
  445SOL    HW1 2234   1.134   3.171   3.069
  445SOL    HW2 2235   1.198   3.263   2.950
  446SOL     OW 2236   2.019   4.920   4.344
  446SOL    HW1 2237   1.975   4.846   4.395
  446SOL    HW2 2238   2.060   4.985   4.407
  447SOL     OW 2239   0.716   6.204   0.838
  447SOL    HW1 2240   0.733   6.123   0.782
  447SOL    HW2 2241   0.642   6.185   0.903
  448SOL     OW 2242   4.538   0.901   5.561
  448SOL    HW1 2243   4.484   0.839   5.504
  448SOL    HW2 2244   4.492   0.915   5.648
  449SOL     OW 2245   5.253   0.786   4.608
  449SOL    HW1 2246   5.274   0.841   4.688
  449SOL    HW2 2247   5.179   0.722   4.629
  450SOL     OW 2248   6.657   5.974   2.905
  450SOL    HW1 2249   6.685   6.068   2.885
  450SOL    HW2 2250   6.730   5.926   2.953
  451SOL     OW 2251   5.967   3.960   3.641
  451SOL    HW1 2252   6.046   4.006   3.599
  451SOL    HW2 2253   5.950   3.999   3.732
  452SOL     OW 2254   6.550   4.806   5.872
  452SOL    HW1 2255   6.576   4.853   5.788
  452SOL    HW2 2256   6.632   4.776   5.921
  453SOL     OW 2257   3.515   1.559   6.492
  453SOL    HW1 2258   3.554   1.614   6.418
  453SOL    HW2 2259   3.441   1.609   6.535
  454SOL     OW 2260   0.925   6.325   0.591
  454SOL    HW1 2261   1.013   6.318   0.544
  454SOL    HW2 2262   0.903   6.237   0.633
  455SOL     OW 2263   5.198   1.617   4.942
  455SOL    HW1 2264   5.212   1.685   5.014
  455SOL    HW2 2265   5.283   1.604   4.892
  456SOL     OW 2266   4.232   5.278   0.562
  456SOL    HW1 2267   4.158   5.342   0.582
  456SOL    HW2 2268   4.209   5.225   0.481
  457SOL     OW 2269   0.606   4.255   1.593
  457SOL    HW1 2270   0.639   4.295   1.678
  457SOL    HW2 2271   0.552   4.323   1.542
  458SOL     OW 2272   0.721   6.806   5.662
  458SOL    HW1 2273   0.735   6.711   5.689
  458SOL    HW2 2274   0.765   6.823   5.574
  459SOL     OW 2275   0.972   0.486   3.407
  459SOL    HW1 2276   0.909   0.419   3.368
  459SOL    HW2 2277   0.938   0.578   3.391
  460SOL     OW 2278   6.513   2.275   3.134
  460SOL    HW1 2279   6.464   2.362   3.136
  460SOL    HW2 2280   6.510   2.233   3.225
  461SOL     OW 2281   5.247   4.740   6.052
  461SOL    HW1 2282   5.267   4.836   6.035
  461SOL    HW2 2283   5.188   4.705   5.978
  462SOL     OW 2284   3.147   2.607   0.198
  462SOL    HW1 2285   3.171   2.551   0.119
  462SOL    HW2 2286   3.058   2.577   0.234
  463SOL     OW 2287   6.012   6.000   2.238
  463SOL    HW1 2288   6.000   6.082   2.294
  463SOL    HW2 2289   6.106   5.997   2.203
  464SOL     OW 2290   1.717   1.985   5.882
  464SOL    HW1 2291   1.659   1.932   5.943
  464SOL    HW2 2292   1.711   1.947   5.789
  465SOL     OW 2293   0.360   3.652   6.342
  465SOL    HW1 2294   0.370   3.703   6.256
  465SOL    HW2 2295   0.268   3.614   6.347
  466SOL     OW 2296   1.661   0.482   3.437
  466SOL    HW1 2297   1.731   0.552   3.450
  466SOL    HW2 2298   1.588   0.495   3.504
  467SOL     OW 2299   1.862   1.673   5.024
  467SOL    HW1 2300   1.851   1.763   5.065
  467SOL    HW2 2301   1.957   1.644   5.034
  468SOL     OW 2302   2.927   3.660   3.356
  468SOL    HW1 2303   2.916   3.718   3.436
  468SOL    HW2 2304   2.907   3.565   3.381
  469SOL     OW 2305   3.788   6.828   6.560
  469SOL    HW1 2306   3.700   6.784   6.542
  469SOL    HW2 2307   3.807   6.894   6.487
  470SOL     OW 2308   4.771   6.925   3.218
  470SOL    HW1 2309   4.832   6.969   3.151
  470SOL    HW2 2310   4.824   6.899   3.299
  471SOL     OW 2311   2.602   2.465   4.053
  471SOL    HW1 2312   2.692   2.422   4.049
  471SOL    HW2 2313   2.588   2.521   3.972
  472SOL     OW 2314   4.004   4.381   5.319
  472SOL    HW1 2315   4.097   4.403   5.292
  472SOL    HW2 2316   3.971   4.304   5.264
  473SOL     OW 2317   0.108   4.446   4.021
  473SOL    HW1 2318   0.204   4.465   4.041
  473SOL    HW2 2319   0.052   4.473   4.099
  474SOL     OW 2320   4.891   4.628   5.675
  474SOL    HW1 2321   4.920   4.621   5.771
  474SOL    HW2 2322   4.934   4.555   5.623
  475SOL     OW 2323   2.484   6.282   0.219
  475SOL    HW1 2324   2.396   6.250   0.255
  475SOL    HW2 2325   2.520   6.355   0.277
  476SOL     OW 2326   6.478   5.775   3.359
  476SOL    HW1 2327   6.425   5.691   3.374
  476SOL    HW2 2328   6.468   5.803   3.263
  477SOL     OW 2329   1.779   4.507   4.328
  477SOL    HW1 2330   1.819   4.423   4.292
  477SOL    HW2 2331   1.680   4.503   4.318
  478SOL     OW 2332   1.268   4.938   3.715
  478SOL    HW1 2333   1.355   4.897   3.743
  478SOL    HW2 2334   1.258   4.931   3.616
  479SOL     OW 2335   4.564   1.930   2.066
  479SOL    HW1 2336   4.467   1.934   2.091
  479SOL    HW2 2337   4.616   1.990   2.127
  480SOL     OW 2338   1.568   6.115   3.882
  480SOL    HW1 2339   1.566   6.166   3.968
  480SOL    HW2 2340   1.492   6.049   3.882
  481SOL     OW 2341   1.883   0.354   1.133
  481SOL    HW1 2342   1.852   0.403   1.214
  481SOL    HW2 2343   1.975   0.386   1.108
  482SOL     OW 2344   5.425   5.549   0.411
  482SOL    HW1 2345   5.464   5.559   0.503
  482SOL    HW2 2346   5.339   5.498   0.417
  483SOL     OW 2347   5.439   2.047   2.921
  483SOL    HW1 2348   5.469   2.112   2.851
  483SOL    HW2 2349   5.507   1.974   2.931
  484SOL     OW 2350   6.531   1.573   4.018
  484SOL    HW1 2351   6.612   1.545   4.070
  484SOL    HW2 2352   6.557   1.641   3.950
  485SOL     OW 2353   2.706   5.948   1.135
  485SOL    HW1 2354   2.698   5.849   1.119
  485SOL    HW2 2355   2.627   5.995   1.095
  486SOL     OW 2356   0.189   0.674   5.916
  486SOL    HW1 2357   0.178   0.613   5.994
  486SOL    HW2 2358   0.277   0.657   5.872
  487SOL     OW 2359   6.934   2.615   6.500
  487SOL    HW1 2360   6.848   2.639   6.454
  487SOL    HW2 2361   6.915   2.548   6.572
  488SOL     OW 2362   0.908   4.727   3.028
  488SOL    HW1 2363   0.887   4.823   3.009
  488SOL    HW2 2364   0.974   4.694   2.960
  489SOL     OW 2365   3.362   5.651   6.026
  489SOL    HW1 2366   3.384   5.674   6.121
  489SOL    HW2 2367   3.428   5.694   5.965
  490SOL     OW 2368   5.542   0.239   4.286
  490SOL    HW1 2369   5.537   0.148   4.245
  490SOL    HW2 2370   5.562   0.307   4.215
  491SOL     OW 2371   0.948   2.770   3.381
  491SOL    HW1 2372   0.986   2.680   3.357
  491SOL    HW2 2373   0.968   2.790   3.477
  492SOL     OW 2374   1.827   1.296   4.757
  492SOL    HW1 2375   1.897   1.364   4.735
  492SOL    HW2 2376   1.745   1.314   4.704
  493SOL     OW 2377   6.086   4.116   4.346
  493SOL    HW1 2378   6.115   4.030   4.388
  493SOL    HW2 2379   6.162   4.182   4.350
  494SOL     OW 2380   5.966   0.945   6.710
  494SOL    HW1 2381   5.975   0.882   6.633
  494SOL    HW2 2382   5.956   1.038   6.676
  495SOL     OW 2383   5.165   4.421   0.278
  495SOL    HW1 2384   5.204   4.505   0.317
  495SOL    HW2 2385   5.216   4.343   0.313
  496SOL     OW 2386   6.108   3.614   2.484
  496SOL    HW1 2387   6.027   3.650   2.532
  496SOL    HW2 2388   6.086   3.602   2.387
  497SOL     OW 2389   4.430   6.671   4.256
  497SOL    HW1 2390   4.358   6.606   4.233
  497SOL    HW2 2391   4.481   6.637   4.335
  498SOL     OW 2392   1.273   3.283   0.934
  498SOL    HW1 2393   1.198   3.286   0.999
  498SOL    HW2 2394   1.307   3.189   0.926
  499SOL     OW 2395   3.614   1.455   4.817
  499SOL    HW1 2396   3.538   1.432   4.757
  499SOL    HW2 2397   3.605   1.550   4.847
  500SOL     OW 2398   1.254   4.483   2.534
  500SOL    HW1 2399   1.335   4.425   2.542
  500SOL    HW2 2400   1.281   4.578   2.520
  501SOL     OW 2401   0.629   4.968   6.149
  501SOL    HW1 2402   0.719   5.000   6.181
  501SOL    HW2 2403   0.562   4.980   6.222
  502SOL     OW 2404   2.058   5.133   6.246
  502SOL    HW1 2405   2.082   5.207   6.308
  502SOL    HW2 2406   2.025   5.171   6.160
  503SOL     OW 2407   6.643   5.235   4.331
  503SOL    HW1 2408   6.576   5.161   4.321
  503SOL    HW2 2409   6.604   5.319   4.295
  504SOL     OW 2410   1.456   5.230   4.840
  504SOL    HW1 2411   1.462   5.269   4.932
  504SOL    HW2 2412   1.360   5.215   4.816
  505SOL     OW 2413   3.483   6.881   4.963
  505SOL    HW1 2414   3.432   6.810   5.012
  505SOL    HW2 2415   3.496   6.853   4.868
  506SOL     OW 2416   2.025   3.299   0.664
  506SOL    HW1 2417   1.947   3.292   0.727
  506SOL    HW2 2418   1.992   3.311   0.571
  507SOL     OW 2419   3.978   2.037   4.650
  507SOL    HW1 2420   3.984   1.960   4.586
  507SOL    HW2 2421   3.882   2.059   4.667
  508SOL     OW 2422   6.298   5.280   4.319
  508SOL    HW1 2423   6.340   5.367   4.293
  508SOL    HW2 2424   6.200   5.283   4.297
  509SOL     OW 2425   4.762   3.017   1.638
  509SOL    HW1 2426   4.742   3.037   1.734
  509SOL    HW2 2427   4.764   3.103   1.586
  510SOL     OW 2428   0.926   4.222   4.142
  510SOL    HW1 2429   0.906   4.144   4.201
  510SOL    HW2 2430   0.920   4.192   4.046
  511SOL     OW 2431   0.473   5.991   1.309
  511SOL    HW1 2432   0.513   6.079   1.337
  511SOL    HW2 2433   0.519   5.959   1.226
  512SOL     OW 2434   1.896   3.774   5.890
  512SOL    HW1 2435   1.844   3.698   5.851
  512SOL    HW2 2436   1.887   3.772   5.990
  513SOL     OW 2437   0.618   4.811   4.201
  513SOL    HW1 2438   0.657   4.902   4.219
  513SOL    HW2 2439   0.578   4.775   4.286
  514SOL     OW 2440   5.275   1.703   3.470
  514SOL    HW1 2441   5.262   1.802   3.467
  514SOL    HW2 2442   5.281   1.672   3.565
  515SOL     OW 2443   2.958   5.614   0.171
  515SOL    HW1 2444   3.042   5.624   0.117
  515SOL    HW2 2445   2.889   5.678   0.138
  516SOL     OW 2446   1.512   4.154   3.560
  516SOL    HW1 2447   1.569   4.080   3.524
  516SOL    HW2 2448   1.562   4.203   3.631
  517SOL     OW 2449   4.864   0.241   6.134
  517SOL    HW1 2450   4.781   0.252   6.080
  517SOL    HW2 2451   4.839   0.228   6.230
  518SOL     OW 2452   1.683   1.187   0.016
  518SOL    HW1 2453   1.602   1.137   7.008
  518SOL    HW2 2454   1.763   1.127   0.013
  519SOL     OW 2455   1.179   6.374   0.003
  519SOL    HW1 2456   1.207   6.442   6.957
  519SOL    HW2 2457   1.217   6.285   7.000
  520SOL     OW 2458   6.148   4.548   4.286
  520SOL    HW1 2459   6.186   4.636   4.314
  520SOL    HW2 2460   6.057   4.535   4.327
  521SOL     OW 2461   6.589   0.803   7.005
  521SOL    HW1 2462   6.518   0.752   6.957
  521SOL    HW2 2463   6.604   0.762   0.074
  522SOL     OW 2464   3.353   3.943   5.718
  522SOL    HW1 2465   3.375   3.849   5.689
  522SOL    HW2 2466   3.367   4.005   5.641
  523SOL     OW 2467   6.514   6.997   3.585
  523SOL    HW1 2468   6.555   6.933   3.520
  523SOL    HW2 2469   6.440   0.026   3.541
  524SOL     OW 2470   4.098   0.844   4.574
  524SOL    HW1 2471   4.194   0.869   4.568
  524SOL    HW2 2472   4.074   0.823   4.669
  525SOL     OW 2473   3.669   2.934   6.791
  525SOL    HW1 2474   3.624   2.956   6.704
  525SOL    HW2 2475   3.642   3.001   6.860
  526SOL     OW 2476   4.600   6.132   4.721
  526SOL    HW1 2477   4.575   6.036   4.732
  526SOL    HW2 2478   4.583   6.181   4.806
  527SOL     OW 2479   0.750   1.658   0.203
  527SOL    HW1 2480   0.690   1.734   0.227
  527SOL    HW2 2481   0.786   1.617   0.287
  528SOL     OW 2482   1.827   2.000   6.163
  528SOL    HW1 2483   1.876   2.000   6.076
  528SOL    HW2 2484   1.880   2.049   6.232
  529SOL     OW 2485   6.880   5.150   4.431
  529SOL    HW1 2486   6.796   5.205   4.428
  529SOL    HW2 2487   6.864   5.066   4.483
  530SOL     OW 2488   0.033   2.793   5.288
  530SOL    HW1 2489   6.978   2.824   5.231
  530SOL    HW2 2490   0.063   2.867   5.347
  531SOL     OW 2491   6.805   0.440   6.987
  531SOL    HW1 2492   6.777   0.344   6.986
  531SOL    HW2 2493   6.904   0.447   6.980
  532SOL     OW 2494   2.030   1.141   5.770
  532SOL    HW1 2495   1.974   1.165   5.849
  532SOL    HW2 2496   2.040   1.042   5.764
  533SOL     OW 2497   4.702   0.732   5.352
  533SOL    HW1 2498   4.688   0.791   5.432
  533SOL    HW2 2499   4.633   0.661   5.351
  534SOL     OW 2500   2.856   5.423   2.858
  534SOL    HW1 2501   2.897   5.375   2.936
  534SOL    HW2 2502   2.765   5.386   2.840
  535SOL     OW 2503   6.251   3.895   1.742
  535SOL    HW1 2504   6.294   3.972   1.790
  535SOL    HW2 2505   6.250   3.914   1.644
  536SOL     OW 2506   1.839   5.954   1.335
  536SOL    HW1 2507   1.866   6.050   1.335
  536SOL    HW2 2508   1.840   5.920   1.241
  537SOL     OW 2509   2.338   6.718   3.081
  537SOL    HW1 2510   2.270   6.666   3.132
  537SOL    HW2 2511   2.292   6.783   3.021
  538SOL     OW 2512   1.427   5.353   4.344
  538SOL    HW1 2513   1.360   5.420   4.312
  538SOL    HW2 2514   1.510   5.359   4.290
  539SOL     OW 2515   1.523   5.460   1.544
  539SOL    HW1 2516   1.595   5.499   1.602
  539SOL    HW2 2517   1.509   5.364   1.568
  540SOL     OW 2518   2.393   2.886   1.168
  540SOL    HW1 2519   2.388   2.786   1.180
  540SOL    HW2 2520   2.322   2.916   1.105
  541SOL     OW 2521   4.773   5.751   4.985
  541SOL    HW1 2522   4.771   5.768   4.886
  541SOL    HW2 2523   4.680   5.759   5.022
  542SOL     OW 2524   5.677   0.256   6.535
  542SOL    HW1 2525   5.775   0.274   6.546
  542SOL    HW2 2526   5.630   0.339   6.506
  543SOL     OW 2527   6.300   6.945   2.070
  543SOL    HW1 2528   6.355   7.009   2.124
  543SOL    HW2 2529   6.206   6.979   2.066
  544SOL     OW 2530   0.709   5.823   0.420
  544SOL    HW1 2531   0.744   5.748   0.476
  544SOL    HW2 2532   0.771   5.901   0.425
  545SOL     OW 2533   2.875   1.697   3.669
  545SOL    HW1 2534   2.908   1.648   3.589
  545SOL    HW2 2535   2.948   1.755   3.706
  546SOL     OW 2536   1.792   2.096   6.515
  546SOL    HW1 2537   1.721   2.090   6.584
  546SOL    HW2 2538   1.880   2.114   6.558
  547SOL     OW 2539   2.930   2.111   0.771
  547SOL    HW1 2540   2.940   2.048   0.694
  547SOL    HW2 2541   3.019   2.150   0.794
  548SOL     OW 2542   3.128   3.480   5.413
  548SOL    HW1 2543   3.111   3.574   5.443
  548SOL    HW2 2544   3.057   3.420   5.448
  549SOL     OW 2545   0.764   4.442   0.778
  549SOL    HW1 2546   0.734   4.347   0.788
  549SOL    HW2 2547   0.854   4.444   0.735
  550SOL     OW 2548   6.542   4.661   0.616
  550SOL    HW1 2549   6.591   4.575   0.632
  550SOL    HW2 2550   6.607   4.732   0.590
  551SOL     OW 2551   0.070   0.393   0.234
  551SOL    HW1 2552   0.009   0.471   0.220
  551SOL    HW2 2553   0.102   0.360   0.145
  552SOL     OW 2554   4.732   5.332   0.136
  552SOL    HW1 2555   4.743   5.425   0.102
  552SOL    HW2 2556   4.793   5.318   0.215
  553SOL     OW 2557   1.207   2.084   1.437
  553SOL    HW1 2558   1.284   2.063   1.376
  553SOL    HW2 2559   1.126   2.103   1.382
  554SOL     OW 2560   4.144   5.260   4.479
  554SOL    HW1 2561   4.194   5.305   4.553
  554SOL    HW2 2562   4.046   5.264   4.499
  555SOL     OW 2563   1.343   4.335   5.777
  555SOL    HW1 2564   1.370   4.341   5.681
  555SOL    HW2 2565   1.360   4.423   5.822
  556SOL     OW 2566   6.784   3.992   2.658
  556SOL    HW1 2567   6.777   3.963   2.753
  556SOL    HW2 2568   6.820   4.085   2.654
  557SOL     OW 2569   6.464   5.751   5.408
  557SOL    HW1 2570   6.517   5.673   5.440
  557SOL    HW2 2571   6.497   5.835   5.452
  558SOL     OW 2572   4.106   3.830   5.691
  558SOL    HW1 2573   4.156   3.868   5.612
  558SOL    HW2 2574   4.055   3.904   5.736
  559SOL     OW 2575   5.564   4.908   6.475
  559SOL    HW1 2576   5.594   4.817   6.446
  559SOL    HW2 2577   5.519   4.901   6.564
  560SOL     OW 2578   4.152   6.619   0.515
  560SOL    HW1 2579   4.084   6.619   0.442
  560SOL    HW2 2580   4.216   6.544   0.501
  561SOL     OW 2581   5.094   7.005   2.205
  561SOL    HW1 2582   5.037   7.002   2.122
  561SOL    HW2 2583   5.163   0.055   2.195
  562SOL     OW 2584   6.078   0.125   1.098
  562SOL    HW1 2585   6.048   0.032   1.119
  562SOL    HW2 2586   6.177   0.133   1.111
  563SOL     OW 2587   2.709   0.397   5.134
  563SOL    HW1 2588   2.641   0.460   5.170
  563SOL    HW2 2589   2.722   0.322   5.198
  564SOL     OW 2590   1.017   1.336   5.347
  564SOL    HW1 2591   1.068   1.253   5.322
  564SOL    HW2 2592   1.016   1.398   5.269
  565SOL     OW 2593   4.371   3.617   5.924
  565SOL    HW1 2594   4.313   3.638   5.845
  565SOL    HW2 2595   4.381   3.699   5.981
  566SOL     OW 2596   0.022   4.422   2.280
  566SOL    HW1 2597   0.016   4.328   2.315
  566SOL    HW2 2598   6.952   4.457   2.263
  567SOL     OW 2599   3.919   3.623   6.146
  567SOL    HW1 2600   3.990   3.617   6.216
  567SOL    HW2 2601   3.961   3.615   6.055
  568SOL     OW 2602   2.671   0.939   6.596
  568SOL    HW1 2603   2.756   0.944   6.648
  568SOL    HW2 2604   2.687   0.969   6.502
  569SOL     OW 2605   1.723   4.195   6.796
  569SOL    HW1 2606   1.734   4.226   6.701
  569SOL    HW2 2607   1.811   4.200   6.843
  570SOL     OW 2608   0.125   5.788   6.877
  570SOL    HW1 2609   0.209   5.838   6.854
  570SOL    HW2 2610   0.144   5.723   6.950
  571SOL     OW 2611   4.641   6.024   2.520
  571SOL    HW1 2612   4.668   5.980   2.606
  571SOL    HW2 2613   4.557   6.077   2.535
  572SOL     OW 2614   1.574   3.662   3.638
  572SOL    HW1 2615   1.653   3.609   3.608
  572SOL    HW2 2616   1.554   3.640   3.734
  573SOL     OW 2617   4.221   2.488   6.955
  573SOL    HW1 2618   4.165   2.536   0.002
  573SOL    HW2 2619   4.166   2.472   6.873
  574SOL     OW 2620   2.627   1.794   3.594
  574SOL    HW1 2621   2.611   1.837   3.683
  574SOL    HW2 2622   2.715   1.746   3.595
  575SOL     OW 2623   4.601   2.561   6.134
  575SOL    HW1 2624   4.503   2.543   6.122
  575SOL    HW2 2625   4.655   2.488   6.092
  576SOL     OW 2626   0.782   3.383   3.243
  576SOL    HW1 2627   0.831   3.309   3.288
  576SOL    HW2 2628   0.843   3.431   3.180
  577SOL     OW 2629   4.257   2.033   3.415
  577SOL    HW1 2630   4.266   2.130   3.393
  577SOL    HW2 2631   4.160   2.008   3.417
  578SOL     OW 2632   6.874   3.815   4.524
  578SOL    HW1 2633   6.907   3.874   4.598
  578SOL    HW2 2634   6.945   3.806   4.455
  579SOL     OW 2635   4.352   3.447   0.861
  579SOL    HW1 2636   4.403   3.364   0.838
  579SOL    HW2 2637   4.371   3.472   0.956
  580SOL     OW 2638   0.218   0.045   0.305
  580SOL    HW1 2639   0.286   0.051   0.231
  580SOL    HW2 2640   0.224   0.128   0.361
  581SOL     OW 2641   3.972   3.337   3.727
  581SOL    HW1 2642   3.873   3.352   3.721
  581SOL    HW2 2643   3.992   3.288   3.812
  582SOL     OW 2644   0.105   4.419   0.231
  582SOL    HW1 2645   0.113   4.411   0.330
  582SOL    HW2 2646   0.009   4.433   0.207
  583SOL     OW 2647   2.808   0.033   6.646
  583SOL    HW1 2648   2.884   0.006   6.706
  583SOL    HW2 2649   2.834   0.021   6.551
  584SOL     OW 2650   1.557   5.351   4.596
  584SOL    HW1 2651   1.491   5.322   4.666
  584SOL    HW2 2652   1.517   5.337   4.505
  585SOL     OW 2653   5.414   1.822   5.295
  585SOL    HW1 2654   5.487   1.790   5.234
  585SOL    HW2 2655   5.455   1.852   5.382
  586SOL     OW 2656   3.084   5.399   1.047
  586SOL    HW1 2657   3.133   5.485   1.059
  586SOL    HW2 2658   3.037   5.400   0.958
  587SOL     OW 2659   2.424   2.985   6.321
  587SOL    HW1 2660   2.417   2.956   6.225
  587SOL    HW2 2661   2.332   3.003   6.357
  588SOL     OW 2662   1.793   0.120   1.986
  588SOL    HW1 2663   1.787   0.020   1.991
  588SOL    HW2 2664   1.862   0.152   2.052
  589SOL     OW 2665   4.814   5.159   1.456
  589SOL    HW1 2666   4.891   5.114   1.500
  589SOL    HW2 2667   4.743   5.178   1.525
  590SOL     OW 2668   0.374   3.973   1.989
  590SOL    HW1 2669   0.462   3.958   1.943
  590SOL    HW2 2670   0.307   3.909   1.952
  591SOL     OW 2671   2.625   0.042   3.073
  591SOL    HW1 2672   2.694   6.994   3.090
  591SOL    HW2 2673   2.611   0.097   3.156
  592SOL     OW 2674   5.494   0.429   6.111
  592SOL    HW1 2675   5.403   0.391   6.096
  592SOL    HW2 2676   5.540   0.444   6.024
  593SOL     OW 2677   6.939   0.704   4.675
  593SOL    HW1 2678   6.996   0.710   4.593
  593SOL    HW2 2679   6.909   0.795   4.702
  594SOL     OW 2680   5.432   2.700   1.779
  594SOL    HW1 2681   5.343   2.741   1.762
  594SOL    HW2 2682   5.420   2.602   1.797
  595SOL     OW 2683   2.970   0.052   4.032
  595SOL    HW1 2684   2.877   0.060   3.996
  595SOL    HW2 2685   2.976   0.100   4.120
  596SOL     OW 2686   0.788   4.516   2.377
  596SOL    HW1 2687   0.800   4.450   2.303
  596SOL    HW2 2688   0.846   4.596   2.361
  597SOL     OW 2689   4.819   2.008   5.455
  597SOL    HW1 2690   4.843   1.917   5.422
  597SOL    HW2 2691   4.901   2.066   5.455
  598SOL     OW 2692   3.642   3.741   1.703
  598SOL    HW1 2693   3.616   3.726   1.798
  598SOL    HW2 2694   3.676   3.835   1.693
  599SOL     OW 2695   5.763   5.910   3.641
  599SOL    HW1 2696   5.805   5.984   3.588
  599SOL    HW2 2697   5.684   5.874   3.592
  600SOL     OW 2698   2.727   2.210   0.327
  600SOL    HW1 2699   2.785   2.146   0.376
  600SOL    HW2 2700   2.701   2.285   0.388
  601SOL     OW 2701   2.047   4.944   2.432
  601SOL    HW1 2702   2.014   4.860   2.389
  601SOL    HW2 2703   2.146   4.937   2.445
  602SOL     OW 2704   0.292   0.684   2.606
  602SOL    HW1 2705   0.347   0.741   2.666
  602SOL    HW2 2706   0.352   0.626   2.551
  603SOL     OW 2707   4.293   1.435   3.211
  603SOL    HW1 2708   4.391   1.436   3.189
  603SOL    HW2 2709   4.281   1.416   3.309
  604SOL     OW 2710   1.195   3.276   5.764
  604SOL    HW1 2711   1.274   3.336   5.769
  604SOL    HW2 2712   1.121   3.313   5.821
  605SOL     OW 2713   5.260   0.490   4.523
  605SOL    HW1 2714   5.341   0.453   4.568
  605SOL    HW2 2715   5.239   0.580   4.561
  606SOL     OW 2716   2.098   6.935   2.432
  606SOL    HW1 2717   2.175   6.875   2.413
  606SOL    HW2 2718   2.046   6.950   2.348
  607SOL     OW 2719   3.550   0.427   4.357
  607SOL    HW1 2720   3.621   0.474   4.409
  607SOL    HW2 2721   3.540   0.333   4.392
  608SOL     OW 2722   6.024   2.686   0.947
  608SOL    HW1 2723   6.043   2.685   0.849
  608SOL    HW2 2724   6.064   2.605   0.989
  609SOL     OW 2725   3.560   4.280   5.232
  609SOL    HW1 2726   3.540   4.364   5.284
  609SOL    HW2 2727   3.608   4.216   5.290
  610SOL     OW 2728   6.350   2.137   4.839
  610SOL    HW1 2729   6.287   2.204   4.879
  610SOL    HW2 2730   6.371   2.164   4.745
  611SOL     OW 2731   6.520   6.868   0.456
  611SOL    HW1 2732   6.520   6.955   0.505
  611SOL    HW2 2733   6.611   6.827   0.462
  612SOL     OW 2734   1.790   4.436   6.534
  612SOL    HW1 2735   1.720   4.374   6.497
  612SOL    HW2 2736   1.745   4.515   6.576
  613SOL     OW 2737   3.722   1.581   0.205
  613SOL    HW1 2738   3.749   1.518   0.133
  613SOL    HW2 2739   3.781   1.568   0.285
  614SOL     OW 2740   5.028   2.378   0.725
  614SOL    HW1 2741   5.076   2.321   0.659
  614SOL    HW2 2742   5.087   2.394   0.805
  615SOL     OW 2743   5.985   6.073   0.471
  615SOL    HW1 2744   5.914   6.109   0.410
  615SOL    HW2 2745   6.040   6.005   0.423
  616SOL     OW 2746   4.843   1.597   5.025
  616SOL    HW1 2747   4.862   1.500   5.038
  616SOL    HW2 2748   4.776   1.609   4.952
  617SOL     OW 2749   6.308   6.969   5.159
  617SOL    HW1 2750   6.267   6.894   5.211
  617SOL    HW2 2751   6.235   0.003   5.118
  618SOL     OW 2752   5.166   4.926   0.587
  618SOL    HW1 2753   5.131   4.851   0.643
  618SOL    HW2 2754   5.096   4.996   0.577
  619SOL     OW 2755   1.792   6.913   6.675
  619SOL    HW1 2756   1.872   6.938   6.730
  619SOL    HW2 2757   1.799   6.817   6.649
  620SOL     OW 2758   4.619   1.888   1.802
  620SOL    HW1 2759   4.581   1.900   1.894
  620SOL    HW2 2760   4.713   1.855   1.808
  621SOL     OW 2761   2.073   6.624   6.679
  621SOL    HW1 2762   2.089   6.611   6.777
  621SOL    HW2 2763   2.158   6.613   6.629
  622SOL     OW 2764   0.539   3.324   6.067
  622SOL    HW1 2765   0.623   3.355   6.109
  622SOL    HW2 2766   0.510   3.389   5.997
  623SOL     OW 2767   6.604   1.734   2.788
  623SOL    HW1 2768   6.531   1.697   2.731
  623SOL    HW2 2769   6.581   1.722   2.884
  624SOL     OW 2770   6.117   1.033   6.074
  624SOL    HW1 2771   6.166   1.022   5.988
  624SOL    HW2 2772   6.112   0.945   6.121
  625SOL     OW 2773   2.919   1.061   1.445
  625SOL    HW1 2774   2.915   1.158   1.420
  625SOL    HW2 2775   2.978   1.049   1.525
  626SOL     OW 2776   0.186   6.284   3.759
  626SOL    HW1 2777   0.153   6.312   3.849
  626SOL    HW2 2778   0.160   6.352   3.691
  627SOL     OW 2779   6.908   4.512   6.399
  627SOL    HW1 2780   6.851   4.593   6.393
  627SOL    HW2 2781   6.933   4.481   6.307
  628SOL     OW 2782   3.949   4.287   6.672
  628SOL    HW1 2783   3.890   4.311   6.595
  628SOL    HW2 2784   3.897   4.235   6.739
  629SOL     OW 2785   2.324   6.856   6.859
  629SOL    HW1 2786   2.372   6.834   6.774
  629SOL    HW2 2787   2.295   6.771   6.903
  630SOL     OW 2788   6.004   2.201   0.783
  630SOL    HW1 2789   5.963   2.123   0.736
  630SOL    HW2 2790   6.102   2.185   0.794
  631SOL     OW 2791   1.718   3.232   2.221
  631SOL    HW1 2792   1.630   3.277   2.233
  631SOL    HW2 2793   1.712   3.168   2.144
  632SOL     OW 2794   3.596   4.613   1.491
  632SOL    HW1 2795   3.683   4.600   1.538
  632SOL    HW2 2796   3.572   4.711   1.491
  633SOL     OW 2797   1.259   6.161   6.895
  633SOL    HW1 2798   1.305   6.075   6.917
  633SOL    HW2 2799   1.319   6.220   6.841
  634SOL     OW 2800   2.596   3.475   5.568
  634SOL    HW1 2801   2.628   3.380   5.563
  634SOL    HW2 2802   2.511   3.484   5.517
  635SOL     OW 2803   6.692   6.431   6.743
  635SOL    HW1 2804   6.736   6.505   6.792
  635SOL    HW2 2805   6.638   6.376   6.806
  636SOL     OW 2806   1.944   2.043   4.597
  636SOL    HW1 2807   1.913   2.020   4.689
  636SOL    HW2 2808   2.029   1.994   4.577
  637SOL     OW 2809   6.558   1.821   2.066
  637SOL    HW1 2810   6.577   1.918   2.051
  637SOL    HW2 2811   6.459   1.808   2.074
  638SOL     OW 2812   0.049   3.517   5.211
  638SOL    HW1 2813   6.985   3.530   5.260
  638SOL    HW2 2814   0.092   3.606   5.195
  639SOL     OW 2815   5.568   3.580   1.331
  639SOL    HW1 2816   5.574   3.483   1.308
  639SOL    HW2 2817   5.495   3.594   1.398
  640SOL     OW 2818   6.417   3.466   2.832
  640SOL    HW1 2819   6.326   3.427   2.848
  640SOL    HW2 2820   6.446   3.517   2.914
  641SOL     OW 2821   2.502   6.029   4.479
  641SOL    HW1 2822   2.516   6.068   4.570
  641SOL    HW2 2823   2.483   5.931   4.487
  642SOL     OW 2824   0.909   4.902   4.621
  642SOL    HW1 2825   0.937   4.940   4.533
  642SOL    HW2 2826   0.927   4.804   4.622
  643SOL     OW 2827   4.271   4.821   0.449
  643SOL    HW1 2828   4.312   4.738   0.487
  643SOL    HW2 2829   4.342   4.876   0.405
  644SOL     OW 2830   5.628   0.927   4.687
  644SOL    HW1 2831   5.645   0.945   4.590
  644SOL    HW2 2832   5.619   0.829   4.702
  645SOL     OW 2833   3.964   6.617   2.152
  645SOL    HW1 2834   4.025   6.559   2.205
  645SOL    HW2 2835   3.871   6.610   2.190
  646SOL     OW 2836   3.542   1.648   5.195
  646SOL    HW1 2837   3.489   1.729   5.171
  646SOL    HW2 2838   3.489   1.566   5.173
  647SOL     OW 2839   2.307   2.315   6.675
  647SOL    HW1 2840   2.284   2.408   6.645
  647SOL    HW2 2841   2.315   2.256   6.595
  648SOL     OW 2842   5.211   2.130   3.985
  648SOL    HW1 2843   5.227   2.133   4.084
  648SOL    HW2 2844   5.120   2.093   3.967
  649SOL     OW 2845   4.005   5.396   0.652
  649SOL    HW1 2846   3.968   5.436   0.736
  649SOL    HW2 2847   4.019   5.469   0.584
  650SOL     OW 2848   2.598   3.826   1.144
  650SOL    HW1 2849   2.667   3.854   1.077
  650SOL    HW2 2850   2.561   3.737   1.118
  651SOL     OW 2851   0.211   1.559   2.847
  651SOL    HW1 2852   0.171   1.648   2.868
  651SOL    HW2 2853   0.166   1.520   2.767
  652SOL     OW 2854   3.797   5.875   0.785
  652SOL    HW1 2855   3.778   5.934   0.707
  652SOL    HW2 2856   3.710   5.846   0.826
  653SOL     OW 2857   1.239   0.269   2.922
  653SOL    HW1 2858   1.270   0.274   2.827
  653SOL    HW2 2859   1.226   0.361   2.959
  654SOL     OW 2860   1.074   0.008   6.027
  654SOL    HW1 2861   1.166   0.033   6.057
  654SOL    HW2 2862   1.047   6.944   6.072
  655SOL     OW 2863   1.251   3.826   1.984
  655SOL    HW1 2864   1.197   3.756   1.936
  655SOL    HW2 2865   1.305   3.877   1.917
  656SOL     OW 2866   2.235   0.307   6.988
  656SOL    HW1 2867   2.256   0.218   0.008
  656SOL    HW2 2868   2.316   0.343   6.943
  657SOL     OW 2869   3.827   3.507   4.379
  657SOL    HW1 2870   3.789   3.419   4.409
  657SOL    HW2 2871   3.847   3.503   4.281
  658SOL     OW 2872   2.132   0.597   5.367
  658SOL    HW1 2873   2.098   0.691   5.375
  658SOL    HW2 2874   2.147   0.575   5.271
  659SOL     OW 2875   1.608   5.011   6.969
  659SOL    HW1 2876   1.599   5.019   0.047
  659SOL    HW2 2877   1.687   5.065   6.939
  660SOL     OW 2878   5.574   3.730   2.448
  660SOL    HW1 2879   5.640   3.742   2.373
  660SOL    HW2 2880   5.489   3.692   2.411
  661SOL     OW 2881   4.033   5.764   4.406
  661SOL    HW1 2882   4.017   5.821   4.325
  661SOL    HW2 2883   4.090   5.685   4.380
  662SOL     OW 2884   6.624   3.185   6.827
  662SOL    HW1 2885   6.675   3.142   6.901
  662SOL    HW2 2886   6.542   3.229   6.865
  663SOL     OW 2887   1.268   4.163   5.960
  663SOL    HW1 2888   1.288   4.233   5.891
  663SOL    HW2 2889   1.172   4.135   5.952
  664SOL     OW 2890   2.078   6.836   5.917
  664SOL    HW1 2891   2.158   6.787   5.952
  664SOL    HW2 2892   2.072   6.926   5.961
  665SOL     OW 2893   2.245   4.546   2.832
  665SOL    HW1 2894   2.166   4.582   2.882
  665SOL    HW2 2895   2.215   4.507   2.745
  666SOL     OW 2896   2.800   0.523   0.417
  666SOL    HW1 2897   2.721   0.501   0.359
  666SOL    HW2 2898   2.769   0.579   0.494
  667SOL     OW 2899   1.257   3.313   2.519
  667SOL    HW1 2900   1.166   3.285   2.550
  667SOL    HW2 2901   1.320   3.236   2.528
  668SOL     OW 2902   5.383   0.087   0.796
  668SOL    HW1 2903   5.378   0.065   0.894
  668SOL    HW2 2904   5.370   0.004   0.743
  669SOL     OW 2905   6.526   5.768   2.757
  669SOL    HW1 2906   6.556   5.842   2.817
  669SOL    HW2 2907   6.432   5.786   2.727
  670SOL     OW 2908   3.446   4.104   3.104
  670SOL    HW1 2909   3.454   4.032   3.036
  670SOL    HW2 2910   3.349   4.129   3.115
  671SOL     OW 2911   1.605   0.240   6.884
  671SOL    HW1 2912   1.694   0.239   6.929
  671SOL    HW2 2913   1.534   0.215   6.949
  672SOL     OW 2914   0.909   2.058   3.064
  672SOL    HW1 2915   0.884   2.062   2.967
  672SOL    HW2 2916   0.840   2.105   3.118
  673SOL     OW 2917   4.891   0.931   6.656
  673SOL    HW1 2918   4.989   0.916   6.640
  673SOL    HW2 2919   4.866   1.021   6.621
  674SOL     OW 2920   6.746   2.275   4.174
  674SOL    HW1 2921   6.705   2.364   4.152
  674SOL    HW2 2922   6.674   2.205   4.174
  675SOL     OW 2923   5.945   6.879   3.610
  675SOL    HW1 2924   5.992   6.938   3.676
  675SOL    HW2 2925   5.888   6.935   3.550
  676SOL     OW 2926   3.450   4.973   5.124
  676SOL    HW1 2927   3.546   5.000   5.125
  676SOL    HW2 2928   3.393   5.055   5.128
  677SOL     OW 2929   4.881   6.704   0.519
  677SOL    HW1 2930   4.852   6.787   0.473
  677SOL    HW2 2931   4.966   6.721   0.569
  678SOL     OW 2932   2.515   0.782   6.430
  678SOL    HW1 2933   2.549   0.797   6.523
  678SOL    HW2 2934   2.472   0.866   6.397
  679SOL     OW 2935   6.552   0.326   2.569
  679SOL    HW1 2936   6.617   0.401   2.561
  679SOL    HW2 2937   6.527   0.294   2.478
  680SOL     OW 2938   6.017   3.378   4.216
  680SOL    HW1 2939   6.102   3.384   4.163
  680SOL    HW2 2940   5.973   3.290   4.199
  681SOL     OW 2941   1.352   5.310   2.854
  681SOL    HW1 2942   1.356   5.223   2.806
  681SOL    HW2 2943   1.376   5.297   2.951
  682SOL     OW 2944   0.335   0.253   5.965
  682SOL    HW1 2945   0.358   0.190   6.039
  682SOL    HW2 2946   0.287   0.332   6.003
  683SOL     OW 2947   5.033   1.495   1.621
  683SOL    HW1 2948   4.952   1.471   1.676
  683SOL    HW2 2949   5.075   1.577   1.659
  684SOL     OW 2950   6.645   5.992   6.121
  684SOL    HW1 2951   6.605   6.075   6.084
  684SOL    HW2 2952   6.634   5.991   6.220
  685SOL     OW 2953   5.996   0.708   5.158
  685SOL    HW1 2954   5.937   0.742   5.231
  685SOL    HW2 2955   6.069   0.774   5.140
  686SOL     OW 2956   5.623   4.701   1.416
  686SOL    HW1 2957   5.684   4.623   1.426
  686SOL    HW2 2958   5.653   4.775   1.476
  687SOL     OW 2959   5.383   2.574   6.973
  687SOL    HW1 2960   5.306   2.512   6.991
  687SOL    HW2 2961   5.348   2.659   6.934
  688SOL     OW 2962   6.276   2.671   5.209
  688SOL    HW1 2963   6.367   2.639   5.235
  688SOL    HW2 2964   6.283   2.729   5.128
  689SOL     OW 2965   5.259   4.884   4.310
  689SOL    HW1 2966   5.305   4.930   4.386
  689SOL    HW2 2967   5.322   4.819   4.268
  690SOL     OW 2968   6.885   2.205   4.721
  690SOL    HW1 2969   6.849   2.137   4.785
  690SOL    HW2 2970   6.934   2.158   4.647
  691SOL     OW 2971   0.500   3.088   6.750
  691SOL    HW1 2972   0.588   3.041   6.740
  691SOL    HW2 2973   0.514   3.177   6.793
  692SOL     OW 2974   2.256   0.235   4.128
  692SOL    HW1 2975   2.273   0.160   4.063
  692SOL    HW2 2976   2.187   0.297   4.091
  693SOL     OW 2977   6.216   1.332   3.605
  693SOL    HW1 2978   6.150   1.268   3.643
  693SOL    HW2 2979   6.239   1.401   3.673
  694SOL     OW 2980   1.328   0.730   2.783
  694SOL    HW1 2981   1.386   0.680   2.719
  694SOL    HW2 2982   1.382   0.800   2.830
  695SOL     OW 2983   4.673   5.573   6.417
  695SOL    HW1 2984   4.739   5.525   6.475
  695SOL    HW2 2985   4.646   5.515   6.340
  696SOL     OW 2986   5.159   5.756   2.144
  696SOL    HW1 2987   5.249   5.780   2.108
  696SOL    HW2 2988   5.139   5.813   2.224
  697SOL     OW 2989   1.183   3.771   3.013
  697SOL    HW1 2990   1.172   3.801   2.918
  697SOL    HW2 2991   1.127   3.689   3.028
  698SOL     OW 2992   4.954   6.341   4.501
  698SOL    HW1 2993   4.871   6.316   4.451
  698SOL    HW2 2994   4.929   6.389   4.585
  699SOL     OW 2995   1.971   5.389   5.890
  699SOL    HW1 2996   1.997   5.466   5.832
  699SOL    HW2 2997   2.042   5.373   5.959
  700SOL     OW 2998   1.982   2.482   4.636
  700SOL    HW1 2999   1.956   2.539   4.714
  700SOL    HW2 3000   1.918   2.405   4.629
  701SOL     OW 3001   0.593   4.827   5.865
  701SOL    HW1 3002   0.500   4.861   5.854
  701SOL    HW2 3003   0.616   4.823   5.963
  702SOL     OW 3004   5.940   6.389   5.085
  702SOL    HW1 3005   6.037   6.386   5.106
  702SOL    HW2 3006   5.921   6.328   5.008
  703SOL     OW 3007   5.839   3.876   6.095
  703SOL    HW1 3008   5.899   3.848   6.020
  703SOL    HW2 3009   5.878   3.955   6.141
  704SOL     OW 3010   2.018   0.039   2.173
  704SOL    HW1 3011   2.116   0.049   2.192
  704SOL    HW2 3012   2.005   6.981   2.112
  705SOL     OW 3013   1.074   1.622   4.039
  705SOL    HW1 3014   1.029   1.627   4.129
  705SOL    HW2 3015   1.029   1.554   3.983
  706SOL     OW 3016   5.900   3.482   3.703
  706SOL    HW1 3017   5.818   3.446   3.746
  706SOL    HW2 3018   5.880   3.571   3.661
  707SOL     OW 3019   4.827   2.836   2.957
  707SOL    HW1 3020   4.920   2.831   2.921
  707SOL    HW2 3021   4.765   2.863   2.883
  708SOL     OW 3022   4.529   1.210   2.082
  708SOL    HW1 3023   4.596   1.146   2.119
  708SOL    HW2 3024   4.575   1.278   2.025
  709SOL     OW 3025   1.421   4.357   6.688
  709SOL    HW1 3026   1.446   4.279   6.632
  709SOL    HW2 3027   1.412   4.438   6.631
  710SOL     OW 3028   3.313   3.410   3.304
  710SOL    HW1 3029   3.286   3.328   3.355
  710SOL    HW2 3030   3.292   3.491   3.359
  711SOL     OW 3031   1.145   0.824   4.229
  711SOL    HW1 3032   1.230   0.779   4.200
  711SOL    HW2 3033   1.073   0.803   4.163
  712SOL     OW 3034   6.950   4.615   3.432
  712SOL    HW1 3035   6.958   4.545   3.361
  712SOL    HW2 3036   0.006   4.678   3.425
  713SOL     OW 3037   2.481   3.745   5.360
  713SOL    HW1 3038   2.470   3.831   5.311
  713SOL    HW2 3039   2.453   3.757   5.455
  714SOL     OW 3040   4.541   4.964   4.333
  714SOL    HW1 3041   4.467   5.029   4.316
  714SOL    HW2 3042   4.538   4.935   4.429
  715SOL     OW 3043   6.778   0.444   6.169
  715SOL    HW1 3044   6.854   0.381   6.156
  715SOL    HW2 3045   6.764   0.460   6.267
  716SOL     OW 3046   6.602   5.580   6.593
  716SOL    HW1 3047   6.577   5.511   6.526
  716SOL    HW2 3048   6.610   5.539   6.684
  717SOL     OW 3049   5.799   2.574   5.967
  717SOL    HW1 3050   5.838   2.491   6.005
  717SOL    HW2 3051   5.723   2.605   6.025
  718SOL     OW 3052   3.516   2.870   0.773
  718SOL    HW1 3053   3.613   2.852   0.789
  718SOL    HW2 3054   3.496   2.966   0.794
  719SOL     OW 3055   6.224   4.213   6.240
  719SOL    HW1 3056   6.162   4.283   6.276
  719SOL    HW2 3057   6.241   4.145   6.311
  720SOL     OW 3058   3.736   1.187   5.865
  720SOL    HW1 3059   3.668   1.175   5.793
  720SOL    HW2 3060   3.776   1.098   5.889
  721SOL     OW 3061   1.294   6.688   5.380
  721SOL    HW1 3062   1.295   6.607   5.439
  721SOL    HW2 3063   1.203   6.700   5.341
  722SOL     OW 3064   4.643   0.959   5.166
  722SOL    HW1 3065   4.675   0.887   5.228
  722SOL    HW2 3066   4.657   0.930   5.072
  723SOL     OW 3067   0.060   3.290   1.553
  723SOL    HW1 3068   0.105   3.320   1.468
  723SOL    HW2 3069   0.124   3.235   1.607
  724SOL     OW 3070   0.520   2.525   4.542
  724SOL    HW1 3071   0.528   2.500   4.638
  724SOL    HW2 3072   0.519   2.625   4.533
  725SOL     OW 3073   2.355   5.136   2.397
  725SOL    HW1 3074   2.432   5.200   2.393
  725SOL    HW2 3075   2.370   5.062   2.332
  726SOL     OW 3076   5.640   6.400   6.068
  726SOL    HW1 3077   5.719   6.450   6.103
  726SOL    HW2 3078   5.580   6.374   6.143
  727SOL     OW 3079   1.916   5.176   4.633
  727SOL    HW1 3080   1.829   5.136   4.662
  727SOL    HW2 3081   1.919   5.272   4.659
  728SOL     OW 3082   6.179   2.240   6.189
  728SOL    HW1 3083   6.276   2.232   6.168
  728SOL    HW2 3084   6.166   2.307   6.263
  729SOL     OW 3085   3.848   1.558   0.461
  729SOL    HW1 3086   3.761   1.533   0.503
  729SOL    HW2 3087   3.907   1.600   0.530
  730SOL     OW 3088   6.231   1.150   4.020
  730SOL    HW1 3089   6.280   1.227   3.979
  730SOL    HW2 3090   6.249   1.149   4.119
  731SOL     OW 3091   0.473   2.081   3.847
  731SOL    HW1 3092   0.525   2.138   3.912
  731SOL    HW2 3093   0.409   2.139   3.797
  732SOL     OW 3094   0.462   3.771   3.579
  732SOL    HW1 3095   0.517   3.705   3.628
  732SOL    HW2 3096   0.482   3.863   3.612
  733SOL     OW 3097   4.677   4.387   4.755
  733SOL    HW1 3098   4.656   4.392   4.658
  733SOL    HW2 3099   4.640   4.467   4.802
  734SOL     OW 3100   1.007   6.274   6.631
  734SOL    HW1 3101   1.038   6.187   6.668
  734SOL    HW2 3102   1.002   6.268   6.531
  735SOL     OW 3103   3.506   4.444   6.707
  735SOL    HW1 3104   3.587   4.502   6.704
  735SOL    HW2 3105   3.427   4.494   6.671
  736SOL     OW 3106   6.068   0.950   2.324
  736SOL    HW1 3107   6.074   1.049   2.310
  736SOL    HW2 3108   6.139   0.904   2.269
  737SOL     OW 3109   5.498   3.510   0.145
  737SOL    HW1 3110   5.438   3.568   0.090
  737SOL    HW2 3111   5.447   3.475   0.223
  738SOL     OW 3112   6.764   3.757   4.215
  738SOL    HW1 3113   6.828   3.779   4.289
  738SOL    HW2 3114   6.803   3.686   4.157
  739SOL     OW 3115   4.725   6.345   6.183
  739SOL    HW1 3116   4.698   6.441   6.175
  739SOL    HW2 3117   4.684   6.306   6.265
  740SOL     OW 3118   5.667   6.862   0.138
  740SOL    HW1 3119   5.569   6.879   0.133
  740SOL    HW2 3120   5.712   6.937   0.186
  741SOL     OW 3121   1.935   0.429   3.753
  741SOL    HW1 3122   1.938   0.384   3.664
  741SOL    HW2 3123   1.942   0.528   3.741
  742SOL     OW 3124   1.525   6.308   2.615
  742SOL    HW1 3125   1.500   6.307   2.518
  742SOL    HW2 3126   1.458   6.362   2.666
  743SOL     OW 3127   1.694   3.376   2.512
  743SOL    HW1 3128   1.768   3.320   2.476
  743SOL    HW2 3129   1.642   3.417   2.437
  744SOL     OW 3130   6.752   5.565   0.976
  744SOL    HW1 3131   6.735   5.591   1.071
  744SOL    HW2 3132   6.699   5.484   0.953
  745SOL     OW 3133   1.117   6.512   1.548
  745SOL    HW1 3134   1.020   6.523   1.570
  745SOL    HW2 3135   1.136   6.550   1.458
  746SOL     OW 3136   3.295   6.803   3.313
  746SOL    HW1 3137   3.248   6.758   3.388
  746SOL    HW2 3138   3.270   6.900   3.311
  747SOL     OW 3139   6.833   4.516   0.627
  747SOL    HW1 3140   6.834   4.613   0.650
  747SOL    HW2 3141   6.892   4.466   0.690
  748SOL     OW 3142   3.439   3.046   3.727
  748SOL    HW1 3143   3.406   3.028   3.635
  748SOL    HW2 3144   3.406   3.136   3.757
  749SOL     OW 3145   5.240   2.997   5.375
  749SOL    HW1 3146   5.282   3.042   5.453
  749SOL    HW2 3147   5.170   2.933   5.407
  750SOL     OW 3148   2.880   3.337   2.342
  750SOL    HW1 3149   2.936   3.308   2.265
  750SOL    HW2 3150   2.792   3.290   2.339
  751SOL     OW 3151   5.668   1.762   0.306
  751SOL    HW1 3152   5.756   1.783   0.350
  751SOL    HW2 3153   5.657   1.662   0.302
  752SOL     OW 3154   4.562   0.560   2.148
  752SOL    HW1 3155   4.491   0.492   2.160
  752SOL    HW2 3156   4.602   0.583   2.238
  753SOL     OW 3157   3.793   1.612   1.788
  753SOL    HW1 3158   3.806   1.521   1.749
  753SOL    HW2 3159   3.700   1.620   1.822
  754SOL     OW 3160   5.345   5.261   6.626
  754SOL    HW1 3161   5.436   5.242   6.662
  754SOL    HW2 3162   5.279   5.200   6.669
  755SOL     OW 3163   5.888   4.916   2.158
  755SOL    HW1 3164   5.980   4.920   2.196
  755SOL    HW2 3165   5.879   4.983   2.084
  756SOL     OW 3166   2.194   6.674   3.883
  756SOL    HW1 3167   2.256   6.649   3.958
  756SOL    HW2 3168   2.101   6.684   3.918
  757SOL     OW 3169   0.039   0.738   4.440
  757SOL    HW1 3170   0.016   0.648   4.403
  757SOL    HW2 3171   0.056   0.802   4.365
  758SOL     OW 3172   4.304   1.421   0.633
  758SOL    HW1 3173   4.360   1.498   0.663
  758SOL    HW2 3174   4.212   1.429   0.673
  759SOL     OW 3175   2.289   0.409   1.692
  759SOL    HW1 3176   2.295   0.312   1.670
  759SOL    HW2 3177   2.282   0.421   1.791
  760SOL     OW 3178   4.556   1.604   6.124
  760SOL    HW1 3179   4.541   1.627   6.028
  760SOL    HW2 3180   4.479   1.638   6.178
  761SOL     OW 3181   5.208   1.024   6.892
  761SOL    HW1 3182   5.195   0.974   6.807
  761SOL    HW2 3183   5.306   1.035   6.910
  762SOL     OW 3184   2.599   4.579   4.639
  762SOL    HW1 3185   2.528   4.509   4.633
  762SOL    HW2 3186   2.607   4.610   4.734
  763SOL     OW 3187   0.092   4.968   0.744
  763SOL    HW1 3188   0.027   4.927   0.807
  763SOL    HW2 3189   0.103   5.065   0.765
  764SOL     OW 3190   6.170   1.221   2.381
  764SOL    HW1 3191   6.221   1.167   2.448
  764SOL    HW2 3192   6.216   1.217   2.293
  765SOL     OW 3193   1.198   6.551   3.004
  765SOL    HW1 3194   1.266   6.624   3.008
  765SOL    HW2 3195   1.113   6.587   2.966
  766SOL     OW 3196   0.311   6.022   0.206
  766SOL    HW1 3197   0.380   5.984   0.145
  766SOL    HW2 3198   0.224   6.027   0.158
  767SOL     OW 3199   5.915   6.072   1.506
  767SOL    HW1 3200   5.833   6.028   1.470
  767SOL    HW2 3201   5.926   6.048   1.602
  768SOL     OW 3202   2.915   6.573   4.142
  768SOL    HW1 3203   2.921   6.652   4.203
  768SOL    HW2 3204   3.005   6.533   4.128
  769SOL     OW 3205   3.064   0.538   0.620
  769SOL    HW1 3206   3.120   0.617   0.596
  769SOL    HW2 3207   3.057   0.477   0.540
  770SOL     OW 3208   3.455   5.409   5.156
  770SOL    HW1 3209   3.475   5.500   5.194
  770SOL    HW2 3210   3.488   5.339   5.218
  771SOL     OW 3211   0.287   6.760   4.790
  771SOL    HW1 3212   0.361   6.823   4.767
  771SOL    HW2 3213   0.297   6.731   4.885
  772SOL     OW 3214   0.309   3.021   6.514
  772SOL    HW1 3215   0.340   2.977   6.430
  772SOL    HW2 3216   0.372   3.000   6.589
  773SOL     OW 3217   6.534   3.275   1.986
  773SOL    HW1 3218   6.563   3.318   1.900
  773SOL    HW2 3219   6.483   3.191   1.966
  774SOL     OW 3220   1.328   1.310   1.814
  774SOL    HW1 3221   1.316   1.280   1.908
  774SOL    HW2 3222   1.371   1.236   1.761
  775SOL     OW 3223   2.014   2.926   4.236
  775SOL    HW1 3224   2.090   2.902   4.295
  775SOL    HW2 3225   1.947   2.980   4.288
  776SOL     OW 3226   2.524   0.811   5.477
  776SOL    HW1 3227   2.582   0.823   5.558
  776SOL    HW2 3228   2.431   0.787   5.506
  777SOL     OW 3229   4.161   0.405   6.778
  777SOL    HW1 3230   4.139   0.308   6.766
  777SOL    HW2 3231   4.198   0.419   6.870
  778SOL     OW 3232   4.770   6.071   5.001
  778SOL    HW1 3233   4.679   6.050   4.965
  778SOL    HW2 3234   4.840   6.038   4.937
  779SOL     OW 3235   6.989   0.093   2.597
  779SOL    HW1 3236   7.000   0.192   2.611
  779SOL    HW2 3237   6.995   0.047   2.685
  780SOL     OW 3238   5.700   2.312   5.084
  780SOL    HW1 3239   5.600   2.306   5.091
  780SOL    HW2 3240   5.739   2.330   5.174
  781SOL     OW 3241   1.387   4.102   0.152
  781SOL    HW1 3242   1.438   4.119   0.068
  781SOL    HW2 3243   1.289   4.105   0.133
  782SOL     OW 3244   0.044   5.505   0.691
  782SOL    HW1 3245   0.127   5.554   0.662
  782SOL    HW2 3246   7.016   5.473   0.611
  783SOL     OW 3247   1.824   5.599   0.492
  783SOL    HW1 3248   1.791   5.534   0.423
  783SOL    HW2 3249   1.895   5.657   0.452
  784SOL     OW 3250   5.705   5.500   2.894
  784SOL    HW1 3251   5.735   5.517   2.801
  784SOL    HW2 3252   5.610   5.530   2.904
  785SOL     OW 3253   6.106   2.955   3.362
  785SOL    HW1 3254   6.186   2.938   3.419
  785SOL    HW2 3255   6.026   2.971   3.420
  786SOL     OW 3256   5.874   6.742   1.700
  786SOL    HW1 3257   5.962   6.790   1.691
  786SOL    HW2 3258   5.882   6.651   1.660
  787SOL     OW 3259   4.037   1.101   6.907
  787SOL    HW1 3260   4.068   1.162   6.980
  787SOL    HW2 3261   4.096   1.113   6.827
  788SOL     OW 3262   0.226   4.438   3.512
  788SOL    HW1 3263   0.131   4.414   3.529
  788SOL    HW2 3264   0.233   4.534   3.484
  789SOL     OW 3265   6.087   3.136   0.641
  789SOL    HW1 3266   6.163   3.087   0.597
  789SOL    HW2 3267   6.018   3.158   0.572
  790SOL     OW 3268   3.018   0.408   4.100
  790SOL    HW1 3269   2.957   0.442   4.171
  790SOL    HW2 3270   3.095   0.361   4.143
  791SOL     OW 3271   3.640   0.890   4.350
  791SOL    HW1 3272   3.712   0.909   4.283
  791SOL    HW2 3273   3.582   0.816   4.316
  792SOL     OW 3274   5.623   1.217   3.715
  792SOL    HW1 3275   5.554   1.281   3.682
  792SOL    HW2 3276   5.648   1.153   3.642
  793SOL     OW 3277   0.204   6.939   6.722
  793SOL    HW1 3278   0.132   6.870   6.716
  793SOL    HW2 3279   0.293   6.896   6.706
  794SOL     OW 3280   3.682   5.100   5.001
  794SOL    HW1 3281   3.698   5.037   4.925
  794SOL    HW2 3282   3.769   5.136   5.034
  795SOL     OW 3283   5.029   5.320   6.807
  795SOL    HW1 3284   5.050   5.409   6.768
  795SOL    HW2 3285   5.012   5.254   6.734
  796SOL     OW 3286   1.137   1.760   5.656
  796SOL    HW1 3287   1.158   1.832   5.591
  796SOL    HW2 3288   1.041   1.733   5.647
  797SOL     OW 3289   5.988   3.070   5.652
  797SOL    HW1 3290   6.009   3.152   5.705
  797SOL    HW2 3291   5.965   3.096   5.558
  798SOL     OW 3292   6.154   0.951   4.543
  798SOL    HW1 3293   6.239   0.933   4.493
  798SOL    HW2 3294   6.080   0.966   4.478
  799SOL     OW 3295   6.858   3.742   3.761
  799SOL    HW1 3296   6.867   3.812   3.690
  799SOL    HW2 3297   6.846   3.787   3.850
  800SOL     OW 3298   0.303   2.631   2.690
  800SOL    HW1 3299   0.392   2.666   2.719
  800SOL    HW2 3300   0.239   2.634   2.767
  801SOL     OW 3301   0.528   3.332   3.390
  801SOL    HW1 3302   0.525   3.267   3.467
  801SOL    HW2 3303   0.622   3.360   3.374
  802SOL     OW 3304   6.725   1.406   0.774
  802SOL    HW1 3305   6.640   1.415   0.826
  802SOL    HW2 3306   6.802   1.401   0.837
  803SOL     OW 3307   1.932   0.419   4.398
  803SOL    HW1 3308   1.933   0.350   4.326
  803SOL    HW2 3309   1.867   0.392   4.469
  804SOL     OW 3310   5.764   5.752   0.462
  804SOL    HW1 3311   5.768   5.686   0.537
  804SOL    HW2 3312   5.800   5.709   0.379
  805SOL     OW 3313   2.215   2.494   6.325
  805SOL    HW1 3314   2.163   2.455   6.401
  805SOL    HW2 3315   2.154   2.551   6.270
  806SOL     OW 3316   4.302   6.387   0.521
  806SOL    HW1 3317   4.377   6.321   0.515
  806SOL    HW2 3318   4.215   6.341   0.503
  807SOL     OW 3319   0.859   0.727   3.355
  807SOL    HW1 3320   0.838   0.824   3.338
  807SOL    HW2 3321   0.873   0.680   3.268
  808SOL     OW 3322   5.472   3.672   4.508
  808SOL    HW1 3323   5.392   3.623   4.542
  808SOL    HW2 3324   5.553   3.612   4.515
  809SOL     OW 3325   6.943   5.648   5.753
  809SOL    HW1 3326   7.009   5.576   5.736
  809SOL    HW2 3327   6.921   5.694   5.667
  810SOL     OW 3328   5.734   5.213   5.734
  810SOL    HW1 3329   5.744   5.125   5.780
  810SOL    HW2 3330   5.668   5.269   5.784
  811SOL     OW 3331   2.989   4.884   2.755
  811SOL    HW1 3332   2.918   4.833   2.803
  811SOL    HW2 3333   3.012   4.967   2.806
  812SOL     OW 3334   0.036   0.734   2.584
  812SOL    HW1 3335   0.136   0.732   2.591
  812SOL    HW2 3336   7.018   0.682   2.659
  813SOL     OW 3337   5.096   5.307   1.684
  813SOL    HW1 3338   5.059   5.214   1.679
  813SOL    HW2 3339   5.192   5.305   1.656
  814SOL     OW 3340   5.316   5.742   1.635
  814SOL    HW1 3341   5.253   5.680   1.682
  814SOL    HW2 3342   5.388   5.688   1.592
  815SOL     OW 3343   0.996   1.423   1.099
  815SOL    HW1 3344   1.002   1.523   1.106
  815SOL    HW2 3345   0.905   1.393   1.130
  816SOL     OW 3346   5.795   0.406   1.659
  816SOL    HW1 3347   5.845   0.463   1.594
  816SOL    HW2 3348   5.855   0.335   1.694
  817SOL     OW 3349   0.580   2.546   1.765
  817SOL    HW1 3350   0.544   2.463   1.809
  817SOL    HW2 3351   0.667   2.571   1.807
  818SOL     OW 3352   6.036   1.274   2.888
  818SOL    HW1 3353   5.947   1.317   2.906
  818SOL    HW2 3354   6.037   1.182   2.928
  819SOL     OW 3355   0.286   5.217   2.445
  819SOL    HW1 3356   0.273   5.142   2.510
  819SOL    HW2 3357   0.363   5.196   2.385
  820SOL     OW 3358   2.699   3.218   5.800
  820SOL    HW1 3359   2.735   3.308   5.775
  820SOL    HW2 3360   2.653   3.225   5.889
  821SOL     OW 3361   1.063   4.119   0.689
  821SOL    HW1 3362   1.123   4.115   0.769
  821SOL    HW2 3363   1.109   4.168   0.615
  822SOL     OW 3364   0.606   3.063   5.100
  822SOL    HW1 3365   0.696   3.090   5.066
  822SOL    HW2 3366   0.540   3.136   5.080
  823SOL     OW 3367   4.069   4.210   1.624
  823SOL    HW1 3368   4.158   4.252   1.638
  823SOL    HW2 3369   4.077   4.134   1.558
  824SOL     OW 3370   5.896   3.042   6.358
  824SOL    HW1 3371   5.893   2.974   6.432
  824SOL    HW2 3372   5.989   3.073   6.345
  825SOL     OW 3373   1.881   3.122   1.426
  825SOL    HW1 3374   1.975   3.100   1.400
  825SOL    HW2 3375   1.848   3.197   1.369
  826SOL     OW 3376   1.128   2.202   6.703
  826SOL    HW1 3377   1.067   2.129   6.734
  826SOL    HW2 3378   1.217   2.193   6.747
  827SOL     OW 3379   3.567   4.643   1.078
  827SOL    HW1 3380   3.485   4.700   1.066
  827SOL    HW2 3381   3.634   4.667   1.008
  828SOL     OW 3382   5.777   1.271   5.304
  828SOL    HW1 3383   5.724   1.353   5.325
  828SOL    HW2 3384   5.716   1.191   5.300
  829SOL     OW 3385   3.939   4.382   5.565
  829SOL    HW1 3386   3.937   4.395   5.465
  829SOL    HW2 3387   3.845   4.379   5.600
  830SOL     OW 3388   4.637   3.192   6.331
  830SOL    HW1 3389   4.568   3.123   6.355
  830SOL    HW2 3390   4.623   3.274   6.386
  831SOL     OW 3391   5.603   1.523   5.375
  831SOL    HW1 3392   5.528   1.515   5.440
  831SOL    HW2 3393   5.574   1.577   5.296
  832SOL     OW 3394   2.587   1.149   5.981
  832SOL    HW1 3395   2.669   1.091   5.978
  832SOL    HW2 3396   2.605   1.229   6.039
  833SOL     OW 3397   1.121   0.455   5.162
  833SOL    HW1 3398   1.210   0.486   5.197
  833SOL    HW2 3399   1.079   0.393   5.228
  834SOL     OW 3400   2.906   4.551   5.816
  834SOL    HW1 3401   2.870   4.639   5.846
  834SOL    HW2 3402   2.837   4.504   5.760
  835SOL     OW 3403   3.823   1.617   2.742
  835SOL    HW1 3404   3.872   1.578   2.820
  835SOL    HW2 3405   3.724   1.613   2.760
  836SOL     OW 3406   2.366   0.786   5.742
  836SOL    HW1 3407   2.392   0.880   5.763
  836SOL    HW2 3408   2.290   0.759   5.801
  837SOL     OW 3409   4.254   1.949   4.375
  837SOL    HW1 3410   4.240   2.043   4.407
  837SOL    HW2 3411   4.266   1.948   4.276
  838SOL     OW 3412   0.659   6.576   2.525
  838SOL    HW1 3413   0.681   6.666   2.563
  838SOL    HW2 3414   0.710   6.562   2.440
  839SOL     OW 3415   2.108   1.723   1.983
  839SOL    HW1 3416   2.204   1.746   1.999
  839SOL    HW2 3417   2.067   1.790   1.921
  840SOL     OW 3418   1.522   1.064   5.770
  840SOL    HW1 3419   1.539   1.029   5.677
  840SOL    HW2 3420   1.567   1.153   5.780
  841SOL     OW 3421   0.200   3.835   0.619
  841SOL    HW1 3422   0.291   3.855   0.580
  841SOL    HW2 3423   0.202   3.745   0.662
  842SOL     OW 3424   3.856   4.922   4.127
  842SOL    HW1 3425   3.945   4.930   4.172
  842SOL    HW2 3426   3.787   4.894   4.193
  843SOL     OW 3427   6.816   3.146   1.091
  843SOL    HW1 3428   6.815   3.195   1.004
  843SOL    HW2 3429   6.909   3.118   1.112
  844SOL     OW 3430   5.670   4.668   6.370
  844SOL    HW1 3431   5.670   4.574   6.403
  844SOL    HW2 3432   5.762   4.691   6.338
  845SOL     OW 3433   2.063   4.753   5.557
  845SOL    HW1 3434   2.100   4.685   5.493
  845SOL    HW2 3435   1.963   4.755   5.549
  846SOL     OW 3436   4.698   1.952   0.205
  846SOL    HW1 3437   4.711   2.039   0.253
  846SOL    HW2 3438   4.787   1.909   0.190
  847SOL     OW 3439   4.914   4.441   1.956
  847SOL    HW1 3440   5.005   4.402   1.942
  847SOL    HW2 3441   4.860   4.380   2.015
  848SOL     OW 3442   5.425   0.130   5.826
  848SOL    HW1 3443   5.353   0.086   5.774
  848SOL    HW2 3444   5.460   0.208   5.775
  849SOL     OW 3445   0.956   6.565   3.869
  849SOL    HW1 3446   0.956   6.509   3.952
  849SOL    HW2 3447   0.904   6.649   3.885
  850SOL     OW 3448   3.064   1.023   3.393
  850SOL    HW1 3449   3.018   1.033   3.481
  850SOL    HW2 3450   2.997   1.026   3.319
  851SOL     OW 3451   6.933   1.291   5.906
  851SOL    HW1 3452   6.995   1.219   5.938
  851SOL    HW2 3453   6.859   1.251   5.853
  852SOL     OW 3454   3.264   5.176   5.113
  852SOL    HW1 3455   3.169   5.166   5.083
  852SOL    HW2 3456   3.279   5.270   5.145
  853SOL     OW 3457   0.780   4.228   0.416
  853SOL    HW1 3458   0.814   4.205   0.507
  853SOL    HW2 3459   0.838   4.299   0.375
  854SOL     OW 3460   6.399   5.462   0.791
  854SOL    HW1 3461   6.314   5.454   0.739
  854SOL    HW2 3462   6.383   5.433   0.885
  855SOL     OW 3463   4.486   0.492   0.405
  855SOL    HW1 3464   4.547   0.526   0.333
  855SOL    HW2 3465   4.484   0.558   0.480
  856SOL     OW 3466   1.372   0.547   5.246
  856SOL    HW1 3467   1.329   0.622   5.297
  856SOL    HW2 3468   1.468   0.540   5.271
  857SOL     OW 3469   6.268   4.320   1.872
  857SOL    HW1 3470   6.227   4.337   1.962
  857SOL    HW2 3471   6.196   4.309   1.804
  858SOL     OW 3472   3.322   3.889   2.000
  858SOL    HW1 3473   3.222   3.877   1.995
  858SOL    HW2 3474   3.344   3.948   2.077
  859SOL     OW 3475   0.207   4.457   0.996
  859SOL    HW1 3476   0.117   4.489   1.025
  859SOL    HW2 3477   0.238   4.511   0.918
  860SOL     OW 3478   1.556   4.211   5.861
  860SOL    HW1 3479   1.473   4.266   5.855
  860SOL    HW2 3480   1.588   4.189   5.769
  861SOL     OW 3481   4.282   4.365   6.240
  861SOL    HW1 3482   4.356   4.353   6.175
  861SOL    HW2 3483   4.306   4.319   6.326
  862SOL     OW 3484   4.475   4.565   3.662
  862SOL    HW1 3485   4.428   4.640   3.617
  862SOL    HW2 3486   4.558   4.542   3.611
  863SOL     OW 3487   6.205   2.769   1.561
  863SOL    HW1 3488   6.234   2.856   1.520
  863SOL    HW2 3489   6.156   2.787   1.646
  864SOL     OW 3490   0.801   6.126   2.136
  864SOL    HW1 3491   0.804   6.147   2.038
  864SOL    HW2 3492   0.849   6.040   2.153
  865SOL     OW 3493   1.709   1.266   4.315
  865SOL    HW1 3494   1.664   1.248   4.403
  865SOL    HW2 3495   1.787   1.326   4.329
  866SOL     OW 3496   3.989   0.912   1.818
  866SOL    HW1 3497   3.971   0.830   1.763
  866SOL    HW2 3498   4.055   0.890   1.890
  867SOL     OW 3499   2.908   1.696   5.928
  867SOL    HW1 3500   2.998   1.726   5.897
  867SOL    HW2 3501   2.905   1.698   6.028
  868SOL     OW 3502   5.063   2.166   3.649
  868SOL    HW1 3503   5.036   2.260   3.629
  868SOL    HW2 3504   5.011   2.133   3.728
  869SOL     OW 3505   6.774   3.899   0.445
  869SOL    HW1 3506   6.782   3.801   0.467
  869SOL    HW2 3507   6.865   3.940   0.442
  870SOL     OW 3508   6.280   1.359   0.510
  870SOL    HW1 3509   6.257   1.443   0.461
  870SOL    HW2 3510   6.197   1.316   0.545
  871SOL     OW 3511   0.029   4.804   0.333
  871SOL    HW1 3512   6.959   4.771   0.310
  871SOL    HW2 3513   0.072   4.741   0.397
  872SOL     OW 3514   6.918   1.680   1.759
  872SOL    HW1 3515   6.849   1.656   1.828
  872SOL    HW2 3516   6.879   1.745   1.695
  873SOL     OW 3517   3.696   6.793   4.274
  873SOL    HW1 3518   3.755   6.838   4.207
  873SOL    HW2 3519   3.750   6.729   4.328
  874SOL     OW 3520   1.225   3.747   6.662
  874SOL    HW1 3521   1.266   3.765   6.572
  874SOL    HW2 3522   1.131   3.782   6.663
  875SOL     OW 3523   6.154   6.211   6.254
  875SOL    HW1 3524   6.092   6.211   6.175
  875SOL    HW2 3525   6.122   6.145   6.321
  876SOL     OW 3526   2.814   2.407   1.504
  876SOL    HW1 3527   2.890   2.342   1.505
  876SOL    HW2 3528   2.769   2.408   1.593
  877SOL     OW 3529   5.879   6.031   5.871
  877SOL    HW1 3530   5.818   5.990   5.939
  877SOL    HW2 3531   5.882   5.973   5.790
  878SOL     OW 3532   4.411   3.512   1.122
  878SOL    HW1 3533   4.465   3.444   1.172
  878SOL    HW2 3534   4.316   3.509   1.153
  879SOL     OW 3535   5.127   3.258   3.428
  879SOL    HW1 3536   5.034   3.290   3.446
  879SOL    HW2 3537   5.127   3.158   3.423
  880SOL     OW 3538   4.289   6.587   1.333
  880SOL    HW1 3539   4.327   6.496   1.316
  880SOL    HW2 3540   4.350   6.655   1.293
  881SOL     OW 3541   5.006   5.272   3.090
  881SOL    HW1 3542   5.002   5.206   3.165
  881SOL    HW2 3543   4.986   5.364   3.125
  882SOL     OW 3544   0.896   2.413   5.105
  882SOL    HW1 3545   0.818   2.465   5.140
  882SOL    HW2 3546   0.892   2.319   5.140
  883SOL     OW 3547   3.186   4.895   0.055
  883SOL    HW1 3548   3.146   4.867   0.142
  883SOL    HW2 3549   3.284   4.912   0.067
  884SOL     OW 3550   3.996   4.871   1.143
  884SOL    HW1 3551   4.068   4.803   1.158
  884SOL    HW2 3552   4.036   4.963   1.145
  885SOL     OW 3553   3.928   5.982   6.643
  885SOL    HW1 3554   3.852   6.043   6.665
  885SOL    HW2 3555   4.002   6.035   6.602
  886SOL     OW 3556   4.145   2.191   6.155
  886SOL    HW1 3557   4.050   2.161   6.169
  886SOL    HW2 3558   4.187   2.209   6.243
  887SOL     OW 3559   6.362   6.833   4.794
  887SOL    HW1 3560   6.310   6.769   4.851
  887SOL    HW2 3561   6.361   6.924   4.837
  888SOL     OW 3562   6.792   1.175   3.107
  888SOL    HW1 3563   6.782   1.186   3.206
  888SOL    HW2 3564   6.704   1.193   3.063
  889SOL     OW 3565   0.920   0.682   4.642
  889SOL    HW1 3566   0.867   0.743   4.583
  889SOL    HW2 3567   1.002   0.652   4.594
  890SOL     OW 3568   2.427   3.202   0.660
  890SOL    HW1 3569   2.417   3.186   0.759
  890SOL    HW2 3570   2.413   3.116   0.611
  891SOL     OW 3571   6.123   2.830   5.692
  891SOL    HW1 3572   6.053   2.901   5.697
  891SOL    HW2 3573   6.206   2.868   5.649
  892SOL     OW 3574   1.961   4.560   1.847
  892SOL    HW1 3575   2.020   4.552   1.766
  892SOL    HW2 3576   1.941   4.657   1.864
  893SOL     OW 3577   1.759   6.846   2.037
  893SOL    HW1 3578   1.816   6.826   1.957
  893SOL    HW2 3579   1.678   6.788   2.035
  894SOL     OW 3580   1.427   4.910   4.448
  894SOL    HW1 3581   1.521   4.901   4.416
  894SOL    HW2 3582   1.374   4.964   4.383
  895SOL     OW 3583   2.506   1.245   4.551
  895SOL    HW1 3584   2.576   1.310   4.580
  895SOL    HW2 3585   2.545   1.154   4.546
  896SOL     OW 3586   4.793   0.208   3.753
  896SOL    HW1 3587   4.819   0.302   3.731
  896SOL    HW2 3588   4.767   0.160   3.669
  897SOL     OW 3589   6.214   1.095   6.497
  897SOL    HW1 3590   6.240   1.125   6.589
  897SOL    HW2 3591   6.115   1.108   6.485
  898SOL     OW 3592   4.796   5.933   3.490
  898SOL    HW1 3593   4.854   5.884   3.426
  898SOL    HW2 3594   4.847   6.011   3.528
  899SOL     OW 3595   1.355   5.304   0.341
  899SOL    HW1 3596   1.318   5.384   0.294
  899SOL    HW2 3597   1.451   5.293   0.318
  900SOL     OW 3598   0.222   5.819   3.443
  900SOL    HW1 3599   0.267   5.814   3.532
  900SOL    HW2 3600   0.153   5.746   3.437
  901SOL     OW 3601   6.514   2.154   3.403
  901SOL    HW1 3602   6.584   2.085   3.420
  901SOL    HW2 3603   6.518   2.225   3.472
  902SOL     OW 3604   1.433   5.947   0.264
  902SOL    HW1 3605   1.333   5.950   0.264
  902SOL    HW2 3606   1.464   5.856   0.292
  903SOL     OW 3607   0.982   4.728   6.284
  903SOL    HW1 3608   1.067   4.712   6.234
  903SOL    HW2 3609   0.904   4.712   6.223
  904SOL     OW 3610   1.407   2.416   4.368
  904SOL    HW1 3611   1.329   2.467   4.333
  904SOL    HW2 3612   1.450   2.365   4.293
  905SOL     OW 3613   6.191   3.480   3.668
  905SOL    HW1 3614   6.237   3.568   3.680
  905SOL    HW2 3615   6.094   3.489   3.691
  906SOL     OW 3616   6.821   3.012   5.609
  906SOL    HW1 3617   6.784   2.939   5.552
  906SOL    HW2 3618   6.820   3.098   5.559
  907SOL     OW 3619   0.125   3.936   2.663
  907SOL    HW1 3620   0.154   4.010   2.602
  907SOL    HW2 3621   0.072   3.869   2.611
  908SOL     OW 3622   2.648   1.136   3.716
  908SOL    HW1 3623   2.713   1.211   3.702
  908SOL    HW2 3624   2.661   1.067   3.645
  909SOL     OW 3625   3.082   6.753   2.569
  909SOL    HW1 3626   3.139   6.765   2.488
  909SOL    HW2 3627   3.088   6.834   2.626
  910SOL     OW 3628   1.009   0.778   2.202
  910SOL    HW1 3629   0.954   0.837   2.259
  910SOL    HW2 3630   1.036   0.827   2.119
  911SOL     OW 3631   1.008   2.794   0.905
  911SOL    HW1 3632   0.969   2.849   0.831
  911SOL    HW2 3633   0.957   2.810   0.989
  912SOL     OW 3634   2.203   1.026   0.763
  912SOL    HW1 3635   2.180   0.961   0.691
  912SOL    HW2 3636   2.297   1.059   0.750
  913SOL     OW 3637   2.027   0.932   2.070
  913SOL    HW1 3638   2.126   0.919   2.062
  913SOL    HW2 3639   1.988   0.859   2.127
  914SOL     OW 3640   3.097   4.924   2.247
  914SOL    HW1 3641   3.046   4.864   2.185
  914SOL    HW2 3642   3.183   4.950   2.204
  915SOL     OW 3643   3.380   2.295   1.136
  915SOL    HW1 3644   3.291   2.331   1.110
  915SOL    HW2 3645   3.409   2.337   1.222
  916SOL     OW 3646   0.513   3.678   2.295
  916SOL    HW1 3647   0.521   3.594   2.242
  916SOL    HW2 3648   0.594   3.734   2.280
  917SOL     OW 3649   3.819   0.660   5.887
  917SOL    HW1 3650   3.916   0.638   5.879
  917SOL    HW2 3651   3.794   0.667   5.983
  918SOL     OW 3652   0.040   2.367   4.870
  918SOL    HW1 3653   0.108   2.325   4.930
  918SOL    HW2 3654   7.008   2.295   4.826
  919SOL     OW 3655   0.442   0.331   0.838
  919SOL    HW1 3656   0.372   0.402   0.840
  919SOL    HW2 3657   0.426   0.266   0.913
  920SOL     OW 3658   1.045   1.891   2.345
  920SOL    HW1 3659   0.972   1.920   2.283
  920SOL    HW2 3660   1.037   1.941   2.431
  921SOL     OW 3661   4.206   4.147   0.391
  921SOL    HW1 3662   4.186   4.139   0.294
  921SOL    HW2 3663   4.272   4.077   0.418
  922SOL     OW 3664   2.221   5.860   6.391
  922SOL    HW1 3665   2.161   5.835   6.468
  922SOL    HW2 3666   2.316   5.842   6.417
  923SOL     OW 3667   3.565   0.834   6.975
  923SOL    HW1 3668   3.525   0.821   0.044
  923SOL    HW2 3669   3.651   0.883   6.982
  924SOL     OW 3670   5.869   5.074   1.927
  924SOL    HW1 3671   5.912   5.128   1.854
  924SOL    HW2 3672   5.777   5.047   1.898
  925SOL     OW 3673   5.523   2.522   2.061
  925SOL    HW1 3674   5.511   2.455   2.135
  925SOL    HW2 3675   5.485   2.610   2.090
  926SOL     OW 3676   3.488   5.794   1.553
  926SOL    HW1 3677   3.489   5.872   1.615
  926SOL    HW2 3678   3.533   5.716   1.596
  927SOL     OW 3679   5.313   5.410   5.272
  927SOL    HW1 3680   5.297   5.463   5.189
  927SOL    HW2 3681   5.287   5.315   5.257
  928SOL     OW 3682   6.922   1.427   1.377
  928SOL    HW1 3683   6.915   1.507   1.317
  928SOL    HW2 3684   6.941   1.456   1.470
  929SOL     OW 3685   6.787   2.477   2.323
  929SOL    HW1 3686   6.787   2.492   2.224
  929SOL    HW2 3687   6.839   2.394   2.344
  930SOL     OW 3688   6.306   4.723   2.747
  930SOL    HW1 3689   6.400   4.753   2.734
  930SOL    HW2 3690   6.244   4.801   2.735
  931SOL     OW 3691   0.081   3.396   1.312
  931SOL    HW1 3692   0.038   3.312   1.279
  931SOL    HW2 3693   0.045   3.474   1.260
  932SOL     OW 3694   4.430   6.484   0.825
  932SOL    HW1 3695   4.437   6.583   0.838
  932SOL    HW2 3696   4.398   6.465   0.733
  933SOL     OW 3697   0.673   6.351   3.244
  933SOL    HW1 3698   0.756   6.404   3.265
  933SOL    HW2 3699   0.676   6.264   3.293
  934SOL     OW 3700   4.231   1.925   5.076
  934SOL    HW1 3701   4.243   1.840   5.128
  934SOL    HW2 3702   4.196   1.904   4.985
  935SOL     OW 3703   1.112   3.647   3.972
  935SOL    HW1 3704   1.116   3.709   3.893
  935SOL    HW2 3705   1.054   3.687   4.043
  936SOL     OW 3706   0.693   0.907   1.830
  936SOL    HW1 3707   0.620   0.966   1.795
  936SOL    HW2 3708   0.748   0.957   1.896
  937SOL     OW 3709   4.994   2.228   3.079
  937SOL    HW1 3710   5.036   2.228   2.989
  937SOL    HW2 3711   4.902   2.191   3.073
  938SOL     OW 3712   0.984   0.824   6.564
  938SOL    HW1 3713   0.972   0.920   6.540
  938SOL    HW2 3714   0.912   0.769   6.521
  939SOL     OW 3715   6.532   0.780   4.789
  939SOL    HW1 3716   6.593   0.801   4.712
  939SOL    HW2 3717   6.584   0.782   4.874
  940SOL     OW 3718   6.051   0.173   3.610
  940SOL    HW1 3719   6.070   0.082   3.647
  940SOL    HW2 3720   6.137   0.220   3.593
  941SOL     OW 3721   5.508   3.092   4.808
  941SOL    HW1 3722   5.531   2.995   4.802
  941SOL    HW2 3723   5.586   3.147   4.778
  942SOL     OW 3724   4.587   6.119   5.760
  942SOL    HW1 3725   4.635   6.206   5.774
  942SOL    HW2 3726   4.617   6.078   5.675
  943SOL     OW 3727   5.170   1.906   0.371
  943SOL    HW1 3728   5.222   1.991   0.368
  943SOL    HW2 3729   5.155   1.879   0.466
  944SOL     OW 3730   4.840   5.032   4.018
  944SOL    HW1 3731   4.792   4.991   3.940
  944SOL    HW2 3732   4.887   4.961   4.069
  945SOL     OW 3733   6.031   3.081   6.721
  945SOL    HW1 3734   5.952   3.137   6.746
  945SOL    HW2 3735   6.007   2.984   6.731
  946SOL     OW 3736   6.632   2.690   5.702
  946SOL    HW1 3737   6.720   2.670   5.745
  946SOL    HW2 3738   6.606   2.785   5.720
  947SOL     OW 3739   1.384   2.162   6.069
  947SOL    HW1 3740   1.332   2.228   6.013
  947SOL    HW2 3741   1.400   2.079   6.016
  948SOL     OW 3742   3.704   2.090   0.719
  948SOL    HW1 3743   3.691   2.106   0.621
  948SOL    HW2 3744   3.725   2.177   0.765
  949SOL     OW 3745   5.645   5.678   5.813
  949SOL    HW1 3746   5.551   5.695   5.786
  949SOL    HW2 3747   5.672   5.586   5.786
  950SOL     OW 3748   3.837   5.268   0.976
  950SOL    HW1 3749   3.835   5.171   0.953
  950SOL    HW2 3750   3.926   5.307   0.952
  951SOL     OW 3751   0.420   2.714   3.359
  951SOL    HW1 3752   0.347   2.779   3.379
  951SOL    HW2 3753   0.509   2.756   3.379
  952SOL     OW 3754   4.639   1.510   1.087
  952SOL    HW1 3755   4.540   1.527   1.078
  952SOL    HW2 3756   4.682   1.589   1.130
  953SOL     OW 3757   4.201   6.462   5.512
  953SOL    HW1 3758   4.248   6.427   5.593
  953SOL    HW2 3759   4.210   6.561   5.509
  954SOL     OW 3760   6.218   6.642   1.384
  954SOL    HW1 3761   6.166   6.616   1.303
  954SOL    HW2 3762   6.299   6.694   1.356
  955SOL     OW 3763   1.494   6.110   3.619
  955SOL    HW1 3764   1.555   6.124   3.697
  955SOL    HW2 3765   1.541   6.057   3.549
  956SOL     OW 3766   1.461   2.791   0.357
  956SOL    HW1 3767   1.540   2.836   0.400
  956SOL    HW2 3768   1.476   2.692   0.357
  957SOL     OW 3769   2.402   5.791   4.584
  957SOL    HW1 3770   2.341   5.765   4.509
  957SOL    HW2 3771   2.451   5.711   4.616
  958SOL     OW 3772   4.207   2.353   6.682
  958SOL    HW1 3773   4.230   2.437   6.632
  958SOL    HW2 3774   4.109   2.351   6.699
  959SOL     OW 3775   2.023   4.516   0.391
  959SOL    HW1 3776   2.113   4.559   0.400
  959SOL    HW2 3777   1.989   4.489   0.481
  960SOL     OW 3778   1.635   3.881   5.754
  960SOL    HW1 3779   1.659   3.853   5.661
  960SOL    HW2 3780   1.718   3.908   5.803
  961SOL     OW 3781   3.614   6.347   0.010
  961SOL    HW1 3782   3.711   6.370   0.006
  961SOL    HW2 3783   3.563   6.423   0.050
  962SOL     OW 3784   0.833   6.980   3.749
  962SOL    HW1 3785   0.808   6.883   3.739
  962SOL    HW2 3786   0.887   7.009   3.670
  963SOL     OW 3787   5.622   0.021   2.812
  963SOL    HW1 3788   5.614   6.977   2.738
  963SOL    HW2 3789   5.719   0.042   2.827
  964SOL     OW 3790   6.489   4.659   1.925
  964SOL    HW1 3791   6.390   4.645   1.931
  964SOL    HW2 3792   6.531   4.584   1.875
  965SOL     OW 3793   1.951   1.934   0.476
  965SOL    HW1 3794   2.048   1.911   0.476
  965SOL    HW2 3795   1.928   1.983   0.392
  966SOL     OW 3796   5.479   2.308   2.206
  966SOL    HW1 3797   5.405   2.264   2.257
  966SOL    HW2 3798   5.535   2.239   2.162
  967SOL     OW 3799   1.080   5.319   2.764
  967SOL    HW1 3800   1.172   5.337   2.797
  967SOL    HW2 3801   1.015   5.379   2.811
  968SOL     OW 3802   0.362   4.653   0.385
  968SOL    HW1 3803   0.269   4.625   0.407
  968SOL    HW2 3804   0.365   4.689   0.291
  969SOL     OW 3805   3.565   0.113   6.510
  969SOL    HW1 3806   3.535   0.094   6.417
  969SOL    HW2 3807   3.665   0.123   6.511
  970SOL     OW 3808   5.784   4.155   6.443
  970SOL    HW1 3809   5.768   4.161   6.344
  970SOL    HW2 3810   5.769   4.244   6.485
  971SOL     OW 3811   0.449   1.971   0.276
  971SOL    HW1 3812   0.434   1.875   0.297
  971SOL    HW2 3813   0.385   1.999   0.204
  972SOL     OW 3814   4.231   6.565   6.668
  972SOL    HW1 3815   4.309   6.610   6.624
  972SOL    HW2 3816   4.146   6.609   6.639
  973SOL     OW 3817   6.568   3.131   6.018
  973SOL    HW1 3818   6.477   3.171   6.011
  973SOL    HW2 3819   6.562   3.045   6.069
  974SOL     OW 3820   2.249   0.476   4.262
  974SOL    HW1 3821   2.265   0.386   4.222
  974SOL    HW2 3822   2.305   0.486   4.344
  975SOL     OW 3823   2.772   6.989   4.356
  975SOL    HW1 3824   2.829   0.042   4.322
  975SOL    HW2 3825   2.696   6.972   4.293
  976SOL     OW 3826   0.309   4.798   4.080
  976SOL    HW1 3827   0.395   4.812   4.031
  976SOL    HW2 3828   0.297   4.701   4.098
  977SOL     OW 3829   0.827   1.941   1.904
  977SOL    HW1 3830   0.925   1.956   1.891
  977SOL    HW2 3831   0.786   1.912   1.818
  978SOL     OW 3832   5.878   2.974   3.521
  978SOL    HW1 3833   5.898   3.072   3.523
  978SOL    HW2 3834   5.783   2.960   3.494
  979SOL     OW 3835   6.186   1.365   2.657
  979SOL    HW1 3836   6.135   1.313   2.588
  979SOL    HW2 3837   6.150   1.343   2.747
  980SOL     OW 3838   6.371   6.274   5.384
  980SOL    HW1 3839   6.403   6.366   5.405
  980SOL    HW2 3840   6.432   6.207   5.427
  981SOL     OW 3841   6.041   3.367   0.168
  981SOL    HW1 3842   6.054   3.416   0.254
  981SOL    HW2 3843   5.969   3.298   0.180
  982SOL     OW 3844   1.813   4.729   6.915
  982SOL    HW1 3845   1.776   4.651   6.966
  982SOL    HW2 3846   1.753   4.808   6.927
  983SOL     OW 3847   5.846   1.646   3.043
  983SOL    HW1 3848   5.769   1.701   3.011
  983SOL    HW2 3849   5.931   1.680   3.003
  984SOL     OW 3850   5.017   3.240   5.506
  984SOL    HW1 3851   4.990   3.333   5.483
  984SOL    HW2 3852   5.049   3.193   5.423
  985SOL     OW 3853   2.422   4.460   0.214
  985SOL    HW1 3854   2.355   4.399   0.256
  985SOL    HW2 3855   2.376   4.521   0.149
  986SOL     OW 3856   4.935   4.012   5.189
  986SOL    HW1 3857   4.940   3.971   5.098
  986SOL    HW2 3858   4.947   3.941   5.258
  987SOL     OW 3859   2.709   1.339   3.049
  987SOL    HW1 3860   2.754   1.251   3.032
  987SOL    HW2 3861   2.775   1.403   3.089
  988SOL     OW 3862   3.781   3.434   1.281
  988SOL    HW1 3863   3.809   3.458   1.188
  988SOL    HW2 3864   3.698   3.379   1.278
  989SOL     OW 3865   1.047   1.216   4.693
  989SOL    HW1 3866   1.010   1.163   4.769
  989SOL    HW2 3867   1.146   1.219   4.700
  990SOL     OW 3868   4.512   6.009   2.238
  990SOL    HW1 3869   4.437   5.943   2.241
  990SOL    HW2 3870   4.557   6.012   2.327
  991SOL     OW 3871   5.778   1.663   5.979
  991SOL    HW1 3872   5.808   1.574   6.015
  991SOL    HW2 3873   5.845   1.696   5.911
  992SOL     OW 3874   0.071   2.733   0.478
  992SOL    HW1 3875   0.124   2.649   0.481
  992SOL    HW2 3876   7.006   2.720   0.526
  993SOL     OW 3877   4.300   6.791   3.993
  993SOL    HW1 3878   4.378   6.729   4.001
  993SOL    HW2 3879   4.240   6.760   3.920
  994SOL     OW 3880   2.935   3.551   3.825
  994SOL    HW1 3881   2.867   3.478   3.836
  994SOL    HW2 3882   2.951   3.595   3.913
  995SOL     OW 3883   1.482   1.734   4.956
  995SOL    HW1 3884   1.470   1.828   4.985
  995SOL    HW2 3885   1.469   1.673   5.034
  996SOL     OW 3886   1.794   3.531   6.955
  996SOL    HW1 3887   1.706   3.496   6.923
  996SOL    HW2 3888   1.795   3.631   6.951
  997SOL     OW 3889   6.986   1.305   0.390
  997SOL    HW1 3890   0.000   1.317   0.482
  997SOL    HW2 3891   6.964   1.209   0.375
  998SOL     OW 3892   4.888   6.875   3.477
  998SOL    HW1 3893   4.874   6.782   3.511
  998SOL    HW2 3894   4.970   6.915   3.519
  999SOL     OW 3895   6.591   4.993   0.023
  999SOL    HW1 3896   6.582   4.911   0.079
  999SOL    HW2 3897   6.528   5.063   0.057
 1000SOL     OW 3898   3.686   1.711   4.942
 1000SOL    HW1 3899   3.614   1.752   4.886
 1000SOL    HW2 3900   3.652   1.700   5.036
 1001SOL     OW 3901   4.875   1.062   4.566
 1001SOL    HW1 3902   4.778   1.082   4.579
 1001SOL    HW2 3903   4.925   1.081   4.650
 1002SOL     OW 3904   0.039   1.332   0.127
 1002SOL    HW1 3905   0.007   1.342   0.221
 1002SOL    HW2 3906   0.024   1.238   0.097
 1003SOL     OW 3907   4.525   5.064   2.377
 1003SOL    HW1 3908   4.593   5.117   2.326
 1003SOL    HW2 3909   4.435   5.107   2.367
 1004SOL     OW 3910   5.993   6.080   6.935
 1004SOL    HW1 3911   6.043   6.157   6.976
 1004SOL    HW2 3912   5.916   6.115   6.882
 1005SOL     OW 3913   5.423   6.169   3.115
 1005SOL    HW1 3914   5.391   6.257   3.079
 1005SOL    HW2 3915   5.490   6.129   3.053
 1006SOL     OW 3916   1.772   5.572   0.211
 1006SOL    HW1 3917   1.705   5.529   0.150
 1006SOL    HW2 3918   1.864   5.560   0.172
 1007SOL     OW 3919   6.232   1.905   2.804
 1007SOL    HW1 3920   6.256   1.997   2.835
 1007SOL    HW2 3921   6.256   1.894   2.707
 1008SOL     OW 3922   3.719   1.299   5.362
 1008SOL    HW1 3923   3.670   1.285   5.276
 1008SOL    HW2 3924   3.675   1.372   5.414
 1009SOL     OW 3925   3.083   6.433   5.649
 1009SOL    HW1 3926   3.077   6.334   5.659
 1009SOL    HW2 3927   3.163   6.467   5.700
 1010SOL     OW 3928   5.162   6.559   5.670
 1010SOL    HW1 3929   5.136   6.561   5.766
 1010SOL    HW2 3930   5.116   6.634   5.621
 1011SOL     OW 3931   3.008   5.136   4.236
 1011SOL    HW1 3932   3.055   5.210   4.284
 1011SOL    HW2 3933   2.988   5.164   4.142
 1012SOL     OW 3934   2.965   6.010   1.038
 1012SOL    HW1 3935   3.031   5.943   1.006
 1012SOL    HW2 3936   2.879   5.964   1.060
 1013SOL     OW 3937   0.557   0.254   6.684
 1013SOL    HW1 3938   0.516   0.256   6.775
 1013SOL    HW2 3939   0.546   0.163   6.644
 1014SOL     OW 3940   5.893   0.073   6.826
 1014SOL    HW1 3941   5.977   0.087   6.877
 1014SOL    HW2 3942   5.914   0.048   6.732
 1015SOL     OW 3943   2.590   0.363   4.771
 1015SOL    HW1 3944   2.589   0.462   4.754
 1015SOL    HW2 3945   2.681   0.327   4.753
 1016SOL     OW 3946   4.281   3.172   1.447
 1016SOL    HW1 3947   4.195   3.209   1.410
 1016SOL    HW2 3948   4.267   3.076   1.470
 1017SOL     OW 3949   4.806   6.848   6.307
 1017SOL    HW1 3950   4.856   6.896   6.379
 1017SOL    HW2 3951   4.777   6.913   6.236
 1018SOL     OW 3952   1.301   1.730   1.667
 1018SOL    HW1 3953   1.280   1.761   1.760
 1018SOL    HW2 3954   1.250   1.647   1.647
 1019SOL     OW 3955   5.449   1.192   0.347
 1019SOL    HW1 3956   5.460   1.241   0.434
 1019SOL    HW2 3957   5.352   1.193   0.321
 1020SOL     OW 3958   4.018   1.831   1.474
 1020SOL    HW1 3959   4.101   1.801   1.521
 1020SOL    HW2 3960   4.027   1.927   1.448
 1021SOL     OW 3961   6.285   1.582   1.242
 1021SOL    HW1 3962   6.276   1.591   1.341
 1021SOL    HW2 3963   6.382   1.588   1.217
 1022SOL     OW 3964   3.198   3.317   0.060
 1022SOL    HW1 3965   3.118   3.266   0.090
 1022SOL    HW2 3966   3.272   3.253   0.039
 1023SOL     OW 3967   6.797   0.882   4.250
 1023SOL    HW1 3968   6.833   0.814   4.187
 1023SOL    HW2 3969   6.863   0.957   4.259
 1024SOL     OW 3970   6.532   2.403   3.849
 1024SOL    HW1 3971   6.435   2.425   3.864
 1024SOL    HW2 3972   6.586   2.435   3.926
 1025SOL     OW 3973   2.385   4.565   1.862
 1025SOL    HW1 3974   2.368   4.660   1.837
 1025SOL    HW2 3975   2.298   4.520   1.883
 1026SOL     OW 3976   0.521   2.738   6.449
 1026SOL    HW1 3977   0.603   2.795   6.457
 1026SOL    HW2 3978   0.458   2.778   6.383
 1027SOL     OW 3979   2.099   5.086   0.710
 1027SOL    HW1 3980   2.156   5.083   0.792
 1027SOL    HW2 3981   2.003   5.102   0.736
 1028SOL     OW 3982   0.233   5.594   6.653
 1028SOL    HW1 3983   0.240   5.565   6.748
 1028SOL    HW2 3984   0.206   5.691   6.649
 1029SOL     OW 3985   3.904   1.038   4.473
 1029SOL    HW1 3986   3.973   0.970   4.500
 1029SOL    HW2 3987   3.945   1.129   4.473
 1030SOL     OW 3988   4.405   5.060   4.786
 1030SOL    HW1 3989   4.470   5.024   4.719
 1030SOL    HW2 3990   4.434   5.033   4.878
 1031SOL     OW 3991   2.413   6.034   1.377
 1031SOL    HW1 3992   2.357   6.080   1.307
 1031SOL    HW2 3993   2.476   6.101   1.417
 1032SOL     OW 3994   1.163   2.161   5.312
 1032SOL    HW1 3995   1.074   2.186   5.274
 1032SOL    HW2 3996   1.169   2.194   5.407
 1033SOL     OW 3997   2.989   0.175   1.987
 1033SOL    HW1 3998   2.976   0.247   1.918
 1033SOL    HW2 3999   2.906   0.121   1.995
 1034SOL     OW 4000   7.007   5.624   2.161
 1034SOL    HW1 4001   6.908   5.609   2.151
 1034SOL    HW2 4002   0.002   5.695   2.229
 1035SOL     OW 4003   3.592   2.087   3.465
 1035SOL    HW1 4004   3.670   2.102   3.404
 1035SOL    HW2 4005   3.507   2.086   3.412
 1036SOL     OW 4006   4.979   6.976   6.513
 1036SOL    HW1 4007   5.037   6.924   6.576
 1036SOL    HW2 4008   5.036   7.018   6.442
 1037SOL     OW 4009   3.702   1.220   6.172
 1037SOL    HW1 4010   3.721   1.192   6.078
 1037SOL    HW2 4011   3.788   1.243   6.218
 1038SOL     OW 4012   2.828   1.969   5.243
 1038SOL    HW1 4013   2.801   1.934   5.153
 1038SOL    HW2 4014   2.828   2.069   5.241
 1039SOL     OW 4015   5.308   1.617   2.466
 1039SOL    HW1 4016   5.237   1.661   2.521
 1039SOL    HW2 4017   5.389   1.676   2.461
 1040SOL     OW 4018   5.698   4.954   4.589
 1040SOL    HW1 4019   5.746   5.042   4.592
 1040SOL    HW2 4020   5.754   4.889   4.538
 1041SOL     OW 4021   1.563   6.672   4.724
 1041SOL    HW1 4022   1.551   6.695   4.627
 1041SOL    HW2 4023   1.642   6.612   4.735
 1042SOL     OW 4024   4.705   4.361   0.699
 1042SOL    HW1 4025   4.651   4.390   0.778
 1042SOL    HW2 4026   4.757   4.279   0.722
 1043SOL     OW 4027   4.254   0.335   6.182
 1043SOL    HW1 4028   4.316   0.375   6.249
 1043SOL    HW2 4029   4.300   0.331   6.093
 1044SOL     OW 4030   3.927   3.866   4.050
 1044SOL    HW1 4031   3.975   3.953   4.060
 1044SOL    HW2 4032   3.958   3.803   4.120
 1045SOL     OW 4033   2.258   1.817   2.534
 1045SOL    HW1 4034   2.252   1.833   2.436
 1045SOL    HW2 4035   2.307   1.892   2.578
 1046SOL     OW 4036   2.779   1.047   2.340
 1046SOL    HW1 4037   2.876   1.070   2.347
 1046SOL    HW2 4038   2.730   1.083   2.420
 1047SOL     OW 4039   0.386   6.631   2.122
 1047SOL    HW1 4040   0.293   6.646   2.157
 1047SOL    HW2 4041   0.452   6.673   2.184
 1048SOL     OW 4042   0.061   3.757   4.931
 1048SOL    HW1 4043   0.140   3.701   4.904
 1048SOL    HW2 4044   7.002   3.724   4.882
 1049SOL     OW 4045   7.011   3.656   5.611
 1049SOL    HW1 4046   6.948   3.629   5.538
 1049SOL    HW2 4047   0.082   3.626   5.588
 1050SOL     OW 4048   2.996   0.477   1.509
 1050SOL    HW1 4049   3.092   0.476   1.482
 1050SOL    HW2 4050   2.939   0.469   1.427
 1051SOL     OW 4051   5.006   3.868   2.051
 1051SOL    HW1 4052   4.931   3.926   2.082
 1051SOL    HW2 4053   4.970   3.779   2.023
 1052SOL     OW 4054   2.914   6.843   3.689
 1052SOL    HW1 4055   2.864   6.766   3.649
 1052SOL    HW2 4056   2.909   6.838   3.788
 1053SOL     OW 4057   3.481   5.517   3.037
 1053SOL    HW1 4058   3.532   5.475   3.113
 1053SOL    HW2 4059   3.406   5.457   3.010
 1054SOL     OW 4060   3.635   6.590   5.498
 1054SOL    HW1 4061   3.631   6.631   5.407
 1054SOL    HW2 4062   3.628   6.662   5.567
 1055SOL     OW 4063   3.766   4.942   4.442
 1055SOL    HW1 4064   3.712   4.938   4.526
 1055SOL    HW2 4065   3.859   4.912   4.462
 1056SOL     OW 4066   2.806   5.593   0.401
 1056SOL    HW1 4067   2.818   5.680   0.450
 1056SOL    HW2 4068   2.884   5.578   0.341
 1057SOL     OW 4069   3.867   3.976   1.520
 1057SOL    HW1 4070   3.785   3.978   1.463
 1057SOL    HW2 4071   3.851   3.916   1.599
 1058SOL     OW 4072   2.609   0.444   2.241
 1058SOL    HW1 4073   2.633   0.473   2.148
 1058SOL    HW2 4074   2.630   0.347   2.252
 1059SOL     OW 4075   4.079   6.698   0.793
 1059SOL    HW1 4076   4.178   6.690   0.783
 1059SOL    HW2 4077   4.036   6.685   0.704
 1060SOL     OW 4078   3.615   1.827   4.125
 1060SOL    HW1 4079   3.572   1.872   4.047
 1060SOL    HW2 4080   3.567   1.853   4.209
 1061SOL     OW 4081   2.570   5.411   1.281
 1061SOL    HW1 4082   2.574   5.385   1.378
 1061SOL    HW2 4083   2.488   5.466   1.264
 1062SOL     OW 4084   5.149   3.760   4.789
 1062SOL    HW1 4085   5.101   3.749   4.876
 1062SOL    HW2 4086   5.112   3.839   4.740
 1063SOL     OW 4087   4.151   2.233   5.857
 1063SOL    HW1 4088   4.094   2.188   5.926
 1063SOL    HW2 4089   4.191   2.165   5.797
 1064SOL     OW 4090   0.855   3.200   2.697
 1064SOL    HW1 4091   0.806   3.167   2.617
 1064SOL    HW2 4092   0.869   3.299   2.690
 1065SOL     OW 4093   4.039   5.547   0.274
 1065SOL    HW1 4094   4.050   5.457   0.231
 1065SOL    HW2 4095   4.129   5.589   0.286
 1066SOL     OW 4096   5.363   0.252   3.549
 1066SOL    HW1 4097   5.399   0.222   3.637
 1066SOL    HW2 4098   5.433   0.243   3.479
 1067SOL     OW 4099   3.595   4.164   0.665
 1067SOL    HW1 4100   3.590   4.067   0.641
 1067SOL    HW2 4101   3.611   4.218   0.582
 1068SOL     OW 4102   1.101   5.243   2.240
 1068SOL    HW1 4103   1.082   5.283   2.329
 1068SOL    HW2 4104   1.176   5.292   2.196
 1069SOL     OW 4105   3.772   3.559   3.038
 1069SOL    HW1 4106   3.691   3.526   3.086
 1069SOL    HW2 4107   3.745   3.596   2.949
 1070SOL     OW 4108   1.461   6.519   0.373
 1070SOL    HW1 4109   1.513   6.446   0.328
 1070SOL    HW2 4110   1.400   6.562   0.307
 1071SOL     OW 4111   4.647   5.719   3.587
 1071SOL    HW1 4112   4.702   5.801   3.571
 1071SOL    HW2 4113   4.647   5.697   3.684
 1072SOL     OW 4114   4.376   5.558   3.549
 1072SOL    HW1 4115   4.467   5.595   3.565
 1072SOL    HW2 4116   4.352   5.570   3.452
 1073SOL     OW 4117   2.982   5.906   3.300
 1073SOL    HW1 4118   2.963   5.841   3.227
 1073SOL    HW2 4119   2.917   5.892   3.375
 1074SOL     OW 4120   2.300   5.107   3.747
 1074SOL    HW1 4121   2.301   5.035   3.678
 1074SOL    HW2 4122   2.251   5.075   3.828
 1075SOL     OW 4123   0.836   4.360   2.622
 1075SOL    HW1 4124   0.807   4.425   2.551
 1075SOL    HW2 4125   0.929   4.383   2.652
 1076SOL     OW 4126   5.321   3.593   3.229
 1076SOL    HW1 4127   5.241   3.647   3.202
 1076SOL    HW2 4128   5.299   3.496   3.225
 1077SOL     OW 4129   3.850   1.083   2.153
 1077SOL    HW1 4130   3.774   1.059   2.093
 1077SOL    HW2 4131   3.918   1.010   2.153
 1078SOL     OW 4132   6.087   2.610   2.013
 1078SOL    HW1 4133   6.051   2.556   1.937
 1078SOL    HW2 4134   6.170   2.567   2.049
 1079SOL     OW 4135   2.064   4.657   3.024
 1079SOL    HW1 4136   2.120   4.738   3.004
 1079SOL    HW2 4137   2.090   4.620   3.113
 1080SOL     OW 4138   2.638   5.494   3.938
 1080SOL    HW1 4139   2.610   5.421   4.000
 1080SOL    HW2 4140   2.681   5.453   3.857
 1081SOL     OW 4141   1.350   0.481   0.939
 1081SOL    HW1 4142   1.265   0.428   0.939
 1081SOL    HW2 4143   1.337   0.566   0.890
 1082SOL     OW 4144   1.617   0.663   1.096
 1082SOL    HW1 4145   1.717   0.670   1.095
 1082SOL    HW2 4146   1.584   0.669   1.190
 1083SOL     OW 4147   3.712   3.479   1.664
 1083SOL    HW1 4148   3.730   3.573   1.693
 1083SOL    HW2 4149   3.798   3.436   1.636
 1084SOL     OW 4150   6.089   4.293   1.677
 1084SOL    HW1 4151   5.998   4.254   1.663
 1084SOL    HW2 4152   6.135   4.302   1.589
 1085SOL     OW 4153   1.802   5.576   3.657
 1085SOL    HW1 4154   1.736   5.516   3.703
 1085SOL    HW2 4155   1.851   5.631   3.725
 1086SOL     OW 4156   2.635   6.227   2.191
 1086SOL    HW1 4157   2.732   6.216   2.169
 1086SOL    HW2 4158   2.580   6.219   2.108
 1087SOL     OW 4159   3.803   3.132   5.254
 1087SOL    HW1 4160   3.720   3.089   5.289
 1087SOL    HW2 4161   3.785   3.228   5.234
 1088SOL     OW 4162   0.046   5.395   2.500
 1088SOL    HW1 4163   0.140   5.362   2.510
 1088SOL    HW2 4164   0.001   5.343   2.427
 1089SOL     OW 4165   0.025   1.116   3.096
 1089SOL    HW1 4166   6.947   1.126   3.097
 1089SOL    HW2 4167   0.056   1.094   3.004
 1090SOL     OW 4168   2.975   2.228   6.769
 1090SOL    HW1 4169   2.970   2.132   6.796
 1090SOL    HW2 4170   2.886   2.259   6.736
 1091SOL     OW 4171   1.440   2.197   5.653
 1091SOL    HW1 4172   1.404   2.119   5.702
 1091SOL    HW2 4173   1.467   2.268   5.718
 1092SOL     OW 4174   2.944   4.761   1.581
 1092SOL    HW1 4175   3.001   4.812   1.516
 1092SOL    HW2 4176   2.893   4.690   1.532
 1093SOL     OW 4177   0.101   1.837   1.445
 1093SOL    HW1 4178   0.066   1.916   1.394
 1093SOL    HW2 4179   0.089   1.754   1.391
 1094SOL     OW 4180   0.897   5.778   2.643
 1094SOL    HW1 4181   0.821   5.733   2.690
 1094SOL    HW2 4182   0.884   5.877   2.645
 1095SOL     OW 4183   1.548   3.093   5.693
 1095SOL    HW1 4184   1.567   3.017   5.755
 1095SOL    HW2 4185   1.630   3.115   5.640
 1096SOL     OW 4186   3.852   3.080   2.262
 1096SOL    HW1 4187   3.786   3.005   2.259
 1096SOL    HW2 4188   3.897   3.088   2.173
 1097SOL     OW 4189   3.023   5.447   5.525
 1097SOL    HW1 4190   3.110   5.442   5.477
 1097SOL    HW2 4191   2.956   5.494   5.467
 1098SOL     OW 4192   2.970   0.850   2.746
 1098SOL    HW1 4193   2.981   0.822   2.651
 1098SOL    HW2 4194   3.054   0.894   2.778
 1099SOL     OW 4195   3.056   0.367   2.451
 1099SOL    HW1 4196   3.011   0.403   2.369
 1099SOL    HW2 4197   3.127   0.431   2.481
 1100SOL     OW 4198   6.740   0.809   0.467
 1100SOL    HW1 4199   6.702   0.768   0.385
 1100SOL    HW2 4200   6.666   0.837   0.528
 1101SOL     OW 4201   5.904   4.420   1.065
 1101SOL    HW1 4202   5.848   4.439   1.145
 1101SOL    HW2 4203   5.918   4.321   1.056
 1102SOL     OW 4204   6.818   4.299   4.090
 1102SOL    HW1 4205   6.899   4.347   4.126
 1102SOL    HW2 4206   6.736   4.350   4.115
 1103SOL     OW 4207   0.686   2.261   6.743
 1103SOL    HW1 4208   0.777   2.304   6.747
 1103SOL    HW2 4209   0.617   2.326   6.776
 1104SOL     OW 4210   2.946   5.573   5.753
 1104SOL    HW1 4211   2.978   5.540   5.664
 1104SOL    HW2 4212   2.961   5.503   5.822
 1105SOL     OW 4213   4.067   6.022   0.566
 1105SOL    HW1 4214   4.162   6.017   0.535
 1105SOL    HW2 4215   4.064   6.010   0.665
 1106SOL     OW 4216   1.033   1.978   6.808
 1106SOL    HW1 4217   1.030   1.995   6.907
 1106SOL    HW2 4218   0.984   1.893   6.788
 1107SOL     OW 4219   6.662   6.775   1.362
 1107SOL    HW1 4220   6.712   6.858   1.338
 1107SOL    HW2 4221   6.565   6.788   1.343
 1108SOL     OW 4222   1.072   1.275   0.299
 1108SOL    HW1 4223   1.161   1.275   0.253
 1108SOL    HW2 4224   1.004   1.230   0.240
 1109SOL     OW 4225   4.020   1.506   3.452
 1109SOL    HW1 4226   3.947   1.479   3.515
 1109SOL    HW2 4227   4.063   1.590   3.485
 1110SOL     OW 4228   3.825   3.326   3.235
 1110SOL    HW1 4229   3.816   3.228   3.221
 1110SOL    HW2 4230   3.860   3.344   3.327
 1111SOL     OW 4231   3.969   0.095   7.008
 1111SOL    HW1 4232   3.948   0.192   7.007
 1111SOL    HW2 4233   3.929   0.051   6.928
 1112SOL     OW 4234   0.934   1.473   2.558
 1112SOL    HW1 4235   0.837   1.450   2.548
 1112SOL    HW2 4236   0.985   1.390   2.581
 1113SOL     OW 4237   0.230   4.293   1.898
 1113SOL    HW1 4238   0.298   4.219   1.894
 1113SOL    HW2 4239   0.142   4.255   1.928
 1114SOL     OW 4240   6.147   0.955   5.758
 1114SOL    HW1 4241   6.131   0.874   5.814
 1114SOL    HW2 4242   6.185   0.928   5.670
 1115SOL     OW 4243   2.234   4.683   0.414
 1115SOL    HW1 4244   2.209   4.776   0.441
 1115SOL    HW2 4245   2.252   4.680   0.316
 1116SOL     OW 4246   3.141   6.576   6.467
 1116SOL    HW1 4247   3.145   6.587   6.566
 1116SOL    HW2 4248   3.224   6.529   6.435
 1117SOL     OW 4249   3.086   2.781   0.693
 1117SOL    HW1 4250   3.133   2.751   0.609
 1117SOL    HW2 4251   3.151   2.780   0.769
 1118SOL     OW 4252   1.557   2.370   0.871
 1118SOL    HW1 4253   1.533   2.274   0.853
 1118SOL    HW2 4254   1.655   2.382   0.860
 1119SOL     OW 4255   3.035   3.079   3.873
 1119SOL    HW1 4256   3.106   3.087   3.943
 1119SOL    HW2 4257   2.991   2.990   3.881
 1120SOL     OW 4258   3.345   1.389   3.424
 1120SOL    HW1 4259   3.383   1.306   3.381
 1120SOL    HW2 4260   3.420   1.454   3.441
 1121SOL     OW 4261   4.815   4.182   2.782
 1121SOL    HW1 4262   4.889   4.116   2.772
 1121SOL    HW2 4263   4.852   4.275   2.776
 1122SOL     OW 4264   4.914   5.083   6.635
 1122SOL    HW1 4265   4.873   5.143   6.566
 1122SOL    HW2 4266   4.841   5.039   6.687
 1123SOL     OW 4267   3.397   0.407   2.253
 1123SOL    HW1 4268   3.423   0.372   2.163
 1123SOL    HW2 4269   3.360   0.332   2.308
 1124SOL     OW 4270   2.749   4.877   3.459
 1124SOL    HW1 4271   2.658   4.892   3.420
 1124SOL    HW2 4272   2.741   4.818   3.539
 1125SOL     OW 4273   3.150   4.672   5.291
 1125SOL    HW1 4274   3.086   4.625   5.230
 1125SOL    HW2 4275   3.127   4.651   5.386
 1126SOL     OW 4276   6.285   0.388   2.019
 1126SOL    HW1 4277   6.309   0.333   2.099
 1126SOL    HW2 4278   6.228   0.465   2.047
 1127SOL     OW 4279   2.668   5.474   5.908
 1127SOL    HW1 4280   2.575   5.498   5.933
 1127SOL    HW2 4281   2.669   5.433   5.817
 1128SOL     OW 4282   2.537   1.828   5.319
 1128SOL    HW1 4283   2.535   1.923   5.350
 1128SOL    HW2 4284   2.592   1.774   5.382
 1129SOL     OW 4285   4.314   5.431   6.546
 1129SOL    HW1 4286   4.315   5.388   6.455
 1129SOL    HW2 4287   4.343   5.365   6.615
 1130SOL     OW 4288   1.201   5.149   5.072
 1130SOL    HW1 4289   1.150   5.211   5.013
 1130SOL    HW2 4290   1.189   5.055   5.041
 1131SOL     OW 4291   0.671   3.849   5.640
 1131SOL    HW1 4292   0.643   3.754   5.623
 1131SOL    HW2 4293   0.622   3.909   5.576
 1132SOL     OW 4294   5.289   6.918   4.901
 1132SOL    HW1 4295   5.380   6.956   4.915
 1132SOL    HW2 4296   5.295   6.841   4.837
 1133SOL     OW 4297   6.789   1.675   6.862
 1133SOL    HW1 4298   6.888   1.673   6.853
 1133SOL    HW2 4299   6.762   1.639   6.951
 1134SOL     OW 4300   0.454   3.273   5.430
 1134SOL    HW1 4301   0.473   3.277   5.528
 1134SOL    HW2 4302   0.380   3.207   5.413
 1135SOL     OW 4303   6.980   1.905   3.933
 1135SOL    HW1 4304   0.024   1.836   3.902
 1135SOL    HW2 4305   6.916   1.864   3.998
 1136SOL     OW 4306   3.682   5.453   4.039
 1136SOL    HW1 4307   3.704   5.359   4.065
 1136SOL    HW2 4308   3.594   5.479   4.079
 1137SOL     OW 4309   0.564   0.658   6.800
 1137SOL    HW1 4310   0.607   0.693   6.883
 1137SOL    HW2 4311   0.474   0.700   6.789
 1138SOL     OW 4312   1.066   2.619   5.730
 1138SOL    HW1 4313   1.125   2.622   5.811
 1138SOL    HW2 4314   1.117   2.653   5.651
 1139SOL     OW 4315   0.206   0.034   2.808
 1139SOL    HW1 4316   0.217   0.079   2.897
 1139SOL    HW2 4317   0.114   7.016   2.802
 1140SOL     OW 4318   4.485   1.920   3.291
 1140SOL    HW1 4319   4.423   1.933   3.368
 1140SOL    HW2 4320   4.449   1.968   3.211
 1141SOL     OW 4321   0.411   0.017   6.110
 1141SOL    HW1 4322   0.421   7.015   6.014
 1141SOL    HW2 4323   0.315   0.006   6.137
 1142SOL     OW 4324   5.854   0.290   5.295
 1142SOL    HW1 4325   5.941   0.251   5.325
 1142SOL    HW2 4326   5.868   0.342   5.210
 1143SOL     OW 4327   5.381   2.996   1.653
 1143SOL    HW1 4328   5.342   2.913   1.614
 1143SOL    HW2 4329   5.322   3.074   1.632
 1144SOL     OW 4330   1.281   0.195   4.456
 1144SOL    HW1 4331   1.237   0.143   4.382
 1144SOL    HW2 4332   1.210   0.234   4.515
 1145SOL     OW 4333   2.878   5.075   5.251
 1145SOL    HW1 4334   2.944   5.070   5.326
 1145SOL    HW2 4335   2.918   5.124   5.174
 1146SOL     OW 4336   5.971   1.999   1.991
 1146SOL    HW1 4337   5.990   2.001   1.893
 1146SOL    HW2 4338   5.907   1.925   2.011
 1147SOL     OW 4339   6.672   4.122   2.139
 1147SOL    HW1 4340   6.646   4.052   2.205
 1147SOL    HW2 4341   6.631   4.209   2.164
 1148SOL     OW 4342   5.701   0.252   6.139
 1148SOL    HW1 4343   5.787   0.289   6.103
 1148SOL    HW2 4344   5.630   0.322   6.134
 1149SOL     OW 4345   5.076   3.534   2.948
 1149SOL    HW1 4346   4.988   3.570   2.918
 1149SOL    HW2 4347   5.066   3.489   3.037
 1150SOL     OW 4348   2.523   6.050   5.025
 1150SOL    HW1 4349   2.588   6.032   5.099
 1150SOL    HW2 4350   2.445   5.988   5.033
 1151SOL     OW 4351   2.367   5.360   0.388
 1151SOL    HW1 4352   2.428   5.392   0.316
 1151SOL    HW2 4353   2.344   5.264   0.372
 1152SOL     OW 4354   6.692   1.029   3.619
 1152SOL    HW1 4355   6.610   1.071   3.579
 1152SOL    HW2 4356   6.690   1.041   3.718
 1153SOL     OW 4357   1.947   4.706   2.384
 1153SOL    HW1 4358   1.882   4.659   2.444
 1153SOL    HW2 4359   2.016   4.641   2.353
 1154SOL     OW 4360   1.641   3.724   1.683
 1154SOL    HW1 4361   1.547   3.746   1.657
 1154SOL    HW2 4362   1.693   3.809   1.694
 1155SOL     OW 4363   5.021   1.262   2.010
 1155SOL    HW1 4364   5.102   1.264   1.951
 1155SOL    HW2 4365   4.953   1.327   1.976
 1156SOL     OW 4366   2.719   0.859   4.078
 1156SOL    HW1 4367   2.646   0.807   4.034
 1156SOL    HW2 4368   2.790   0.796   4.110
 1157SOL     OW 4369   1.811   3.556   3.985
 1157SOL    HW1 4370   1.814   3.457   3.970
 1157SOL    HW2 4371   1.865   3.602   3.913
 1158SOL     OW 4372   5.000   5.438   5.276
 1158SOL    HW1 4373   5.055   5.521   5.276
 1158SOL    HW2 4374   5.058   5.359   5.256
 1159SOL     OW 4375   6.124   4.051   2.743
 1159SOL    HW1 4376   6.149   3.982   2.675
 1159SOL    HW2 4377   6.198   4.060   2.810
 1160SOL     OW 4378   2.489   2.543   1.537
 1160SOL    HW1 4379   2.415   2.503   1.591
 1160SOL    HW2 4380   2.531   2.472   1.480
 1161SOL     OW 4381   3.986   1.185   3.266
 1161SOL    HW1 4382   3.965   1.278   3.236
 1161SOL    HW2 4383   4.048   1.188   3.344
 1162SOL     OW 4384   3.129   5.167   1.705
 1162SOL    HW1 4385   3.063   5.234   1.673
 1162SOL    HW2 4386   3.098   5.128   1.792
 1163SOL     OW 4387   4.684   6.538   3.199
 1163SOL    HW1 4388   4.677   6.494   3.109
 1163SOL    HW2 4389   4.757   6.607   3.197
 1164SOL     OW 4390   6.595   4.427   4.149
 1164SOL    HW1 4391   6.537   4.349   4.128
 1164SOL    HW2 4392   6.553   4.510   4.113
 1165SOL     OW 4393   0.373   4.956   1.778
 1165SOL    HW1 4394   0.326   4.905   1.850
 1165SOL    HW2 4395   0.413   5.039   1.816
 1166SOL     OW 4396   3.483   0.897   6.022
 1166SOL    HW1 4397   3.458   0.968   6.088
 1166SOL    HW2 4398   3.558   0.842   6.058
 1167SOL     OW 4399   4.363   1.424   5.446
 1167SOL    HW1 4400   4.404   1.514   5.429
 1167SOL    HW2 4401   4.424   1.371   5.505
 1168SOL     OW 4402   5.404   1.128   4.151
 1168SOL    HW1 4403   5.394   1.111   4.249
 1168SOL    HW2 4404   5.493   1.170   4.133
 1169SOL     OW 4405   2.172   2.341   1.117
 1169SOL    HW1 4406   2.160   2.440   1.117
 1169SOL    HW2 4407   2.270   2.319   1.120
 1170SOL     OW 4408   2.606   0.991   1.998
 1170SOL    HW1 4409   2.510   0.965   1.988
 1170SOL    HW2 4410   2.658   0.952   1.922
 1171SOL     OW 4411   4.613   0.491   1.192
 1171SOL    HW1 4412   4.517   0.473   1.170
 1171SOL    HW2 4413   4.671   0.419   1.155
 1172SOL     OW 4414   3.747   3.219   6.047
 1172SOL    HW1 4415   3.777   3.198   5.954
 1172SOL    HW2 4416   3.768   3.314   6.069
 1173SOL     OW 4417   5.750   5.823   6.652
 1173SOL    HW1 4418   5.747   5.734   6.697
 1173SOL    HW2 4419   5.835   5.831   6.599
 1174SOL     OW 4420   3.668   5.700   6.878
 1174SOL    HW1 4421   3.620   5.776   6.832
 1174SOL    HW2 4422   3.631   5.688   6.970
 1175SOL     OW 4423   0.117   5.181   4.842
 1175SOL    HW1 4424   0.056   5.142   4.773
 1175SOL    HW2 4425   0.199   5.125   4.849
 1176SOL     OW 4426   6.315   3.281   1.679
 1176SOL    HW1 4427   6.228   3.318   1.645
 1176SOL    HW2 4428   6.384   3.288   1.607
 1177SOL     OW 4429   6.723   2.807   5.441
 1177SOL    HW1 4430   6.758   2.759   5.361
 1177SOL    HW2 4431   6.679   2.741   5.502
 1178SOL     OW 4432   4.753   5.162   2.154
 1178SOL    HW1 4433   4.706   5.249   2.150
 1178SOL    HW2 4434   4.850   5.175   2.132
 1179SOL     OW 4435   1.471   5.349   6.173
 1179SOL    HW1 4436   1.401   5.285   6.206
 1179SOL    HW2 4437   1.474   5.429   6.233
 1180SOL     OW 4438   2.315   0.945   4.100
 1180SOL    HW1 4439   2.241   1.002   4.137
 1180SOL    HW2 4440   2.395   1.002   4.082
 1181SOL     OW 4441   1.443   4.067   2.201
 1181SOL    HW1 4442   1.494   4.133   2.147
 1181SOL    HW2 4443   1.348   4.098   2.210
 1182SOL     OW 4444   0.073   3.393   4.086
 1182SOL    HW1 4445   0.018   3.314   4.114
 1182SOL    HW2 4446   0.043   3.425   3.996
 1183SOL     OW 4447   4.199   5.817   1.002
 1183SOL    HW1 4448   4.266   5.804   0.929
 1183SOL    HW2 4449   4.196   5.736   1.060
 1184SOL     OW 4450   4.352   3.020   7.005
 1184SOL    HW1 4451   4.376   3.113   0.011
 1184SOL    HW2 4452   4.282   2.984   0.044
 1185SOL     OW 4453   3.160   1.517   6.784
 1185SOL    HW1 4454   3.199   1.520   6.876
 1185SOL    HW2 4455   3.060   1.522   6.789
 1186SOL     OW 4456   3.999   7.003   4.860
 1186SOL    HW1 4457   3.981   6.967   4.951
 1186SOL    HW2 4458   3.999   6.927   4.794
 1187SOL     OW 4459   0.417   2.499   5.000
 1187SOL    HW1 4460   0.390   2.440   5.075
 1187SOL    HW2 4461   0.378   2.590   5.014
 1188SOL     OW 4462   1.824   0.776   5.976
 1188SOL    HW1 4463   1.770   0.826   6.043
 1188SOL    HW2 4464   1.782   0.786   5.885
 1189SOL     OW 4465   0.577   1.071   1.100
 1189SOL    HW1 4466   0.588   1.081   1.001
 1189SOL    HW2 4467   0.499   1.013   1.120
 1190SOL     OW 4468   3.132   5.971   1.580
 1190SOL    HW1 4469   3.130   6.020   1.667
 1190SOL    HW2 4470   3.050   5.915   1.571
 1191SOL     OW 4471   1.572   4.060   1.542
 1191SOL    HW1 4472   1.637   4.108   1.485
 1191SOL    HW2 4473   1.546   3.973   1.499
 1192SOL     OW 4474   3.683   5.427   2.423
 1192SOL    HW1 4475   3.660   5.487   2.347
 1192SOL    HW2 4476   3.648   5.467   2.508
 1193SOL     OW 4477   3.126   2.126   3.785
 1193SOL    HW1 4478   3.047   2.188   3.783
 1193SOL    HW2 4479   3.162   2.115   3.692
 1194SOL     OW 4480   6.705   2.558   2.831
 1194SOL    HW1 4481   6.668   2.642   2.790
 1194SOL    HW2 4482   6.644   2.481   2.811
 1195SOL     OW 4483   3.925   0.348   6.939
 1195SOL    HW1 4484   3.914   0.428   6.998
 1195SOL    HW2 4485   3.959   0.377   6.850
 1196SOL     OW 4486   1.325   5.516   3.297
 1196SOL    HW1 4487   1.410   5.519   3.349
 1196SOL    HW2 4488   1.273   5.600   3.311
 1197SOL     OW 4489   3.686   4.954   6.707
 1197SOL    HW1 4490   3.742   5.029   6.743
 1197SOL    HW2 4491   3.647   4.903   6.783
 1198SOL     OW 4492   3.480   1.050   3.143
 1198SOL    HW1 4493   3.549   1.120   3.159
 1198SOL    HW2 4494   3.484   0.980   3.215
 1199SOL     OW 4495   3.314   4.141   4.110
 1199SOL    HW1 4496   3.327   4.182   4.020
 1199SOL    HW2 4497   3.397   4.093   4.137
 1200SOL     OW 4498   4.843   4.058   1.248
 1200SOL    HW1 4499   4.760   4.106   1.219
 1200SOL    HW2 4500   4.864   4.081   1.343
 1201SOL     OW 4501   1.864   1.871   5.600
 1201SOL    HW1 4502   1.911   1.870   5.688
 1201SOL    HW2 4503   1.845   1.777   5.572
 1202SOL     OW 4504   6.188   6.733   4.299
 1202SOL    HW1 4505   6.184   6.635   4.279
 1202SOL    HW2 4506   6.282   6.766   4.288
 1203SOL     OW 4507   5.469   6.993   2.006
 1203SOL    HW1 4508   5.429   6.992   1.915
 1203SOL    HW2 4509   5.400   7.021   2.073
 1204SOL     OW 4510   2.613   6.988   0.403
 1204SOL    HW1 4511   2.515   6.996   0.386
 1204SOL    HW2 4512   2.663   0.033   0.348
 1205SOL     OW 4513   0.943   2.821   6.301
 1205SOL    HW1 4514   0.904   2.729   6.301
 1205SOL    HW2 4515   0.967   2.847   6.208
 1206SOL     OW 4516   6.503   1.517   5.667
 1206SOL    HW1 4517   6.575   1.482   5.726
 1206SOL    HW2 4518   6.457   1.441   5.622
 1207SOL     OW 4519   6.240   6.004   5.922
 1207SOL    HW1 4520   6.308   6.072   5.895
 1207SOL    HW2 4521   6.209   5.953   5.842
 1208SOL     OW 4522   3.669   3.818   3.095
 1208SOL    HW1 4523   3.721   3.867   3.165
 1208SOL    HW2 4524   3.725   3.744   3.057
 1209SOL     OW 4525   0.247   3.548   4.848
 1209SOL    HW1 4526   0.279   3.507   4.934
 1209SOL    HW2 4527   0.180   3.487   4.805
 1210SOL     OW 4528   2.504   0.288   4.251
 1210SOL    HW1 4529   2.540   0.367   4.202
 1210SOL    HW2 4530   2.442   0.237   4.191
 1211SOL     OW 4531   6.923   3.642   3.436
 1211SOL    HW1 4532   6.903   3.608   3.344
 1211SOL    HW2 4533   7.016   3.678   3.439
 1212SOL     OW 4534   1.130   4.459   3.168
 1212SOL    HW1 4535   1.094   4.513   3.092
 1212SOL    HW2 4536   1.209   4.506   3.207
 1213SOL     OW 4537   6.514   3.739   5.183
 1213SOL    HW1 4538   6.513   3.661   5.121
 1213SOL    HW2 4539   6.504   3.824   5.130
 1214SOL     OW 4540   0.471   1.802   0.992
 1214SOL    HW1 4541   0.532   1.877   1.020
 1214SOL    HW2 4542   0.456   1.806   0.894
 1215SOL     OW 4543   0.768   6.909   1.857
 1215SOL    HW1 4544   0.691   6.846   1.871
 1215SOL    HW2 4545   0.825   6.876   1.781
 1216SOL     OW 4546   1.946   0.039   0.952
 1216SOL    HW1 4547   1.879   0.113   0.964
 1216SOL    HW2 4548   2.036   0.070   0.984
 1217SOL     OW 4549   1.645   2.572   3.210
 1217SOL    HW1 4550   1.615   2.484   3.247
 1217SOL    HW2 4551   1.738   2.564   3.176
 1218SOL     OW 4552   6.993   4.215   3.533
 1218SOL    HW1 4553   6.940   4.251   3.457
 1218SOL    HW2 4554   6.996   4.282   3.607
 1219SOL     OW 4555   1.538   5.979   3.025
 1219SOL    HW1 4556   1.628   5.937   3.038
 1219SOL    HW2 4557   1.474   5.911   2.991
 1220SOL     OW 4558   6.651   4.442   3.002
 1220SOL    HW1 4559   6.574   4.505   2.990
 1220SOL    HW2 4560   6.617   4.348   2.998
 1221SOL     OW 4561   4.732   4.956   6.803
 1221SOL    HW1 4562   4.691   4.864   6.802
 1221SOL    HW2 4563   4.688   5.011   6.874
 1222SOL     OW 4564   6.706   5.147   1.026
 1222SOL    HW1 4565   6.717   5.223   0.963
 1222SOL    HW2 4566   6.674   5.066   0.976
 1223SOL     OW 4567   0.677   4.645   4.614
 1223SOL    HW1 4568   0.671   4.546   4.627
 1223SOL    HW2 4569   0.750   4.682   4.671
 1224SOL     OW 4570   3.991   5.144   1.418
 1224SOL    HW1 4571   3.983   5.157   1.319
 1224SOL    HW2 4572   3.905   5.167   1.462
 1225SOL     OW 4573   4.920   1.673   6.326
 1225SOL    HW1 4574   4.993   1.672   6.394
 1225SOL    HW2 4575   4.866   1.757   6.337
 1226SOL     OW 4576   5.865   5.489   0.641
 1226SOL    HW1 4577   5.917   5.487   0.555
 1226SOL    HW2 4578   5.915   5.543   0.709
 1227SOL     OW 4579   6.014   4.521   0.576
 1227SOL    HW1 4580   6.054   4.517   0.484
 1227SOL    HW2 4581   5.973   4.611   0.590
 1228SOL     OW 4582   3.972   3.913   5.238
 1228SOL    HW1 4583   3.929   4.000   5.262
 1228SOL    HW2 4584   3.957   3.895   5.141
 1229SOL     OW 4585   1.791   5.222   2.041
 1229SOL    HW1 4586   1.842   5.184   2.118
 1229SOL    HW2 4587   1.834   5.193   1.955
 1230SOL     OW 4588   5.351   4.642   0.171
 1230SOL    HW1 4589   5.280   4.665   0.238
 1230SOL    HW2 4590   5.439   4.675   0.203
 1231SOL     OW 4591   1.702   0.519   0.826
 1231SOL    HW1 4592   1.648   0.585   0.878
 1231SOL    HW2 4593   1.727   0.441   0.885
 1232SOL     OW 4594   2.388   1.356   5.902
 1232SOL    HW1 4595   2.315   1.328   5.965
 1232SOL    HW2 4596   2.458   1.406   5.953
 1233SOL     OW 4597   0.168   5.315   4.495
 1233SOL    HW1 4598   0.208   5.227   4.519
 1233SOL    HW2 4599   0.070   5.304   4.479
 1234SOL     OW 4600   6.897   4.276   5.264
 1234SOL    HW1 4601   6.922   4.370   5.241
 1234SOL    HW2 4602   6.980   4.222   5.276
 1235SOL     OW 4603   6.559   5.260   0.154
 1235SOL    HW1 4604   6.480   5.303   0.111
 1235SOL    HW2 4605   6.528   5.200   0.228
 1236SOL     OW 4606   0.632   0.736   2.918
 1236SOL    HW1 4607   0.626   0.636   2.916
 1236SOL    HW2 4608   0.685   0.767   2.840
 1237SOL     OW 4609   0.561   0.765   4.794
 1237SOL    HW1 4610   0.602   0.697   4.733
 1237SOL    HW2 4611   0.632   0.823   4.832
 1238SOL     OW 4612   0.565   0.907   4.505
 1238SOL    HW1 4613   0.533   0.918   4.599
 1238SOL    HW2 4614   0.527   0.980   4.447
 1239SOL     OW 4615   4.896   4.727   3.534
 1239SOL    HW1 4616   4.894   4.694   3.628
 1239SOL    HW2 4617   4.865   4.822   3.531
 1240SOL     OW 4618   0.874   4.060   1.808
 1240SOL    HW1 4619   0.893   4.022   1.717
 1240SOL    HW2 4620   0.863   3.985   1.873
 1241SOL     OW 4621   3.489   5.663   6.516
 1241SOL    HW1 4622   3.500   5.572   6.477
 1241SOL    HW2 4623   3.577   5.711   6.514
 1242SOL     OW 4624   2.254   5.751   0.729
 1242SOL    HW1 4625   2.312   5.803   0.792
 1242SOL    HW2 4626   2.308   5.681   0.683
 1243SOL     OW 4627   0.824   4.155   3.860
 1243SOL    HW1 4628   0.895   4.177   3.793
 1243SOL    HW2 4629   0.740   4.203   3.837
 1244SOL     OW 4630   6.639   6.607   4.518
 1244SOL    HW1 4631   6.566   6.667   4.550
 1244SOL    HW2 4632   6.717   6.661   4.490
 1245SOL     OW 4633   4.379   0.195   1.736
 1245SOL    HW1 4634   4.352   0.099   1.747
 1245SOL    HW2 4635   4.433   0.205   1.653
 1246SOL     OW 4636   5.148   2.645   2.541
 1246SOL    HW1 4637   5.073   2.596   2.586
 1246SOL    HW2 4638   5.145   2.742   2.567
 1247SOL     OW 4639   4.623   6.413   2.958
 1247SOL    HW1 4640   4.595   6.489   2.899
 1247SOL    HW2 4641   4.561   6.336   2.944
 1248SOL     OW 4642   6.847   0.554   4.877
 1248SOL    HW1 4643   6.786   0.614   4.929
 1248SOL    HW2 4644   6.877   0.602   4.794
 1249SOL     OW 4645   6.288   6.854   0.048
 1249SOL    HW1 4646   6.375   6.880   0.089
 1249SOL    HW2 4647   6.216   6.860   0.117
 1250SOL     OW 4648   0.426   4.205   4.668
 1250SOL    HW1 4649   0.330   4.182   4.684
 1250SOL    HW2 4650   0.455   4.274   4.735
 1251SOL     OW 4651   2.332   0.634   3.450
 1251SOL    HW1 4652   2.406   0.581   3.491
 1251SOL    HW2 4653   2.361   0.730   3.440
 1252SOL     OW 4654   2.306   4.996   6.138
 1252SOL    HW1 4655   2.231   5.046   6.180
 1252SOL    HW2 4656   2.387   5.054   6.133
 1253SOL     OW 4657   3.561   5.270   0.690
 1253SOL    HW1 4658   3.481   5.211   0.684
 1253SOL    HW2 4659   3.632   5.236   0.628
 1254SOL     OW 4660   6.986   0.849   3.636
 1254SOL    HW1 4661   0.008   0.775   3.686
 1254SOL    HW2 4662   6.893   0.821   3.610
 1255SOL     OW 4663   5.750   1.748   6.375
 1255SOL    HW1 4664   5.699   1.663   6.391
 1255SOL    HW2 4665   5.700   1.804   6.309
 1256SOL     OW 4666   6.452   6.204   6.191
 1256SOL    HW1 4667   6.473   6.284   6.134
 1256SOL    HW2 4668   6.355   6.182   6.182
 1257SOL     OW 4669   0.011   6.487   2.411
 1257SOL    HW1 4670   0.079   6.560   2.409
 1257SOL    HW2 4671   0.034   6.419   2.342
 1258SOL     OW 4672   5.179   5.718   6.521
 1258SOL    HW1 4673   5.276   5.717   6.546
 1258SOL    HW2 4674   5.124   5.686   6.599
 1259SOL     OW 4675   6.380   6.733   4.552
 1259SOL    HW1 4676   6.389   6.761   4.648
 1259SOL    HW2 4677   6.285   6.705   4.534
 1260SOL     OW 4678   3.027   0.765   0.977
 1260SOL    HW1 4679   2.940   0.723   0.953
 1260SOL    HW2 4680   3.064   0.722   1.059
 1261SOL     OW 4681   0.533   4.233   4.990
 1261SOL    HW1 4682   0.496   4.201   5.078
 1261SOL    HW2 4683   0.625   4.196   4.977
 1262SOL     OW 4684   4.344   6.763   0.781
 1262SOL    HW1 4685   4.345   6.750   0.682
 1262SOL    HW2 4686   4.339   6.861   0.801
 1263SOL     OW 4687   6.796   1.159   1.036
 1263SOL    HW1 4688   6.827   1.251   1.009
 1263SOL    HW2 4689   6.808   1.148   1.134
 1264SOL     OW 4690   5.764   2.832   5.087
 1264SOL    HW1 4691   5.709   2.776   5.025
 1264SOL    HW2 4692   5.765   2.791   5.178
 1265SOL     OW 4693   5.618   5.282   4.095
 1265SOL    HW1 4694   5.679   5.208   4.068
 1265SOL    HW2 4695   5.646   5.367   4.049
 1266SOL     OW 4696   2.465   0.714   3.799
 1266SOL    HW1 4697   2.426   0.805   3.815
 1266SOL    HW2 4698   2.444   0.654   3.876
 1267SOL     OW 4699   0.291   4.885   2.260
 1267SOL    HW1 4700   0.213   4.895   2.321
 1267SOL    HW2 4701   0.362   4.830   2.305
 1268SOL     OW 4702   6.442   4.791   6.708
 1268SOL    HW1 4703   6.393   4.829   6.786
 1268SOL    HW2 4704   6.512   4.727   6.740
 1269SOL     OW 4705   1.299   3.726   6.374
 1269SOL    HW1 4706   1.285   3.743   6.277
 1269SOL    HW2 4707   1.321   3.630   6.389
 1270SOL     OW 4708   1.662   2.331   3.697
 1270SOL    HW1 4709   1.637   2.271   3.621
 1270SOL    HW2 4710   1.762   2.340   3.701
 1271SOL     OW 4711   5.608   3.656   3.027
 1271SOL    HW1 4712   5.632   3.583   3.091
 1271SOL    HW2 4713   5.546   3.621   2.957
 1272SOL     OW 4714   5.775   6.671   0.619
 1272SOL    HW1 4715   5.739   6.585   0.583
 1272SOL    HW2 4716   5.744   6.683   0.714
 1273SOL     OW 4717   2.592   6.675   4.442
 1273SOL    HW1 4718   2.628   6.582   4.443
 1273SOL    HW2 4719   2.659   6.738   4.481
 1274SOL     OW 4720   5.221   2.455   2.014
 1274SOL    HW1 4721   5.155   2.526   2.036
 1274SOL    HW2 4722   5.288   2.447   2.088
 1275SOL     OW 4723   3.719   1.156   3.799
 1275SOL    HW1 4724   3.718   1.203   3.887
 1275SOL    HW2 4725   3.695   1.220   3.726
 1276SOL     OW 4726   5.308   6.571   3.457
 1276SOL    HW1 4727   5.223   6.547   3.504
 1276SOL    HW2 4728   5.301   6.549   3.360
 1277SOL     OW 4729   0.707   2.032   4.909
 1277SOL    HW1 4730   0.644   1.988   4.845
 1277SOL    HW2 4731   0.778   1.967   4.936
 1278SOL     OW 4732   2.964   1.694   4.994
 1278SOL    HW1 4733   2.985   1.626   4.924
 1278SOL    HW2 4734   2.929   1.777   4.949
 1279SOL     OW 4735   2.136   4.953   0.469
 1279SOL    HW1 4736   2.128   4.969   0.568
 1279SOL    HW2 4737   2.057   4.992   0.422
 1280SOL     OW 4738   0.979   6.297   3.073
 1280SOL    HW1 4739   1.064   6.286   3.021
 1280SOL    HW2 4740   0.996   6.274   3.169
 1281SOL     OW 4741   0.710   6.555   4.110
 1281SOL    HW1 4742   0.799   6.511   4.099
 1281SOL    HW2 4743   0.639   6.497   4.070
 1282SOL     OW 4744   1.885   6.591   2.508
 1282SOL    HW1 4745   1.858   6.657   2.438
 1282SOL    HW2 4746   1.810   6.579   2.573
 1283SOL     OW 4747   5.026   4.259   5.223
 1283SOL    HW1 4748   5.034   4.288   5.128
 1283SOL    HW2 4749   4.980   4.170   5.227
 1284SOL     OW 4750   2.693   2.077   3.016
 1284SOL    HW1 4751   2.709   2.018   3.095
 1284SOL    HW2 4752   2.780   2.096   2.971
 1285SOL     OW 4753   5.719   2.242   5.582
 1285SOL    HW1 4754   5.751   2.147   5.585
 1285SOL    HW2 4755   5.625   2.245   5.549
 1286SOL     OW 4756   5.313   5.885   0.674
 1286SOL    HW1 4757   5.382   5.837   0.620
 1286SOL    HW2 4758   5.221   5.858   0.644
 1287SOL     OW 4759   6.127   3.140   6.114
 1287SOL    HW1 4760   6.048   3.143   6.053
 1287SOL    HW2 4761   6.189   3.067   6.084
 1288SOL     OW 4762   0.158   3.115   3.577
 1288SOL    HW1 4763   0.201   3.142   3.491
 1288SOL    HW2 4764   0.075   3.064   3.558
 1289SOL     OW 4765   0.514   5.046   2.747
 1289SOL    HW1 4766   0.468   4.995   2.674
 1289SOL    HW2 4767   0.483   5.141   2.745
 1290SOL     OW 4768   6.530   7.015   2.194
 1290SOL    HW1 4769   6.569   6.946   2.132
 1290SOL    HW2 4770   6.483   6.970   2.269
 1291SOL     OW 4771   1.866   5.817   1.572
 1291SOL    HW1 4772   1.835   5.857   1.486
 1291SOL    HW2 4773   1.962   5.792   1.565
 1292SOL     OW 4774   1.603   6.651   0.927
 1292SOL    HW1 4775   1.699   6.645   0.899
 1292SOL    HW2 4776   1.544   6.623   0.851
 1293SOL     OW 4777   6.403   1.450   6.777
 1293SOL    HW1 4778   6.462   1.506   6.720
 1293SOL    HW2 4779   6.307   1.470   6.757
 1294SOL     OW 4780   0.587   1.866   4.307
 1294SOL    HW1 4781   0.650   1.927   4.258
 1294SOL    HW2 4782   0.632   1.832   4.390
 1295SOL     OW 4783   5.120   4.406   0.760
 1295SOL    HW1 4784   5.085   4.400   0.667
 1295SOL    HW2 4785   5.062   4.469   0.813
 1296SOL     OW 4786   3.558   1.407   0.703
 1296SOL    HW1 4787   3.484   1.419   0.770
 1296SOL    HW2 4788   3.598   1.496   0.681
 1297SOL     OW 4789   5.835   0.941   6.322
 1297SOL    HW1 4790   5.794   1.021   6.365
 1297SOL    HW2 4791   5.828   0.949   6.223
 1298SOL     OW 4792   6.059   2.772   3.168
 1298SOL    HW1 4793   6.083   2.791   3.073
 1298SOL    HW2 4794   6.093   2.845   3.227
 1299SOL     OW 4795   1.295   4.077   4.637
 1299SOL    HW1 4796   1.316   4.136   4.715
 1299SOL    HW2 4797   1.376   4.024   4.612
 1300SOL     OW 4798   3.762   2.922   3.137
 1300SOL    HW1 4799   3.808   2.877   3.214
 1300SOL    HW2 4800   3.665   2.900   3.138
 1301SOL     OW 4801   0.898   0.781   1.745
 1301SOL    HW1 4802   0.818   0.833   1.773
 1301SOL    HW2 4803   0.898   0.769   1.646
 1302SOL     OW 4804   2.821   6.022   5.503
 1302SOL    HW1 4805   2.805   5.989   5.596
 1302SOL    HW2 4806   2.811   6.121   5.500
 1303SOL     OW 4807   3.044   0.179   1.386
 1303SOL    HW1 4808   2.945   0.179   1.376
 1303SOL    HW2 4809   3.073   0.262   1.434
 1304SOL     OW 4810   3.786   0.886   5.646
 1304SOL    HW1 4811   3.762   0.832   5.727
 1304SOL    HW2 4812   3.866   0.942   5.666
 1305SOL     OW 4813   5.756   6.879   4.320
 1305SOL    HW1 4814   5.662   6.905   4.301
 1305SOL    HW2 4815   5.814   6.901   4.241
 1306SOL     OW 4816   1.511   5.177   3.698
 1306SOL    HW1 4817   1.545   5.094   3.742
 1306SOL    HW2 4818   1.571   5.254   3.720
 1307SOL     OW 4819   1.212   1.143   5.270
 1307SOL    HW1 4820   1.205   1.157   5.172
 1307SOL    HW2 4821   1.278   1.208   5.309
 1308SOL     OW 4822   4.244   6.474   3.189
 1308SOL    HW1 4823   4.144   6.466   3.193
 1308SOL    HW2 4824   4.279   6.502   3.278
 1309SOL     OW 4825   6.427   3.183   4.014
 1309SOL    HW1 4826   6.513   3.203   4.060
 1309SOL    HW2 4827   6.368   3.130   4.075
 1310SOL     OW 4828   5.754   3.755   5.598
 1310SOL    HW1 4829   5.853   3.764   5.591
 1310SOL    HW2 4830   5.721   3.800   5.681
 1311SOL     OW 4831   4.623   4.729   0.458
 1311SOL    HW1 4832   4.577   4.818   0.452
 1311SOL    HW2 4833   4.563   4.658   0.421
 1312SOL     OW 4834   6.830   1.212   1.949
 1312SOL    HW1 4835   6.823   1.117   1.981
 1312SOL    HW2 4836   6.915   1.252   1.982
 1313SOL     OW 4837   4.044   4.934   4.987
 1313SOL    HW1 4838   3.956   4.911   4.945
 1313SOL    HW2 4839   4.096   4.992   4.924
 1314SOL     OW 4840   0.357   1.156   6.581
 1314SOL    HW1 4841   0.268   1.184   6.616
 1314SOL    HW2 4842   0.386   1.219   6.508
 1315SOL     OW 4843   1.595   6.638   4.133
 1315SOL    HW1 4844   1.677   6.676   4.175
 1315SOL    HW2 4845   1.538   6.712   4.098
 1316SOL     OW 4846   3.387   5.751   3.894
 1316SOL    HW1 4847   3.477   5.754   3.851
 1316SOL    HW2 4848   3.316   5.762   3.823
 1317SOL     OW 4849   0.358   2.944   3.693
 1317SOL    HW1 4850   0.292   3.004   3.647
 1317SOL    HW2 4851   0.314   2.899   3.770
 1318SOL     OW 4852   0.833   0.059   2.588
 1318SOL    HW1 4853   0.916   0.115   2.598
 1318SOL    HW2 4854   0.816   0.043   2.490
 1319SOL     OW 4855   0.704   6.590   0.957
 1319SOL    HW1 4856   0.639   6.652   0.915
 1319SOL    HW2 4857   0.758   6.545   0.885
 1320SOL     OW 4858   5.094   5.181   5.232
 1320SOL    HW1 4859   5.000   5.152   5.250
 1320SOL    HW2 4860   5.156   5.133   5.294
 1321SOL     OW 4861   3.359   1.290   1.101
 1321SOL    HW1 4862   3.453   1.266   1.078
 1321SOL    HW2 4863   3.306   1.207   1.115
 1322SOL     OW 4864   4.661   1.182   6.170
 1322SOL    HW1 4865   4.661   1.084   6.152
 1322SOL    HW2 4866   4.739   1.225   6.123
 1323SOL     OW 4867   6.440   0.812   4.120
 1323SOL    HW1 4868   6.398   0.830   4.031
 1323SOL    HW2 4869   6.539   0.804   4.109
 1324SOL     OW 4870   1.230   2.489   0.250
 1324SOL    HW1 4871   1.131   2.483   0.258
 1324SOL    HW2 4872   1.272   2.465   0.337
 1325SOL     OW 4873   4.595   4.950   3.651
 1325SOL    HW1 4874   4.509   4.919   3.611
 1325SOL    HW2 4875   4.581   5.037   3.698
 1326SOL     OW 4876   5.499   4.220   4.394
 1326SOL    HW1 4877   5.426   4.171   4.440
 1326SOL    HW2 4878   5.587   4.179   4.418
 1327SOL     OW 4879   3.005   6.227   3.786
 1327SOL    HW1 4880   3.004   6.141   3.837
 1327SOL    HW2 4881   2.916   6.241   3.743
 1328SOL     OW 4882   2.344   1.849   1.646
 1328SOL    HW1 4883   2.394   1.763   1.655
 1328SOL    HW2 4884   2.389   1.920   1.700
 1329SOL     OW 4885   1.288   5.920   1.440
 1329SOL    HW1 4886   1.236   5.868   1.508
 1329SOL    HW2 4887   1.375   5.873   1.422
 1330SOL     OW 4888   5.511   6.514   1.664
 1330SOL    HW1 4889   5.532   6.610   1.647
 1330SOL    HW2 4890   5.474   6.504   1.757
 1331SOL     OW 4891   0.477   2.014   1.644
 1331SOL    HW1 4892   0.425   1.998   1.728
 1331SOL    HW2 4893   0.438   1.961   1.570
 1332SOL     OW 4894   4.858   1.965   0.572
 1332SOL    HW1 4895   4.803   2.037   0.614
 1332SOL    HW2 4896   4.807   1.879   0.572
 1333SOL     OW 4897   4.123   3.206   5.554
 1333SOL    HW1 4898   4.088   3.287   5.506
 1333SOL    HW2 4899   4.068   3.126   5.529
 1334SOL     OW 4900   1.948   3.345   4.418
 1334SOL    HW1 4901   1.868   3.368   4.363
 1334SOL    HW2 4902   1.947   3.397   4.503
 1335SOL     OW 4903   2.161   5.028   3.971
 1335SOL    HW1 4904   2.093   5.050   4.041
 1335SOL    HW2 4905   2.227   4.963   4.007
 1336SOL     OW 4906   0.182   6.537   5.391
 1336SOL    HW1 4907   0.118   6.602   5.350
 1336SOL    HW2 4908   0.147   6.508   5.480
 1337SOL     OW 4909   3.131   0.139   6.686
 1337SOL    HW1 4910   3.085   0.227   6.689
 1337SOL    HW2 4911   3.217   0.144   6.737
 1338SOL     OW 4912   3.786   4.738   0.924
 1338SOL    HW1 4913   3.828   4.707   0.839
 1338SOL    HW2 4914   3.857   4.750   0.994
 1339SOL     OW 4915   0.144   3.875   6.347
 1339SOL    HW1 4916   0.176   3.874   6.441
 1339SOL    HW2 4917   0.063   3.817   6.339
 1340SOL     OW 4918   2.844   2.165   5.878
 1340SOL    HW1 4919   2.938   2.198   5.891
 1340SOL    HW2 4920   2.846   2.067   5.857
 1341SOL     OW 4921   5.727   1.599   4.314
 1341SOL    HW1 4922   5.740   1.646   4.226
 1341SOL    HW2 4923   5.757   1.504   4.305
 1342SOL     OW 4924   0.001   6.644   0.400
 1342SOL    HW1 4925   0.092   6.619   0.367
 1342SOL    HW2 4926   7.014   6.621   0.497
 1343SOL     OW 4927   3.044   6.184   3.344
 1343SOL    HW1 4928   3.016   6.100   3.296
 1343SOL    HW2 4929   3.122   6.225   3.297
 1344SOL     OW 4930   4.760   1.636   2.462
 1344SOL    HW1 4931   4.721   1.631   2.370
 1344SOL    HW2 4932   4.820   1.557   2.476
 1345SOL     OW 4933   6.694   5.841   2.464
 1345SOL    HW1 4934   6.650   5.815   2.378
 1345SOL    HW2 4935   6.633   5.819   2.540
 1346SOL     OW 4936   6.883   1.679   3.015
 1346SOL    HW1 4937   6.818   1.604   3.023
 1346SOL    HW2 4938   6.855   1.754   3.075
 1347SOL     OW 4939   4.470   1.017   3.736
 1347SOL    HW1 4940   4.416   1.082   3.790
 1347SOL    HW2 4941   4.411   0.976   3.666
 1348SOL     OW 4942   5.244   6.230   4.947
 1348SOL    HW1 4943   5.298   6.152   4.978
 1348SOL    HW2 4944   5.187   6.264   5.021
 1349SOL     OW 4945   5.122   1.916   6.954
 1349SOL    HW1 4946   5.204   1.911   7.012
 1349SOL    HW2 4947   5.129   1.848   6.881
 1350SOL     OW 4948   3.897   1.295   4.412
 1350SOL    HW1 4949   3.903   1.328   4.506
 1350SOL    HW2 4950   3.829   1.349   4.362
 1351SOL     OW 4951   1.427   1.508   4.059
 1351SOL    HW1 4952   1.475   1.546   4.138
 1351SOL    HW2 4953   1.402   1.582   3.996
 1352SOL     OW 4954   1.083   6.111   4.688
 1352SOL    HW1 4955   1.082   6.027   4.633
 1352SOL    HW2 4956   1.170   6.159   4.675
 1353SOL     OW 4957   2.692   3.580   6.064
 1353SOL    HW1 4958   2.787   3.592   6.091
 1353SOL    HW2 4959   2.681   3.603   5.967
 1354SOL     OW 4960   0.221   6.417   6.764
 1354SOL    HW1 4961   0.268   6.335   6.795
 1354SOL    HW2 4962   0.265   6.498   6.803
 1355SOL     OW 4963   4.980   3.507   0.277
 1355SOL    HW1 4964   4.897   3.476   0.322
 1355SOL    HW2 4965   4.958   3.578   0.210
 1356SOL     OW 4966   3.526   3.019   2.651
 1356SOL    HW1 4967   3.615   2.975   2.639
 1356SOL    HW2 4968   3.459   2.976   2.592
 1357SOL     OW 4969   3.863   2.324   5.626
 1357SOL    HW1 4970   3.897   2.238   5.666
 1357SOL    HW2 4971   3.781   2.354   5.676
 1358SOL     OW 4972   1.608   3.052   5.341
 1358SOL    HW1 4973   1.535   3.016   5.284
 1358SOL    HW2 4974   1.588   3.146   5.367
 1359SOL     OW 4975   0.718   1.642   6.640
 1359SOL    HW1 4976   0.800   1.650   6.583
 1359SOL    HW2 4977   0.658   1.721   6.624
 1360SOL     OW 4978   3.314   3.259   4.469
 1360SOL    HW1 4979   3.271   3.349   4.460
 1360SOL    HW2 4980   3.361   3.254   4.557
 1361SOL     OW 4981   1.351   6.295   0.816
 1361SOL    HW1 4982   1.392   6.280   0.906
 1361SOL    HW2 4983   1.378   6.385   0.781
 1362SOL     OW 4984   3.652   1.259   6.535
 1362SOL    HW1 4985   3.712   1.337   6.519
 1362SOL    HW2 4986   3.693   1.197   6.602
 1363SOL     OW 4987   6.498   6.429   1.187
 1363SOL    HW1 4988   6.493   6.398   1.282
 1363SOL    HW2 4989   6.518   6.351   1.128
 1364SOL     OW 4990   1.116   3.367   0.724
 1364SOL    HW1 4991   1.175   3.357   0.804
 1364SOL    HW2 4992   1.105   3.464   0.702
 1365SOL     OW 4993   1.486   3.279   6.622
 1365SOL    HW1 4994   1.506   3.236   6.534
 1365SOL    HW2 4995   1.497   3.212   6.696
 1366SOL     OW 4996   3.667   1.298   1.593
 1366SOL    HW1 4997   3.745   1.358   1.606
 1366SOL    HW2 4998   3.686   1.209   1.636
 1367SOL     OW 4999   1.513   0.085   4.396
 1367SOL    HW1 5000   1.427   0.132   4.416
 1367SOL    HW2 5001   1.497   0.011   4.331
 1368SOL     OW 5002   1.576   6.074   5.176
 1368SOL    HW1 5003   1.640   6.036   5.244
 1368SOL    HW2 5004   1.625   6.089   5.090
 1369SOL     OW 5005   2.253   5.460   3.219
 1369SOL    HW1 5006   2.162   5.491   3.249
 1369SOL    HW2 5007   2.274   5.373   3.264
 1370SOL     OW 5008   0.034   3.027   2.962
 1370SOL    HW1 5009   0.127   2.999   2.984
 1370SOL    HW2 5010   0.032   3.064   2.869
 1371SOL     OW 5011   6.157   1.809   6.616
 1371SOL    HW1 5012   6.213   1.863   6.679
 1371SOL    HW2 5013   6.093   1.752   6.668
 1372SOL     OW 5014   5.202   2.793   2.264
 1372SOL    HW1 5015   5.230   2.826   2.355
 1372SOL    HW2 5016   5.149   2.709   2.275
 1373SOL     OW 5017   4.681   2.527   1.594
 1373SOL    HW1 5018   4.713   2.617   1.563
 1373SOL    HW2 5019   4.582   2.526   1.595
 1374SOL     OW 5020   3.578   4.137   3.349
 1374SOL    HW1 5021   3.576   4.232   3.379
 1374SOL    HW2 5022   3.538   4.130   3.257
 1375SOL     OW 5023   5.434   4.146   5.052
 1375SOL    HW1 5024   5.533   4.159   5.051
 1375SOL    HW2 5025   5.409   4.077   4.985
 1376SOL     OW 5026   3.209   4.830   5.937
 1376SOL    HW1 5027   3.125   4.884   5.928
 1376SOL    HW2 5028   3.275   4.880   5.992
 1377SOL     OW 5029   1.241   2.180   3.651
 1377SOL    HW1 5030   1.169   2.235   3.608
 1377SOL    HW2 5031   1.299   2.140   3.581
 1378SOL     OW 5032   4.411   2.178   4.149
 1378SOL    HW1 5033   4.453   2.247   4.207
 1378SOL    HW2 5034   4.477   2.106   4.128
 1379SOL     OW 5035   5.099   6.022   6.430
 1379SOL    HW1 5036   5.141   5.937   6.461
 1379SOL    HW2 5037   5.005   6.026   6.463
 1380SOL     OW 5038   0.189   6.123   4.314
 1380SOL    HW1 5039   0.230   6.103   4.226
 1380SOL    HW2 5040   0.161   6.037   4.358
 1381SOL     OW 5041   6.892   2.370   6.222
 1381SOL    HW1 5042   6.862   2.317   6.143
 1381SOL    HW2 5043   6.988   2.349   6.241
 1382SOL     OW 5044   4.484   2.215   5.738
 1382SOL    HW1 5045   4.406   2.165   5.700
 1382SOL    HW2 5046   4.454   2.304   5.769
 1383SOL     OW 5047   5.464   0.458   0.824
 1383SOL    HW1 5048   5.377   0.505   0.813
 1383SOL    HW2 5049   5.536   0.511   0.779
 1384SOL     OW 5050   5.580   2.204   2.744
 1384SOL    HW1 5051   5.565   2.170   2.651
 1384SOL    HW2 5052   5.600   2.301   2.742
 1385SOL     OW 5053   6.632   6.598   1.880
 1385SOL    HW1 5054   6.602   6.537   1.953
 1385SOL    HW2 5055   6.710   6.558   1.833
 1386SOL     OW 5056   1.623   0.380   4.270
 1386SOL    HW1 5057   1.559   0.407   4.341
 1386SOL    HW2 5058   1.649   0.284   4.282
 1387SOL     OW 5059   0.853   5.943   1.684
 1387SOL    HW1 5060   0.919   5.935   1.759
 1387SOL    HW2 5061   0.797   5.860   1.680
 1388SOL     OW 5062   6.440   1.058   1.828
 1388SOL    HW1 5063   6.453   1.054   1.927
 1388SOL    HW2 5064   6.433   1.153   1.798
 1389SOL     OW 5065   6.390   1.304   1.730
 1389SOL    HW1 5066   6.352   1.298   1.638
 1389SOL    HW2 5067   6.461   1.374   1.732
 1390SOL     OW 5068   0.914   1.624   4.328
 1390SOL    HW1 5069   0.868   1.681   4.395
 1390SOL    HW2 5070   0.950   1.542   4.373
 1391SOL     OW 5071   0.871   3.175   3.379
 1391SOL    HW1 5072   0.829   3.122   3.452
 1391SOL    HW2 5073   0.863   3.126   3.292
 1392SOL     OW 5074   5.977   5.272   3.783
 1392SOL    HW1 5075   6.019   5.198   3.729
 1392SOL    HW2 5076   5.882   5.283   3.754
 1393SOL     OW 5077   3.718   5.136   6.897
 1393SOL    HW1 5078   3.709   5.227   6.856
 1393SOL    HW2 5079   3.700   5.142   6.995
 1394SOL     OW 5080   1.305   6.712   6.728
 1394SOL    HW1 5081   1.263   6.629   6.691
 1394SOL    HW2 5082   1.359   6.756   6.657
 1395SOL     OW 5083   3.921   4.702   6.406
 1395SOL    HW1 5084   3.836   4.709   6.354
 1395SOL    HW2 5085   3.961   4.794   6.417
 1396SOL     OW 5086   5.073   5.885   3.318
 1396SOL    HW1 5087   5.155   5.935   3.291
 1396SOL    HW2 5088   4.992   5.935   3.287
 1397SOL     OW 5089   5.872   6.168   4.906
 1397SOL    HW1 5090   5.883   6.165   4.807
 1397SOL    HW2 5091   5.915   6.087   4.947
 1398SOL     OW 5092   1.543   6.820   5.623
 1398SOL    HW1 5093   1.511   6.813   5.529
 1398SOL    HW2 5094   1.636   6.857   5.624
 1399SOL     OW 5095   3.118   5.340   2.346
 1399SOL    HW1 5096   3.116   5.422   2.403
 1399SOL    HW2 5097   3.084   5.262   2.400
 1400SOL     OW 5098   1.079   0.115   3.538
 1400SOL    HW1 5099   1.171   0.128   3.501
 1400SOL    HW2 5100   1.072   0.160   3.627
 1401SOL     OW 5101   6.458   2.083   4.130
 1401SOL    HW1 5102   6.502   2.009   4.180
 1401SOL    HW2 5103   6.375   2.111   4.178
 1402SOL     OW 5104   5.631   2.460   7.000
 1402SOL    HW1 5105   5.618   2.416   0.067
 1402SOL    HW2 5106   5.542   2.490   6.964
 1403SOL     OW 5107   3.646   0.694   1.790
 1403SOL    HW1 5108   3.585   0.641   1.731
 1403SOL    HW2 5109   3.728   0.641   1.810
 1404SOL     OW 5110   4.109   0.705   0.219
 1404SOL    HW1 5111   4.117   0.710   0.120
 1404SOL    HW2 5112   4.013   0.708   0.245
 1405SOL     OW 5113   3.806   2.882   1.044
 1405SOL    HW1 5114   3.785   2.819   1.119
 1405SOL    HW2 5115   3.905   2.886   1.030
 1406SOL     OW 5116   0.987   3.483   2.255
 1406SOL    HW1 5117   0.987   3.493   2.156
 1406SOL    HW2 5118   1.081   3.492   2.290
 1407SOL     OW 5119   6.935   2.558   2.567
 1407SOL    HW1 5120   6.889   2.528   2.483
 1407SOL    HW2 5121   6.882   2.528   2.647
 1408SOL     OW 5122   6.581   5.184   6.619
 1408SOL    HW1 5123   6.577   5.089   6.588
 1408SOL    HW2 5124   6.566   5.245   6.542
 1409SOL     OW 5125   0.343   1.339   4.290
 1409SOL    HW1 5126   0.353   1.431   4.328
 1409SOL    HW2 5127   0.414   1.323   4.222
 1410SOL     OW 5128   6.841   1.925   6.741
 1410SOL    HW1 5129   6.832   1.826   6.757
 1410SOL    HW2 5130   6.936   1.946   6.718
 1411SOL     OW 5131   1.603   1.402   1.210
 1411SOL    HW1 5132   1.640   1.333   1.148
 1411SOL    HW2 5133   1.678   1.454   1.251
 1412SOL     OW 5134   1.834   2.529   0.316
 1412SOL    HW1 5135   1.857   2.626   0.303
 1412SOL    HW2 5136   1.875   2.475   0.243
 1413SOL     OW 5137   3.228   0.049   3.318
 1413SOL    HW1 5138   3.223   0.134   3.266
 1413SOL    HW2 5139   3.146   0.039   3.374
 1414SOL     OW 5140   1.588   1.249   2.465
 1414SOL    HW1 5141   1.528   1.196   2.525
 1414SOL    HW2 5142   1.563   1.346   2.470
 1415SOL     OW 5143   5.719   6.797   4.846
 1415SOL    HW1 5144   5.755   6.841   4.764
 1415SOL    HW2 5145   5.697   6.702   4.826
 1416SOL     OW 5146   4.805   5.628   3.378
 1416SOL    HW1 5147   4.749   5.682   3.440
 1416SOL    HW2 5148   4.807   5.533   3.408
 1417SOL     OW 5149   4.010   2.516   6.149
 1417SOL    HW1 5150   3.962   2.538   6.233
 1417SOL    HW2 5151   3.987   2.423   6.121
 1418SOL     OW 5152   3.285   3.967   3.506
 1418SOL    HW1 5153   3.247   3.950   3.597
 1418SOL    HW2 5154   3.222   4.026   3.455
 1419SOL     OW 5155   3.343   6.843   3.668
 1419SOL    HW1 5156   3.284   6.806   3.597
 1419SOL    HW2 5157   3.347   6.943   3.659
 1420SOL     OW 5158   0.808   6.249   2.867
 1420SOL    HW1 5159   0.762   6.336   2.850
 1420SOL    HW2 5160   0.876   6.260   2.939
 1421SOL     OW 5161   3.641   0.996   2.755
 1421SOL    HW1 5162   3.625   1.086   2.796
 1421SOL    HW2 5163   3.728   0.997   2.705
 1422SOL     OW 5164   2.349   6.253   0.810
 1422SOL    HW1 5165   2.283   6.300   0.868
 1422SOL    HW2 5166   2.307   6.171   0.770
 1423SOL     OW 5167   4.995   0.924   2.377
 1423SOL    HW1 5168   5.002   0.982   2.458
 1423SOL    HW2 5169   5.047   0.965   2.302
 1424SOL     OW 5170   6.816   5.501   2.804
 1424SOL    HW1 5171   6.724   5.538   2.812
 1424SOL    HW2 5172   6.880   5.560   2.854
 1425SOL     OW 5173   2.060   0.661   4.517
 1425SOL    HW1 5174   2.036   0.587   4.455
 1425SOL    HW2 5175   2.044   0.749   4.472
 1426SOL     OW 5176   1.599   1.420   6.108
 1426SOL    HW1 5177   1.653   1.461   6.035
 1426SOL    HW2 5178   1.505   1.406   6.076
 1427SOL     OW 5179   5.245   2.118   6.130
 1427SOL    HW1 5180   5.163   2.073   6.165
 1427SOL    HW2 5181   5.225   2.161   6.042
 1428SOL     OW 5182   5.433   0.938   0.700
 1428SOL    HW1 5183   5.462   0.895   0.785
 1428SOL    HW2 5184   5.452   0.876   0.624
 1429SOL     OW 5185   5.669   5.889   0.209
 1429SOL    HW1 5186   5.717   5.931   0.287
 1429SOL    HW2 5187   5.578   5.859   0.239
 1430SOL     OW 5188   3.176   4.887   2.522
 1430SOL    HW1 5189   3.118   4.849   2.594
 1430SOL    HW2 5190   3.129   4.881   2.435
 1431SOL     OW 5191   1.930   0.240   0.671
 1431SOL    HW1 5192   1.869   0.236   0.592
 1431SOL    HW2 5193   1.876   0.225   0.755
 1432SOL     OW 5194   3.328   6.980   1.385
 1432SOL    HW1 5195   3.410   6.987   1.329
 1432SOL    HW2 5196   3.341   6.909   1.454
 1433SOL     OW 5197   5.387   6.848   3.484
 1433SOL    HW1 5198   5.366   6.880   3.576
 1433SOL    HW2 5199   5.389   6.748   3.483
 1434SOL     OW 5200   0.874   1.094   5.373
 1434SOL    HW1 5201   0.925   1.062   5.452
 1434SOL    HW2 5202   0.892   1.191   5.359
 1435SOL     OW 5203   6.858   2.488   3.450
 1435SOL    HW1 5204   6.772   2.437   3.457
 1435SOL    HW2 5205   6.838   2.584   3.430
 1436SOL     OW 5206   5.235   3.184   1.462
 1436SOL    HW1 5207   5.290   3.249   1.515
 1436SOL    HW2 5208   5.202   3.229   1.379
 1437SOL     OW 5209   4.691   0.772   2.632
 1437SOL    HW1 5210   4.598   0.804   2.648
 1437SOL    HW2 5211   4.722   0.717   2.710
 1438SOL     OW 5212   2.416   0.226   2.005
 1438SOL    HW1 5213   2.391   0.141   1.959
 1438SOL    HW2 5214   2.508   0.254   1.977
 1439SOL     OW 5215   0.525   5.825   1.753
 1439SOL    HW1 5216   0.554   5.838   1.848
 1439SOL    HW2 5217   0.504   5.914   1.712
 1440SOL     OW 5218   2.308   2.753   1.469
 1440SOL    HW1 5219   2.339   2.780   1.378
 1440SOL    HW2 5220   2.365   2.677   1.501
 1441SOL     OW 5221   4.881   6.058   6.620
 1441SOL    HW1 5222   4.927   6.108   6.693
 1441SOL    HW2 5223   4.830   5.981   6.658
 1442SOL     OW 5224   5.222   6.013   1.666
 1442SOL    HW1 5225   5.123   6.005   1.676
 1442SOL    HW2 5226   5.263   5.922   1.663
 1443SOL     OW 5227   6.686   2.858   2.108
 1443SOL    HW1 5228   6.730   2.818   2.027
 1443SOL    HW2 5229   6.587   2.850   2.100
 1444SOL     OW 5230   0.404   6.392   5.345
 1444SOL    HW1 5231   0.315   6.438   5.340
 1444SOL    HW2 5232   0.477   6.460   5.339
 1445SOL     OW 5233   0.610   2.130   1.004
 1445SOL    HW1 5234   0.666   2.067   0.951
 1445SOL    HW2 5235   0.668   2.196   1.051
 1446SOL     OW 5236   6.810   5.355   1.222
 1446SOL    HW1 5237   6.760   5.309   1.295
 1446SOL    HW2 5238   6.788   5.311   1.134
 1447SOL     OW 5239   0.167   6.427   4.047
 1447SOL    HW1 5240   0.119   6.501   3.999
 1447SOL    HW2 5241   0.263   6.425   4.020
 1448SOL     OW 5242   1.610   1.320   5.791
 1448SOL    HW1 5243   1.658   1.400   5.828
 1448SOL    HW2 5244   1.640   1.305   5.696
 1449SOL     OW 5245   1.583   2.860   2.736
 1449SOL    HW1 5246   1.643   2.798   2.684
 1449SOL    HW2 5247   1.601   2.849   2.834
 1450SOL     OW 5248   3.436   2.060   2.855
 1450SOL    HW1 5249   3.459   2.039   2.760
 1450SOL    HW2 5250   3.520   2.062   2.909
 1451SOL     OW 5251   4.214   1.805   2.790
 1451SOL    HW1 5252   4.262   1.730   2.836
 1451SOL    HW2 5253   4.161   1.769   2.714
 1452SOL     OW 5254   4.410   2.825   5.674
 1452SOL    HW1 5255   4.480   2.759   5.701
 1452SOL    HW2 5256   4.350   2.783   5.606
 1453SOL     OW 5257   1.268   3.525   5.182
 1453SOL    HW1 5258   1.267   3.624   5.169
 1453SOL    HW2 5259   1.191   3.498   5.240
 1454SOL     OW 5260   3.204   2.165   2.496
 1454SOL    HW1 5261   3.211   2.212   2.407
 1454SOL    HW2 5262   3.237   2.071   2.486
 1455SOL     OW 5263   0.572   5.622   2.146
 1455SOL    HW1 5264   0.642   5.693   2.137
 1455SOL    HW2 5265   0.483   5.665   2.164
 1456SOL     OW 5266   6.757   5.656   4.000
 1456SOL    HW1 5267   6.805   5.652   4.088
 1456SOL    HW2 5268   6.713   5.568   3.981
 1457SOL     OW 5269   0.941   5.333   5.439
 1457SOL    HW1 5270   0.861   5.273   5.446
 1457SOL    HW2 5271   0.953   5.382   5.525
 1458SOL     OW 5272   6.715   5.331   4.618
 1458SOL    HW1 5273   6.637   5.391   4.599
 1458SOL    HW2 5274   6.800   5.380   4.599
 1459SOL     OW 5275   6.680   6.019   5.443
 1459SOL    HW1 5276   6.772   6.006   5.478
 1459SOL    HW2 5277   6.683   6.027   5.343
 1460SOL     OW 5278   1.973   5.780   4.746
 1460SOL    HW1 5279   1.874   5.779   4.756
 1460SOL    HW2 5280   2.015   5.729   4.821
 1461SOL     OW 5281   5.833   3.737   3.660
 1461SOL    HW1 5282   5.879   3.825   3.646
 1461SOL    HW2 5283   5.737   3.753   3.684
 1462SOL     OW 5284   0.908   1.564   2.171
 1462SOL    HW1 5285   0.838   1.621   2.213
 1462SOL    HW2 5286   0.997   1.584   2.213
 1463SOL     OW 5287   1.735   4.691   6.634
 1463SOL    HW1 5288   1.724   4.788   6.612
 1463SOL    HW2 5289   1.783   4.682   6.721
 1464SOL     OW 5290   0.931   4.285   5.251
 1464SOL    HW1 5291   0.989   4.362   5.275
 1464SOL    HW2 5292   0.882   4.253   5.332
 1465SOL     OW 5293   1.017   3.090   5.915
 1465SOL    HW1 5294   1.096   3.127   5.867
 1465SOL    HW2 5295   0.942   3.074   5.850
 1466SOL     OW 5296   5.871   0.686   2.789
 1466SOL    HW1 5297   5.913   0.601   2.820
 1466SOL    HW2 5298   5.933   0.733   2.726
 1467SOL     OW 5299   0.227   0.231   3.782
 1467SOL    HW1 5300   0.313   0.246   3.831
 1467SOL    HW2 5301   0.214   0.133   3.767
 1468SOL     OW 5302   3.720   6.527   3.612
 1468SOL    HW1 5303   3.670   6.444   3.637
 1468SOL    HW2 5304   3.755   6.571   3.695
 1469SOL     OW 5305   5.719   4.474   3.463
 1469SOL    HW1 5306   5.651   4.445   3.396
 1469SOL    HW2 5307   5.794   4.408   3.466
 1470SOL     OW 5308   6.440   2.120   2.231
 1470SOL    HW1 5309   6.456   2.210   2.270
 1470SOL    HW2 5310   6.347   2.115   2.194
 1471SOL     OW 5311   4.793   6.912   0.279
 1471SOL    HW1 5312   4.702   6.890   0.315
 1471SOL    HW2 5313   4.810   7.010   0.288
 1472SOL     OW 5314   2.193   0.797   6.679
 1472SOL    HW1 5315   2.204   0.698   6.668
 1472SOL    HW2 5316   2.138   0.833   6.604
 1473SOL     OW 5317   1.575   5.439   3.461
 1473SOL    HW1 5318   1.621   5.512   3.512
 1473SOL    HW2 5319   1.642   5.392   3.403
 1474SOL     OW 5320   1.445   3.807   1.453
 1474SOL    HW1 5321   1.485   3.829   1.364
 1474SOL    HW2 5322   1.361   3.859   1.465
 1475SOL     OW 5323   6.762   0.066   6.558
 1475SOL    HW1 5324   6.779   0.054   6.656
 1475SOL    HW2 5325   6.803   0.152   6.527
 1476SOL     OW 5326   5.563   0.389   6.810
 1476SOL    HW1 5327   5.547   0.382   6.711
 1476SOL    HW2 5328   5.476   0.384   6.858
 1477SOL     OW 5329   3.353   4.096   2.192
 1477SOL    HW1 5330   3.316   4.183   2.160
 1477SOL    HW2 5331   3.425   4.112   2.259
 1478SOL     OW 5332   4.915   4.116   6.257
 1478SOL    HW1 5333   4.945   4.032   6.212
 1478SOL    HW2 5334   4.934   4.111   6.354
 1479SOL     OW 5335   4.597   4.658   1.309
 1479SOL    HW1 5336   4.589   4.626   1.215
 1479SOL    HW2 5337   4.670   4.726   1.315
 1480SOL     OW 5338   3.060   1.861   3.818
 1480SOL    HW1 5339   3.102   1.952   3.815
 1480SOL    HW2 5340   3.031   1.842   3.912
 1481SOL     OW 5341   4.483   1.686   5.467
 1481SOL    HW1 5342   4.519   1.736   5.546
 1481SOL    HW2 5343   4.558   1.661   5.406
 1482SOL     OW 5344   6.378   1.515   1.925
 1482SOL    HW1 5345   6.315   1.449   1.884
 1482SOL    HW2 5346   6.445   1.466   1.981
 1483SOL     OW 5347   6.313   6.721   0.371
 1483SOL    HW1 5348   6.395   6.744   0.424
 1483SOL    HW2 5349   6.339   6.660   0.295
 1484SOL     OW 5350   2.780   6.107   4.819
 1484SOL    HW1 5351   2.827   6.163   4.887
 1484SOL    HW2 5352   2.683   6.099   4.844
 1485SOL     OW 5353   5.150   3.919   3.425
 1485SOL    HW1 5354   5.168   3.857   3.348
 1485SOL    HW2 5355   5.056   3.906   3.457
 1486SOL     OW 5356   5.938   6.341   4.189
 1486SOL    HW1 5357   5.920   6.270   4.121
 1486SOL    HW2 5358   5.882   6.324   4.270
 1487SOL     OW 5359   5.818   0.891   6.936
 1487SOL    HW1 5360   5.767   0.806   6.950
 1487SOL    HW2 5361   5.852   0.894   6.842
 1488SOL     OW 5362   6.904   2.889   2.540
 1488SOL    HW1 5363   6.922   2.863   2.634
 1488SOL    HW2 5364   6.839   2.825   2.499
 1489SOL     OW 5365   3.232   5.619   0.060
 1489SOL    HW1 5366   3.254   5.674   0.140
 1489SOL    HW2 5367   3.305   5.553   0.044
 1490SOL     OW 5368   5.884   2.872   2.675
 1490SOL    HW1 5369   5.800   2.910   2.714
 1490SOL    HW2 5370   5.910   2.789   2.724
 1491SOL     OW 5371   5.455   2.795   4.412
 1491SOL    HW1 5372   5.395   2.767   4.337
 1491SOL    HW2 5373   5.420   2.758   4.498
 1492SOL     OW 5374   1.267   2.456   1.901
 1492SOL    HW1 5375   1.325   2.374   1.904
 1492SOL    HW2 5376   1.175   2.433   1.932
 1493SOL     OW 5377   5.818   2.218   6.542
 1493SOL    HW1 5378   5.880   2.172   6.479
 1493SOL    HW2 5379   5.848   2.313   6.555
 1494SOL     OW 5380   1.479   3.671   6.749
 1494SOL    HW1 5381   1.380   3.684   6.747
 1494SOL    HW2 5382   1.503   3.604   6.820
 1495SOL     OW 5383   6.450   4.249   3.733
 1495SOL    HW1 5384   6.447   4.278   3.829
 1495SOL    HW2 5385   6.520   4.180   3.721
 1496SOL     OW 5386   6.702   6.371   5.628
 1496SOL    HW1 5387   6.733   6.285   5.668
 1496SOL    HW2 5388   6.780   6.425   5.599
 1497SOL     OW 5389   4.624   2.217   2.860
 1497SOL    HW1 5390   4.541   2.273   2.865
 1497SOL    HW2 5391   4.610   2.144   2.792
 1498SOL     OW 5392   3.291   4.497   0.855
 1498SOL    HW1 5393   3.354   4.556   0.905
 1498SOL    HW2 5394   3.226   4.457   0.919
 1499SOL     OW 5395   0.962   3.950   3.983
 1499SOL    HW1 5396   0.907   4.013   3.927
 1499SOL    HW2 5397   1.027   3.901   3.924
 1500SOL     OW 5398   2.350   5.477   1.931
 1500SOL    HW1 5399   2.350   5.450   2.027
 1500SOL    HW2 5400   2.266   5.445   1.887
 1501SOL     OW 5401   5.346   1.306   1.270
 1501SOL    HW1 5402   5.415   1.365   1.311
 1501SOL    HW2 5403   5.257   1.327   1.310
 1502SOL     OW 5404   0.660   6.112   6.065
 1502SOL    HW1 5405   0.606   6.045   6.115
 1502SOL    HW2 5406   0.599   6.168   6.008
 1503SOL     OW 5407   6.226   5.871   2.073
 1503SOL    HW1 5408   6.204   5.906   1.982
 1503SOL    HW2 5409   6.300   5.925   2.113
 1504SOL     OW 5410   1.645   0.060   3.234
 1504SOL    HW1 5411   1.563   0.116   3.230
 1504SOL    HW2 5412   1.662   0.032   3.329
 1505SOL     OW 5413   6.776   4.449   4.875
 1505SOL    HW1 5414   6.731   4.487   4.794
 1505SOL    HW2 5415   6.722   4.469   4.956
 1506SOL     OW 5416   1.191   1.108   1.047
 1506SOL    HW1 5417   1.164   1.179   0.981
 1506SOL    HW2 5418   1.109   1.073   1.093
 1507SOL     OW 5419   2.505   2.187   3.640
 1507SOL    HW1 5420   2.594   2.227   3.619
 1507SOL    HW2 5421   2.476   2.128   3.565
 1508SOL     OW 5422   1.358   0.917   1.883
 1508SOL    HW1 5423   1.398   0.988   1.941
 1508SOL    HW2 5424   1.354   0.948   1.789
 1509SOL     OW 5425   4.301   1.415   4.403
 1509SOL    HW1 5426   4.312   1.438   4.500
 1509SOL    HW2 5427   4.323   1.495   4.347
 1510SOL     OW 5428   2.642   6.596   5.307
 1510SOL    HW1 5429   2.631   6.662   5.234
 1510SOL    HW2 5430   2.614   6.637   5.394
 1511SOL     OW 5431   3.928   4.110   5.467
 1511SOL    HW1 5432   3.946   4.056   5.549
 1511SOL    HW2 5433   3.965   4.202   5.479
 1512SOL     OW 5434   5.087   6.296   0.881
 1512SOL    HW1 5435   5.111   6.392   0.872
 1512SOL    HW2 5436   5.144   6.241   0.819
 1513SOL     OW 5437   3.212   0.075   5.407
 1513SOL    HW1 5438   3.173   7.021   5.355
 1513SOL    HW2 5439   3.222   0.049   5.503
 1514SOL     OW 5440   3.127   1.815   0.120
 1514SOL    HW1 5441   3.177   1.780   0.200
 1514SOL    HW2 5442   3.126   1.745   0.049
 1515SOL     OW 5443   3.303   1.173   1.908
 1515SOL    HW1 5444   3.343   1.210   1.824
 1515SOL    HW2 5445   3.305   1.243   1.979
 1516SOL     OW 5446   7.012   6.754   6.710
 1516SOL    HW1 5447   6.998   6.739   6.612
 1516SOL    HW2 5448   7.004   6.667   6.759
 1517SOL     OW 5449   2.327   6.093   2.863
 1517SOL    HW1 5450   2.424   6.106   2.879
 1517SOL    HW2 5451   2.279   6.180   2.876
 1518SOL     OW 5452   1.257   2.730   6.680
 1518SOL    HW1 5453   1.162   2.722   6.647
 1518SOL    HW2 5454   1.258   2.785   6.763
 1519SOL     OW 5455   0.437   4.202   6.674
 1519SOL    HW1 5456   0.462   4.112   6.639
 1519SOL    HW2 5457   0.402   4.258   6.599
 1520SOL     OW 5458   0.058   6.655   3.313
 1520SOL    HW1 5459   0.135   6.719   3.314
 1520SOL    HW2 5460   0.082   6.574   3.260
 1521SOL     OW 5461   2.275   5.020   6.884
 1521SOL    HW1 5462   2.336   5.041   6.807
 1521SOL    HW2 5463   2.191   4.978   6.848
 1522SOL     OW 5464   6.172   6.526   3.749
 1522SOL    HW1 5465   6.225   6.595   3.701
 1522SOL    HW2 5466   6.089   6.567   3.786
 1523SOL     OW 5467   2.734   6.402   0.759
 1523SOL    HW1 5468   2.772   6.412   0.851
 1523SOL    HW2 5469   2.799   6.437   0.692
 1524SOL     OW 5470   2.182   2.700   4.594
 1524SOL    HW1 5471   2.137   2.789   4.602
 1524SOL    HW2 5472   2.114   2.629   4.578
 1525SOL     OW 5473   6.090   4.073   0.307
 1525SOL    HW1 5474   6.183   4.037   0.317
 1525SOL    HW2 5475   6.071   4.136   0.382
 1526SOL     OW 5476   0.914   1.284   1.574
 1526SOL    HW1 5477   0.955   1.280   1.665
 1526SOL    HW2 5478   0.816   1.268   1.581
 1527SOL     OW 5479   4.804   1.032   4.262
 1527SOL    HW1 5480   4.872   1.014   4.333
 1527SOL    HW2 5481   4.740   0.955   4.257
 1528SOL     OW 5482   3.800   3.500   2.303
 1528SOL    HW1 5483   3.842   3.497   2.212
 1528SOL    HW2 5484   3.741   3.421   2.315
 1529SOL     OW 5485   4.019   1.012   5.592
 1529SOL    HW1 5486   4.001   0.984   5.498
 1529SOL    HW2 5487   4.075   1.095   5.592
 1530SOL     OW 5488   2.765   0.015   2.080
 1530SOL    HW1 5489   2.700   7.010   2.009
 1530SOL    HW2 5490   2.797   6.955   2.128
 1531SOL     OW 5491   5.368   6.417   4.563
 1531SOL    HW1 5492   5.310   6.444   4.640
 1531SOL    HW2 5493   5.325   6.444   4.478
 1532SOL     OW 5494   2.808   5.405   2.262
 1532SOL    HW1 5495   2.826   5.380   2.358
 1532SOL    HW2 5496   2.793   5.321   2.209
 1533SOL     OW 5497   5.698   6.254   1.289
 1533SOL    HW1 5498   5.660   6.293   1.373
 1533SOL    HW2 5499   5.773   6.192   1.313
 1534SOL     OW 5500   2.095   4.782   6.572
 1534SOL    HW1 5501   2.087   4.683   6.556
 1534SOL    HW2 5502   2.069   4.831   6.489
 1535SOL     OW 5503   4.826   4.861   3.172
 1535SOL    HW1 5504   4.779   4.925   3.232
 1535SOL    HW2 5505   4.925   4.874   3.180
 1536SOL     OW 5506   4.383   4.277   6.478
 1536SOL    HW1 5507   4.461   4.219   6.457
 1536SOL    HW2 5508   4.353   4.261   6.572
 1537SOL     OW 5509   3.415   5.801   2.217
 1537SOL    HW1 5510   3.422   5.788   2.316
 1537SOL    HW2 5511   3.496   5.848   2.184
 1538SOL     OW 5512   2.131   1.181   0.461
 1538SOL    HW1 5513   2.087   1.127   0.534
 1538SOL    HW2 5514   2.230   1.177   0.472
 1539SOL     OW 5515   0.087   3.065   0.771
 1539SOL    HW1 5516   0.059   3.085   0.677
 1539SOL    HW2 5517   0.012   3.020   0.820
 1540SOL     OW 5518   3.757   5.541   3.817
 1540SOL    HW1 5519   3.847   5.570   3.852
 1540SOL    HW2 5520   3.709   5.492   3.890
 1541SOL     OW 5521   4.789   2.380   5.315
 1541SOL    HW1 5522   4.760   2.414   5.226
 1541SOL    HW2 5523   4.837   2.293   5.303
 1542SOL     OW 5524   0.531   4.467   2.768
 1542SOL    HW1 5525   0.439   4.431   2.752
 1542SOL    HW2 5526   0.599   4.397   2.746
 1543SOL     OW 5527   3.522   5.157   1.079
 1543SOL    HW1 5528   3.601   5.097   1.059
 1543SOL    HW2 5529   3.547   5.220   1.152
 1544SOL     OW 5530   4.153   3.318   4.256
 1544SOL    HW1 5531   4.227   3.306   4.322
 1544SOL    HW2 5532   4.065   3.307   4.303
 1545SOL     OW 5533   6.393   5.232   1.016
 1545SOL    HW1 5534   6.439   5.316   1.045
 1545SOL    HW2 5535   6.322   5.208   1.082
 1546SOL     OW 5536   6.512   6.481   5.479
 1546SOL    HW1 5537   6.465   6.560   5.517
 1546SOL    HW2 5538   6.586   6.454   5.541
 1547SOL     OW 5539   1.568   2.959   6.288
 1547SOL    HW1 5540   1.491   3.008   6.329
 1547SOL    HW2 5541   1.614   3.018   6.222
 1548SOL     OW 5542   6.610   2.209   0.266
 1548SOL    HW1 5543   6.684   2.236   0.204
 1548SOL    HW2 5544   6.571   2.122   0.237
 1549SOL     OW 5545   5.201   0.545   4.158
 1549SOL    HW1 5546   5.249   0.462   4.185
 1549SOL    HW2 5547   5.207   0.613   4.232
 1550SOL     OW 5548   3.233   3.865   4.357
 1550SOL    HW1 5549   3.254   3.921   4.277
 1550SOL    HW2 5550   3.137   3.839   4.356
 1551SOL     OW 5551   6.497   5.174   6.048
 1551SOL    HW1 5552   6.591   5.140   6.044
 1551SOL    HW2 5553   6.498   5.267   6.084
 1552SOL     OW 5554   2.127   4.023   1.142
 1552SOL    HW1 5555   2.123   4.009   1.043
 1552SOL    HW2 5556   2.194   3.960   1.181
 1553SOL     OW 5557   1.462   1.980   5.318
 1553SOL    HW1 5558   1.439   2.075   5.339
 1553SOL    HW2 5559   1.560   1.965   5.335
 1554SOL     OW 5560   4.889   1.977   3.513
 1554SOL    HW1 5561   4.961   2.040   3.542
 1554SOL    HW2 5562   4.852   1.929   3.593
 1555SOL     OW 5563   5.893   4.858   5.035
 1555SOL    HW1 5564   5.822   4.862   4.964
 1555SOL    HW2 5565   5.964   4.793   5.007
 1556SOL     OW 5566   1.486   0.881   5.956
 1556SOL    HW1 5567   1.507   0.925   5.869
 1556SOL    HW2 5568   1.460   0.950   6.024
 1557SOL     OW 5569   1.164   1.815   6.000
 1557SOL    HW1 5570   1.165   1.736   5.939
 1557SOL    HW2 5571   1.202   1.789   6.089
 1558SOL     OW 5572   6.555   0.037   4.409
 1558SOL    HW1 5573   6.584   0.041   4.504
 1558SOL    HW2 5574   6.515   0.125   4.383
 1559SOL     OW 5575   1.468   1.103   6.344
 1559SOL    HW1 5576   1.471   1.068   6.438
 1559SOL    HW2 5577   1.557   1.141   6.320
 1560SOL     OW 5578   7.016   0.401   0.561
 1560SOL    HW1 5579   6.996   0.495   0.534
 1560SOL    HW2 5580   6.936   0.344   0.545
 1561SOL     OW 5581   6.077   6.261   1.792
 1561SOL    HW1 5582   5.996   6.204   1.778
 1561SOL    HW2 5583   6.058   6.330   1.862
 1562SOL     OW 5584   5.203   0.082   4.477
 1562SOL    HW1 5585   5.267   0.089   4.554
 1562SOL    HW2 5586   5.236   0.140   4.402
 1563SOL     OW 5587   3.008   0.296   6.037
 1563SOL    HW1 5588   2.976   0.290   6.132
 1563SOL    HW2 5589   2.938   0.340   5.981
 1564SOL     OW 5590   1.642   2.811   3.023
 1564SOL    HW1 5591   1.692   2.842   3.104
 1564SOL    HW2 5592   1.550   2.782   3.050
 1565SOL     OW 5593   6.228   4.712   1.060
 1565SOL    HW1 5594   6.277   4.787   1.104
 1565SOL    HW2 5595   6.260   4.701   0.966
 1566SOL     OW 5596   5.913   4.621   2.388
 1566SOL    HW1 5597   5.995   4.676   2.405
 1566SOL    HW2 5598   5.852   4.670   2.325
 1567SOL     OW 5599   7.002   5.719   5.481
 1567SOL    HW1 5600   0.079   5.733   5.472
 1567SOL    HW2 5601   6.964   5.688   5.394
 1568SOL     OW 5602   0.359   6.545   0.585
 1568SOL    HW1 5603   0.325   6.467   0.638
 1568SOL    HW2 5604   0.455   6.530   0.563
 1569SOL     OW 5605   3.513   5.640   5.259
 1569SOL    HW1 5606   3.543   5.717   5.202
 1569SOL    HW2 5607   3.510   5.668   5.355
 1570SOL     OW 5608   2.913   1.755   1.983
 1570SOL    HW1 5609   2.902   1.848   1.948
 1570SOL    HW2 5610   2.837   1.698   1.952
 1571SOL     OW 5611   0.085   2.822   6.556
 1571SOL    HW1 5612   0.123   2.880   6.484
 1571SOL    HW2 5613   0.035   2.746   6.515
 1572SOL     OW 5614   0.490   5.424   3.791
 1572SOL    HW1 5615   0.511   5.354   3.722
 1572SOL    HW2 5616   0.445   5.502   3.746
 1573SOL     OW 5617   4.371   0.153   7.006
 1573SOL    HW1 5618   4.369   0.188   6.913
 1573SOL    HW2 5619   4.295   0.089   7.019
 1574SOL     OW 5620   5.075   3.584   1.793
 1574SOL    HW1 5621   5.027   3.525   1.729
 1574SOL    HW2 5622   5.013   3.611   1.867
 1575SOL     OW 5623   3.500   2.418   0.348
 1575SOL    HW1 5624   3.465   2.504   0.383
 1575SOL    HW2 5625   3.578   2.435   0.287
 1576SOL     OW 5626   6.310   5.541   3.470
 1576SOL    HW1 5627   6.335   5.452   3.432
 1576SOL    HW2 5628   6.306   5.535   3.570
 1577SOL     OW 5629   1.640   0.516   0.572
 1577SOL    HW1 5630   1.668   0.526   0.668
 1577SOL    HW2 5631   1.665   0.598   0.522
 1578SOL     OW 5632   6.206   6.270   4.761
 1578SOL    HW1 5633   6.131   6.312   4.811
 1578SOL    HW2 5634   6.171   6.226   4.679
 1579SOL     OW 5635   0.049   0.729   3.175
 1579SOL    HW1 5636   0.086   0.791   3.244
 1579SOL    HW2 5637   6.974   0.752   3.158
 1580SOL     OW 5638   3.381   4.082   5.489
 1580SOL    HW1 5639   3.479   4.092   5.500
 1580SOL    HW2 5640   3.339   4.170   5.468
 1581SOL     OW 5641   6.125   3.296   4.464
 1581SOL    HW1 5642   6.081   3.345   4.388
 1581SOL    HW2 5643   6.123   3.353   4.546
 1582SOL     OW 5644   6.344   6.626   3.969
 1582SOL    HW1 5645   6.320   6.607   3.874
 1582SOL    HW2 5646   6.287   6.571   4.030
 1583SOL     OW 5647   2.158   3.000   1.043
 1583SOL    HW1 5648   2.063   2.991   1.013
 1583SOL    HW2 5649   2.206   3.064   0.983
 1584SOL     OW 5650   2.201   0.167   6.495
 1584SOL    HW1 5651   2.136   0.170   6.571
 1584SOL    HW2 5652   2.283   0.116   6.524
 1585SOL     OW 5653   5.550   1.058   6.147
 1585SOL    HW1 5654   5.637   1.096   6.180
 1585SOL    HW2 5655   5.501   1.128   6.096
 1586SOL     OW 5656   4.085   3.657   3.137
 1586SOL    HW1 5657   4.126   3.566   3.135
 1586SOL    HW2 5658   4.110   3.703   3.221
 1587SOL     OW 5659   1.797   6.718   6.065
 1587SOL    HW1 5660   1.878   6.703   6.121
 1587SOL    HW2 5661   1.820   6.709   5.968
 1588SOL     OW 5662   6.360   4.317   0.378
 1588SOL    HW1 5663   6.413   4.249   0.329
 1588SOL    HW2 5664   6.410   4.347   0.459
 1589SOL     OW 5665   5.366   4.686   3.119
 1589SOL    HW1 5666   5.277   4.648   3.097
 1589SOL    HW2 5667   5.437   4.635   3.070
 1590SOL     OW 5668   2.273   6.207   4.393
 1590SOL    HW1 5669   2.285   6.260   4.309
 1590SOL    HW2 5670   2.363   6.177   4.426
 1591SOL     OW 5671   2.377   3.461   0.251
 1591SOL    HW1 5672   2.290   3.506   0.275
 1591SOL    HW2 5673   2.368   3.417   0.162
 1592SOL     OW 5674   3.802   3.672   3.934
 1592SOL    HW1 5675   3.833   3.695   3.841
 1592SOL    HW2 5676   3.819   3.749   3.995
 1593SOL     OW 5677   1.332   4.447   3.806
 1593SOL    HW1 5678   1.338   4.435   3.707
 1593SOL    HW2 5679   1.353   4.542   3.829
 1594SOL     OW 5680   0.599   5.873   2.005
 1594SOL    HW1 5681   0.699   5.875   1.999
 1594SOL    HW2 5682   0.570   5.913   2.092
 1595SOL     OW 5683   6.134   3.406   4.765
 1595SOL    HW1 5684   6.227   3.417   4.800
 1595SOL    HW2 5685   6.086   3.494   4.768
 1596SOL     OW 5686   3.366   4.860   6.699
 1596SOL    HW1 5687   3.422   4.832   6.776
 1596SOL    HW2 5688   3.275   4.888   6.732
 1597SOL     OW 5689   2.654   6.741   1.232
 1597SOL    HW1 5690   2.607   6.682   1.299
 1597SOL    HW2 5691   2.648   6.699   1.142
 1598SOL     OW 5692   6.783   5.740   1.846
 1598SOL    HW1 5693   6.750   5.646   1.860
 1598SOL    HW2 5694   6.806   5.753   1.749
 1599SOL     OW 5695   3.034   5.358   0.238
 1599SOL    HW1 5696   3.006   5.447   0.202
 1599SOL    HW2 5697   2.969   5.288   0.210
 1600SOL     OW 5698   3.477   1.789   4.794
 1600SOL    HW1 5699   3.380   1.805   4.809
 1600SOL    HW2 5700   3.493   1.771   4.696
 1601SOL     OW 5701   1.681   5.563   4.713
 1601SOL    HW1 5702   1.611   5.628   4.685
 1601SOL    HW2 5703   1.651   5.470   4.691
 1602SOL     OW 5704   6.808   3.192   1.527
 1602SOL    HW1 5705   6.905   3.211   1.507
 1602SOL    HW2 5706   6.785   3.229   1.617
 1603SOL     OW 5707   5.972   6.747   0.840
 1603SOL    HW1 5708   5.942   6.708   0.753
 1603SOL    HW2 5709   6.050   6.808   0.824
 1604SOL     OW 5710   1.158   5.271   4.787
 1604SOL    HW1 5711   1.135   5.257   4.690
 1604SOL    HW2 5712   1.084   5.236   4.844
 1605SOL     OW 5713   5.098   4.906   1.949
 1605SOL    HW1 5714   5.050   4.894   2.036
 1605SOL    HW2 5715   5.094   4.821   1.897
 1606SOL     OW 5716   5.879   5.491   4.512
 1606SOL    HW1 5717   5.929   5.516   4.429
 1606SOL    HW2 5718   5.943   5.484   4.589
 1607SOL     OW 5719   5.572   3.798   1.632
 1607SOL    HW1 5720   5.597   3.737   1.707
 1607SOL    HW2 5721   5.544   3.886   1.670
 1608SOL     OW 5722   2.312   6.809   1.038
 1608SOL    HW1 5723   2.250   6.887   1.051
 1608SOL    HW2 5724   2.407   6.841   1.038
 1609SOL     OW 5725   5.809   2.075   5.241
 1609SOL    HW1 5726   5.744   2.099   5.168
 1609SOL    HW2 5727   5.899   2.112   5.219
 1610SOL     OW 5728   4.252   6.592   3.451
 1610SOL    HW1 5729   4.184   6.557   3.514
 1610SOL    HW2 5730   4.234   6.689   3.433
 1611SOL     OW 5731   4.197   3.760   1.797
 1611SOL    HW1 5732   4.287   3.804   1.787
 1611SOL    HW2 5733   4.126   3.829   1.798
 1612SOL     OW 5734   2.842   0.295   4.654
 1612SOL    HW1 5735   2.902   0.367   4.619
 1612SOL    HW2 5736   2.766   0.280   4.591
 1613SOL     OW 5737   2.305   0.139   1.618
 1613SOL    HW1 5738   2.313   0.140   1.519
 1613SOL    HW2 5739   2.229   0.079   1.645
 1614SOL     OW 5740   6.848   1.937   5.292
 1614SOL    HW1 5741   6.931   1.918   5.344
 1614SOL    HW2 5742   6.828   1.860   5.231
 1615SOL     OW 5743   6.700   5.611   5.512
 1615SOL    HW1 5744   6.715   5.534   5.574
 1615SOL    HW2 5745   6.686   5.694   5.566
 1616SOL     OW 5746   2.507   1.764   5.982
 1616SOL    HW1 5747   2.490   1.845   5.926
 1616SOL    HW2 5748   2.576   1.786   6.051
 1617SOL     OW 5749   3.323   1.083   3.466
 1617SOL    HW1 5750   3.234   1.088   3.421
 1617SOL    HW2 5751   3.372   1.001   3.435
 1618SOL     OW 5752   5.317   3.009   2.155
 1618SOL    HW1 5753   5.255   2.930   2.167
 1618SOL    HW2 5754   5.300   3.076   2.227
 1619SOL     OW 5755   1.314   2.966   4.796
 1619SOL    HW1 5756   1.243   3.036   4.802
 1619SOL    HW2 5757   1.316   2.914   4.881
 1620SOL     OW 5758   3.203   5.811   1.292
 1620SOL    HW1 5759   3.286   5.866   1.290
 1620SOL    HW2 5760   3.143   5.843   1.366
 1621SOL     OW 5761   2.290   2.324   1.548
 1621SOL    HW1 5762   2.282   2.307   1.647
 1621SOL    HW2 5763   2.351   2.257   1.507
 1622SOL     OW 5764   2.435   2.388   5.302
 1622SOL    HW1 5765   2.457   2.467   5.359
 1622SOL    HW2 5766   2.370   2.415   5.231
 1623SOL     OW 5767   2.510   2.051   4.672
 1623SOL    HW1 5768   2.430   2.108   4.655
 1623SOL    HW2 5769   2.501   2.007   4.761
 1624SOL     OW 5770   1.887   0.555   6.869
 1624SOL    HW1 5771   1.859   0.651   6.875
 1624SOL    HW2 5772   1.986   0.548   6.883
 1625SOL     OW 5773   1.661   0.015   1.117
 1625SOL    HW1 5774   1.753   0.002   1.078
 1625SOL    HW2 5775   1.598   6.972   1.074
 1626SOL     OW 5776   2.247   3.321   6.331
 1626SOL    HW1 5777   2.293   3.410   6.320
 1626SOL    HW2 5778   2.280   3.258   6.261
 1627SOL     OW 5779   4.899   4.078   3.077
 1627SOL    HW1 5780   4.984   4.123   3.103
 1627SOL    HW2 5781   4.875   4.102   2.983
 1628SOL     OW 5782   4.107   3.215   0.210
 1628SOL    HW1 5783   4.014   3.250   0.196
 1628SOL    HW2 5784   4.128   3.214   0.308
 1629SOL     OW 5785   2.199   2.355   3.024
 1629SOL    HW1 5786   2.234   2.264   3.001
 1629SOL    HW2 5787   2.230   2.379   3.116
 1630SOL     OW 5788   5.763   4.683   4.183
 1630SOL    HW1 5789   5.803   4.744   4.251
 1630SOL    HW2 5790   5.723   4.604   4.230
 1631SOL     OW 5791   1.175   0.561   6.045
 1631SOL    HW1 5792   1.232   0.609   6.111
 1631SOL    HW2 5793   1.232   0.529   5.969
 1632SOL     OW 5794   4.120   6.932   0.088
 1632SOL    HW1 5795   4.182   6.880   0.030
 1632SOL    HW2 5796   4.090   7.014   0.041
 1633SOL     OW 5797   6.393   3.979   2.817
 1633SOL    HW1 5798   6.376   3.939   2.907
 1633SOL    HW2 5799   6.352   3.922   2.746
 1634SOL     OW 5800   3.612   0.782   1.225
 1634SOL    HW1 5801   3.595   0.723   1.304
 1634SOL    HW2 5802   3.567   0.744   1.145
 1635SOL     OW 5803   1.478   3.679   3.332
 1635SOL    HW1 5804   1.433   3.609   3.387
 1635SOL    HW2 5805   1.410   3.747   3.302
 1636SOL     OW 5806   2.533   6.191   0.604
 1636SOL    HW1 5807   2.559   6.282   0.636
 1636SOL    HW2 5808   2.447   6.164   0.648
 1637SOL     OW 5809   1.046   2.717   2.456
 1637SOL    HW1 5810   1.142   2.688   2.453
 1637SOL    HW2 5811   1.041   2.816   2.448
 1638SOL     OW 5812   0.976   2.334   5.846
 1638SOL    HW1 5813   0.890   2.288   5.824
 1638SOL    HW2 5814   0.982   2.420   5.795
 1639SOL     OW 5815   3.792   5.188   2.686
 1639SOL    HW1 5816   3.783   5.204   2.588
 1639SOL    HW2 5817   3.883   5.216   2.716
 1640SOL     OW 5818   5.357   6.774   0.601
 1640SOL    HW1 5819   5.409   6.855   0.574
 1640SOL    HW2 5820   5.337   6.718   0.521
 1641SOL     OW 5821   6.376   2.669   4.700
 1641SOL    HW1 5822   6.377   2.740   4.629
 1641SOL    HW2 5823   6.462   2.674   4.752
 1642SOL     OW 5824   0.455   2.169   1.255
 1642SOL    HW1 5825   0.500   2.122   1.179
 1642SOL    HW2 5826   0.408   2.102   1.312
 1643SOL     OW 5827   4.092   0.243   5.518
 1643SOL    HW1 5828   4.111   0.224   5.421
 1643SOL    HW2 5829   4.061   0.337   5.528
 1644SOL     OW 5830   3.807   1.087   0.994
 1644SOL    HW1 5831   3.861   1.003   0.992
 1644SOL    HW2 5832   3.854   1.155   1.049
 1645SOL     OW 5833   2.508   5.741   5.733
 1645SOL    HW1 5834   2.557   5.817   5.689
 1645SOL    HW2 5835   2.564   5.706   5.808
 1646SOL     OW 5836   2.609   3.390   0.359
 1646SOL    HW1 5837   2.685   3.411   0.298
 1646SOL    HW2 5838   2.523   3.405   0.310
 1647SOL     OW 5839   5.983   3.328   2.170
 1647SOL    HW1 5840   6.017   3.242   2.132
 1647SOL    HW2 5841   5.911   3.309   2.237
 1648SOL     OW 5842   2.955   0.735   3.437
 1648SOL    HW1 5843   2.998   0.821   3.408
 1648SOL    HW2 5844   3.012   0.658   3.408
 1649SOL     OW 5845   2.677   0.660   4.402
 1649SOL    HW1 5846   2.715   0.724   4.469
 1649SOL    HW2 5847   2.577   0.667   4.402
 1650SOL     OW 5848   2.937   0.190   4.355
 1650SOL    HW1 5849   2.914   0.287   4.364
 1650SOL    HW2 5850   3.023   0.172   4.402
 1651SOL     OW 5851   1.478   6.669   2.429
 1651SOL    HW1 5852   1.519   6.746   2.478
 1651SOL    HW2 5853   1.409   6.625   2.487
 1652SOL     OW 5854   3.988   3.689   1.269
 1652SOL    HW1 5855   4.045   3.619   1.226
 1652SOL    HW2 5856   3.905   3.646   1.305
 1653SOL     OW 5857   1.127   4.613   1.040
 1653SOL    HW1 5858   1.164   4.549   1.107
 1653SOL    HW2 5859   1.027   4.606   1.039
 1654SOL     OW 5860   1.099   2.519   3.819
 1654SOL    HW1 5861   1.055   2.590   3.764
 1654SOL    HW2 5862   1.146   2.561   3.896
 1655SOL     OW 5863   4.328   4.128   5.407
 1655SOL    HW1 5864   4.324   4.178   5.493
 1655SOL    HW2 5865   4.340   4.193   5.331
 1656SOL     OW 5866   0.200   3.250   1.840
 1656SOL    HW1 5867   0.288   3.262   1.793
 1656SOL    HW2 5868   0.156   3.340   1.849
 1657SOL     OW 5869   1.149   0.917   5.690
 1657SOL    HW1 5870   1.078   0.847   5.689
 1657SOL    HW2 5871   1.155   0.957   5.782
 1658SOL     OW 5872   6.179   6.910   3.059
 1658SOL    HW1 5873   6.243   6.862   3.119
 1658SOL    HW2 5874   6.230   6.950   2.982
 1659SOL     OW 5875   5.685   2.609   6.548
 1659SOL    HW1 5876   5.657   2.552   6.472
 1659SOL    HW2 5877   5.605   2.638   6.601
 1660SOL     OW 5878   2.438   5.538   3.659
 1660SOL    HW1 5879   2.414   5.592   3.578
 1660SOL    HW2 5880   2.537   5.528   3.664
 1661SOL     OW 5881   2.644   0.600   3.049
 1661SOL    HW1 5882   2.709   0.656   2.998
 1661SOL    HW2 5883   2.585   0.659   3.104
 1662SOL     OW 5884   0.359   1.003   3.712
 1662SOL    HW1 5885   0.425   1.023   3.640
 1662SOL    HW2 5886   0.272   1.049   3.691
 1663SOL     OW 5887   1.464   0.269   3.290
 1663SOL    HW1 5888   1.517   0.344   3.331
 1663SOL    HW2 5889   1.425   0.300   3.203
 1664SOL     OW 5890   1.721   5.562   4.143
 1664SOL    HW1 5891   1.756   5.475   4.179
 1664SOL    HW2 5892   1.698   5.552   4.046
 1665SOL     OW 5893   0.274   1.298   3.952
 1665SOL    HW1 5894   0.225   1.216   3.981
 1665SOL    HW2 5895   0.298   1.353   4.032
 1666SOL     OW 5896   5.901   2.459   6.633
 1666SOL    HW1 5897   5.902   2.416   6.723
 1666SOL    HW2 5898   5.818   2.515   6.623
 1667SOL     OW 5899   6.899   0.361   1.050
 1667SOL    HW1 5900   6.993   0.329   1.061
 1667SOL    HW2 5901   6.864   0.335   0.960
 1668SOL     OW 5902   2.231   0.361   4.734
 1668SOL    HW1 5903   2.201   0.454   4.751
 1668SOL    HW2 5904   2.177   0.297   4.789
 1669SOL     OW 5905   5.416   6.062   6.075
 1669SOL    HW1 5906   5.358   5.994   6.120
 1669SOL    HW2 5907   5.509   6.055   6.110
 1670SOL     OW 5908   0.028   3.493   5.961
 1670SOL    HW1 5909   0.066   3.503   6.052
 1670SOL    HW2 5910   0.097   3.457   5.899
 1671SOL     OW 5911   6.104   5.125   0.780
 1671SOL    HW1 5912   6.167   5.085   0.846
 1671SOL    HW2 5913   6.084   5.220   0.806
 1672SOL     OW 5914   1.874   4.344   2.488
 1672SOL    HW1 5915   1.810   4.394   2.430
 1672SOL    HW2 5916   1.900   4.258   2.443
 1673SOL     OW 5917   6.492   3.285   3.190
 1673SOL    HW1 5918   6.439   3.202   3.176
 1673SOL    HW2 5919   6.438   3.364   3.163
 1674SOL     OW 5920   2.596   5.557   0.239
 1674SOL    HW1 5921   2.534   5.631   0.262
 1674SOL    HW2 5922   2.676   5.560   0.299
 1675SOL     OW 5923   4.983   2.012   6.238
 1675SOL    HW1 5924   4.973   1.942   6.168
 1675SOL    HW2 5925   4.905   2.007   6.301
 1676SOL     OW 5926   2.938   2.000   3.161
 1676SOL    HW1 5927   3.004   1.950   3.105
 1676SOL    HW2 5928   2.949   2.098   3.146
 1677SOL     OW 5929   5.277   0.250   6.105
 1677SOL    HW1 5930   5.206   0.302   6.058
 1677SOL    HW2 5931   5.272   0.154   6.077
 1678SOL     OW 5932   4.685   6.450   2.318
 1678SOL    HW1 5933   4.661   6.546   2.332
 1678SOL    HW2 5934   4.651   6.420   2.228
 1679SOL     OW 5935   6.543   4.740   0.194
 1679SOL    HW1 5936   6.480   4.806   0.236
 1679SOL    HW2 5937   6.501   4.650   0.193
 1680SOL     OW 5938   0.100   2.305   5.629
 1680SOL    HW1 5939   0.139   2.396   5.616
 1680SOL    HW2 5940   0.028   2.290   5.562
 1681SOL     OW 5941   4.514   5.600   0.371
 1681SOL    HW1 5942   4.610   5.606   0.343
 1681SOL    HW2 5943   4.508   5.549   0.457
 1682SOL     OW 5944   0.260   3.353   5.832
 1682SOL    HW1 5945   0.337   3.289   5.825
 1682SOL    HW2 5946   0.185   3.321   5.775
 1683SOL     OW 5947   5.901   5.134   5.004
 1683SOL    HW1 5948   5.885   5.036   5.010
 1683SOL    HW2 5949   5.965   5.162   5.076
 1684SOL     OW 5950   0.506   6.914   4.309
 1684SOL    HW1 5951   0.584   6.866   4.348
 1684SOL    HW2 5952   0.432   6.850   4.290
 1685SOL     OW 5953   1.026   2.031   0.074
 1685SOL    HW1 5954   1.090   2.107   0.081
 1685SOL    HW2 5955   0.968   2.029   0.156
 1686SOL     OW 5956   1.352   6.977   6.015
 1686SOL    HW1 5957   1.371   0.015   6.094
 1686SOL    HW2 5958   1.349   6.882   6.045
 1687SOL     OW 5959   2.858   6.628   2.522
 1687SOL    HW1 5960   2.865   6.528   2.526
 1687SOL    HW2 5961   2.948   6.668   2.536
 1688SOL     OW 5962   0.757   1.738   3.627
 1688SOL    HW1 5963   0.823   1.787   3.569
 1688SOL    HW2 5964   0.736   1.793   3.708
 1689SOL     OW 5965   2.015   1.922   1.820
 1689SOL    HW1 5966   2.091   1.922   1.755
 1689SOL    HW2 5967   1.963   2.007   1.811
 1690SOL     OW 5968   1.037   2.206   0.486
 1690SOL    HW1 5969   1.128   2.164   0.482
 1690SOL    HW2 5970   1.035   2.274   0.560
 1691SOL     OW 5971   4.780   4.164   3.477
 1691SOL    HW1 5972   4.728   4.206   3.552
 1691SOL    HW2 5973   4.877   4.164   3.500
 1692SOL     OW 5974   0.748   6.825   4.012
 1692SOL    HW1 5975   0.738   6.730   4.042
 1692SOL    HW2 5976   0.732   6.830   3.913
 1693SOL     OW 5977   3.742   2.136   4.375
 1693SOL    HW1 5978   3.836   2.147   4.341
 1693SOL    HW2 5979   3.702   2.226   4.393
 1694SOL     OW 5980   6.584   6.055   5.105
 1694SOL    HW1 5981   6.525   6.101   5.038
 1694SOL    HW2 5982   6.547   5.964   5.125
 1695SOL     OW 5983   4.078   1.675   6.266
 1695SOL    HW1 5984   4.162   1.716   6.302
 1695SOL    HW2 5985   3.999   1.725   6.300
 1696SOL     OW 5986   3.903   5.877   1.735
 1696SOL    HW1 5987   3.953   5.806   1.785
 1696SOL    HW2 5988   3.883   5.844   1.643
 1697SOL     OW 5989   1.609   1.665   2.195
 1697SOL    HW1 5990   1.561   1.630   2.275
 1697SOL    HW2 5991   1.702   1.626   2.192
 1698SOL     OW 5992   4.885   1.451   0.039
 1698SOL    HW1 5993   4.869   1.497   6.974
 1698SOL    HW2 5994   4.856   1.510   0.114
 1699SOL     OW 5995   2.528   4.558   1.501
 1699SOL    HW1 5996   2.539   4.652   1.533
 1699SOL    HW2 5997   2.536   4.495   1.578
 1700SOL     OW 5998   6.089   2.777   4.433
 1700SOL    HW1 5999   6.058   2.686   4.404
 1700SOL    HW2 6000   6.186   2.787   4.412
 1701SOL     OW 6001   5.559   2.837   4.720
 1701SOL    HW1 6002   5.475   2.785   4.704
 1701SOL    HW2 6003   5.608   2.847   4.633
 1702SOL     OW 6004   5.203   2.819   1.573
 1702SOL    HW1 6005   5.131   2.819   1.642
 1702SOL    HW2 6006   5.164   2.797   1.484
 1703SOL     OW 6007   2.331   3.886   1.248
 1703SOL    HW1 6008   2.423   3.871   1.212
 1703SOL    HW2 6009   2.317   3.827   1.328
 1704SOL     OW 6010   6.939   1.832   2.240
 1704SOL    HW1 6011   6.869   1.769   2.272
 1704SOL    HW2 6012   7.021   1.780   2.214
 1705SOL     OW 6013   4.126   3.462   2.643
 1705SOL    HW1 6014   4.216   3.453   2.685
 1705SOL    HW2 6015   4.133   3.449   2.544
 1706SOL     OW 6016   2.591   0.689   6.019
 1706SOL    HW1 6017   2.570   0.611   5.960
 1706SOL    HW2 6018   2.508   0.721   6.064
 1707SOL     OW 6019   4.919   1.572   2.120
 1707SOL    HW1 6020   4.873   1.496   2.165
 1707SOL    HW2 6021   4.857   1.651   2.116
 1708SOL     OW 6022   0.605   4.455   1.151
 1708SOL    HW1 6023   0.625   4.477   1.247
 1708SOL    HW2 6024   0.556   4.531   1.109
 1709SOL     OW 6025   3.214   5.420   3.502
 1709SOL    HW1 6026   3.141   5.353   3.488
 1709SOL    HW2 6027   3.295   5.375   3.539
 1710SOL     OW 6028   6.599   4.143   4.958
 1710SOL    HW1 6029   6.690   4.110   4.932
 1710SOL    HW2 6030   6.543   4.153   4.876
 1711SOL     OW 6031   0.570   4.583   5.713
 1711SOL    HW1 6032   0.563   4.676   5.749
 1711SOL    HW2 6033   0.653   4.540   5.749
 1712SOL     OW 6034   1.534   4.332   2.053
 1712SOL    HW1 6035   1.625   4.368   2.032
 1712SOL    HW2 6036   1.468   4.370   1.988
 1713SOL     OW 6037   2.938   3.616   0.930
 1713SOL    HW1 6038   2.958   3.706   0.968
 1713SOL    HW2 6039   2.841   3.612   0.904
 1714SOL     OW 6040   4.519   1.261   1.497
 1714SOL    HW1 6041   4.618   1.273   1.498
 1714SOL    HW2 6042   4.495   1.190   1.431
 1715SOL     OW 6043   1.002   3.473   3.115
 1715SOL    HW1 6044   1.062   3.399   3.085
 1715SOL    HW2 6045   1.032   3.506   3.204
 1716SOL     OW 6046   6.991   0.038   0.197
 1716SOL    HW1 6047   0.055   0.035   0.249
 1716SOL    HW2 6048   6.955   6.967   0.187
 1717SOL     OW 6049   2.974   0.921   0.120
 1717SOL    HW1 6050   3.065   0.934   0.080
 1717SOL    HW2 6051   2.984   0.874   0.208
 1718SOL     OW 6052   1.897   4.015   5.703
 1718SOL    HW1 6053   1.923   3.968   5.787
 1718SOL    HW2 6054   1.885   3.948   5.630
 1719SOL     OW 6055   2.131   3.038   0.700
 1719SOL    HW1 6056   2.065   3.002   0.766
 1719SOL    HW2 6057   2.124   3.137   0.696
 1720SOL     OW 6058   0.214   2.273   2.260
 1720SOL    HW1 6059   0.201   2.174   2.264
 1720SOL    HW2 6060   0.286   2.299   2.324
 1721SOL     OW 6061   1.057   5.866   4.254
 1721SOL    HW1 6062   1.156   5.856   4.266
 1721SOL    HW2 6063   1.031   5.831   4.164
 1722SOL     OW 6064   5.294   6.961   1.690
 1722SOL    HW1 6065   5.215   6.944   1.631
 1722SOL    HW2 6066   5.377   6.963   1.634
 1723SOL     OW 6067   5.970   1.002   3.366
 1723SOL    HW1 6068   5.885   0.970   3.325
 1723SOL    HW2 6069   5.968   0.985   3.465
 1724SOL     OW 6070   4.705   0.503   0.067
 1724SOL    HW1 6071   4.690   0.555   0.151
 1724SOL    HW2 6072   4.618   0.491   0.020
 1725SOL     OW 6073   4.018   5.714   1.911
 1725SOL    HW1 6074   3.928   5.725   1.952
 1725SOL    HW2 6075   4.027   5.622   1.873
 1726SOL     OW 6076   5.985   4.590   4.805
 1726SOL    HW1 6077   5.890   4.569   4.779
 1726SOL    HW2 6078   6.033   4.627   4.726
 1727SOL     OW 6079   2.421   4.758   6.117
 1727SOL    HW1 6080   2.379   4.849   6.113
 1727SOL    HW2 6081   2.426   4.729   6.212
 1728SOL     OW 6082   5.102   5.542   3.527
 1728SOL    HW1 6083   5.115   5.509   3.620
 1728SOL    HW2 6084   5.030   5.490   3.482
 1729SOL     OW 6085   0.387   2.747   2.209
 1729SOL    HW1 6086   0.313   2.782   2.150
 1729SOL    HW2 6087   0.354   2.741   2.303
 1730SOL     OW 6088   4.639   2.175   4.796
 1730SOL    HW1 6089   4.685   2.158   4.883
 1730SOL    HW2 6090   4.553   2.125   4.792
 1731SOL     OW 6091   0.438   6.782   6.650
 1731SOL    HW1 6092   0.508   6.724   6.691
 1731SOL    HW2 6093   0.384   6.729   6.585
 1732SOL     OW 6094   1.080   4.130   0.132
 1732SOL    HW1 6095   0.999   4.071   0.125
 1732SOL    HW2 6096   1.062   4.217   0.086
 1733SOL     OW 6097   1.595   4.295   6.431
 1733SOL    HW1 6098   1.596   4.303   6.331
 1733SOL    HW2 6099   1.560   4.205   6.457
 1734SOL     OW 6100   5.556   4.033   0.656
 1734SOL    HW1 6101   5.472   3.995   0.695
 1734SOL    HW2 6102   5.548   4.036   0.556
 1735SOL     OW 6103   4.664   5.271   6.716
 1735SOL    HW1 6104   4.755   5.271   6.674
 1735SOL    HW2 6105   4.619   5.359   6.699
 1736SOL     OW 6106   3.804   2.995   0.494
 1736SOL    HW1 6107   3.868   2.987   0.571
 1736SOL    HW2 6108   3.749   2.911   0.489
 1737SOL     OW 6109   0.845   5.911   3.341
 1737SOL    HW1 6110   0.878   5.959   3.260
 1737SOL    HW2 6111   0.852   5.972   3.421
 1738SOL     OW 6112   0.829   1.306   2.126
 1738SOL    HW1 6113   0.791   1.319   2.035
 1738SOL    HW2 6114   0.860   1.394   2.162
 1739SOL     OW 6115   4.369   2.022   6.589
 1739SOL    HW1 6116   4.397   1.942   6.643
 1739SOL    HW2 6117   4.386   2.105   6.642
 1740SOL     OW 6118   0.649   1.898   6.561
 1740SOL    HW1 6119   0.627   1.919   6.656
 1740SOL    HW2 6120   0.719   1.961   6.528
 1741SOL     OW 6121   1.072   0.749   2.677
 1741SOL    HW1 6122   1.165   0.724   2.705
 1741SOL    HW2 6123   1.046   0.696   2.597
 1742SOL     OW 6124   6.371   6.089   4.131
 1742SOL    HW1 6125   6.361   6.178   4.175
 1742SOL    HW2 6126   6.291   6.070   4.075
 1743SOL     OW 6127   4.032   1.100   0.442
 1743SOL    HW1 6128   4.092   1.108   0.362
 1743SOL    HW2 6129   4.014   1.191   0.479
 1744SOL     OW 6130   4.047   6.152   1.796
 1744SOL    HW1 6131   4.018   6.057   1.785
 1744SOL    HW2 6132   4.144   6.155   1.816
 1745SOL     OW 6133   0.483   2.397   5.395
 1745SOL    HW1 6134   0.535   2.452   5.329
 1745SOL    HW2 6135   0.540   2.321   5.426
 1746SOL     OW 6136   2.951   0.945   6.734
 1746SOL    HW1 6137   2.908   0.899   6.811
 1746SOL    HW2 6138   2.992   0.876   6.674
 1747SOL     OW 6139   3.734   6.885   4.768
 1747SOL    HW1 6140   3.734   6.957   4.699
 1747SOL    HW2 6141   3.700   6.922   4.855
 1748SOL     OW 6142   5.927   0.948   1.848
 1748SOL    HW1 6143   5.851   0.940   1.912
 1748SOL    HW2 6144   5.902   0.906   1.761
 1749SOL     OW 6145   5.213   0.335   6.433
 1749SOL    HW1 6146   5.156   0.402   6.386
 1749SOL    HW2 6147   5.240   0.263   6.370
 1750SOL     OW 6148   3.732   0.816   2.981
 1750SOL    HW1 6149   3.677   0.833   3.063
 1750SOL    HW2 6150   3.685   0.854   2.902
 1751SOL     OW 6151   1.941   5.707   4.272
 1751SOL    HW1 6152   1.872   5.654   4.223
 1751SOL    HW2 6153   1.957   5.665   4.361
 1752SOL     OW 6154   6.860   1.793   6.119
 1752SOL    HW1 6155   6.953   1.831   6.124
 1752SOL    HW2 6156   6.864   1.694   6.111
 1753SOL     OW 6157   2.084   6.762   2.194
 1753SOL    HW1 6158   2.102   6.809   2.108
 1753SOL    HW2 6159   2.170   6.749   2.244
 1754SOL     OW 6160   3.437   2.875   3.434
 1754SOL    HW1 6161   3.403   2.857   3.342
 1754SOL    HW2 6162   3.537   2.870   3.435
 1755SOL     OW 6163   6.980   4.245   6.866
 1755SOL    HW1 6164   0.056   4.243   6.842
 1755SOL    HW2 6165   6.963   4.321   6.928
 1756SOL     OW 6166   5.629   4.709   5.184
 1756SOL    HW1 6167   5.560   4.639   5.203
 1756SOL    HW2 6168   5.602   4.763   5.104
 1757SOL     OW 6169   3.645   0.503   4.991
 1757SOL    HW1 6170   3.634   0.558   5.074
 1757SOL    HW2 6171   3.724   0.535   4.940
 1758SOL     OW 6172   2.457   1.411   3.339
 1758SOL    HW1 6173   2.484   1.315   3.331
 1758SOL    HW2 6174   2.433   1.447   3.249
 1759SOL     OW 6175   6.636   6.402   6.286
 1759SOL    HW1 6176   6.662   6.470   6.355
 1759SOL    HW2 6177   6.583   6.329   6.329
 1760SOL     OW 6178   4.433   6.393   3.557
 1760SOL    HW1 6179   4.370   6.315   3.549
 1760SOL    HW2 6180   4.385   6.476   3.528
 1761SOL     OW 6181   5.797   3.309   1.128
 1761SOL    HW1 6182   5.852   3.385   1.163
 1761SOL    HW2 6183   5.857   3.231   1.112
 1762SOL     OW 6184   5.949   2.847   0.239
 1762SOL    HW1 6185   5.996   2.921   0.193
 1762SOL    HW2 6186   5.910   2.784   0.171
 1763SOL     OW 6187   2.139   2.375   4.438
 1763SOL    HW1 6188   2.092   2.312   4.377
 1763SOL    HW2 6189   2.074   2.409   4.507
 1764SOL     OW 6190   6.483   3.858   3.112
 1764SOL    HW1 6191   6.536   3.887   3.192
 1764SOL    HW2 6192   6.397   3.910   3.108
 1765SOL     OW 6193   1.617   3.156   6.097
 1765SOL    HW1 6194   1.523   3.189   6.085
 1765SOL    HW2 6195   1.669   3.222   6.152
 1766SOL     OW 6196   5.721   4.240   5.349
 1766SOL    HW1 6197   5.730   4.182   5.268
 1766SOL    HW2 6198   5.737   4.184   5.431
 1767SOL     OW 6199   6.843   5.017   1.210
 1767SOL    HW1 6200   6.815   4.940   1.267
 1767SOL    HW2 6201   6.768   5.042   1.148
 1768SOL     OW 6202   6.078   0.234   3.247
 1768SOL    HW1 6203   6.145   0.307   3.256
 1768SOL    HW2 6204   5.987   0.268   3.271
 1769SOL     OW 6205   4.693   0.914   3.867
 1769SOL    HW1 6206   4.752   0.984   3.908
 1769SOL    HW2 6207   4.612   0.958   3.827
 1770SOL     OW 6208   3.355   5.993   5.342
 1770SOL    HW1 6209   3.377   6.088   5.316
 1770SOL    HW2 6210   3.304   5.950   5.267
 1771SOL     OW 6211   5.114   5.880   6.814
 1771SOL    HW1 6212   5.083   5.974   6.807
 1771SOL    HW2 6213   5.193   5.866   6.754
 1772SOL     OW 6214   2.173   5.752   2.670
 1772SOL    HW1 6215   2.193   5.657   2.692
 1772SOL    HW2 6216   2.212   5.776   2.582
 1773SOL     OW 6217   2.027   6.755   0.141
 1773SOL    HW1 6218   1.991   6.745   0.234
 1773SOL    HW2 6219   1.964   6.812   0.087
 1774SOL     OW 6220   2.536   5.361   1.563
 1774SOL    HW1 6221   2.461   5.427   1.555
 1774SOL    HW2 6222   2.561   5.351   1.659
 1775SOL     OW 6223   0.612   5.157   0.504
 1775SOL    HW1 6224   0.669   5.130   0.581
 1775SOL    HW2 6225   0.568   5.076   0.465
 1776SOL     OW 6226   2.997   5.882   4.879
 1776SOL    HW1 6227   3.066   5.952   4.900
 1776SOL    HW2 6228   2.953   5.905   4.792
 1777SOL     OW 6229   4.205   6.118   6.643
 1777SOL    HW1 6230   4.189   6.041   6.705
 1777SOL    HW2 6231   4.184   6.204   6.691
 1778SOL     OW 6232   0.468   3.588   5.869
 1778SOL    HW1 6233   0.487   3.534   5.787
 1778SOL    HW2 6234   0.390   3.648   5.852
 1779SOL     OW 6235   4.184   6.643   4.803
 1779SOL    HW1 6236   4.196   6.690   4.891
 1779SOL    HW2 6237   4.121   6.695   4.746
 1780SOL     OW 6238   3.799   1.907   6.962
 1780SOL    HW1 6239   3.791   1.889   0.038
 1780SOL    HW2 6240   3.889   1.947   6.942
 1781SOL     OW 6241   1.918   5.812   3.469
 1781SOL    HW1 6242   1.992   5.876   3.449
 1781SOL    HW2 6243   1.928   5.778   3.563
 1782SOL     OW 6244   3.277   1.393   4.685
 1782SOL    HW1 6245   3.336   1.458   4.636
 1782SOL    HW2 6246   3.307   1.300   4.665
 1783SOL     OW 6247   2.194   5.862   0.288
 1783SOL    HW1 6248   2.145   5.826   0.367
 1783SOL    HW2 6249   2.292   5.844   0.299
 1784SOL     OW 6250   1.713   6.349   6.544
 1784SOL    HW1 6251   1.632   6.400   6.515
 1784SOL    HW2 6252   1.693   6.251   6.538
 1785SOL     OW 6253   6.945   5.229   2.934
 1785SOL    HW1 6254   6.945   5.318   2.888
 1785SOL    HW2 6255   6.946   5.242   3.033
 1786SOL     OW 6256   3.709   2.454   1.449
 1786SOL    HW1 6257   3.761   2.457   1.534
 1786SOL    HW2 6258   3.694   2.547   1.415
 1787SOL     OW 6259   3.580   0.307   5.370
 1787SOL    HW1 6260   3.590   0.265   5.280
 1787SOL    HW2 6261   3.671   0.329   5.406
 1788SOL     OW 6262   1.821   5.045   5.000
 1788SOL    HW1 6263   1.786   4.999   4.919
 1788SOL    HW2 6264   1.846   5.139   4.977
 1789SOL     OW 6265   5.332   6.615   0.853
 1789SOL    HW1 6266   5.411   6.591   0.910
 1789SOL    HW2 6267   5.364   6.662   0.771
 1790SOL     OW 6268   1.938   6.682   2.785
 1790SOL    HW1 6269   1.865   6.747   2.763
 1790SOL    HW2 6270   1.945   6.615   2.711
 1791SOL     OW 6271   0.993   6.596   3.592
 1791SOL    HW1 6272   1.036   6.684   3.569
 1791SOL    HW2 6273   0.992   6.585   3.692
 1792SOL     OW 6274   0.739   3.664   4.350
 1792SOL    HW1 6275   0.775   3.651   4.257
 1792SOL    HW2 6276   0.815   3.680   4.412
 1793SOL     OW 6277   0.233   0.495   4.188
 1793SOL    HW1 6278   0.230   0.408   4.236
 1793SOL    HW2 6279   0.302   0.491   4.116
 1794SOL     OW 6280   4.795   5.736   6.210
 1794SOL    HW1 6281   4.786   5.659   6.273
 1794SOL    HW2 6282   4.725   5.804   6.230
 1795SOL     OW 6283   1.145   3.522   6.941
 1795SOL    HW1 6284   1.115   3.481   6.854
 1795SOL    HW2 6285   1.069   3.571   6.983
 1796SOL     OW 6286   3.858   0.178   5.247
 1796SOL    HW1 6287   3.810   0.117   5.185
 1796SOL    HW2 6288   3.954   0.151   5.252
 1797SOL     OW 6289   0.567   1.185   2.032
 1797SOL    HW1 6290   0.561   1.252   1.958
 1797SOL    HW2 6291   0.505   1.109   2.013
 1798SOL     OW 6292   6.224   1.615   3.180
 1798SOL    HW1 6293   6.190   1.568   3.261
 1798SOL    HW2 6294   6.311   1.575   3.152
 1799SOL     OW 6295   2.548   0.261   0.454
 1799SOL    HW1 6296   2.615   0.205   0.405
 1799SOL    HW2 6297   2.547   0.353   0.416
 1800SOL     OW 6298   2.746   4.791   2.240
 1800SOL    HW1 6299   2.679   4.727   2.202
 1800SOL    HW2 6300   2.834   4.746   2.248
 1801SOL     OW 6301   5.666   6.413   0.569
 1801SOL    HW1 6302   5.725   6.349   0.520
 1801SOL    HW2 6303   5.638   6.374   0.656
 1802SOL     OW 6304   6.027   5.313   4.255
 1802SOL    HW1 6305   5.968   5.236   4.278
 1802SOL    HW2 6306   6.030   5.324   4.155
 1803SOL     OW 6307   6.315   4.866   0.281
 1803SOL    HW1 6308   6.336   4.809   0.360
 1803SOL    HW2 6309   6.242   4.823   0.228
 1804SOL     OW 6310   3.078   3.958   5.851
 1804SOL    HW1 6311   3.166   3.958   5.804
 1804SOL    HW2 6312   3.030   4.044   5.833
 1805SOL     OW 6313   6.622   2.639   6.876
 1805SOL    HW1 6314   6.551   2.691   6.828
 1805SOL    HW2 6315   6.712   2.675   6.851
 1806SOL     OW 6316   6.507   6.443   0.457
 1806SOL    HW1 6317   6.597   6.400   0.458
 1806SOL    HW2 6318   6.482   6.467   0.363
 1807SOL     OW 6319   0.046   1.827   5.660
 1807SOL    HW1 6320   7.011   1.782   5.730
 1807SOL    HW2 6321   0.140   1.836   5.694
 1808SOL     OW 6322   2.628   5.019   3.981
 1808SOL    HW1 6323   2.655   4.949   4.048
 1808SOL    HW2 6324   2.563   5.081   4.023
 1809SOL     OW 6325   3.733   0.659   6.163
 1809SOL    HW1 6326   3.714   0.563   6.142
 1809SOL    HW2 6327   3.665   0.693   6.227
 1810SOL     OW 6328   3.157   6.435   3.185
 1810SOL    HW1 6329   3.059   6.434   3.164
 1810SOL    HW2 6330   3.197   6.521   3.153
 1811SOL     OW 6331   5.755   5.828   3.072
 1811SOL    HW1 6332   5.770   5.737   3.034
 1811SOL    HW2 6333   5.768   5.826   3.171
 1812SOL     OW 6334   4.639   5.326   5.192
 1812SOL    HW1 6335   4.609   5.383   5.268
 1812SOL    HW2 6336   4.712   5.372   5.142
 1813SOL     OW 6337   0.019   6.476   5.613
 1813SOL    HW1 6338   0.044   6.429   5.697
 1813SOL    HW2 6339   0.019   6.575   5.630
 1814SOL     OW 6340   4.938   0.351   2.780
 1814SOL    HW1 6341   4.993   0.394   2.708
 1814SOL    HW2 6342   4.979   0.371   2.869
 1815SOL     OW 6343   0.340   1.373   3.305
 1815SOL    HW1 6344   0.317   1.462   3.345
 1815SOL    HW2 6345   0.257   1.318   3.297
 1816SOL     OW 6346   1.163   5.327   0.514
 1816SOL    HW1 6347   1.123   5.417   0.493
 1816SOL    HW2 6348   1.247   5.315   0.460
 1817SOL     OW 6349   1.398   4.028   1.792
 1817SOL    HW1 6350   1.353   4.114   1.814
 1817SOL    HW2 6351   1.470   4.045   1.724
 1818SOL     OW 6352   0.471   1.509   2.767
 1818SOL    HW1 6353   0.394   1.522   2.830
 1818SOL    HW2 6354   0.516   1.597   2.752
 1819SOL     OW 6355   1.268   4.103   2.811
 1819SOL    HW1 6356   1.263   4.170   2.886
 1819SOL    HW2 6357   1.286   4.151   2.725
 1820SOL     OW 6358   5.745   6.383   2.870
 1820SOL    HW1 6359   5.816   6.369   2.939
 1820SOL    HW2 6360   5.726   6.481   2.861
 1821SOL     OW 6361   1.479   2.176   3.064
 1821SOL    HW1 6362   1.391   2.215   3.037
 1821SOL    HW2 6363   1.553   2.231   3.025
 1822SOL     OW 6364   3.162   3.332   2.216
 1822SOL    HW1 6365   3.236   3.346   2.150
 1822SOL    HW2 6366   3.126   3.239   2.207
 1823SOL     OW 6367   4.170   0.238   2.458
 1823SOL    HW1 6368   4.249   0.299   2.450
 1823SOL    HW2 6369   4.196   0.155   2.507
 1824SOL     OW 6370   4.582   1.420   1.919
 1824SOL    HW1 6371   4.528   1.467   1.988
 1824SOL    HW2 6372   4.525   1.402   1.839
 1825SOL     OW 6373   0.817   0.146   1.766
 1825SOL    HW1 6374   0.900   0.139   1.711
 1825SOL    HW2 6375   0.804   0.062   1.819
 1826SOL     OW 6376   2.694   5.901   6.251
 1826SOL    HW1 6377   2.677   5.916   6.153
 1826SOL    HW2 6378   2.765   5.831   6.262
 1827SOL     OW 6379   5.618   0.321   1.000
 1827SOL    HW1 6380   5.575   0.364   0.921
 1827SOL    HW2 6381   5.708   0.286   0.975
 1828SOL     OW 6382   2.962   2.493   0.350
 1828SOL    HW1 6383   2.876   2.445   0.336
 1828SOL    HW2 6384   3.028   2.432   0.394
 1829SOL     OW 6385   5.409   5.405   2.245
 1829SOL    HW1 6386   5.395   5.501   2.221
 1829SOL    HW2 6387   5.455   5.399   2.333
 1830SOL     OW 6388   4.473   0.147   4.546
 1830SOL    HW1 6389   4.524   0.228   4.517
 1830SOL    HW2 6390   4.376   0.159   4.523
 1831SOL     OW 6391   5.263   1.377   3.138
 1831SOL    HW1 6392   5.190   1.445   3.125
 1831SOL    HW2 6393   5.340   1.420   3.184
 1832SOL     OW 6394   5.477   2.709   6.679
 1832SOL    HW1 6395   5.436   2.719   6.770
 1832SOL    HW2 6396   5.408   2.673   6.616
 1833SOL     OW 6397   5.818   2.139   6.175
 1833SOL    HW1 6398   5.725   2.138   6.211
 1833SOL    HW2 6399   5.881   2.108   6.245
 1834SOL     OW 6400   2.748   4.436   6.891
 1834SOL    HW1 6401   2.771   4.519   6.942
 1834SOL    HW2 6402   2.709   4.368   6.954
 1835SOL     OW 6403   2.018   5.191   0.177
 1835SOL    HW1 6404   2.009   5.202   0.276
 1835SOL    HW2 6405   1.986   5.100   0.150
 1836SOL     OW 6406   0.876   6.414   0.266
 1836SOL    HW1 6407   0.830   6.353   0.331
 1836SOL    HW2 6408   0.888   6.367   0.179
 1837SOL     OW 6409   0.262   2.724   4.646
 1837SOL    HW1 6410   0.194   2.778   4.695
 1837SOL    HW2 6411   0.266   2.632   4.685
 1838SOL     OW 6412   0.717   2.866   4.385
 1838SOL    HW1 6413   0.753   2.775   4.367
 1838SOL    HW2 6414   0.620   2.860   4.409
 1839SOL     OW 6415   1.350   1.291   6.866
 1839SOL    HW1 6416   1.263   1.331   6.837
 1839SOL    HW2 6417   1.407   1.275   6.786
 1840SOL     OW 6418   1.014   5.210   1.450
 1840SOL    HW1 6419   1.087   5.272   1.480
 1840SOL    HW2 6420   0.979   5.159   1.528
 1841SOL     OW 6421   2.005   2.932   3.943
 1841SOL    HW1 6422   2.087   2.990   3.940
 1841SOL    HW2 6423   1.999   2.886   4.031
 1842SOL     OW 6424   1.399   5.777   6.220
 1842SOL    HW1 6425   1.427   5.831   6.140
 1842SOL    HW2 6426   1.328   5.713   6.193
 1843SOL     OW 6427   4.602   1.947   5.619
 1843SOL    HW1 6428   4.587   2.027   5.678
 1843SOL    HW2 6429   4.671   1.969   5.551
 1844SOL     OW 6430   5.500   5.136   3.739
 1844SOL    HW1 6431   5.497   5.052   3.793
 1844SOL    HW2 6432   5.440   5.128   3.660
 1845SOL     OW 6433   4.864   6.574   0.820
 1845SOL    HW1 6434   4.950   6.593   0.867
 1845SOL    HW2 6435   4.863   6.621   0.732
 1846SOL     OW 6436   3.833   1.597   5.569
 1846SOL    HW1 6437   3.743   1.578   5.531
 1846SOL    HW2 6438   3.856   1.527   5.638
 1847SOL     OW 6439   1.253   6.023   6.482
 1847SOL    HW1 6440   1.246   6.035   6.383
 1847SOL    HW2 6441   1.306   5.941   6.502
 1848SOL     OW 6442   2.126   1.140   4.191
 1848SOL    HW1 6443   2.049   1.194   4.156
 1848SOL    HW2 6444   2.198   1.202   4.223
 1849SOL     OW 6445   2.367   0.809   6.085
 1849SOL    HW1 6446   2.370   0.901   6.125
 1849SOL    HW2 6447   2.280   0.797   6.037
 1850SOL     OW 6448   5.091   1.763   1.661
 1850SOL    HW1 6449   5.076   1.773   1.563
 1850SOL    HW2 6450   5.179   1.806   1.685
 1851SOL     OW 6451   6.947   4.538   2.574
 1851SOL    HW1 6452   6.923   4.527   2.671
 1851SOL    HW2 6453   0.018   4.503   2.559
 1852SOL     OW 6454   5.554   1.514   5.785
 1852SOL    HW1 6455   5.651   1.540   5.778
 1852SOL    HW2 6456   5.512   1.560   5.863
 1853SOL     OW 6457   1.816   4.984   0.437
 1853SOL    HW1 6458   1.833   4.934   0.522
 1853SOL    HW2 6459   1.750   5.058   0.454
 1854SOL     OW 6460   2.435   5.172   4.348
 1854SOL    HW1 6461   2.528   5.151   4.318
 1854SOL    HW2 6462   2.437   5.202   4.444
 1855SOL     OW 6463   6.549   4.715   1.574
 1855SOL    HW1 6464   6.529   4.621   1.545
 1855SOL    HW2 6465   6.611   4.713   1.652
 1856SOL     OW 6466   5.754   3.242   0.172
 1856SOL    HW1 6467   5.743   3.145   0.196
 1856SOL    HW2 6468   5.708   3.261   0.085
 1857SOL     OW 6469   5.759   1.351   3.465
 1857SOL    HW1 6470   5.796   1.418   3.400
 1857SOL    HW2 6471   5.698   1.398   3.529
 1858SOL     OW 6472   5.112   4.366   2.223
 1858SOL    HW1 6473   5.084   4.462   2.234
 1858SOL    HW2 6474   5.124   4.346   2.126
 1859SOL     OW 6475   5.777   2.167   3.594
 1859SOL    HW1 6476   5.699   2.127   3.545
 1859SOL    HW2 6477   5.743   2.223   3.670
 1860SOL     OW 6478   3.791   1.972   5.033
 1860SOL    HW1 6479   3.813   1.881   5.067
 1860SOL    HW2 6480   3.873   2.029   5.035
 1861SOL     OW 6481   5.265   6.487   2.431
 1861SOL    HW1 6482   5.256   6.403   2.378
 1861SOL    HW2 6483   5.350   6.533   2.406
 1862SOL     OW 6484   2.703   2.256   0.786
 1862SOL    HW1 6485   2.777   2.190   0.795
 1862SOL    HW2 6486   2.618   2.209   0.763
 1863SOL     OW 6487   1.905   1.853   1.258
 1863SOL    HW1 6488   1.838   1.806   1.316
 1863SOL    HW2 6489   1.990   1.865   1.309
 1864SOL     OW 6490   0.444   6.519   3.281
 1864SOL    HW1 6491   0.497   6.601   3.259
 1864SOL    HW2 6492   0.504   6.439   3.273
 1865SOL     OW 6493   5.199   3.439   6.557
 1865SOL    HW1 6494   5.272   3.470   6.496
 1865SOL    HW2 6495   5.163   3.351   6.526
 1866SOL     OW 6496   5.992   5.262   1.459
 1866SOL    HW1 6497   5.930   5.195   1.419
 1866SOL    HW2 6498   6.001   5.340   1.396
 1867SOL     OW 6499   1.395   4.544   6.165
 1867SOL    HW1 6500   1.308   4.571   6.125
 1867SOL    HW2 6501   1.444   4.485   6.101
 1868SOL     OW 6502   6.637   4.211   5.222
 1868SOL    HW1 6503   6.598   4.209   5.130
 1868SOL    HW2 6504   6.731   4.245   5.218
 1869SOL     OW 6505   5.471   1.328   4.629
 1869SOL    HW1 6506   5.567   1.305   4.638
 1869SOL    HW2 6507   5.461   1.411   4.574
 1870SOL     OW 6508   2.171   4.009   4.801
 1870SOL    HW1 6509   2.215   3.993   4.889
 1870SOL    HW2 6510   2.090   4.065   4.814
 1871SOL     OW 6511   1.905   0.784   1.407
 1871SOL    HW1 6512   1.956   0.759   1.325
 1871SOL    HW2 6513   1.845   0.862   1.387
 1872SOL     OW 6514   1.733   5.701   6.481
 1872SOL    HW1 6515   1.803   5.656   6.535
 1872SOL    HW2 6516   1.731   5.799   6.504
 1873SOL     OW 6517   5.529   6.662   6.874
 1873SOL    HW1 6518   5.572   6.735   6.821
 1873SOL    HW2 6519   5.441   6.693   6.909
 1874SOL     OW 6520   0.599   3.562   2.660
 1874SOL    HW1 6521   0.648   3.536   2.577
 1874SOL    HW2 6522   0.561   3.654   2.649
 1875SOL     OW 6523   0.469   7.016   2.135
 1875SOL    HW1 6524   0.402   0.067   2.151
 1875SOL    HW2 6525   0.456   6.979   2.043
 1876SOL     OW 6526   1.746   6.436   4.413
 1876SOL    HW1 6527   1.746   6.414   4.510
 1876SOL    HW2 6528   1.659   6.408   4.373
 1877SOL     OW 6529   0.398   0.081   4.127
 1877SOL    HW1 6530   0.434   0.018   4.196
 1877SOL    HW2 6531   0.305   0.109   4.154
 1878SOL     OW 6532   6.591   2.963   5.763
 1878SOL    HW1 6533   6.684   2.989   5.738
 1878SOL    HW2 6534   6.574   2.989   5.858
 1879SOL     OW 6535   1.989   5.583   5.675
 1879SOL    HW1 6536   1.936   5.533   5.607
 1879SOL    HW2 6537   1.955   5.677   5.680
 1880SOL     OW 6538   6.276   0.480   3.968
 1880SOL    HW1 6539   6.266   0.463   4.066
 1880SOL    HW2 6540   6.363   0.443   3.936
 1881SOL     OW 6541   0.361   2.162   6.867
 1881SOL    HW1 6542   0.321   2.239   6.818
 1881SOL    HW2 6543   0.395   2.094   6.801
 1882SOL     OW 6544   0.742   6.648   0.214
 1882SOL    HW1 6545   0.781   6.559   0.237
 1882SOL    HW2 6546   0.683   6.639   0.134
 1883SOL     OW 6547   0.080   1.925   4.190
 1883SOL    HW1 6548   0.153   1.860   4.210
 1883SOL    HW2 6549   0.054   1.919   4.094
 1884SOL     OW 6550   5.649   2.282   1.558
 1884SOL    HW1 6551   5.561   2.314   1.525
 1884SOL    HW2 6552   5.658   2.184   1.541
 1885SOL     OW 6553   3.369   1.162   4.579
 1885SOL    HW1 6554   3.464   1.167   4.549
 1885SOL    HW2 6555   3.330   1.074   4.551
 1886SOL     OW 6556   0.450   6.094   3.651
 1886SOL    HW1 6557   0.512   6.127   3.580
 1886SOL    HW2 6558   0.366   6.147   3.649
 1887SOL     OW 6559   2.256   5.331   6.136
 1887SOL    HW1 6560   2.229   5.339   6.232
 1887SOL    HW2 6561   2.344   5.283   6.131
 1888SOL     OW 6562   2.127   7.018   3.117
 1888SOL    HW1 6563   2.217   7.021   3.160
 1888SOL    HW2 6564   2.128   6.953   3.042
 1889SOL     OW 6565   0.417   3.198   2.392
 1889SOL    HW1 6566   0.460   3.196   2.483
 1889SOL    HW2 6567   0.338   3.258   2.395
 1890SOL     OW 6568   1.716   5.929   4.719
 1890SOL    HW1 6569   1.779   5.985   4.665
 1890SOL    HW2 6570   1.631   5.915   4.667
 1891SOL     OW 6571   4.098   3.542   3.432
 1891SOL    HW1 6572   4.010   3.588   3.422
 1891SOL    HW2 6573   4.147   3.581   3.510
 1892SOL     OW 6574   6.838   0.602   2.744
 1892SOL    HW1 6575   6.759   0.580   2.800
 1892SOL    HW2 6576   6.917   0.621   2.803
 1893SOL     OW 6577   3.828   3.077   4.298
 1893SOL    HW1 6578   3.842   3.031   4.211
 1893SOL    HW2 6579   3.753   3.143   4.290
 1894SOL     OW 6580   3.282   2.941   4.539
 1894SOL    HW1 6581   3.231   2.989   4.609
 1894SOL    HW2 6582   3.249   2.969   4.448
 1895SOL     OW 6583   0.792   6.355   1.360
 1895SOL    HW1 6584   0.744   6.362   1.273
 1895SOL    HW2 6585   0.883   6.316   1.345
 1896SOL     OW 6586   5.981   3.117   1.044
 1896SOL    HW1 6587   5.939   3.027   1.032
 1896SOL    HW2 6588   6.070   3.106   1.088
 1897SOL     OW 6589   2.166   4.536   3.299
 1897SOL    HW1 6590   2.083   4.481   3.287
 1897SOL    HW2 6591   2.247   4.479   3.285
 1898SOL     OW 6592   1.754   6.122   2.332
 1898SOL    HW1 6593   1.742   6.058   2.256
 1898SOL    HW2 6594   1.819   6.193   2.305
 1899SOL     OW 6595   6.813   0.951   2.020
 1899SOL    HW1 6596   6.840   0.905   2.105
 1899SOL    HW2 6597   6.820   0.886   1.944
 1900SOL     OW 6598   3.115   6.259   6.290
 1900SOL    HW1 6599   3.107   6.162   6.316
 1900SOL    HW2 6600   3.189   6.301   6.342
 1901SOL     OW 6601   4.041   3.130   2.954
 1901SOL    HW1 6602   4.110   3.105   3.022
 1901SOL    HW2 6603   3.955   3.082   2.975
 1902SOL     OW 6604   1.016   6.694   5.328
 1902SOL    HW1 6605   0.994   6.673   5.423
 1902SOL    HW2 6606   1.003   6.792   5.311
 1903SOL     OW 6607   1.187   1.971   4.358
 1903SOL    HW1 6608   1.087   1.972   4.364
 1903SOL    HW2 6609   1.216   1.901   4.294
 1904SOL     OW 6610   6.163   5.578   1.759
 1904SOL    HW1 6611   6.066   5.557   1.769
 1904SOL    HW2 6612   6.215   5.529   1.830
 1905SOL     OW 6613   0.525   3.094   3.989
 1905SOL    HW1 6614   0.472   3.179   3.992
 1905SOL    HW2 6615   0.486   3.028   4.053
 1906SOL     OW 6616   0.311   6.038   4.100
 1906SOL    HW1 6617   0.272   5.992   4.020
 1906SOL    HW2 6618   0.380   6.104   4.070
 1907SOL     OW 6619   6.355   2.981   0.792
 1907SOL    HW1 6620   6.355   2.900   0.734
 1907SOL    HW2 6621   6.354   3.063   0.735
 1908SOL     OW 6622   3.948   0.569   1.797
 1908SOL    HW1 6623   4.041   0.566   1.760
 1908SOL    HW2 6624   3.951   0.603   1.891
 1909SOL     OW 6625   6.476   5.137   5.087
 1909SOL    HW1 6626   6.440   5.105   5.175
 1909SOL    HW2 6627   6.521   5.062   5.040
 1910SOL     OW 6628   0.384   6.117   5.321
 1910SOL    HW1 6629   0.304   6.094   5.266
 1910SOL    HW2 6630   0.382   6.214   5.343
 1911SOL     OW 6631   5.755   6.656   4.047
 1911SOL    HW1 6632   5.822   6.610   4.105
 1911SOL    HW2 6633   5.802   6.714   3.981
 1912SOL     OW 6634   3.334   4.844   1.917
 1912SOL    HW1 6635   3.403   4.797   1.973
 1912SOL    HW2 6636   3.259   4.781   1.898
 1913SOL     OW 6637   3.002   4.296   6.062
 1913SOL    HW1 6638   2.993   4.221   6.127
 1913SOL    HW2 6639   3.078   4.355   6.091
 1914SOL     OW 6640   4.362   3.846   0.305
 1914SOL    HW1 6641   4.267   3.874   0.292
 1914SOL    HW2 6642   4.390   3.864   0.399
 1915SOL     OW 6643   4.113   2.228   0.069
 1915SOL    HW1 6644   4.061   2.300   0.023
 1915SOL    HW2 6645   4.113   2.245   0.168
 1916SOL     OW 6646   3.498   1.558   2.698
 1916SOL    HW1 6647   3.404   1.592   2.699
 1916SOL    HW2 6648   3.561   1.636   2.703
 1917SOL     OW 6649   2.939   3.666   1.328
 1917SOL    HW1 6650   3.025   3.628   1.363
 1917SOL    HW2 6651   2.936   3.654   1.228
 1918SOL     OW 6652   5.057   2.759   4.414
 1918SOL    HW1 6653   5.060   2.659   4.417
 1918SOL    HW2 6654   5.079   2.795   4.505
 1919SOL     OW 6655   6.507   1.318   6.516
 1919SOL    HW1 6656   6.502   1.244   6.584
 1919SOL    HW2 6657   6.477   1.283   6.427
 1920SOL     OW 6658   4.559   3.640   0.456
 1920SOL    HW1 6659   4.551   3.725   0.507
 1920SOL    HW2 6660   4.499   3.571   0.497
 1921SOL     OW 6661   3.564   2.222   0.003
 1921SOL    HW1 6662   3.627   2.150   6.995
 1921SOL    HW2 6663   3.473   2.183   0.017
 1922SOL     OW 6664   3.609   3.635   4.515
 1922SOL    HW1 6665   3.527   3.584   4.488
 1922SOL    HW2 6666   3.688   3.600   4.465
 1923SOL     OW 6667   3.221   0.599   4.176
 1923SOL    HW1 6668   3.137   0.545   4.172
 1923SOL    HW2 6669   3.300   0.538   4.172
 1924SOL     OW 6670   5.634   0.879   1.235
 1924SOL    HW1 6671   5.582   0.809   1.285
 1924SOL    HW2 6672   5.661   0.843   1.146
 1925SOL     OW 6673   1.373   4.754   1.009
 1925SOL    HW1 6674   1.415   4.765   0.919
 1925SOL    HW2 6675   1.279   4.723   0.999
 1926SOL     OW 6676   2.979   6.534   2.026
 1926SOL    HW1 6677   2.915   6.573   2.092
 1926SOL    HW2 6678   2.966   6.577   1.937
 1927SOL     OW 6679   2.132   5.367   0.653
 1927SOL    HW1 6680   2.105   5.273   0.676
 1927SOL    HW2 6681   2.072   5.431   0.702
 1928SOL     OW 6682   0.656   4.232   2.791
 1928SOL    HW1 6683   0.750   4.254   2.767
 1928SOL    HW2 6684   0.654   4.196   2.885
 1929SOL     OW 6685   3.149   0.548   3.361
 1929SOL    HW1 6686   3.248   0.539   3.356
 1929SOL    HW2 6687   3.112   0.479   3.424
 1930SOL     OW 6688   3.498   3.287   0.086
 1930SOL    HW1 6689   3.498   3.314   0.182
 1930SOL    HW2 6690   3.449   3.355   0.032
 1931SOL     OW 6691   6.027   3.786   3.877
 1931SOL    HW1 6692   5.966   3.865   3.868
 1931SOL    HW2 6693   5.977   3.703   3.854
 1932SOL     OW 6694   4.515   1.093   1.714
 1932SOL    HW1 6695   4.435   1.103   1.773
 1932SOL    HW2 6696   4.493   1.127   1.622
 1933SOL     OW 6697   1.649   1.207   1.034
 1933SOL    HW1 6698   1.582   1.241   0.967
 1933SOL    HW2 6699   1.615   1.123   1.075
 1934SOL     OW 6700   6.380   0.710   6.830
 1934SOL    HW1 6701   6.280   0.698   6.831
 1934SOL    HW2 6702   6.414   0.692   6.737
 1935SOL     OW 6703   6.348   5.063   3.819
 1935SOL    HW1 6704   6.307   5.075   3.909
 1935SOL    HW2 6705   6.281   5.086   3.748
 1936SOL     OW 6706   5.582   3.318   6.685
 1936SOL    HW1 6707   5.552   3.350   6.775
 1936SOL    HW2 6708   5.623   3.394   6.635
 1937SOL     OW 6709   0.946   5.008   6.744
 1937SOL    HW1 6710   1.019   5.068   6.778
 1937SOL    HW2 6711   0.907   5.048   6.660
 1938SOL     OW 6712   6.547   1.577   6.558
 1938SOL    HW1 6713   6.553   1.479   6.538
 1938SOL    HW2 6714   6.593   1.628   6.485
 1939SOL     OW 6715   0.335   0.809   4.096
 1939SOL    HW1 6716   0.348   0.731   4.158
 1939SOL    HW2 6717   0.422   0.836   4.057
 1940SOL     OW 6718   1.208   5.360   1.525
 1940SOL    HW1 6719   1.155   5.414   1.590
 1940SOL    HW2 6720   1.306   5.375   1.540
 1941SOL     OW 6721   6.056   0.593   4.245
 1941SOL    HW1 6722   6.150   0.568   4.268
 1941SOL    HW2 6723   5.996   0.571   4.322
 1942SOL     OW 6724   0.738   6.109   1.855
 1942SOL    HW1 6725   0.762   6.057   1.773
 1942SOL    HW2 6726   0.639   6.119   1.860
 1943SOL     OW 6727   0.966   3.761   4.164
 1943SOL    HW1 6728   0.936   3.849   4.127
 1943SOL    HW2 6729   1.050   3.774   4.216
 1944SOL     OW 6730   0.090   3.564   3.864
 1944SOL    HW1 6731   0.009   3.618   3.840
 1944SOL    HW2 6732   0.159   3.624   3.905
 1945SOL     OW 6733   4.916   1.950   2.364
 1945SOL    HW1 6734   4.837   1.890   2.376
 1945SOL    HW2 6735   4.978   1.941   2.442
 1946SOL     OW 6736   5.906   4.934   6.941
 1946SOL    HW1 6737   5.822   4.986   6.924
 1946SOL    HW2 6738   5.909   4.855   6.879
 1947SOL     OW 6739   5.629   6.043   2.982
 1947SOL    HW1 6740   5.671   5.965   3.028
 1947SOL    HW2 6741   5.640   6.033   2.883
 1948SOL     OW 6742   5.327   3.268   3.271
 1948SOL    HW1 6743   5.422   3.274   3.302
 1948SOL    HW2 6744   5.267   3.264   3.351
 1949SOL     OW 6745   3.226   3.861   6.394
 1949SOL    HW1 6746   3.287   3.894   6.466
 1949SOL    HW2 6747   3.280   3.842   6.312
 1950SOL     OW 6748   3.596   3.754   3.644
 1950SOL    HW1 6749   3.691   3.722   3.649
 1950SOL    HW2 6750   3.576   3.782   3.550
 1951SOL     OW 6751   0.346   5.439   6.206
 1951SOL    HW1 6752   0.287   5.499   6.152
 1951SOL    HW2 6753   0.442   5.467   6.193
 1952SOL     OW 6754   5.488   4.113   0.115
 1952SOL    HW1 6755   5.416   4.164   0.069
 1952SOL    HW2 6756   5.501   4.025   0.068
 1953SOL     OW 6757   0.801   1.054   6.547
 1953SOL    HW1 6758   0.784   1.126   6.615
 1953SOL    HW2 6759   0.735   0.980   6.560
 1954SOL     OW 6760   3.759   6.481   2.904
 1954SOL    HW1 6761   3.751   6.499   3.002
 1954SOL    HW2 6762   3.678   6.432   2.872
 1955SOL     OW 6763   6.752   3.498   4.113
 1955SOL    HW1 6764   6.817   3.450   4.173
 1955SOL    HW2 6765   6.730   3.440   4.035
 1956SOL     OW 6766   4.591   1.519   1.609
 1956SOL    HW1 6767   4.582   1.420   1.600
 1956SOL    HW2 6768   4.676   1.549   1.565
 1957SOL     OW 6769   6.931   2.982   4.671
 1957SOL    HW1 6770   6.909   2.967   4.767
 1957SOL    HW2 6771   7.005   3.048   4.663
 1958SOL     OW 6772   5.247   2.167   0.374
 1958SOL    HW1 6773   5.269   2.196   0.467
 1958SOL    HW2 6774   5.147   2.161   0.364
 1959SOL     OW 6775   2.023   1.598   6.394
 1959SOL    HW1 6776   1.944   1.637   6.347
 1959SOL    HW2 6777   2.055   1.517   6.346
 1960SOL     OW 6778   4.736   4.677   1.933
 1960SOL    HW1 6779   4.703   4.665   2.026
 1960SOL    HW2 6780   4.812   4.613   1.916
 1961SOL     OW 6781   0.006   3.853   4.302
 1961SOL    HW1 6782   0.078   3.804   4.253
 1961SOL    HW2 6783   0.004   3.948   4.271
 1962SOL     OW 6784   0.561   6.898   2.557
 1962SOL    HW1 6785   0.527   6.992   2.556
 1962SOL    HW2 6786   0.553   6.858   2.466
 1963SOL     OW 6787   0.629   1.400   6.556
 1963SOL    HW1 6788   0.680   1.351   6.627
 1963SOL    HW2 6789   0.647   1.498   6.563
 1964SOL     OW 6790   5.441   3.504   0.412
 1964SOL    HW1 6791   5.416   3.429   0.474
 1964SOL    HW2 6792   5.407   3.591   0.449
 1965SOL     OW 6793   5.081   5.059   4.430
 1965SOL    HW1 6794   5.130   5.096   4.509
 1965SOL    HW2 6795   5.139   4.994   4.382
 1966SOL     OW 6796   1.568   5.159   6.469
 1966SOL    HW1 6797   1.581   5.134   6.373
 1966SOL    HW2 6798   1.487   5.112   6.505
 1967SOL     OW 6799   6.499   2.431   4.447
 1967SOL    HW1 6800   6.591   2.416   4.483
 1967SOL    HW2 6801   6.465   2.519   4.478
 1968SOL     OW 6802   2.825   1.317   5.850
 1968SOL    HW1 6803   2.768   1.398   5.866
 1968SOL    HW2 6804   2.783   1.261   5.779
 1969SOL     OW 6805   0.070   6.474   1.830
 1969SOL    HW1 6806   0.137   6.412   1.789
 1969SOL    HW2 6807   0.112   6.564   1.845
 1970SOL     OW 6808   5.028   4.018   2.778
 1970SOL    HW1 6809   5.025   3.966   2.693
 1970SOL    HW2 6810   5.086   3.971   2.844
 1971SOL     OW 6811   1.240   5.550   4.246
 1971SOL    HW1 6812   1.255   5.551   4.147
 1971SOL    HW2 6813   1.259   5.641   4.283
 1972SOL     OW 6814   5.442   1.987   3.214
 1972SOL    HW1 6815   5.384   1.911   3.186
 1972SOL    HW2 6816   5.427   2.064   3.152
 1973SOL     OW 6817   4.414   2.672   6.869
 1973SOL    HW1 6818   4.356   2.739   6.823
 1973SOL    HW2 6819   4.361   2.588   6.883
 1974SOL     OW 6820   2.057   6.288   4.581
 1974SOL    HW1 6821   1.985   6.220   4.592
 1974SOL    HW2 6822   2.121   6.257   4.511
 1975SOL     OW 6823   2.253   2.377   2.505
 1975SOL    HW1 6824   2.298   2.411   2.423
 1975SOL    HW2 6825   2.179   2.315   2.479
 1976SOL     OW 6826   2.547   0.674   4.720
 1976SOL    HW1 6827   2.616   0.741   4.747
 1976SOL    HW2 6828   2.463   0.690   4.773
 1977SOL     OW 6829   1.479   4.603   0.128
 1977SOL    HW1 6830   1.523   4.655   0.201
 1977SOL    HW2 6831   1.418   4.664   0.077
 1978SOL     OW 6832   2.475   0.476   2.468
 1978SOL    HW1 6833   2.521   0.456   2.381
 1978SOL    HW2 6834   2.473   0.575   2.482
 1979SOL     OW 6835   5.561   3.105   7.003
 1979SOL    HW1 6836   5.591   3.016   6.967
 1979SOL    HW2 6837   5.557   3.101   0.081
 1980SOL     OW 6838   4.127   0.181   1.867
 1980SOL    HW1 6839   4.051   0.168   1.803
 1980SOL    HW2 6840   4.208   0.212   1.817
 1981SOL     OW 6841   4.504   2.545   1.846
 1981SOL    HW1 6842   4.422   2.597   1.821
 1981SOL    HW2 6843   4.579   2.570   1.784
 1982SOL     OW 6844   2.313   2.166   6.430
 1982SOL    HW1 6845   2.305   2.072   6.395
 1982SOL    HW2 6846   2.332   2.228   6.354
 1983SOL     OW 6847   6.808   2.190   1.392
 1983SOL    HW1 6848   6.734   2.146   1.340
 1983SOL    HW2 6849   6.771   2.264   1.448
 1984SOL     OW 6850   4.737   3.346   6.061
 1984SOL    HW1 6851   4.733   3.249   6.082
 1984SOL    HW2 6852   4.661   3.371   6.000
 1985SOL     OW 6853   5.482   5.674   4.768
 1985SOL    HW1 6854   5.393   5.675   4.721
 1985SOL    HW2 6855   5.526   5.585   4.753
 1986SOL     OW 6856   3.088   3.076   3.262
 1986SOL    HW1 6857   3.095   3.057   3.164
 1986SOL    HW2 6858   3.076   2.990   3.312
 1987SOL     OW 6859   1.766   1.791   1.780
 1987SOL    HW1 6860   1.785   1.700   1.818
 1987SOL    HW2 6861   1.851   1.845   1.779
 1988SOL     OW 6862   1.216   1.984   2.768
 1988SOL    HW1 6863   1.141   2.012   2.709
 1988SOL    HW2 6864   1.197   1.892   2.804
 1989SOL     OW 6865   3.617   5.410   3.569
 1989SOL    HW1 6866   3.660   5.449   3.650
 1989SOL    HW2 6867   3.530   5.367   3.594
 1990SOL     OW 6868   4.093   6.280   0.830
 1990SOL    HW1 6869   4.143   6.196   0.807
 1990SOL    HW2 6870   4.152   6.340   0.884
 1991SOL     OW 6871   3.029   5.162   2.531
 1991SOL    HW1 6872   2.936   5.135   2.505
 1991SOL    HW2 6873   3.086   5.081   2.539
 1992SOL     OW 6874   1.068   6.809   3.178
 1992SOL    HW1 6875   1.154   6.811   3.229
 1992SOL    HW2 6876   1.074   6.871   3.100
 1993SOL     OW 6877   1.381   1.092   1.649
 1993SOL    HW1 6878   1.298   1.079   1.594
 1993SOL    HW2 6879   1.452   1.135   1.592
 1994SOL     OW 6880   2.933   3.149   1.608
 1994SOL    HW1 6881   2.855   3.089   1.629
 1994SOL    HW2 6882   2.899   3.238   1.578
 1995SOL     OW 6883   5.819   0.993   4.067
 1995SOL    HW1 6884   5.743   0.998   4.001
 1995SOL    HW2 6885   5.871   0.910   4.051
 1996SOL     OW 6886   4.987   0.311   1.464
 1996SOL    HW1 6887   4.926   0.388   1.448
 1996SOL    HW2 6888   4.996   0.296   1.563
 1997SOL     OW 6889   2.546   1.739   3.008
 1997SOL    HW1 6890   2.613   1.760   3.080
 1997SOL    HW2 6891   2.524   1.822   2.957
 1998SOL     OW 6892   2.334   3.544   1.304
 1998SOL    HW1 6893   2.307   3.589   1.389
 1998SOL    HW2 6894   2.379   3.457   1.325
 1999SOL     OW 6895   0.766   0.040   5.740
 1999SOL    HW1 6896   0.846   0.066   5.686
 1999SOL    HW2 6897   0.742   6.966   5.720
 2000SOL     OW 6898   4.681   3.948   6.720
 2000SOL    HW1 6899   4.703   3.937   6.623
 2000SOL    HW2 6900   4.765   3.960   6.773
 2001SOL     OW 6901   1.247   2.032   0.572
 2001SOL    HW1 6902   1.332   2.036   0.625
 2001SOL    HW2 6903   1.239   1.942   0.529
 2002SOL     OW 6904   5.935   4.736   6.392
 2002SOL    HW1 6905   5.912   4.828   6.424
 2002SOL    HW2 6906   6.001   4.695   6.454
 2003SOL     OW 6907   6.654   5.672   1.215
 2003SOL    HW1 6908   6.699   5.756   1.246
 2003SOL    HW2 6909   6.603   5.632   1.290
 2004SOL     OW 6910   3.394   0.972   2.615
 2004SOL    HW1 6911   3.477   0.957   2.669
 2004SOL    HW2 6912   3.418   1.000   2.522
 2005SOL     OW 6913   1.797   6.549   0.097
 2005SOL    HW1 6914   1.822   6.643   0.118
 2005SOL    HW2 6915   1.880   6.495   0.081
 2006SOL     OW 6916   6.077   0.065   2.005
 2006SOL    HW1 6917   6.057   0.156   2.042
 2006SOL    HW2 6918   6.104   0.074   1.909
 2007SOL     OW 6919   5.644   5.170   5.428
 2007SOL    HW1 6920   5.650   5.175   5.528
 2007SOL    HW2 6921   5.721   5.117   5.393
 2008SOL     OW 6922   2.163   3.044   2.630
 2008SOL    HW1 6923   2.200   3.070   2.541
 2008SOL    HW2 6924   2.169   2.944   2.641
 2009SOL     OW 6925   5.894   0.381   3.772
 2009SOL    HW1 6926   5.949   0.309   3.729
 2009SOL    HW2 6927   5.947   0.466   3.775
 2010SOL     OW 6928   6.994   1.459   1.625
 2010SOL    HW1 6929   6.975   1.531   1.692
 2010SOL    HW2 6930   0.057   1.412   1.649
 2011SOL     OW 6931   0.651   0.519   5.078
 2011SOL    HW1 6932   0.713   0.553   5.007
 2011SOL    HW2 6933   0.557   0.531   5.048
 2012SOL     OW 6934   7.012   2.140   0.407
 2012SOL    HW1 6935   7.010   2.051   0.363
 2012SOL    HW2 6936   6.962   2.206   0.351
 2013SOL     OW 6937   0.405   2.262   1.819
 2013SOL    HW1 6938   0.361   2.211   1.744
 2013SOL    HW2 6939   0.337   2.318   1.865
 2014SOL     OW 6940   4.168   2.099   3.786
 2014SOL    HW1 6941   4.223   2.020   3.813
 2014SOL    HW2 6942   4.075   2.069   3.766
 2015SOL     OW 6943   3.562   6.302   1.679
 2015SOL    HW1 6944   3.661   6.302   1.670
 2015SOL    HW2 6945   3.521   6.314   1.588
 2016SOL     OW 6946   2.081   0.595   4.779
 2016SOL    HW1 6947   2.091   0.632   4.687
 2016SOL    HW2 6948   1.986   0.568   4.795
 2017SOL     OW 6949   1.563   6.930   4.782
 2017SOL    HW1 6950   1.535   6.985   4.703
 2017SOL    HW2 6951   1.541   6.834   4.764
 2018SOL     OW 6952   0.305   1.003   4.658
 2018SOL    HW1 6953   0.282   0.907   4.643
 2018SOL    HW2 6954   0.222   1.055   4.680
 2019SOL     OW 6955   0.908   5.028   7.010
 2019SOL    HW1 6956   0.912   5.019   6.911
 2019SOL    HW2 6957   0.940   5.119   0.015
 2020SOL     OW 6958   2.068   0.040   1.685
 2020SOL    HW1 6959   2.016   0.025   1.770
 2020SOL    HW2 6960   2.012   0.090   1.620
 2021SOL     OW 6961   0.434   5.134   3.344
 2021SOL    HW1 6962   0.345   5.175   3.323
 2021SOL    HW2 6963   0.482   5.113   3.259
 2022SOL     OW 6964   2.272   2.964   4.125
 2022SOL    HW1 6965   2.250   3.057   4.154
 2022SOL    HW2 6966   2.277   2.904   4.205
 2023SOL     OW 6967   0.594   5.758   6.723
 2023SOL    HW1 6968   0.577   5.684   6.658
 2023SOL    HW2 6969   0.640   5.834   6.676
 2024SOL     OW 6970   6.496   6.337   3.467
 2024SOL    HW1 6971   6.533   6.393   3.541
 2024SOL    HW2 6972   6.513   6.240   3.486
 2025SOL     OW 6973   1.722   0.695   4.693
 2025SOL    HW1 6974   1.781   0.770   4.724
 2025SOL    HW2 6975   1.759   0.608   4.726
 2026SOL     OW 6976   1.621   6.615   5.783
 2026SOL    HW1 6977   1.583   6.703   5.754
 2026SOL    HW2 6978   1.716   6.628   5.811
 2027SOL     OW 6979   6.557   6.897   3.293
 2027SOL    HW1 6980   6.624   6.840   3.340
 2027SOL    HW2 6981   6.516   6.844   3.219
 2028SOL     OW 6982   1.741   6.114   4.965
 2028SOL    HW1 6983   1.824   6.078   5.009
 2028SOL    HW2 6984   1.728   6.071   4.876
 2029SOL     OW 6985   6.866   2.245   0.174
 2029SOL    HW1 6986   6.887   2.325   0.118
 2029SOL    HW2 6987   6.903   2.163   0.131
 2030SOL     OW 6988   1.682   6.162   2.785
 2030SOL    HW1 6989   1.668   6.182   2.882
 2030SOL    HW2 6990   1.631   6.227   2.729
 2031SOL     OW 6991   6.720   0.301   4.625
 2031SOL    HW1 6992   6.686   0.327   4.534
 2031SOL    HW2 6993   6.819   0.316   4.629
 2032SOL     OW 6994   2.891   2.979   6.420
 2032SOL    HW1 6995   2.804   3.010   6.459
 2032SOL    HW2 6996   2.881   2.964   6.322
 2033SOL     OW 6997   2.757   0.183   1.394
 2033SOL    HW1 6998   2.673   0.156   1.346
 2033SOL    HW2 6999   2.777   0.116   1.466
 2034SOL     OW 7000   0.703   3.800   4.693
 2034SOL    HW1 7001   0.606   3.822   4.694
 2034SOL    HW2 7002   0.715   3.702   4.711
 2035SOL     OW 7003   4.814   6.067   3.214
 2035SOL    HW1 7004   4.886   6.092   3.149
 2035SOL    HW2 7005   4.780   6.150   3.259
 2036SOL     OW 7006   0.071   3.246   5.667
 2036SOL    HW1 7007   0.065   3.159   5.618
 2036SOL    HW2 7008   7.002   3.270   5.704
 2037SOL     OW 7009   1.198   2.457   6.382
 2037SOL    HW1 7010   1.225   2.375   6.432
 2037SOL    HW2 7011   1.270   2.526   6.391
 2038SOL     OW 7012   1.819   0.540   6.093
 2038SOL    HW1 7013   1.808   0.618   6.031
 2038SOL    HW2 7014   1.772   0.559   6.179
 2039SOL     OW 7015   5.269   6.117   4.219
 2039SOL    HW1 7016   5.224   6.033   4.187
 2039SOL    HW2 7017   5.256   6.189   4.151
 2040SOL     OW 7018   2.747   1.512   0.775
 2040SOL    HW1 7019   2.749   1.582   0.847
 2040SOL    HW2 7020   2.826   1.451   0.786
 2041SOL     OW 7021   3.003   0.338   0.099
 2041SOL    HW1 7022   3.073   0.354   0.029
 2041SOL    HW2 7023   2.978   0.241   0.101
 2042SOL     OW 7024   6.973   0.307   4.908
 2042SOL    HW1 7025   6.937   0.398   4.888
 2042SOL    HW2 7026   0.038   0.293   4.859
 2043SOL     OW 7027   1.532   3.589   0.203
 2043SOL    HW1 7028   1.556   3.595   0.300
 2043SOL    HW2 7029   1.462   3.658   0.182
 2044SOL     OW 7030   3.347   1.216   2.741
 2044SOL    HW1 7031   3.325   1.156   2.664
 2044SOL    HW2 7032   3.445   1.239   2.737
 2045SOL     OW 7033   2.009   5.575   3.294
 2045SOL    HW1 7034   1.912   5.555   3.278
 2045SOL    HW2 7035   2.018   5.666   3.336
 2046SOL     OW 7036   0.589   2.501   5.744
 2046SOL    HW1 7037   0.553   2.549   5.825
 2046SOL    HW2 7038   0.633   2.417   5.774
 2047SOL     OW 7039   0.042   0.185   2.065
 2047SOL    HW1 7040   7.016   0.182   1.977
 2047SOL    HW2 7041   0.139   0.162   2.052
 2048SOL     OW 7042   2.150   1.313   3.745
 2048SOL    HW1 7043   2.053   1.298   3.726
 2048SOL    HW2 7044   2.203   1.240   3.701
 2049SOL     OW 7045   4.406   1.996   5.405
 2049SOL    HW1 7046   4.375   1.906   5.376
 2049SOL    HW2 7047   4.454   1.989   5.492
 2050SOL     OW 7048   6.883   1.117   2.321
 2050SOL    HW1 7049   6.916   1.042   2.378
 2050SOL    HW2 7050   6.800   1.088   2.273
 2051SOL     OW 7051   3.544   6.686   6.330
 2051SOL    HW1 7052   3.510   6.753   6.396
 2051SOL    HW2 7053   3.562   6.599   6.377
 2052SOL     OW 7054   0.525   4.490   0.606
 2052SOL    HW1 7055   0.474   4.576   0.607
 2052SOL    HW2 7056   0.585   4.487   0.687
 2053SOL     OW 7057   4.651   5.475   1.431
 2053SOL    HW1 7058   4.658   5.533   1.512
 2053SOL    HW2 7059   4.743   5.455   1.396
 2054SOL     OW 7060   2.973   3.783   3.653
 2054SOL    HW1 7061   2.943   3.705   3.707
 2054SOL    HW2 7062   3.024   3.847   3.711
 2055SOL     OW 7063   3.100   2.990   5.565
 2055SOL    HW1 7064   3.079   3.077   5.608
 2055SOL    HW2 7065   3.193   2.961   5.590
 2056SOL     OW 7066   2.430   5.403   2.199
 2056SOL    HW1 7067   2.512   5.349   2.218
 2056SOL    HW2 7068   2.456   5.498   2.181
 2057SOL     OW 7069   6.253   3.097   4.252
 2057SOL    HW1 7070   6.234   3.165   4.323
 2057SOL    HW2 7071   6.327   3.037   4.284
 2058SOL     OW 7072   5.768   0.799   3.563
 2058SOL    HW1 7073   5.692   0.769   3.621
 2058SOL    HW2 7074   5.734   0.816   3.470
 2059SOL     OW 7075   2.749   0.893   6.045
 2059SOL    HW1 7076   2.839   0.862   6.077
 2059SOL    HW2 7077   2.692   0.813   6.025
 2060SOL     OW 7078   1.415   2.090   6.347
 2060SOL    HW1 7079   1.332   2.074   6.401
 2060SOL    HW2 7080   1.390   2.103   6.251
 2061SOL     OW 7081   2.325   2.813   3.679
 2061SOL    HW1 7082   2.313   2.776   3.771
 2061SOL    HW2 7083   2.250   2.875   3.658
 2062SOL     OW 7084   5.120   5.227   3.677
 2062SOL    HW1 7085   5.156   5.160   3.742
 2062SOL    HW2 7086   5.101   5.313   3.725
 2063SOL     OW 7087   1.210   1.674   4.470
 2063SOL    HW1 7088   1.233   1.708   4.378
 2063SOL    HW2 7089   1.250   1.734   4.538
 2064SOL     OW 7090   0.464   3.810   4.442
 2064SOL    HW1 7091   0.422   3.762   4.366
 2064SOL    HW2 7092   0.563   3.796   4.441
 2065SOL     OW 7093   3.662   3.918   5.621
 2065SOL    HW1 7094   3.604   3.837   5.634
 2065SOL    HW2 7095   3.690   3.953   5.711
 2066SOL     OW 7096   2.260   2.204   4.667
 2066SOL    HW1 7097   2.257   2.302   4.687
 2066SOL    HW2 7098   2.225   2.187   4.575
 2067SOL     OW 7099   6.393   4.500   2.878
 2067SOL    HW1 7100   6.363   4.585   2.834
 2067SOL    HW2 7101   6.431   4.439   2.809
 2068SOL     OW 7102   2.919   6.767   4.399
 2068SOL    HW1 7103   3.015   6.781   4.375
 2068SOL    HW2 7104   2.868   6.852   4.385
 2069SOL     OW 7105   5.579   1.654   2.715
 2069SOL    HW1 7106   5.582   1.711   2.797
 2069SOL    HW2 7107   5.661   1.671   2.659
 2070SOL     OW 7108   0.144   5.483   1.604
 2070SOL    HW1 7109   0.210   5.516   1.537
 2070SOL    HW2 7110   0.193   5.436   1.678
 2071SOL     OW 7111   6.937   2.436   3.811
 2071SOL    HW1 7112   6.952   2.504   3.739
 2071SOL    HW2 7113   6.863   2.465   3.870
 2072SOL     OW 7114   5.003   3.143   6.191
 2072SOL    HW1 7115   4.998   3.107   6.098
 2072SOL    HW2 7116   5.009   3.067   6.256
 2073SOL     OW 7117   3.349   5.834   6.942
 2073SOL    HW1 7118   3.264   5.781   6.940
 2073SOL    HW2 7119   3.395   5.820   0.008
 2074SOL     OW 7120   3.537   4.524   5.353
 2074SOL    HW1 7121   3.636   4.541   5.355
 2074SOL    HW2 7122   3.490   4.608   5.327
 2075SOL     OW 7123   5.276   0.866   1.244
 2075SOL    HW1 7124   5.327   0.788   1.281
 2075SOL    HW2 7125   5.178   0.852   1.259
 2076SOL     OW 7126   6.801   0.099   3.788
 2076SOL    HW1 7127   6.714   0.084   3.835
 2076SOL    HW2 7128   6.792   0.178   3.727
 2077SOL     OW 7129   0.805   4.145   0.756
 2077SOL    HW1 7130   0.776   4.102   0.841
 2077SOL    HW2 7131   0.905   4.145   0.751
 2078SOL     OW 7132   0.921   2.568   0.354
 2078SOL    HW1 7133   0.871   2.621   0.286
 2078SOL    HW2 7134   0.890   2.473   0.353
 2079SOL     OW 7135   5.228   1.970   3.579
 2079SOL    HW1 7136   5.165   2.036   3.622
 2079SOL    HW2 7137   5.315   1.970   3.630
 2080SOL     OW 7138   2.108   2.943   4.984
 2080SOL    HW1 7139   2.199   2.969   5.016
 2080SOL    HW2 7140   2.110   2.930   4.885
 2081SOL     OW 7141   0.413   5.786   3.151
 2081SOL    HW1 7142   0.483   5.791   3.079
 2081SOL    HW2 7143   0.457   5.791   3.241
 2082SOL     OW 7144   6.785   6.206   3.889
 2082SOL    HW1 7145   6.852   6.135   3.867
 2082SOL    HW2 7146   6.693   6.167   3.884
 2083SOL     OW 7147   0.985   5.679   3.156
 2083SOL    HW1 7148   1.079   5.661   3.185
 2083SOL    HW2 7149   0.966   5.777   3.164
 2084SOL     OW 7150   5.621   2.773   1.596
 2084SOL    HW1 7151   5.566   2.734   1.669
 2084SOL    HW2 7152   5.566   2.779   1.512
 2085SOL     OW 7153   6.256   4.995   6.825
 2085SOL    HW1 7154   6.258   5.066   6.754
 2085SOL    HW2 7155   6.190   4.924   6.800
 2086SOL     OW 7156   5.102   1.294   5.238
 2086SOL    HW1 7157   5.073   1.236   5.314
 2086SOL    HW2 7158   5.162   1.366   5.273
 2087SOL     OW 7159   4.639   0.927   6.054
 2087SOL    HW1 7160   4.701   0.862   6.010
 2087SOL    HW2 7161   4.556   0.878   6.082
 2088SOL     OW 7162   0.344   3.680   5.422
 2088SOL    HW1 7163   0.280   3.723   5.359
 2088SOL    HW2 7164   0.299   3.603   5.467
 2089SOL     OW 7165   3.113   4.858   4.537
 2089SOL    HW1 7166   3.066   4.851   4.449
 2089SOL    HW2 7167   3.056   4.817   4.608
 2090SOL     OW 7168   5.169   2.553   6.178
 2090SOL    HW1 7169   5.220   2.638   6.164
 2090SOL    HW2 7170   5.208   2.504   6.255
 2091SOL     OW 7171   5.574   6.844   0.959
 2091SOL    HW1 7172   5.551   6.749   0.978
 2091SOL    HW2 7173   5.491   6.899   0.955
 2092SOL     OW 7174   3.970   3.042   2.509
 2092SOL    HW1 7175   3.942   3.126   2.555
 2092SOL    HW2 7176   3.946   3.048   2.412
 2093SOL     OW 7177   4.667   6.974   6.841
 2093SOL    HW1 7178   4.627   0.022   6.902
 2093SOL    HW2 7179   4.643   6.883   6.875
 2094SOL     OW 7180   4.426   2.822   1.514
 2094SOL    HW1 7181   4.342   2.869   1.543
 2094SOL    HW2 7182   4.409   2.774   1.428
 2095SOL     OW 7183   4.612   5.675   3.850
 2095SOL    HW1 7184   4.641   5.765   3.882
 2095SOL    HW2 7185   4.513   5.672   3.844
 2096SOL     OW 7186   4.352   0.547   2.606
 2096SOL    HW1 7187   4.418   0.495   2.552
 2096SOL    HW2 7188   4.373   0.537   2.704
 2097SOL     OW 7189   2.488   5.389   5.256
 2097SOL    HW1 7190   2.467   5.301   5.214
 2097SOL    HW2 7191   2.553   5.376   5.331
 2098SOL     OW 7192   1.789   7.010   4.245
 2098SOL    HW1 7193   1.830   6.919   4.253
 2098SOL    HW2 7194   1.741   7.017   4.158
 2099SOL     OW 7195   4.484   1.393   0.196
 2099SOL    HW1 7196   4.412   1.453   0.163
 2099SOL    HW2 7197   4.447   1.332   0.267
 2100SOL     OW 7198   4.602   0.295   0.766
 2100SOL    HW1 7199   4.510   0.285   0.728
 2100SOL    HW2 7200   4.667   0.318   0.693
 2101SOL     OW 7201   1.337   0.282   2.685
 2101SOL    HW1 7202   1.418   0.243   2.641
 2101SOL    HW2 7203   1.300   0.355   2.627
 2102SOL     OW 7204   4.130   3.209   2.337
 2102SOL    HW1 7205   4.130   3.123   2.388
 2102SOL    HW2 7206   4.104   3.191   2.242
 2103SOL     OW 7207   1.570   0.242   1.676
 2103SOL    HW1 7208   1.604   0.282   1.761
 2103SOL    HW2 7209   1.626   0.274   1.599
 2104SOL     OW 7210   0.825   4.281   2.216
 2104SOL    HW1 7211   0.884   4.263   2.137
 2104SOL    HW2 7212   0.870   4.250   2.300
 2105SOL     OW 7213   5.359   6.024   5.154
 2105SOL    HW1 7214   5.430   6.052   5.090
 2105SOL    HW2 7215   5.395   5.957   5.218
 2106SOL     OW 7216   3.415   3.322   0.713
 2106SOL    HW1 7217   3.425   3.406   0.766
 2106SOL    HW2 7218   3.365   3.254   0.767
 2107SOL     OW 7219   6.191   4.840   4.963
 2107SOL    HW1 7220   6.191   4.833   5.063
 2107SOL    HW2 7221   6.137   4.919   4.935
 2108SOL     OW 7222   4.326   6.295   5.709
 2108SOL    HW1 7223   4.370   6.287   5.799
 2108SOL    HW2 7224   4.376   6.238   5.644
 2109SOL     OW 7225   2.633   5.923   2.145
 2109SOL    HW1 7226   2.712   5.898   2.089
 2109SOL    HW2 7227   2.634   5.870   2.230
 2110SOL     OW 7228   3.948   5.676   0.505
 2110SOL    HW1 7229   3.932   5.640   0.413
 2110SOL    HW2 7230   3.866   5.661   0.560
 2111SOL     OW 7231   0.475   2.573   0.348
 2111SOL    HW1 7232   0.393   2.532   0.387
 2111SOL    HW2 7233   0.535   2.605   0.421
 2112SOL     OW 7234   0.788   0.675   6.408
 2112SOL    HW1 7235   0.726   0.731   6.464
 2112SOL    HW2 7236   0.748   0.661   6.318
 2113SOL     OW 7237   6.625   1.911   4.315
 2113SOL    HW1 7238   6.667   1.993   4.355
 2113SOL    HW2 7239   6.573   1.863   4.386
 2114SOL     OW 7240   3.310   0.589   5.906
 2114SOL    HW1 7241   3.304   0.494   5.877
 2114SOL    HW2 7242   3.278   0.597   6.001
 2115SOL     OW 7243   0.062   6.823   4.034
 2115SOL    HW1 7244   0.146   6.855   3.992
 2115SOL    HW2 7245   0.062   6.846   4.132
 2116SOL     OW 7246   2.101   6.944   6.337
 2116SOL    HW1 7247   2.181   6.892   6.367
 2116SOL    HW2 7248   2.098   0.011   6.384
 2117SOL     OW 7249   5.788   2.786   1.004
 2117SOL    HW1 7250   5.873   2.755   0.962
 2117SOL    HW2 7251   5.803   2.801   1.102
 2118SOL     OW 7252   0.016   3.059   2.175
 2118SOL    HW1 7253   0.042   2.991   2.244
 2118SOL    HW2 7254   0.078   3.137   2.181
 2119SOL     OW 7255   2.054   2.711   6.932
 2119SOL    HW1 7256   2.094   2.802   6.938
 2119SOL    HW2 7257   2.113   2.645   6.977
 2120SOL     OW 7258   6.120   1.594   0.781
 2120SOL    HW1 7259   6.097   1.657   0.855
 2120SOL    HW2 7260   6.095   1.501   0.808
 2121SOL     OW 7261   2.732   5.709   1.932
 2121SOL    HW1 7262   2.775   5.659   2.007
 2121SOL    HW2 7263   2.794   5.781   1.900
 2122SOL     OW 7264   0.619   1.168   5.320
 2122SOL    HW1 7265   0.631   1.267   5.308
 2122SOL    HW2 7266   0.703   1.129   5.359
 2123SOL     OW 7267   1.057   4.278   3.382
 2123SOL    HW1 7268   1.015   4.335   3.453
 2123SOL    HW2 7269   1.086   4.335   3.305
 2124SOL     OW 7270   5.402   3.537   6.381
 2124SOL    HW1 7271   5.404   3.508   6.285
 2124SOL    HW2 7272   5.490   3.518   6.424
 2125SOL     OW 7273   2.387   5.309   5.629
 2125SOL    HW1 7274   2.486   5.326   5.628
 2125SOL    HW2 7275   2.364   5.251   5.707
 2126SOL     OW 7276   2.913   5.584   2.110
 2126SOL    HW1 7277   2.865   5.527   2.176
 2126SOL    HW2 7278   3.006   5.601   2.142
 2127SOL     OW 7279   1.652   3.847   4.145
 2127SOL    HW1 7280   1.607   3.792   4.075
 2127SOL    HW2 7281   1.751   3.846   4.130
 2128SOL     OW 7282   5.509   3.067   0.460
 2128SOL    HW1 7283   5.424   3.070   0.407
 2128SOL    HW2 7284   5.503   3.132   0.536
 2129SOL     OW 7285   5.481   4.330   3.788
 2129SOL    HW1 7286   5.459   4.427   3.781
 2129SOL    HW2 7287   5.572   4.319   3.829
 2130SOL     OW 7288   2.131   6.841   2.917
 2130SOL    HW1 7289   2.082   6.777   2.858
 2130SOL    HW2 7290   2.146   6.927   2.868
 2131SOL     OW 7291   5.761   7.017   6.526
 2131SOL    HW1 7292   5.730   6.931   6.566
 2131SOL    HW2 7293   5.701   0.070   6.555
 2132SOL     OW 7294   3.069   1.571   0.535
 2132SOL    HW1 7295   3.101   1.487   0.577
 2132SOL    HW2 7296   3.065   1.643   0.604
 2133SOL     OW 7297   3.927   3.402   2.101
 2133SOL    HW1 7298   4.007   3.459   2.081
 2133SOL    HW2 7299   3.952   3.306   2.089
 2134SOL     OW 7300   2.379   0.142   4.872
 2134SOL    HW1 7301   2.378   0.058   4.818
 2134SOL    HW2 7302   2.343   0.217   4.816
 2135SOL     OW 7303   0.262   5.834   4.440
 2135SOL    HW1 7304   0.347   5.842   4.389
 2135SOL    HW2 7305   0.278   5.859   4.535
 2136SOL     OW 7306   0.393   4.792   3.718
 2136SOL    HW1 7307   0.436   4.845   3.791
 2136SOL    HW2 7308   0.435   4.816   3.631
 2137SOL     OW 7309   6.972   0.387   4.640
 2137SOL    HW1 7310   6.984   0.452   4.564
 2137SOL    HW2 7311   6.962   0.438   4.725
 2138SOL     OW 7312   1.182   2.237   0.087
 2138SOL    HW1 7313   1.240   2.221   0.007
 2138SOL    HW2 7314   1.211   2.320   0.134
 2139SOL     OW 7315   3.960   6.234   4.388
 2139SOL    HW1 7316   3.936   6.230   4.485
 2139SOL    HW2 7317   3.877   6.251   4.334
 2140SOL     OW 7318   1.309   5.328   3.597
 2140SOL    HW1 7319   1.361   5.398   3.547
 2140SOL    HW2 7320   1.368   5.250   3.615
 2141SOL     OW 7321   6.511   0.492   6.982
 2141SOL    HW1 7322   6.607   0.488   6.954
 2141SOL    HW2 7323   6.462   0.557   6.923
 2142SOL     OW 7324   3.807   0.995   3.369
 2142SOL    HW1 7325   3.774   1.008   3.462
 2142SOL    HW2 7326   3.881   1.059   3.350
 2143SOL     OW 7327   3.537   5.631   0.734
 2143SOL    HW1 7328   3.560   5.555   0.794
 2143SOL    HW2 7329   3.468   5.602   0.668
 2144SOL     OW 7330   1.044   1.308   1.820
 2144SOL    HW1 7331   1.133   1.263   1.826
 2144SOL    HW2 7332   1.044   1.391   1.876
 2145SOL     OW 7333   2.575   5.949   3.588
 2145SOL    HW1 7334   2.556   5.933   3.491
 2145SOL    HW2 7335   2.671   5.976   3.599
 2146SOL     OW 7336   3.357   2.072   1.382
 2146SOL    HW1 7337   3.437   2.129   1.398
 2146SOL    HW2 7338   3.349   2.005   1.456
 2147SOL     OW 7339   6.850   0.430   3.935
 2147SOL    HW1 7340   6.915   0.496   3.897
 2147SOL    HW2 7341   6.899   0.351   3.970
 2148SOL     OW 7342   6.456   4.208   3.179
 2148SOL    HW1 7343   6.468   4.223   3.277
 2148SOL    HW2 7344   6.539   4.166   3.141
 2149SOL     OW 7345   2.397   1.202   2.464
 2149SOL    HW1 7346   2.310   1.250   2.474
 2149SOL    HW2 7347   2.379   1.106   2.439
 2150SOL     OW 7348   5.542   0.960   3.139
 2150SOL    HW1 7349   5.465   1.024   3.139
 2150SOL    HW2 7350   5.611   0.990   3.074
 2151SOL     OW 7351   4.638   4.635   5.548
 2151SOL    HW1 7352   4.727   4.633   5.593
 2151SOL    HW2 7353   4.643   4.695   5.468
 2152SOL     OW 7354   0.012   6.238   3.054
 2152SOL    HW1 7355   6.986   6.155   3.081
 2152SOL    HW2 7356   0.032   6.235   2.956
 2153SOL     OW 7357   4.326   1.875   3.813
 2153SOL    HW1 7358   4.370   1.825   3.738
 2153SOL    HW2 7359   4.383   1.953   3.838
 2154SOL     OW 7360   4.638   0.166   3.975
 2154SOL    HW1 7361   4.689   0.181   3.890
 2154SOL    HW2 7362   4.680   0.219   4.048
 2155SOL     OW 7363   5.667   4.170   0.895
 2155SOL    HW1 7364   5.599   4.136   0.960
 2155SOL    HW2 7365   5.672   4.109   0.816
 2156SOL     OW 7366   5.698   6.055   2.111
 2156SOL    HW1 7367   5.780   6.049   2.054
 2156SOL    HW2 7368   5.649   6.139   2.091
 2157SOL     OW 7369   5.069   1.440   3.848
 2157SOL    HW1 7370   5.102   1.370   3.911
 2157SOL    HW2 7371   4.987   1.484   3.885
 2158SOL     OW 7372   4.067   0.951   3.753
 2158SOL    HW1 7373   3.985   0.897   3.731
 2158SOL    HW2 7374   4.084   0.947   3.851
 2159SOL     OW 7375   2.381   1.571   4.928
 2159SOL    HW1 7376   2.435   1.627   4.990
 2159SOL    HW2 7377   2.399   1.474   4.946
 2160SOL     OW 7378   2.435   3.934   0.622
 2160SOL    HW1 7379   2.525   3.905   0.655
 2160SOL    HW2 7380   2.383   3.855   0.590
 2161SOL     OW 7381   4.451   2.348   2.518
 2161SOL    HW1 7382   4.475   2.251   2.521
 2161SOL    HW2 7383   4.411   2.369   2.429
 2162SOL     OW 7384   2.272   1.936   2.276
 2162SOL    HW1 7385   2.214   2.013   2.250
 2162SOL    HW2 7386   2.291   1.881   2.195
 2163SOL     OW 7387   4.325   1.419   1.110
 2163SOL    HW1 7388   4.306   1.400   1.014
 2163SOL    HW2 7389   4.321   1.517   1.126
 2164SOL     OW 7390   6.529   0.392   1.569
 2164SOL    HW1 7391   6.503   0.390   1.665
 2164SOL    HW2 7392   6.573   0.479   1.548
 2165SOL     OW 7393   2.016   0.431   2.101
 2165SOL    HW1 7394   2.083   0.414   2.029
 2165SOL    HW2 7395   2.012   0.351   2.162
 2166SOL     OW 7396   5.330   2.688   4.648
 2166SOL    HW1 7397   5.361   2.610   4.703
 2166SOL    HW2 7398   5.242   2.720   4.681
 2167SOL     OW 7399   3.438   1.586   1.198
 2167SOL    HW1 7400   3.377   1.537   1.260
 2167SOL    HW2 7401   3.449   1.533   1.114
 2168SOL     OW 7402   5.462   6.846   4.577
 2168SOL    HW1 7403   5.505   6.929   4.615
 2168SOL    HW2 7404   5.443   6.781   4.650
 2169SOL     OW 7405   5.112   1.811   5.682
 2169SOL    HW1 7406   5.136   1.787   5.587
 2169SOL    HW2 7407   5.021   1.776   5.703
 2170SOL     OW 7408   4.950   5.674   4.723
 2170SOL    HW1 7409   4.876   5.608   4.734
 2170SOL    HW2 7410   4.946   5.713   4.631
 2171SOL     OW 7411   0.298   2.896   0.395
 2171SOL    HW1 7412   0.333   2.854   0.311
 2171SOL    HW2 7413   0.219   2.844   0.427
 2172SOL     OW 7414   2.557   0.368   2.949
 2172SOL    HW1 7415   2.534   0.465   2.960
 2172SOL    HW2 7416   2.653   0.359   2.923
 2173SOL     OW 7417   4.446   1.801   4.537
 2173SOL    HW1 7418   4.393   1.832   4.459
 2173SOL    HW2 7419   4.508   1.874   4.566
 2174SOL     OW 7420   0.861   6.093   5.408
 2174SOL    HW1 7421   0.914   6.073   5.325
 2174SOL    HW2 7422   0.889   6.182   5.445
 2175SOL     OW 7423   0.923   0.228   6.855
 2175SOL    HW1 7424   0.993   0.284   6.811
 2175SOL    HW2 7425   0.955   0.199   6.945
 2176SOL     OW 7426   2.338   2.721   1.996
 2176SOL    HW1 7427   2.245   2.743   1.967
 2176SOL    HW2 7428   2.343   2.718   2.095
 2177SOL     OW 7429   1.086   1.624   2.390
 2177SOL    HW1 7430   1.079   1.724   2.394
 2177SOL    HW2 7431   1.031   1.583   2.463
 2178SOL     OW 7432   6.609   5.988   0.293
 2178SOL    HW1 7433   6.679   6.005   0.362
 2178SOL    HW2 7434   6.621   5.897   0.253
 2179SOL     OW 7435   2.245   4.099   3.916
 2179SOL    HW1 7436   2.264   4.197   3.925
 2179SOL    HW2 7437   2.268   4.069   3.824
 2180SOL     OW 7438   3.462   2.933   3.129
 2180SOL    HW1 7439   3.391   2.873   3.093
 2180SOL    HW2 7440   3.422   3.022   3.153
 2181SOL     OW 7441   3.647   6.875   0.878
 2181SOL    HW1 7442   3.645   6.841   0.784
 2181SOL    HW2 7443   3.742   6.896   0.904
 2182SOL     OW 7444   4.278   3.583   0.149
 2182SOL    HW1 7445   4.357   3.571   0.089
 2182SOL    HW2 7446   4.274   3.678   0.180
 2183SOL     OW 7447   4.713   2.737   2.007
 2183SOL    HW1 7448   4.728   2.832   2.034
 2183SOL    HW2 7449   4.672   2.734   1.916
 2184SOL     OW 7450   4.286   2.543   6.467
 2184SOL    HW1 7451   4.327   2.550   6.376
 2184SOL    HW2 7452   4.199   2.593   6.468
 2185SOL     OW 7453   0.106   6.699   2.210
 2185SOL    HW1 7454   0.041   6.624   2.216
 2185SOL    HW2 7455   0.071   6.770   2.148
 2186SOL     OW 7456   0.044   4.140   3.164
 2186SOL    HW1 7457   0.120   4.189   3.121
 2186SOL    HW2 7458   7.020   4.083   3.096
 2187SOL     OW 7459   6.589   0.292   6.729
 2187SOL    HW1 7460   6.496   0.260   6.710
 2187SOL    HW2 7461   6.636   0.224   6.786
 2188SOL     OW 7462   4.717   2.839   3.635
 2188SOL    HW1 7463   4.789   2.770   3.641
 2188SOL    HW2 7464   4.721   2.884   3.546
 2189SOL     OW 7465   3.902   6.943   6.789
 2189SOL    HW1 7466   3.851   6.945   6.703
 2189SOL    HW2 7467   3.858   6.880   6.853
 2190SOL     OW 7468   5.967   3.538   1.098
 2190SOL    HW1 7469   5.979   3.598   1.178
 2190SOL    HW2 7470   5.966   3.593   1.015
 2191SOL     OW 7471   3.330   0.369   0.538
 2191SOL    HW1 7472   3.343   0.469   0.536
 2191SOL    HW2 7473   3.288   0.340   0.452
 2192SOL     OW 7474   4.141   6.722   1.569
 2192SOL    HW1 7475   4.193   6.676   1.641
 2192SOL    HW2 7476   4.182   6.701   1.480
 2193SOL     OW 7477   0.311   6.097   4.723
 2193SOL    HW1 7478   0.364   6.139   4.797
 2193SOL    HW2 7479   0.363   6.098   4.639
 2194SOL     OW 7480   2.563   6.718   2.877
 2194SOL    HW1 7481   2.522   6.634   2.842
 2194SOL    HW2 7482   2.513   6.749   2.957
 2195SOL     OW 7483   0.504   4.750   2.657
 2195SOL    HW1 7484   0.425   4.724   2.712
 2195SOL    HW2 7485   0.514   4.685   2.581
 2196SOL     OW 7486   4.534   3.938   0.116
 2196SOL    HW1 7487   4.472   3.894   0.182
 2196SOL    HW2 7488   4.511   4.035   0.108
 2197SOL     OW 7489   4.751   3.748   7.010
 2197SOL    HW1 7490   4.836   3.799   0.004
 2197SOL    HW2 7491   4.673   3.806   0.014
 2198SOL     OW 7492   0.632   4.891   6.475
 2198SOL    HW1 7493   0.651   4.983   6.511
 2198SOL    HW2 7494   0.717   4.838   6.472
 2199SOL     OW 7495   3.806   1.829   3.307
 2199SOL    HW1 7496   3.717   1.791   3.333
 2199SOL    HW2 7497   3.843   1.778   3.230
 2200SOL     OW 7498   4.148   0.129   3.836
 2200SOL    HW1 7499   4.216   0.104   3.905
 2200SOL    HW2 7500   4.193   0.139   3.747
 2201SOL     OW 7501   5.082   4.643   4.346
 2201SOL    HW1 7502   5.103   4.609   4.254
 2201SOL    HW2 7503   5.097   4.742   4.349
 2202SOL     OW 7504   4.860   6.000   4.282
 2202SOL    HW1 7505   4.933   5.939   4.255
 2202SOL    HW2 7506   4.804   5.956   4.353
 2203SOL     OW 7507   2.108   1.455   2.907
 2203SOL    HW1 7508   2.038   1.400   2.861
 2203SOL    HW2 7509   2.100   1.550   2.877
 2204SOL     OW 7510   3.615   2.552   1.005
 2204SOL    HW1 7511   3.706   2.535   1.043
 2204SOL    HW2 7512   3.604   2.499   0.921
 2205SOL     OW 7513   2.951   0.441   2.223
 2205SOL    HW1 7514   2.964   0.522   2.165
 2205SOL    HW2 7515   2.986   0.361   2.175
 2206SOL     OW 7516   1.861   4.658   0.228
 2206SOL    HW1 7517   1.943   4.631   0.277
 2206SOL    HW2 7518   1.811   4.576   0.198
 2207SOL     OW 7519   6.479   4.751   5.155
 2207SOL    HW1 7520   6.391   4.775   5.195
 2207SOL    HW2 7521   6.543   4.726   5.228
 2208SOL     OW 7522   6.594   5.059   2.362
 2208SOL    HW1 7523   6.641   5.112   2.292
 2208SOL    HW2 7524   6.595   4.963   2.338
 2209SOL     OW 7525   6.860   6.881   1.849
 2209SOL    HW1 7526   6.933   6.846   1.792
 2209SOL    HW2 7527   6.776   6.891   1.795
 2210SOL     OW 7528   2.343   4.503   3.741
 2210SOL    HW1 7529   2.290   4.559   3.677
 2210SOL    HW2 7530   2.440   4.527   3.733
 2211SOL     OW 7531   5.370   0.630   5.808
 2211SOL    HW1 7532   5.432   0.582   5.745
 2211SOL    HW2 7533   5.410   0.719   5.831
 2212SOL     OW 7534   2.307   6.106   6.062
 2212SOL    HW1 7535   2.305   6.010   6.034
 2212SOL    HW2 7536   2.279   6.112   6.158
 2213SOL     OW 7537   4.624   1.033   3.504
 2213SOL    HW1 7538   4.580   1.101   3.446
 2213SOL    HW2 7539   4.576   1.028   3.591
 2214SOL     OW 7540   4.220   6.962   4.197
 2214SOL    HW1 7541   4.288   0.014   4.197
 2214SOL    HW2 7542   4.240   6.898   4.123
 2215SOL     OW 7543   5.569   2.121   6.312
 2215SOL    HW1 7544   5.610   2.144   6.400
 2215SOL    HW2 7545   5.482   2.073   6.328
 2216SOL     OW 7546   3.405   1.375   2.383
 2216SOL    HW1 7547   3.448   1.457   2.345
 2216SOL    HW2 7548   3.313   1.398   2.415
 2217SOL     OW 7549   2.831   0.072   0.976
 2217SOL    HW1 7550   2.899   0.145   0.988
 2217SOL    HW2 7551   2.838   0.007   1.052
 2218SOL     OW 7552   6.554   1.046   2.089
 2218SOL    HW1 7553   6.640   1.006   2.055
 2218SOL    HW2 7554   6.574   1.103   2.169
 2219SOL     OW 7555   2.320   2.114   2.950
 2219SOL    HW1 7556   2.403   2.074   2.912
 2219SOL    HW2 7557   2.252   2.041   2.965
 2220SOL     OW 7558   2.037   6.138   2.933
 2220SOL    HW1 7559   1.954   6.101   2.891
 2220SOL    HW2 7560   2.117   6.103   2.885
 2221SOL     OW 7561   0.059   6.786   5.019
 2221SOL    HW1 7562   0.025   6.854   4.955
 2221SOL    HW2 7563   0.049   6.820   5.113
 2222SOL     OW 7564   6.226   5.844   3.730
 2222SOL    HW1 7565   6.161   5.769   3.718
 2222SOL    HW2 7566   6.226   5.901   3.648
 2223SOL     OW 7567   6.531   6.796   2.374
 2223SOL    HW1 7568   6.594   6.721   2.356
 2223SOL    HW2 7569   6.561   6.845   2.457
 2224SOL     OW 7570   0.950   5.618   1.520
 2224SOL    HW1 7571   0.989   5.707   1.546
 2224SOL    HW2 7572   0.944   5.613   1.421
 2225SOL     OW 7573   0.327   4.733   0.132
 2225SOL    HW1 7574   0.294   4.827   0.119
 2225SOL    HW2 7575   0.253   4.669   0.112
 2226SOL     OW 7576   3.846   4.060   3.031
 2226SOL    HW1 7577   3.905   3.984   3.006
 2226SOL    HW2 7578   3.817   4.049   3.126
 2227SOL     OW 7579   2.088   2.278   4.959
 2227SOL    HW1 7580   1.995   2.250   4.934
 2227SOL    HW2 7581   2.152   2.206   4.934
 2228SOL     OW 7582   1.515   4.547   4.316
 2228SOL    HW1 7583   1.464   4.528   4.232
 2228SOL    HW2 7584   1.521   4.646   4.330
 2229SOL     OW 7585   5.777   5.284   2.641
 2229SOL    HW1 7586   5.744   5.321   2.554
 2229SOL    HW2 7587   5.699   5.252   2.695
 2230SOL     OW 7588   1.566   5.479   2.836
 2230SOL    HW1 7589   1.520   5.556   2.792
 2230SOL    HW2 7590   1.498   5.414   2.869
 2231SOL     OW 7591   2.074   5.723   0.498
 2231SOL    HW1 7592   2.132   5.760   0.570
 2231SOL    HW2 7593   2.105   5.631   0.474
 2232SOL     OW 7594   6.084   2.354   3.837
 2232SOL    HW1 7595   6.168   2.389   3.879
 2232SOL    HW2 7596   6.016   2.427   3.832
 2233SOL     OW 7597   3.369   1.554   0.854
 2233SOL    HW1 7598   3.296   1.535   0.919
 2233SOL    HW2 7599   3.376   1.653   0.840
 2234SOL     OW 7600   4.519   2.229   1.482
 2234SOL    HW1 7601   4.519   2.326   1.508
 2234SOL    HW2 7602   4.612   2.193   1.488
 2235SOL     OW 7603   2.013   2.862   1.791
 2235SOL    HW1 7604   1.937   2.810   1.753
 2235SOL    HW2 7605   2.012   2.856   1.891
 2236SOL     OW 7606   1.074   3.957   5.347
 2236SOL    HW1 7607   1.072   3.971   5.446
 2236SOL    HW2 7608   1.086   4.045   5.301
 2237SOL     OW 7609   5.908   2.572   3.282
 2237SOL    HW1 7610   5.845   2.550   3.207
 2237SOL    HW2 7611   5.971   2.643   3.252
 2238SOL     OW 7612   5.007   6.554   0.271
 2238SOL    HW1 7613   4.917   6.565   0.312
 2238SOL    HW2 7614   5.007   6.472   0.214
 2239SOL     OW 7615   0.018   6.137   1.631
 2239SOL    HW1 7616   6.991   6.158   1.546
 2239SOL    HW2 7617   0.032   6.038   1.639
 2240SOL     OW 7618   0.024   3.733   1.492
 2240SOL    HW1 7619   0.014   3.689   1.403
 2240SOL    HW2 7620   0.116   3.773   1.499
 2241SOL     OW 7621   1.150   6.870   3.884
 2241SOL    HW1 7622   1.101   6.934   3.943
 2241SOL    HW2 7623   1.216   6.819   3.940
 2242SOL     OW 7624   1.896   1.773   3.256
 2242SOL    HW1 7625   1.980   1.749   3.209
 2242SOL    HW2 7626   1.911   1.854   3.313
 2243SOL     OW 7627   1.250   0.533   4.667
 2243SOL    HW1 7628   1.235   0.563   4.762
 2243SOL    HW2 7629   1.201   0.593   4.605
 2244SOL     OW 7630   3.167   0.104   4.471
 2244SOL    HW1 7631   3.215   0.124   4.556
 2244SOL    HW2 7632   3.178   0.007   4.448
 2245SOL     OW 7633   0.525   2.508   1.504
 2245SOL    HW1 7634   0.556   2.415   1.483
 2245SOL    HW2 7635   0.544   2.528   1.600
 2246SOL     OW 7636   0.733   4.295   4.682
 2246SOL    HW1 7637   0.740   4.208   4.730
 2246SOL    HW2 7638   0.687   4.282   4.595
 2247SOL     OW 7639   2.068   2.583   3.992
 2247SOL    HW1 7640   2.017   2.626   4.067
 2247SOL    HW2 7641   2.031   2.492   3.975
 2248SOL     OW 7642   5.610   3.925   5.787
 2248SOL    HW1 7643   5.606   3.915   5.886
 2248SOL    HW2 7644   5.532   3.979   5.755
 2249SOL     OW 7645   5.697   6.171   4.502
 2249SOL    HW1 7646   5.610   6.165   4.550
 2249SOL    HW2 7647   5.686   6.228   4.420
 2250SOL     OW 7648   4.354   4.559   2.057
 2250SOL    HW1 7649   4.383   4.463   2.053
 2250SOL    HW2 7650   4.305   4.582   1.973
 2251SOL     OW 7651   0.759   1.378   5.448
 2251SOL    HW1 7652   0.844   1.393   5.397
 2251SOL    HW2 7653   0.767   1.418   5.539
 2252SOL     OW 7654   3.532   1.475   6.985
 2252SOL    HW1 7655   3.564   1.513   6.898
 2252SOL    HW2 7656   3.513   1.550   0.028
 2253SOL     OW 7657   0.795   3.987   0.978
 2253SOL    HW1 7658   0.752   4.038   1.052
 2253SOL    HW2 7659   0.869   3.931   1.014
 2254SOL     OW 7660   1.669   4.948   6.062
 2254SOL    HW1 7661   1.692   5.043   6.043
 2254SOL    HW2 7662   1.656   4.936   6.161
 2255SOL     OW 7663   6.901   3.710   6.282
 2255SOL    HW1 7664   6.822   3.682   6.337
 2255SOL    HW2 7665   6.956   3.630   6.260
 2256SOL     OW 7666   3.204   5.675   2.123
 2256SOL    HW1 7667   3.284   5.727   2.154
 2256SOL    HW2 7668   3.172   5.713   2.036
 2257SOL     OW 7669   0.872   4.657   5.996
 2257SOL    HW1 7670   0.860   4.595   5.919
 2257SOL    HW2 7671   0.811   4.630   6.071
 2258SOL     OW 7672   2.332   6.579   6.093
 2258SOL    HW1 7673   2.395   6.600   6.018
 2258SOL    HW2 7674   2.287   6.663   6.123
 2259SOL     OW 7675   6.024   1.851   6.387
 2259SOL    HW1 7676   5.929   1.838   6.359
 2259SOL    HW2 7677   6.047   1.788   6.461
 2260SOL     OW 7678   4.845   3.476   1.058
 2260SOL    HW1 7679   4.864   3.378   1.065
 2260SOL    HW2 7680   4.826   3.512   1.149
 2261SOL     OW 7681   2.291   0.189   5.312
 2261SOL    HW1 7682   2.217   0.213   5.250
 2261SOL    HW2 7683   2.320   0.271   5.362
 2262SOL     OW 7684   2.627   1.542   4.255
 2262SOL    HW1 7685   2.589   1.540   4.347
 2262SOL    HW2 7686   2.604   1.456   4.208
 2263SOL     OW 7687   0.136   4.702   5.655
 2263SOL    HW1 7688   0.190   4.656   5.725
 2263SOL    HW2 7689   0.073   4.637   5.612
 2264SOL     OW 7690   3.574   3.281   4.012
 2264SOL    HW1 7691   3.527   3.198   3.981
 2264SOL    HW2 7692   3.588   3.276   4.111
 2265SOL     OW 7693   0.730   5.957   4.121
 2265SOL    HW1 7694   0.766   5.971   4.029
 2265SOL    HW2 7695   0.783   6.013   4.185
 2266SOL     OW 7696   6.775   0.821   5.486
 2266SOL    HW1 7697   6.857   0.769   5.512
 2266SOL    HW2 7698   6.765   0.820   5.386
 2267SOL     OW 7699   6.031   1.785   5.100
 2267SOL    HW1 7700   6.033   1.802   5.199
 2267SOL    HW2 7701   6.041   1.687   5.083
 2268SOL     OW 7702   0.378   6.822   0.371
 2268SOL    HW1 7703   0.382   6.792   0.466
 2268SOL    HW2 7704   0.313   6.899   0.363
 2269SOL     OW 7705   6.772   6.215   2.820
 2269SOL    HW1 7706   6.866   6.236   2.845
 2269SOL    HW2 7707   6.725   6.299   2.794
 2270SOL     OW 7708   3.742   3.100   3.693
 2270SOL    HW1 7709   3.761   3.195   3.715
 2270SOL    HW2 7710   3.644   3.082   3.704
 2271SOL     OW 7711   1.676   3.725   2.589
 2271SOL    HW1 7712   1.596   3.765   2.545
 2271SOL    HW2 7713   1.658   3.629   2.610
 2272SOL     OW 7714   4.907   0.438   5.820
 2272SOL    HW1 7715   4.867   0.521   5.780
 2272SOL    HW2 7716   4.840   0.392   5.878
 2273SOL     OW 7717   0.120   0.922   1.733
 2273SOL    HW1 7718   0.092   0.912   1.638
 2273SOL    HW2 7719   0.056   0.873   1.792
 2274SOL     OW 7720   6.785   4.830   3.171
 2274SOL    HW1 7721   6.741   4.855   3.085
 2274SOL    HW2 7722   6.783   4.908   3.234
 2275SOL     OW 7723   4.578   6.080   3.700
 2275SOL    HW1 7724   4.526   6.030   3.769
 2275SOL    HW2 7725   4.522   6.093   3.619
 2276SOL     OW 7726   3.494   6.085   3.097
 2276SOL    HW1 7727   3.454   6.000   3.064
 2276SOL    HW2 7728   3.424   6.156   3.101
 2277SOL     OW 7729   3.768   2.900   2.652
 2277SOL    HW1 7730   3.858   2.928   2.618
 2277SOL    HW2 7731   3.779   2.822   2.714
 2278SOL     OW 7732   4.034   4.692   1.405
 2278SOL    HW1 7733   4.003   4.757   1.336
 2278SOL    HW2 7734   4.133   4.681   1.400
 2279SOL     OW 7735   5.273   4.184   5.299
 2279SOL    HW1 7736   5.185   4.216   5.263
 2279SOL    HW2 7737   5.334   4.162   5.223
 2280SOL     OW 7738   5.510   0.847   5.915
 2280SOL    HW1 7739   5.550   0.936   5.890
 2280SOL    HW2 7740   5.490   0.846   6.013
 2281SOL     OW 7741   2.200   0.578   0.475
 2281SOL    HW1 7742   2.280   0.630   0.444
 2281SOL    HW2 7743   2.216   0.545   0.568
 2282SOL     OW 7744   3.533   0.276   2.749
 2282SOL    HW1 7745   3.511   0.232   2.836
 2282SOL    HW2 7746   3.448   0.307   2.705
 2283SOL     OW 7747   0.874   3.293   0.985
 2283SOL    HW1 7748   0.874   3.368   0.918
 2283SOL    HW2 7749   0.953   3.302   1.044
 2284SOL     OW 7750   1.950   2.881   0.559
 2284SOL    HW1 7751   2.027   2.940   0.581
 2284SOL    HW2 7752   1.932   2.820   0.637
 2285SOL     OW 7753   2.450   2.979   0.502
 2285SOL    HW1 7754   2.414   2.984   0.409
 2285SOL    HW2 7755   2.433   2.887   0.539
 2286SOL     OW 7756   6.557   5.850   4.024
 2286SOL    HW1 7757   6.625   5.782   4.050
 2286SOL    HW2 7758   6.600   5.923   3.973
 2287SOL     OW 7759   2.492   1.679   0.799
 2287SOL    HW1 7760   2.574   1.622   0.799
 2287SOL    HW2 7761   2.506   1.759   0.857
 2288SOL     OW 7762   2.944   6.043   4.295
 2288SOL    HW1 7763   2.892   6.091   4.366
 2288SOL    HW2 7764   3.036   6.082   4.290
 2289SOL     OW 7765   4.067   0.141   6.363
 2289SOL    HW1 7766   4.133   0.199   6.315
 2289SOL    HW2 7767   4.026   0.076   6.299
 2290SOL     OW 7768   2.214   3.274   5.849
 2290SOL    HW1 7769   2.243   3.363   5.815
 2290SOL    HW2 7770   2.230   3.205   5.780
 2291SOL     OW 7771   3.236   2.336   0.373
 2291SOL    HW1 7772   3.195   2.255   0.331
 2291SOL    HW2 7773   3.330   2.345   0.343
 2292SOL     OW 7774   5.201   1.956   2.972
 2292SOL    HW1 7775   5.206   1.913   3.062
 2292SOL    HW2 7776   5.293   1.976   2.939
 2293SOL     OW 7777   0.634   0.880   0.063
 2293SOL    HW1 7778   0.659   0.783   0.063
 2293SOL    HW2 7779   0.615   0.910   0.156
 2294SOL     OW 7780   6.650   2.127   5.408
 2294SOL    HW1 7781   6.731   2.077   5.377
 2294SOL    HW2 7782   6.571   2.101   5.352
 2295SOL     OW 7783   5.725   5.393   6.998
 2295SOL    HW1 7784   5.661   5.405   0.053
 2295SOL    HW2 7785   5.809   5.350   0.010
 2296SOL     OW 7786   3.548   6.192   4.619
 2296SOL    HW1 7787   3.626   6.149   4.664
 2296SOL    HW2 7788   3.482   6.121   4.594
 2297SOL     OW 7789   6.588   2.745   0.200
 2297SOL    HW1 7790   6.537   2.746   0.114
 2297SOL    HW2 7791   6.660   2.675   0.196
 2298SOL     OW 7792   2.355   3.517   5.333
 2298SOL    HW1 7793   2.331   3.507   5.237
 2298SOL    HW2 7794   2.410   3.600   5.346
 2299SOL     OW 7795   6.173   3.038   4.601
 2299SOL    HW1 7796   6.134   3.121   4.560
 2299SOL    HW2 7797   6.104   2.994   4.658
 2300SOL     OW 7798   4.419   0.799   3.007
 2300SOL    HW1 7799   4.505   0.752   3.023
 2300SOL    HW2 7800   4.404   0.867   3.078
 2301SOL     OW 7801   4.559   3.247   5.699
 2301SOL    HW1 7802   4.488   3.177   5.700
 2301SOL    HW2 7803   4.641   3.211   5.653
 2302SOL     OW 7804   0.106   3.156   4.659
 2302SOL    HW1 7805   0.193   3.126   4.698
 2302SOL    HW2 7806   0.079   3.243   4.701
 2303SOL     OW 7807   2.621   2.173   6.303
 2303SOL    HW1 7808   2.536   2.220   6.278
 2303SOL    HW2 7809   2.618   2.147   6.399
 2304SOL     OW 7810   3.722   0.221   3.568
 2304SOL    HW1 7811   3.750   0.311   3.533
 2304SOL    HW2 7812   3.793   0.185   3.629
 2305SOL     OW 7813   2.516   6.374   4.748
 2305SOL    HW1 7814   2.511   6.274   4.748
 2305SOL    HW2 7815   2.606   6.403   4.781
 2306SOL     OW 7816   0.817   4.666   5.440
 2306SOL    HW1 7817   0.765   4.581   5.432
 2306SOL    HW2 7818   0.875   4.662   5.521
 2307SOL     OW 7819   5.726   4.194   5.020
 2307SOL    HW1 7820   5.705   4.290   5.006
 2307SOL    HW2 7821   5.807   4.185   5.078
 2308SOL     OW 7822   1.170   6.089   2.970
 2308SOL    HW1 7823   1.240   6.018   2.968
 2308SOL    HW2 7824   1.199   6.166   2.913
 2309SOL     OW 7825   1.788   0.961   4.883
 2309SOL    HW1 7826   1.721   0.990   4.815
 2309SOL    HW2 7827   1.860   1.030   4.889
 2310SOL     OW 7828   5.232   6.146   0.119
 2310SOL    HW1 7829   5.214   6.076   0.188
 2310SOL    HW2 7830   5.331   6.151   0.102
 2311SOL     OW 7831   2.826   5.400   0.593
 2311SOL    HW1 7832   2.818   5.466   0.519
 2311SOL    HW2 7833   2.888   5.327   0.566
 2312SOL     OW 7834   2.442   4.600   2.363
 2312SOL    HW1 7835   2.481   4.620   2.272
 2312SOL    HW2 7836   2.368   4.664   2.382
 2313SOL     OW 7837   4.954   5.466   1.447
 2313SOL    HW1 7838   5.035   5.511   1.484
 2313SOL    HW2 7839   4.919   5.400   1.514
 2314SOL     OW 7840   2.129   4.418   2.590
 2314SOL    HW1 7841   2.172   4.345   2.537
 2314SOL    HW2 7842   2.041   4.441   2.550
 2315SOL     OW 7843   3.914   1.843   6.438
 2315SOL    HW1 7844   3.844   1.907   6.471
 2315SOL    HW2 7845   3.973   1.817   6.514
 2316SOL     OW 7846   5.969   4.645   1.354
 2316SOL    HW1 7847   6.020   4.696   1.424
 2316SOL    HW2 7848   6.027   4.573   1.317
 2317SOL     OW 7849   0.112   6.392   3.512
 2317SOL    HW1 7850   0.030   6.408   3.567
 2317SOL    HW2 7851   0.092   6.412   3.416
 2318SOL     OW 7852   6.831   1.670   3.525
 2318SOL    HW1 7853   6.850   1.599   3.593
 2318SOL    HW2 7854   6.761   1.637   3.462
 2319SOL     OW 7855   0.735   5.604   3.085
 2319SOL    HW1 7856   0.812   5.623   3.145
 2319SOL    HW2 7857   0.706   5.689   3.040
 2320SOL     OW 7858   6.827   4.569   3.153
 2320SOL    HW1 7859   6.753   4.542   3.092
 2320SOL    HW2 7860   6.818   4.665   3.177
 2321SOL     OW 7861   3.248   5.010   3.678
 2321SOL    HW1 7862   3.168   4.966   3.637
 2321SOL    HW2 7863   3.329   4.990   3.623
 2322SOL     OW 7864   2.155   1.902   4.464
 2322SOL    HW1 7865   2.204   1.831   4.515
 2322SOL    HW2 7866   2.192   1.908   4.372
 2323SOL     OW 7867   5.188   3.913   1.396
 2323SOL    HW1 7868   5.261   3.961   1.443
 2323SOL    HW2 7869   5.104   3.967   1.400
 2324SOL     OW 7870   0.594   5.096   4.213
 2324SOL    HW1 7871   0.503   5.129   4.190
 2324SOL    HW2 7872   0.642   5.164   4.268
 2325SOL     OW 7873   6.224   1.903   0.798
 2325SOL    HW1 7874   6.263   1.843   0.728
 2325SOL    HW2 7875   6.289   1.976   0.820
 2326SOL     OW 7876   0.238   5.602   0.327
 2326SOL    HW1 7877   0.285   5.518   0.300
 2326SOL    HW2 7878   0.303   5.665   0.368
 2327SOL     OW 7879   4.898   1.859   3.001
 2327SOL    HW1 7880   4.995   1.862   2.976
 2327SOL    HW2 7881   4.890   1.858   3.101
 2328SOL     OW 7882   6.230   5.103   4.074
 2328SOL    HW1 7883   6.230   5.103   4.174
 2328SOL    HW2 7884   6.178   5.182   4.041
 2329SOL     OW 7885   1.621   6.372   3.599
 2329SOL    HW1 7886   1.648   6.349   3.506
 2329SOL    HW2 7887   1.566   6.298   3.637
 2330SOL     OW 7888   2.055   4.339   0.195
 2330SOL    HW1 7889   2.036   4.400   0.272
 2330SOL    HW2 7890   2.121   4.384   0.134
 2331SOL     OW 7891   1.730   4.675   5.150
 2331SOL    HW1 7892   1.638   4.640   5.164
 2331SOL    HW2 7893   1.740   4.706   5.055
 2332SOL     OW 7894   0.036   3.482   6.231
 2332SOL    HW1 7895   6.983   3.416   6.235
 2332SOL    HW2 7896   0.117   3.438   6.192
 2333SOL     OW 7897   2.309   4.381   3.992
 2333SOL    HW1 7898   2.318   4.423   3.902
 2333SOL    HW2 7899   2.221   4.406   4.033
 2334SOL     OW 7900   2.420   0.025   6.105
 2334SOL    HW1 7901   2.372   0.101   6.148
 2334SOL    HW2 7902   2.408   0.029   6.006
 2335SOL     OW 7903   4.834   3.951   4.253
 2335SOL    HW1 7904   4.791   4.033   4.290
 2335SOL    HW2 7905   4.871   3.896   4.329
 2336SOL     OW 7906   4.509   1.258   5.611
 2336SOL    HW1 7907   4.533   1.276   5.707
 2336SOL    HW2 7908   4.582   1.204   5.568
 2337SOL     OW 7909   5.668   0.783   5.189
 2337SOL    HW1 7910   5.697   0.834   5.109
 2337SOL    HW2 7911   5.654   0.687   5.164
 2338SOL     OW 7912   1.573   6.913   6.859
 2338SOL    HW1 7913   1.645   6.923   6.791
 2338SOL    HW2 7914   1.577   6.821   6.899
 2339SOL     OW 7915   3.458   4.824   6.153
 2339SOL    HW1 7916   3.531   4.841   6.088
 2339SOL    HW2 7917   3.397   4.903   6.156
 2340SOL     OW 7918   4.169   4.955   3.971
 2340SOL    HW1 7919   4.117   4.940   4.055
 2340SOL    HW2 7920   4.185   4.867   3.925
 2341SOL     OW 7921   0.340   4.015   5.878
 2341SOL    HW1 7922   0.258   3.958   5.886
 2341SOL    HW2 7923   0.418   3.967   5.919
 2342SOL     OW 7924   5.172   1.042   5.728
 2342SOL    HW1 7925   5.079   1.012   5.748
 2342SOL    HW2 7926   5.197   1.116   5.789
 2343SOL     OW 7927   0.915   5.803   1.929
 2343SOL    HW1 7928   0.950   5.710   1.918
 2343SOL    HW2 7929   0.941   5.837   2.019
 2344SOL     OW 7930   2.259   0.944   2.737
 2344SOL    HW1 7931   2.248   0.851   2.702
 2344SOL    HW2 7932   2.356   0.969   2.737
 2345SOL     OW 7933   1.532   2.768   1.905
 2345SOL    HW1 7934   1.567   2.686   1.951
 2345SOL    HW2 7935   1.432   2.768   1.908
 2346SOL     OW 7936   5.424   2.950   5.186
 2346SOL    HW1 7937   5.369   2.958   5.270
 2346SOL    HW2 7938   5.454   2.856   5.175
 2347SOL     OW 7939   1.732   4.029   1.044
 2347SOL    HW1 7940   1.685   4.015   0.957
 2347SOL    HW2 7941   1.795   3.954   1.061
 2348SOL     OW 7942   3.390   0.196   1.533
 2348SOL    HW1 7943   3.350   0.122   1.477
 2348SOL    HW2 7944   3.446   0.156   1.605
 2349SOL     OW 7945   5.876   2.655   0.036
 2349SOL    HW1 7946   5.939   2.580   0.054
 2349SOL    HW2 7947   5.782   2.621   0.039
 2350SOL     OW 7948   2.482   5.808   5.343
 2350SOL    HW1 7949   2.422   5.754   5.284
 2350SOL    HW2 7950   2.467   5.781   5.438
 2351SOL     OW 7951   1.812   5.195   3.409
 2351SOL    HW1 7952   1.832   5.197   3.311
 2351SOL    HW2 7953   1.879   5.250   3.459
 2352SOL     OW 7954   6.135   5.590   6.385
 2352SOL    HW1 7955   6.184   5.657   6.328
 2352SOL    HW2 7956   6.177   5.500   6.374
 2353SOL     OW 7957   3.169   2.824   6.327
 2353SOL    HW1 7958   3.164   2.908   6.381
 2353SOL    HW2 7959   3.076   2.789   6.311
 2354SOL     OW 7960   3.477   1.876   2.121
 2354SOL    HW1 7961   3.392   1.924   2.103
 2354SOL    HW2 7962   3.457   1.787   2.162
 2355SOL     OW 7963   0.009   1.406   2.057
 2355SOL    HW1 7964   0.104   1.420   2.086
 2355SOL    HW2 7965   7.014   1.454   1.971
 2356SOL     OW 7966   3.548   5.039   3.750
 2356SOL    HW1 7967   3.614   4.976   3.793
 2356SOL    HW2 7968   3.503   5.093   3.821
 2357SOL     OW 7969   0.887   5.548   1.227
 2357SOL    HW1 7970   0.831   5.628   1.203
 2357SOL    HW2 7971   0.827   5.473   1.255
 2358SOL     OW 7972   2.124   0.898   5.394
 2358SOL    HW1 7973   2.181   0.869   5.317
 2358SOL    HW2 7974   2.065   0.974   5.365
 2359SOL     OW 7975   3.537   2.760   5.927
 2359SOL    HW1 7976   3.588   2.777   6.011
 2359SOL    HW2 7977   3.475   2.682   5.942
 2360SOL     OW 7978   3.070   5.048   1.283
 2360SOL    HW1 7979   3.029   4.963   1.314
 2360SOL    HW2 7980   3.157   5.029   1.239
 2361SOL     OW 7981   3.527   4.872   1.474
 2361SOL    HW1 7982   3.438   4.918   1.468
 2361SOL    HW2 7983   3.578   4.890   1.390
 2362SOL     OW 7984   2.742   5.135   4.314
 2362SOL    HW1 7985   2.837   5.152   4.290
 2362SOL    HW2 7986   2.737   5.065   4.385
 2363SOL     OW 7987   2.448   3.806   1.670
 2363SOL    HW1 7988   2.500   3.722   1.687
 2363SOL    HW2 7989   2.377   3.815   1.741
 2364SOL     OW 7990   4.692   0.909   2.389
 2364SOL    HW1 7991   4.785   0.873   2.398
 2364SOL    HW2 7992   4.665   0.954   2.474
 2365SOL     OW 7993   5.947   3.772   2.644
 2365SOL    HW1 7994   5.889   3.798   2.721
 2365SOL    HW2 7995   5.936   3.839   2.570
 2366SOL     OW 7996   3.816   5.592   5.030
 2366SOL    HW1 7997   3.729   5.633   5.003
 2366SOL    HW2 7998   3.835   5.513   4.973
 2367SOL     OW 7999   5.989   4.320   5.428
 2367SOL    HW1 8000   6.023   4.264   5.504
 2367SOL    HW2 8001   5.893   4.299   5.410
 2368SOL     OW 8002   5.094   1.408   5.549
 2368SOL    HW1 8003   5.146   1.477   5.498
 2368SOL    HW2 8004   5.102   1.426   5.647
 2369SOL     OW 8005   3.953   1.932   4.062
 2369SOL    HW1 8006   3.917   1.928   4.155
 2369SOL    HW2 8007   3.924   2.017   4.018
 2370SOL     OW 8008   3.970   2.120   0.787
 2370SOL    HW1 8009   3.993   2.049   0.853
 2370SOL    HW2 8010   3.883   2.098   0.743
 2371SOL     OW 8011   2.856   6.435   3.158
 2371SOL    HW1 8012   2.802   6.382   3.093
 2371SOL    HW2 8013   2.795   6.481   3.222
 2372SOL     OW 8014   5.744   6.826   6.272
 2372SOL    HW1 8015   5.734   6.824   6.173
 2372SOL    HW2 8016   5.791   6.910   6.299
 2373SOL     OW 8017   6.488   4.115   5.643
 2373SOL    HW1 8018   6.427   4.194   5.635
 2373SOL    HW2 8019   6.581   4.142   5.617
 2374SOL     OW 8020   0.609   5.828   2.947
 2374SOL    HW1 8021   0.614   5.805   2.850
 2374SOL    HW2 8022   0.589   5.925   2.957
 2375SOL     OW 8023   1.842   0.458   4.816
 2375SOL    HW1 8024   1.787   0.439   4.898
 2375SOL    HW2 8025   1.898   0.378   4.795
 2376SOL     OW 8026   5.674   3.031   3.731
 2376SOL    HW1 8027   5.676   3.105   3.664
 2376SOL    HW2 8028   5.748   2.966   3.712
 2377SOL     OW 8029   3.658   4.690   5.972
 2377SOL    HW1 8030   3.692   4.597   5.986
 2377SOL    HW2 8031   3.705   4.752   6.034
 2378SOL     OW 8032   0.813   0.292   0.552
 2378SOL    HW1 8033   0.747   0.261   0.484
 2378SOL    HW2 8034   0.766   0.314   0.637
 2379SOL     OW 8035   0.584   4.861   2.299
 2379SOL    HW1 8036   0.588   4.763   2.315
 2379SOL    HW2 8037   0.653   4.907   2.355
 2380SOL     OW 8038   4.562   5.747   6.590
 2380SOL    HW1 8039   4.464   5.726   6.592
 2380SOL    HW2 8040   4.603   5.704   6.510
 2381SOL     OW 8041   1.985   3.935   3.846
 2381SOL    HW1 8042   2.084   3.944   3.836
 2381SOL    HW2 8043   1.961   3.940   3.943
 2382SOL     OW 8044   6.432   6.093   2.528
 2382SOL    HW1 8045   6.441   6.183   2.485
 2382SOL    HW2 8046   6.416   6.104   2.626
 2383SOL     OW 8047   5.130   3.984   6.061
 2383SOL    HW1 8048   5.144   4.081   6.080
 2383SOL    HW2 8049   5.203   3.951   6.001
 2384SOL     OW 8050   1.316   2.019   3.434
 2384SOL    HW1 8051   1.216   2.019   3.434
 2384SOL    HW2 8052   1.349   1.958   3.361
 2385SOL     OW 8053   0.587   1.036   0.819
 2385SOL    HW1 8054   0.547   0.959   0.768
 2385SOL    HW2 8055   0.675   1.059   0.779
 2386SOL     OW 8056   6.711   4.700   6.328
 2386SOL    HW1 8057   6.645   4.629   6.304
 2386SOL    HW2 8058   6.753   4.737   6.245
 2387SOL     OW 8059   0.017   0.207   2.982
 2387SOL    HW1 8060   0.012   0.271   3.059
 2387SOL    HW2 8061   6.987   0.244   2.904
 2388SOL     OW 8062   1.889   4.219   3.904
 2388SOL    HW1 8063   1.896   4.216   4.004
 2388SOL    HW2 8064   1.897   4.126   3.868
 2389SOL     OW 8065   3.400   0.192   3.011
 2389SOL    HW1 8066   3.333   0.226   3.077
 2389SOL    HW2 8067   3.442   0.108   3.047
 2390SOL     OW 8068   5.029   3.137   5.240
 2390SOL    HW1 8069   5.116   3.097   5.267
 2390SOL    HW2 8070   5.012   3.118   5.143
 2391SOL     OW 8071   2.561   3.750   6.226
 2391SOL    HW1 8072   2.633   3.711   6.168
 2391SOL    HW2 8073   2.525   3.832   6.183
 2392SOL     OW 8074   3.980   5.230   5.576
 2392SOL    HW1 8075   4.001   5.167   5.500
 2392SOL    HW2 8076   4.026   5.198   5.659
 2393SOL     OW 8077   4.267   4.608   0.220
 2393SOL    HW1 8078   4.208   4.591   0.298
 2393SOL    HW2 8079   4.360   4.577   0.241
 2394SOL     OW 8080   0.012   2.750   3.242
 2394SOL    HW1 8081   6.938   2.739   3.268
 2394SOL    HW2 8082   0.031   2.697   3.160
 2395SOL     OW 8083   1.042   2.324   3.547
 2395SOL    HW1 8084   0.986   2.365   3.476
 2395SOL    HW2 8085   1.075   2.396   3.609
 2396SOL     OW 8086   0.369   0.627   6.280
 2396SOL    HW1 8087   0.457   0.579   6.278
 2396SOL    HW2 8088   0.383   0.720   6.313
 2397SOL     OW 8089   2.080   4.816   6.008
 2397SOL    HW1 8090   2.122   4.777   5.926
 2397SOL    HW2 8091   2.152   4.834   6.076
 2398SOL     OW 8092   3.973   6.454   4.998
 2398SOL    HW1 8093   3.897   6.393   5.018
 2398SOL    HW2 8094   4.000   6.444   4.902
 2399SOL     OW 8095   3.200   1.638   2.444
 2399SOL    HW1 8096   3.130   1.589   2.392
 2399SOL    HW2 8097   3.278   1.658   2.384
 2400SOL     OW 8098   1.263   1.763   6.479
 2400SOL    HW1 8099   1.244   1.858   6.454
 2400SOL    HW2 8100   1.296   1.759   6.573
 2401SOL     OW 8101   1.092   6.888   0.868
 2401SOL    HW1 8102   1.143   6.862   0.786
 2401SOL    HW2 8103   1.138   6.965   0.912
 2402SOL     OW 8104   0.319   3.155   1.597
 2402SOL    HW1 8105   0.411   3.119   1.616
 2402SOL    HW2 8106   0.260   3.081   1.564
 2403SOL     OW 8107   3.053   4.367   5.311
 2403SOL    HW1 8108   3.027   4.278   5.272
 2403SOL    HW2 8109   3.011   4.440   5.257
 2404SOL     OW 8110   6.183   2.059   2.137
 2404SOL    HW1 8111   6.105   2.025   2.085
 2404SOL    HW2 8112   6.186   2.159   2.132
 2405SOL     OW 8113   2.691   3.100   0.529
 2405SOL    HW1 8114   2.613   3.056   0.573
 2405SOL    HW2 8115   2.680   3.200   0.535
 2406SOL     OW 8116   4.389   6.025   5.419
 2406SOL    HW1 8117   4.405   5.993   5.513
 2406SOL    HW2 8118   4.308   5.980   5.382
 2407SOL     OW 8119   2.168   1.993   3.608
 2407SOL    HW1 8120   2.243   1.992   3.542
 2407SOL    HW2 8121   2.185   1.925   3.679
 2408SOL     OW 8122   4.476   6.749   5.195
 2408SOL    HW1 8123   4.552   6.758   5.131
 2408SOL    HW2 8124   4.494   6.674   5.259
 2409SOL     OW 8125   1.228   3.190   6.800
 2409SOL    HW1 8126   1.259   3.193   6.895
 2409SOL    HW2 8127   1.250   3.276   6.754
 2410SOL     OW 8128   6.411   3.680   4.696
 2410SOL    HW1 8129   6.475   3.604   4.688
 2410SOL    HW2 8130   6.451   3.763   4.656
 2411SOL     OW 8131   2.840   1.162   1.117
 2411SOL    HW1 8132   2.856   1.193   1.210
 2411SOL    HW2 8133   2.742   1.146   1.104
 2412SOL     OW 8134   3.699   2.681   0.058
 2412SOL    HW1 8135   3.685   2.593   0.104
 2412SOL    HW2 8136   3.663   2.755   0.116
 2413SOL     OW 8137   6.602   3.545   6.147
 2413SOL    HW1 8138   6.631   3.569   6.240
 2413SOL    HW2 8139   6.502   3.536   6.145
 2414SOL     OW 8140   6.302   1.855   4.868
 2414SOL    HW1 8141   6.284   1.954   4.869
 2414SOL    HW2 8142   6.367   1.834   4.795
 2415SOL     OW 8143   3.257   3.827   5.415
 2415SOL    HW1 8144   3.292   3.818   5.323
 2415SOL    HW2 8145   3.283   3.917   5.452
 2416SOL     OW 8146   6.853   3.381   3.593
 2416SOL    HW1 8147   6.894   3.472   3.584
 2416SOL    HW2 8148   6.897   3.332   3.668
 2417SOL     OW 8149   3.488   2.655   1.677
 2417SOL    HW1 8150   3.404   2.622   1.719
 2417SOL    HW2 8151   3.470   2.677   1.581
 2418SOL     OW 8152   6.032   3.466   6.466
 2418SOL    HW1 8153   6.038   3.414   6.551
 2418SOL    HW2 8154   5.977   3.548   6.481
 2419SOL     OW 8155   3.350   1.235   3.017
 2419SOL    HW1 8156   3.400   1.155   3.052
 2419SOL    HW2 8157   3.332   1.222   2.919
 2420SOL     OW 8158   0.669   3.073   1.360
 2420SOL    HW1 8159   0.608   2.998   1.388
 2420SOL    HW2 8160   0.675   3.076   1.260
 2421SOL     OW 8161   2.856   0.493   3.246
 2421SOL    HW1 8162   2.767   0.493   3.199
 2421SOL    HW2 8163   2.907   0.575   3.222
 2422SOL     OW 8164   3.656   6.517   0.666
 2422SOL    HW1 8165   3.654   6.566   0.578
 2422SOL    HW2 8166   3.576   6.458   0.673
 2423SOL     OW 8167   3.803   4.943   4.829
 2423SOL    HW1 8168   3.731   4.911   4.767
 2423SOL    HW2 8169   3.862   5.007   4.781
 2424SOL     OW 8170   5.026   0.457   6.255
 2424SOL    HW1 8171   5.098   0.471   6.187
 2424SOL    HW2 8172   4.958   0.393   6.220
 2425SOL     OW 8173   4.546   5.252   4.588
 2425SOL    HW1 8174   4.567   5.190   4.664
 2425SOL    HW2 8175   4.529   5.198   4.505
 2426SOL     OW 8176   3.060   2.518   5.396
 2426SOL    HW1 8177   3.103   2.466   5.322
 2426SOL    HW2 8178   3.129   2.568   5.447
 2427SOL     OW 8179   4.623   2.020   6.946
 2427SOL    HW1 8180   4.537   2.004   6.993
 2427SOL    HW2 8181   4.699   1.988   7.004
 2428SOL     OW 8182   1.697   1.940   2.357
 2428SOL    HW1 8183   1.619   1.992   2.323
 2428SOL    HW2 8184   1.681   1.842   2.340
 2429SOL     OW 8185   5.226   5.537   1.782
 2429SOL    HW1 8186   5.214   5.470   1.709
 2429SOL    HW2 8187   5.167   5.514   1.859
 2430SOL     OW 8188   6.587   6.627   6.935
 2430SOL    HW1 8189   6.488   6.627   6.947
 2430SOL    HW2 8190   6.631   6.616   0.003
 2431SOL     OW 8191   1.928   2.302   1.251
 2431SOL    HW1 8192   1.876   2.384   1.225
 2431SOL    HW2 8193   2.016   2.302   1.203
 2432SOL     OW 8194   3.233   6.144   2.825
 2432SOL    HW1 8195   3.242   6.044   2.819
 2432SOL    HW2 8196   3.314   6.181   2.871
 2433SOL     OW 8197   0.646   4.272   4.141
 2433SOL    HW1 8198   0.743   4.278   4.164
 2433SOL    HW2 8199   0.632   4.304   4.047
 2434SOL     OW 8200   3.866   2.119   3.021
 2434SOL    HW1 8201   3.846   2.103   2.924
 2434SOL    HW2 8202   3.958   2.155   3.030
 2435SOL     OW 8203   5.727   6.840   6.010
 2435SOL    HW1 8204   5.710   6.936   6.031
 2435SOL    HW2 8205   5.670   6.812   5.933
 2436SOL     OW 8206   0.370   2.754   0.184
 2436SOL    HW1 8207   0.395   2.767   0.088
 2436SOL    HW2 8208   0.441   2.702   0.231
 2437SOL     OW 8209   1.066   4.917   1.039
 2437SOL    HW1 8210   1.018   4.864   1.109
 2437SOL    HW2 8211   1.157   4.941   1.072
 2438SOL     OW 8212   3.837   1.796   4.291
 2438SOL    HW1 8213   3.775   1.799   4.212
 2438SOL    HW2 8214   3.790   1.833   4.371
 2439SOL     OW 8215   0.387   5.882   6.845
 2439SOL    HW1 8216   0.446   5.815   6.801
 2439SOL    HW2 8217   0.412   5.890   6.942
 2440SOL     OW 8218   6.861   2.391   5.131
 2440SOL    HW1 8219   6.890   2.357   5.220
 2440SOL    HW2 8220   6.897   2.332   5.059
 2441SOL     OW 8221   6.436   0.417   0.205
 2441SOL    HW1 8222   6.464   0.441   0.112
 2441SOL    HW2 8223   6.357   0.473   0.231
 2442SOL     OW 8224   5.556   2.913   2.949
 2442SOL    HW1 8225   5.469   2.897   2.995
 2442SOL    HW2 8226   5.631   2.898   3.013
 2443SOL     OW 8227   0.632   3.132   1.039
 2443SOL    HW1 8228   0.628   3.108   0.942
 2443SOL    HW2 8229   0.699   3.206   1.052
 2444SOL     OW 8230   3.189   5.261   2.721
 2444SOL    HW1 8231   3.125   5.227   2.652
 2444SOL    HW2 8232   3.280   5.271   2.680
 2445SOL     OW 8233   0.699   1.844   1.154
 2445SOL    HW1 8234   0.756   1.828   1.235
 2445SOL    HW2 8235   0.624   1.778   1.152
 2446SOL     OW 8236   6.699   5.793   0.824
 2446SOL    HW1 8237   6.618   5.799   0.882
 2446SOL    HW2 8238   6.766   5.731   0.866
 2447SOL     OW 8239   2.333   0.076   0.049
 2447SOL    HW1 8240   2.263   0.066   0.119
 2447SOL    HW2 8241   2.324   0.002   7.003
 2448SOL     OW 8242   5.530   0.569   4.367
 2448SOL    HW1 8243   5.454   0.634   4.363
 2448SOL    HW2 8244   5.576   0.567   4.278
 2449SOL     OW 8245   2.009   3.749   1.227
 2449SOL    HW1 8246   2.101   3.777   1.253
 2449SOL    HW2 8247   1.985   3.664   1.274
 2450SOL     OW 8248   6.603   6.660   5.238
 2450SOL    HW1 8249   6.536   6.610   5.292
 2450SOL    HW2 8250   6.688   6.669   5.290
 2451SOL     OW 8251   1.849   6.941   6.983
 2451SOL    HW1 8252   1.894   7.019   6.939
 2451SOL    HW2 8253   1.753   6.963   6.999
 2452SOL     OW 8254   2.145   2.280   3.656
 2452SOL    HW1 8255   2.075   2.308   3.590
 2452SOL    HW2 8256   2.176   2.187   3.635
 2453SOL     OW 8257   1.148   2.018   6.438
 2453SOL    HW1 8258   1.086   2.066   6.377
 2453SOL    HW2 8259   1.119   2.031   6.533
 2454SOL     OW 8260   2.943   6.483   0.037
 2454SOL    HW1 8261   3.012   6.543   0.077
 2454SOL    HW2 8262   2.918   6.412   0.103
 2455SOL     OW 8263   4.965   1.842   0.194
 2455SOL    HW1 8264   5.042   1.856   0.256
 2455SOL    HW2 8265   4.994   1.864   0.101
 2456SOL     OW 8266   0.954   3.395   5.900
 2456SOL    HW1 8267   0.936   3.494   5.897
 2456SOL    HW2 8268   0.975   3.368   5.994
 2457SOL     OW 8269   5.388   1.647   5.957
 2457SOL    HW1 8270   5.306   1.704   5.946
 2457SOL    HW2 8271   5.455   1.695   6.013
 2458SOL     OW 8272   1.138   0.119   2.351
 2458SOL    HW1 8273   1.236   0.137   2.352
 2458SOL    HW2 8274   1.103   0.131   2.258
 2459SOL     OW 8275   1.594   6.414   1.535
 2459SOL    HW1 8276   1.578   6.337   1.474
 2459SOL    HW2 8277   1.683   6.404   1.580
 2460SOL     OW 8278   0.364   1.075   4.407
 2460SOL    HW1 8279   0.335   1.165   4.374
 2460SOL    HW2 8280   0.342   1.066   4.504
 2461SOL     OW 8281   2.350   1.587   2.852
 2461SOL    HW1 8282   2.365   1.488   2.846
 2461SOL    HW2 8283   2.429   1.630   2.895
 2462SOL     OW 8284   0.457   6.123   0.596
 2462SOL    HW1 8285   0.382   6.067   0.561
 2462SOL    HW2 8286   0.505   6.072   0.668
 2463SOL     OW 8287   6.977   6.554   0.639
 2463SOL    HW1 8288   6.898   6.562   0.700
 2463SOL    HW2 8289   7.017   6.463   0.648
 2464SOL     OW 8290   0.978   2.664   4.729
 2464SOL    HW1 8291   0.904   2.678   4.794
 2464SOL    HW2 8292   1.056   2.722   4.753
 2465SOL     OW 8293   6.632   1.442   0.270
 2465SOL    HW1 8294   6.671   1.396   0.350
 2465SOL    HW2 8295   6.543   1.402   0.248
 2466SOL     OW 8296   0.997   2.131   1.276
 2466SOL    HW1 8297   0.902   2.099   1.274
 2466SOL    HW2 8298   1.007   2.210   1.216
 2467SOL     OW 8299   5.195   2.437   5.041
 2467SOL    HW1 8300   5.113   2.380   5.042
 2467SOL    HW2 8301   5.169   2.533   5.056
 2468SOL     OW 8302   2.677   0.220   4.451
 2468SOL    HW1 8303   2.606   0.218   4.380
 2468SOL    HW2 8304   2.759   0.174   4.418
 2469SOL     OW 8305   2.944   1.781   6.229
 2469SOL    HW1 8306   3.035   1.745   6.248
 2469SOL    HW2 8307   2.875   1.714   6.255
 2470SOL     OW 8308   1.808   5.245   6.585
 2470SOL    HW1 8309   1.720   5.226   6.542
 2470SOL    HW2 8310   1.857   5.314   6.531
 2471SOL     OW 8311   2.917   5.650   3.034
 2471SOL    HW1 8312   2.830   5.698   3.041
 2471SOL    HW2 8313   2.919   5.595   2.950
 2472SOL     OW 8314   5.161   0.868   2.996
 2472SOL    HW1 8315   5.164   0.867   3.096
 2472SOL    HW2 8316   5.067   0.854   2.966
 2473SOL     OW 8317   1.071   4.197   4.521
 2473SOL    HW1 8318   1.137   4.159   4.586
 2473SOL    HW2 8319   1.046   4.128   4.454
 2474SOL     OW 8320   1.792   0.247   0.915
 2474SOL    HW1 8321   1.693   0.257   0.901
 2474SOL    HW2 8322   1.821   0.302   0.994
 2475SOL     OW 8323   5.568   2.257   0.475
 2475SOL    HW1 8324   5.631   2.195   0.428
 2475SOL    HW2 8325   5.619   2.331   0.518
 2476SOL     OW 8326   4.870   6.804   6.990
 2476SOL    HW1 8327   4.941   6.871   6.971
 2476SOL    HW2 8328   4.802   6.844   0.030
 2477SOL     OW 8329   3.421   1.563   3.657
 2477SOL    HW1 8330   3.516   1.588   3.670
 2477SOL    HW2 8331   3.384   1.527   3.743
 2478SOL     OW 8332   3.199   0.272   4.243
 2478SOL    HW1 8333   3.294   0.299   4.227
 2478SOL    HW2 8334   3.196   0.184   4.290
 2479SOL     OW 8335   6.529   4.390   1.839
 2479SOL    HW1 8336   6.585   4.309   1.856
 2479SOL    HW2 8337   6.434   4.370   1.863
 2480SOL     OW 8338   3.152   2.249   1.419
 2480SOL    HW1 8339   3.222   2.189   1.380
 2480SOL    HW2 8340   3.072   2.195   1.444
 2481SOL     OW 8341   2.884   6.836   2.230
 2481SOL    HW1 8342   2.863   6.893   2.309
 2481SOL    HW2 8343   2.845   6.745   2.243
 2482SOL     OW 8344   0.099   3.385   6.822
 2482SOL    HW1 8345   0.011   3.417   6.787
 2482SOL    HW2 8346   0.124   3.300   6.776
 2483SOL     OW 8347   2.539   2.135   1.469
 2483SOL    HW1 8348   2.530   2.060   1.404
 2483SOL    HW2 8349   2.578   2.215   1.423
 2484SOL     OW 8350   4.686   0.494   6.294
 2484SOL    HW1 8351   4.753   0.446   6.351
 2484SOL    HW2 8352   4.597   0.492   6.339
 2485SOL     OW 8353   0.421   1.825   6.978
 2485SOL    HW1 8354   0.491   1.896   6.968
 2485SOL    HW2 8355   0.464   1.740   7.010
 2486SOL     OW 8356   6.358   6.267   3.253
 2486SOL    HW1 8357   6.387   6.173   3.237
 2486SOL    HW2 8358   6.404   6.303   3.335
 2487SOL     OW 8359   4.407   6.193   0.231
 2487SOL    HW1 8360   4.477   6.262   0.219
 2487SOL    HW2 8361   4.433   6.110   0.180
 2488SOL     OW 8362   0.022   3.999   0.481
 2488SOL    HW1 8363   0.075   3.930   0.531
 2488SOL    HW2 8364   0.078   4.038   0.408
 2489SOL     OW 8365   6.290   5.719   4.996
 2489SOL    HW1 8366   6.224   5.696   5.067
 2489SOL    HW2 8367   6.375   5.750   5.038
 2490SOL     OW 8368   2.922   5.915   2.120
 2490SOL    HW1 8369   2.909   5.906   2.219
 2490SOL    HW2 8370   3.015   5.888   2.095
 2491SOL     OW 8371   4.041   4.693   1.681
 2491SOL    HW1 8372   4.071   4.782   1.716
 2491SOL    HW2 8373   4.029   4.699   1.582
 2492SOL     OW 8374   6.904   5.387   1.632
 2492SOL    HW1 8375   6.991   5.418   1.594
 2492SOL    HW2 8376   6.914   5.370   1.730
 2493SOL     OW 8377   5.976   6.105   0.750
 2493SOL    HW1 8378   5.987   6.197   0.789
 2493SOL    HW2 8379   5.985   6.111   0.650
 2494SOL     OW 8380   6.779   4.241   0.889
 2494SOL    HW1 8381   6.743   4.188   0.966
 2494SOL    HW2 8382   6.704   4.284   0.839
 2495SOL     OW 8383   6.761   3.091   2.203
 2495SOL    HW1 8384   6.860   3.098   2.191
 2495SOL    HW2 8385   6.729   3.003   2.169
 2496SOL     OW 8386   5.497   4.129   6.204
 2496SOL    HW1 8387   5.574   4.121   6.140
 2496SOL    HW2 8388   5.477   4.226   6.220
 2497SOL     OW 8389   0.942   0.014   4.051
 2497SOL    HW1 8390   0.923   0.099   4.099
 2497SOL    HW2 8391   0.856   6.990   4.029
 2498SOL     OW 8392   2.099   3.643   4.850
 2498SOL    HW1 8393   2.158   3.655   4.770
 2498SOL    HW2 8394   2.143   3.681   4.931
 2499SOL     OW 8395   6.027   3.373   1.680
 2499SOL    HW1 8396   5.987   3.413   1.597
 2499SOL    HW2 8397   5.970   3.296   1.709
 2500SOL     OW 8398   3.350   3.472   2.087
 2500SOL    HW1 8399   3.375   3.507   2.178
 2500SOL    HW2 8400   3.419   3.501   2.021
 2501SOL     OW 8401   6.305   5.336   5.100
 2501SOL    HW1 8402   6.349   5.423   5.121
 2501SOL    HW2 8403   6.374   5.264   5.093
 2502SOL     OW 8404   2.979   5.900   3.844
 2502SOL    HW1 8405   3.001   5.804   3.863
 2502SOL    HW2 8406   2.918   5.935   3.915
 2503SOL     OW 8407   2.351   0.400   5.479
 2503SOL    HW1 8408   2.372   0.364   5.569
 2503SOL    HW2 8409   2.305   0.489   5.488
 2504SOL     OW 8410   3.999   0.648   3.160
 2504SOL    HW1 8411   4.017   0.601   3.073
 2504SOL    HW2 8412   4.079   0.640   3.220
 2505SOL     OW 8413   5.419   4.646   4.195
 2505SOL    HW1 8414   5.407   4.676   4.101
 2505SOL    HW2 8415   5.406   4.547   4.200
 2506SOL     OW 8416   6.154   5.016   6.413
 2506SOL    HW1 8417   6.205   4.938   6.448
 2506SOL    HW2 8418   6.181   5.034   6.318
 2507SOL     OW 8419   6.261   3.743   3.751
 2507SOL    HW1 8420   6.289   3.715   3.842
 2507SOL    HW2 8421   6.166   3.775   3.753
 2508SOL     OW 8422   5.863   1.336   3.800
 2508SOL    HW1 8423   5.786   1.282   3.768
 2508SOL    HW2 8424   5.948   1.284   3.790
 2509SOL     OW 8425   0.450   3.073   6.079
 2509SOL    HW1 8426   0.486   3.166   6.090
 2509SOL    HW2 8427   0.452   3.048   5.982
 2510SOL     OW 8428   3.022   3.895   2.466
 2510SOL    HW1 8429   3.023   3.874   2.369
 2510SOL    HW2 8430   3.100   3.954   2.488
 2511SOL     OW 8431   2.216   1.002   4.443
 2511SOL    HW1 8432   2.261   1.028   4.358
 2511SOL    HW2 8433   2.139   1.063   4.461
 2512SOL     OW 8434   3.435   4.939   3.495
 2512SOL    HW1 8435   3.509   4.919   3.559
 2512SOL    HW2 8436   3.472   4.978   3.411
 2513SOL     OW 8437   1.860   5.942   6.191
 2513SOL    HW1 8438   1.881   6.014   6.257
 2513SOL    HW2 8439   1.937   5.877   6.186
 2514SOL     OW 8440   0.876   2.083   2.776
 2514SOL    HW1 8441   0.913   2.176   2.776
 2514SOL    HW2 8442   0.838   2.063   2.685
 2515SOL     OW 8443   6.876   1.643   1.204
 2515SOL    HW1 8444   6.820   1.674   1.281
 2515SOL    HW2 8445   6.865   1.705   1.127
 2516SOL     OW 8446   6.695   2.436   4.698
 2516SOL    HW1 8447   6.752   2.361   4.730
 2516SOL    HW2 8448   6.672   2.496   4.774
 2517SOL     OW 8449   0.172   1.335   4.722
 2517SOL    HW1 8450   0.131   1.384   4.798
 2517SOL    HW2 8451   0.148   1.238   4.728
 2518SOL     OW 8452   3.177   3.940   1.350
 2518SOL    HW1 8453   3.088   3.923   1.392
 2518SOL    HW2 8454   3.244   3.876   1.389
 2519SOL     OW 8455   1.126   1.316   0.589
 2519SOL    HW1 8456   1.047   1.271   0.629
 2519SOL    HW2 8457   1.123   1.307   0.489
 2520SOL     OW 8458   2.930   3.040   1.164
 2520SOL    HW1 8459   2.964   3.125   1.205
 2520SOL    HW2 8460   2.830   3.040   1.165
 2521SOL     OW 8461   5.255   0.530   5.294
 2521SOL    HW1 8462   5.225   0.568   5.382
 2521SOL    HW2 8463   5.224   0.589   5.220
 2522SOL     OW 8464   1.851   1.958   0.206
 2522SOL    HW1 8465   1.880   1.891   0.136
 2522SOL    HW2 8466   1.815   2.039   0.161
 2523SOL     OW 8467   0.895   5.603   5.694
 2523SOL    HW1 8468   0.935   5.511   5.687
 2523SOL    HW2 8469   0.887   5.643   5.603
 2524SOL     OW 8470   0.860   2.239   4.838
 2524SOL    HW1 8471   0.888   2.282   4.923
 2524SOL    HW2 8472   0.794   2.166   4.857
 2525SOL     OW 8473   6.667   2.616   6.026
 2525SOL    HW1 8474   6.678   2.579   5.933
 2525SOL    HW2 8475   6.602   2.692   6.024
 2526SOL     OW 8476   1.865   0.783   0.593
 2526SOL    HW1 8477   1.869   0.875   0.632
 2526SOL    HW2 8478   1.904   0.718   0.657
 2527SOL     OW 8479   3.946   5.382   6.963
 2527SOL    HW1 8480   4.021   5.366   0.006
 2527SOL    HW2 8481   3.979   5.439   6.888
 2528SOL     OW 8482   4.580   5.455   6.205
 2528SOL    HW1 8483   4.548   5.532   6.150
 2528SOL    HW2 8484   4.503   5.413   6.252
 2529SOL     OW 8485   0.209   5.782   5.297
 2529SOL    HW1 8486   0.258   5.861   5.261
 2529SOL    HW2 8487   0.274   5.708   5.314
 2530SOL     OW 8488   2.159   5.834   6.875
 2530SOL    HW1 8489   2.083   5.862   6.935
 2530SOL    HW2 8490   2.231   5.791   6.930
 2531SOL     OW 8491   0.350   4.524   6.070
 2531SOL    HW1 8492   0.317   4.465   6.143
 2531SOL    HW2 8493   0.339   4.620   6.097
 2532SOL     OW 8494   5.700   5.936   2.377
 2532SOL    HW1 8495   5.691   5.963   2.281
 2532SOL    HW2 8496   5.630   5.984   2.431
 2533SOL     OW 8497   4.365   0.749   3.912
 2533SOL    HW1 8498   4.349   0.838   3.870
 2533SOL    HW2 8499   4.463   0.735   3.924
 2534SOL     OW 8500   4.701   1.367   2.659
 2534SOL    HW1 8501   4.774   1.378   2.590
 2534SOL    HW2 8502   4.620   1.418   2.630
 2535SOL     OW 8503   3.446   3.059   6.360
 2535SOL    HW1 8504   3.350   3.053   6.387
 2535SOL    HW2 8505   3.469   3.154   6.338
 2536SOL     OW 8506   1.135   0.309   0.935
 2536SOL    HW1 8507   1.200   0.242   0.969
 2536SOL    HW2 8508   1.055   0.261   0.898
 2537SOL     OW 8509   4.398   6.512   4.702
 2537SOL    HW1 8510   4.347   6.477   4.624
 2537SOL    HW2 8511   4.333   6.544   4.772
 2538SOL     OW 8512   5.587   3.800   3.663
 2538SOL    HW1 8513   5.559   3.725   3.602
 2538SOL    HW2 8514   5.535   3.882   3.640
 2539SOL     OW 8515   4.995   2.188   5.277
 2539SOL    HW1 8516   4.994   2.131   5.195
 2539SOL    HW2 8517   5.070   2.159   5.337
 2540SOL     OW 8518   2.719   2.112   1.705
 2540SOL    HW1 8519   2.641   2.066   1.663
 2540SOL    HW2 8520   2.691   2.201   1.741
 2541SOL     OW 8521   3.032   0.192   3.762
 2541SOL    HW1 8522   2.932   0.193   3.768
 2541SOL    HW2 8523   3.070   0.149   3.844
 2542SOL     OW 8524   2.181   5.890   5.500
 2542SOL    HW1 8525   2.094   5.868   5.457
 2542SOL    HW2 8526   2.234   5.951   5.441
 2543SOL     OW 8527   0.841   0.821   3.806
 2543SOL    HW1 8528   0.914   0.778   3.859
 2543SOL    HW2 8529   0.778   0.869   3.869
 2544SOL     OW 8530   0.525   5.679   6.063
 2544SOL    HW1 8531   0.611   5.671   6.014
 2544SOL    HW2 8532   0.539   5.729   6.149
 2545SOL     OW 8533   2.618   5.648   2.971
 2545SOL    HW1 8534   2.596   5.602   3.057
 2545SOL    HW2 8535   2.542   5.707   2.944
 2546SOL     OW 8536   6.908   0.782   1.799
 2546SOL    HW1 8537   6.903   0.690   1.762
 2546SOL    HW2 8538   6.902   0.849   1.725
 2547SOL     OW 8539   0.608   3.879   4.987
 2547SOL    HW1 8540   0.632   3.782   4.992
 2547SOL    HW2 8541   0.565   3.899   4.899
 2548SOL     OW 8542   0.487   0.905   6.326
 2548SOL    HW1 8543   0.452   0.953   6.406
 2548SOL    HW2 8544   0.585   0.924   6.316
 2549SOL     OW 8545   5.805   2.348   2.957
 2549SOL    HW1 8546   5.730   2.362   2.894
 2549SOL    HW2 8547   5.802   2.418   3.029
 2550SOL     OW 8548   5.547   5.183   6.815
 2550SOL    HW1 8549   5.614   5.246   6.776
 2550SOL    HW2 8550   5.503   5.226   6.894
 2551SOL     OW 8551   1.380   5.040   6.619
 2551SOL    HW1 8552   1.308   5.071   6.681
 2551SOL    HW2 8553   1.433   4.967   6.662
 2552SOL     OW 8554   1.595   5.753   3.529
 2552SOL    HW1 8555   1.678   5.714   3.571
 2552SOL    HW2 8556   1.619   5.836   3.478
 2553SOL     OW 8557   4.716   3.218   0.577
 2553SOL    HW1 8558   4.663   3.227   0.661
 2553SOL    HW2 8559   4.776   3.139   0.584
 2554SOL     OW 8560   1.144   1.769   0.631
 2554SOL    HW1 8561   1.155   1.779   0.730
 2554SOL    HW2 8562   1.047   1.756   0.610
 2555SOL     OW 8563   6.986   0.271   6.268
 2555SOL    HW1 8564   6.919   0.197   6.277
 2555SOL    HW2 8565   7.010   0.305   6.359
 2556SOL     OW 8566   4.024   4.765   0.350
 2556SOL    HW1 8567   3.968   4.824   0.409
 2556SOL    HW2 8568   4.121   4.784   0.367
 2557SOL     OW 8569   2.055   4.859   6.828
 2557SOL    HW1 8570   2.052   4.845   6.729
 2557SOL    HW2 8571   1.978   4.813   6.871
 2558SOL     OW 8572   4.050   0.546   5.457
 2558SOL    HW1 8573   4.012   0.531   5.366
 2558SOL    HW2 8574   3.982   0.524   5.526
 2559SOL     OW 8575   0.608   5.161   4.948
 2559SOL    HW1 8576   0.606   5.254   4.910
 2559SOL    HW2 8577   0.642   5.097   4.880
 2560SOL     OW 8578   6.022   0.755   0.819
 2560SOL    HW1 8579   5.944   0.792   0.770
 2560SOL    HW2 8580   6.052   0.820   0.888
 2561SOL     OW 8581   3.253   5.868   4.121
 2561SOL    HW1 8582   3.302   5.868   4.034
 2561SOL    HW2 8583   3.187   5.793   4.122
 2562SOL     OW 8584   2.006   3.890   0.508
 2562SOL    HW1 8585   2.024   3.881   0.410
 2562SOL    HW2 8586   2.023   3.802   0.553
 2563SOL     OW 8587   1.556   0.722   2.028
 2563SOL    HW1 8588   1.630   0.720   1.961
 2563SOL    HW2 8589   1.536   0.817   2.053
 2564SOL     OW 8590   1.470   6.046   2.393
 2564SOL    HW1 8591   1.569   6.030   2.392
 2564SOL    HW2 8592   1.438   6.064   2.300
 2565SOL     OW 8593   1.181   0.404   1.231
 2565SOL    HW1 8594   1.124   0.388   1.151
 2565SOL    HW2 8595   1.138   0.363   1.312
 2566SOL     OW 8596   2.226   6.554   5.078
 2566SOL    HW1 8597   2.215   6.616   5.155
 2566SOL    HW2 8598   2.220   6.605   4.992
 2567SOL     OW 8599   1.323   0.676   0.717
 2567SOL    HW1 8600   1.230   0.685   0.753
 2567SOL    HW2 8601   1.373   0.761   0.735
 2568SOL     OW 8602   5.586   3.733   0.784
 2568SOL    HW1 8603   5.542   3.676   0.854
 2568SOL    HW2 8604   5.524   3.743   0.706
 2569SOL     OW 8605   2.461   0.761   2.535
 2569SOL    HW1 8606   2.504   0.795   2.618
 2569SOL    HW2 8607   2.474   0.827   2.461
 2570SOL     OW 8608   5.611   2.472   6.333
 2570SOL    HW1 8609   5.523   2.426   6.324
 2570SOL    HW2 8610   5.632   2.522   6.249
 2571SOL     OW 8611   1.188   4.083   4.130
 2571SOL    HW1 8612   1.249   4.153   4.095
 2571SOL    HW2 8613   1.155   4.026   4.054
 2572SOL     OW 8614   1.508   4.802   3.418
 2572SOL    HW1 8615   1.561   4.750   3.352
 2572SOL    HW2 8616   1.559   4.885   3.444
 2573SOL     OW 8617   1.216   0.138   6.947
 2573SOL    HW1 8618   1.151   0.076   6.990
 2573SOL    HW2 8619   1.176   0.178   6.865
 2574SOL     OW 8620   6.257   3.742   0.679
 2574SOL    HW1 8621   6.192   3.788   0.618
 2574SOL    HW2 8622   6.350   3.772   0.657
 2575SOL     OW 8623   0.612   6.480   6.004
 2575SOL    HW1 8624   0.670   6.558   6.028
 2575SOL    HW2 8625   0.670   6.404   5.974
 2576SOL     OW 8626   4.705   6.568   5.552
 2576SOL    HW1 8627   4.711   6.469   5.547
 2576SOL    HW2 8628   4.788   6.605   5.595
 2577SOL     OW 8629   1.274   3.470   2.284
 2577SOL    HW1 8630   1.267   3.427   2.374
 2577SOL    HW2 8631   1.352   3.432   2.235
 2578SOL     OW 8632   4.293   1.982   2.128
 2578SOL    HW1 8633   4.204   1.939   2.113
 2578SOL    HW2 8634   4.283   2.082   2.125
 2579SOL     OW 8635   0.277   6.112   2.980
 2579SOL    HW1 8636   0.274   6.208   2.954
 2579SOL    HW2 8637   0.372   6.080   2.980
 2580SOL     OW 8638   2.979   2.283   5.538
 2580SOL    HW1 8639   3.008   2.219   5.467
 2580SOL    HW2 8640   3.011   2.375   5.515
 2581SOL     OW 8641   3.304   0.041   5.676
 2581SOL    HW1 8642   3.225   0.060   5.735
 2581SOL    HW2 8643   3.349   6.979   5.707
 2582SOL     OW 8644   6.935   3.935   0.785
 2582SOL    HW1 8645   6.944   3.957   0.688
 2582SOL    HW2 8646   6.883   4.008   0.830
 2583SOL     OW 8647   5.212   0.579   0.759
 2583SOL    HW1 8648   5.125   0.604   0.802
 2583SOL    HW2 8649   5.229   0.638   0.680
 2584SOL     OW 8650   3.587   4.189   6.655
 2584SOL    HW1 8651   3.658   4.175   6.723
 2584SOL    HW2 8652   3.546   4.279   6.668
 2585SOL     OW 8653   2.352   5.455   0.027
 2585SOL    HW1 8654   2.430   5.394   0.009
 2585SOL    HW2 8655   2.267   5.407   0.009
 2586SOL     OW 8656   2.066   1.097   3.165
 2586SOL    HW1 8657   2.075   1.191   3.132
 2586SOL    HW2 8658   1.970   1.075   3.177
 2587SOL     OW 8659   5.876   1.226   4.481
 2587SOL    HW1 8660   5.903   1.321   4.497
 2587SOL    HW2 8661   5.806   1.200   4.548
 2588SOL     OW 8662   4.450   1.479   6.841
 2588SOL    HW1 8663   4.419   1.506   6.932
 2588SOL    HW2 8664   4.442   1.380   6.831
 2589SOL     OW 8665   1.930   6.460   0.617
 2589SOL    HW1 8666   1.946   6.403   0.536
 2589SOL    HW2 8667   2.008   6.521   0.631
 2590SOL     OW 8668   2.557   5.144   0.519
 2590SOL    HW1 8669   2.555   5.208   0.596
 2590SOL    HW2 8670   2.472   5.152   0.467
 2591SOL     OW 8671   4.927   6.401   3.478
 2591SOL    HW1 8672   4.970   6.439   3.560
 2591SOL    HW2 8673   4.958   6.307   3.464
 2592SOL     OW 8674   3.472   3.583   0.797
 2592SOL    HW1 8675   3.558   3.611   0.755
 2592SOL    HW2 8676   3.490   3.533   0.881
 2593SOL     OW 8677   2.979   4.606   6.621
 2593SOL    HW1 8678   2.904   4.670   6.634
 2593SOL    HW2 8679   2.981   4.575   6.526
 2594SOL     OW 8680   2.240   2.904   3.332
 2594SOL    HW1 8681   2.311   2.839   3.360
 2594SOL    HW2 8682   2.228   2.899   3.233
 2595SOL     OW 8683   1.708   1.043   2.860
 2595SOL    HW1 8684   1.788   1.019   2.805
 2595SOL    HW2 8685   1.687   1.140   2.846
 2596SOL     OW 8686   0.171   1.115   0.862
 2596SOL    HW1 8687   0.160   1.018   0.882
 2596SOL    HW2 8688   0.262   1.146   0.892
 2597SOL     OW 8689   6.421   6.141   0.810
 2597SOL    HW1 8690   6.452   6.222   0.761
 2597SOL    HW2 8691   6.447   6.059   0.759
 2598SOL     OW 8692   4.825   2.994   2.295
 2598SOL    HW1 8693   4.915   3.033   2.277
 2598SOL    HW2 8694   4.764   3.015   2.219
 2599SOL     OW 8695   2.555   5.648   2.176
 2599SOL    HW1 8696   2.625   5.671   2.243
 2599SOL    HW2 8697   2.563   5.710   2.097
 2600SOL     OW 8698   5.557   5.197   4.332
 2600SOL    HW1 8699   5.598   5.254   4.403
 2600SOL    HW2 8700   5.589   5.227   4.242
 2601SOL     OW 8701   0.099   1.096   3.619
 2601SOL    HW1 8702   0.055   1.007   3.633
 2601SOL    HW2 8703   0.048   1.167   3.669
 2602SOL     OW 8704   1.140   4.604   2.910
 2602SOL    HW1 8705   1.236   4.620   2.932
 2602SOL    HW2 8706   1.133   4.527   2.846
 2603SOL     OW 8707   1.505   5.830   1.920
 2603SOL    HW1 8708   1.422   5.786   1.954
 2603SOL    HW2 8709   1.483   5.889   1.843
 2604SOL     OW 8710   4.875   3.153   3.021
 2604SOL    HW1 8711   4.819   3.070   3.020
 2604SOL    HW2 8712   4.970   3.128   3.042
 2605SOL     OW 8713   1.419   2.589   0.799
 2605SOL    HW1 8714   1.482   2.602   0.722
 2605SOL    HW2 8715   1.455   2.519   0.859
 2606SOL     OW 8716   4.981   3.989   0.497
 2606SOL    HW1 8717   5.065   4.044   0.491
 2606SOL    HW2 8718   4.981   3.939   0.584
 2607SOL     OW 8719   2.556   2.766   1.716
 2607SOL    HW1 8720   2.464   2.779   1.752
 2607SOL    HW2 8721   2.559   2.682   1.662
 2608SOL     OW 8722   3.589   4.989   4.663
 2608SOL    HW1 8723   3.515   4.973   4.728
 2608SOL    HW2 8724   3.637   5.074   4.687
 2609SOL     OW 8725   0.124   1.583   1.356
 2609SOL    HW1 8726   0.058   1.508   1.365
 2609SOL    HW2 8727   0.169   1.576   1.266
 2610SOL     OW 8728   1.546   4.573   4.824
 2610SOL    HW1 8729   1.475   4.630   4.783
 2610SOL    HW2 8730   1.542   4.481   4.784
 2611SOL     OW 8731   5.740   1.113   5.566
 2611SOL    HW1 8732   5.763   1.023   5.602
 2611SOL    HW2 8733   5.652   1.109   5.518
 2612SOL     OW 8734   6.682   6.483   0.199
 2612SOL    HW1 8735   6.641   6.539   0.271
 2612SOL    HW2 8736   6.774   6.455   0.227
 2613SOL     OW 8737   1.822   6.900   0.730
 2613SOL    HW1 8738   1.857   6.966   0.797
 2613SOL    HW2 8739   1.839   6.934   0.638
 2614SOL     OW 8740   5.909   2.213   1.061
 2614SOL    HW1 8741   5.941   2.207   0.967
 2614SOL    HW2 8742   5.982   2.186   1.123
 2615SOL     OW 8743   1.116   3.471   6.660
 2615SOL    HW1 8744   1.177   3.549   6.648
 2615SOL    HW2 8745   1.023   3.497   6.634
 2616SOL     OW 8746   1.442   1.392   4.959
 2616SOL    HW1 8747   1.436   1.419   4.863
 2616SOL    HW2 8748   1.506   1.316   4.969
 2617SOL     OW 8749   5.321   0.365   6.938
 2617SOL    HW1 8750   5.328   0.335   0.011
 2617SOL    HW2 8751   5.227   0.393   6.918
 2618SOL     OW 8752   1.410   0.952   0.171
 2618SOL    HW1 8753   1.405   1.034   0.228
 2618SOL    HW2 8754   1.457   0.879   0.220
 2619SOL     OW 8755   4.920   1.085   2.806
 2619SOL    HW1 8756   4.966   1.072   2.718
 2619SOL    HW2 8757   4.821   1.092   2.792
 2620SOL     OW 8758   5.838   2.534   2.455
 2620SOL    HW1 8759   5.743   2.563   2.442
 2620SOL    HW2 8760   5.898   2.591   2.398
 2621SOL     OW 8761   2.518   6.503   1.277
 2621SOL    HW1 8762   2.596   6.441   1.277
 2621SOL    HW2 8763   2.477   6.505   1.185
 2622SOL     OW 8764   2.649   3.862   6.447
 2622SOL    HW1 8765   2.575   3.874   6.513
 2622SOL    HW2 8766   2.610   3.836   6.358
 2623SOL     OW 8767   0.426   1.825   3.836
 2623SOL    HW1 8768   0.438   1.922   3.853
 2623SOL    HW2 8769   0.471   1.772   3.907
 2624SOL     OW 8770   1.469   1.889   5.633
 2624SOL    HW1 8771   1.496   1.974   5.587
 2624SOL    HW2 8772   1.463   1.815   5.566
 2625SOL     OW 8773   3.377   5.326   6.130
 2625SOL    HW1 8774   3.426   5.278   6.057
 2625SOL    HW2 8775   3.297   5.373   6.091
 2626SOL     OW 8776   6.781   6.758   0.361
 2626SOL    HW1 8777   6.865   6.710   0.386
 2626SOL    HW2 8778   6.796   6.810   0.277
 2627SOL     OW 8779   2.307   7.019   5.831
 2627SOL    HW1 8780   2.348   6.944   5.781
 2627SOL    HW2 8781   2.221   0.025   5.786
 2628SOL     OW 8782   6.998   5.543   1.326
 2628SOL    HW1 8783   0.011   5.452   1.346
 2628SOL    HW2 8784   6.909   5.536   1.281
 2629SOL     OW 8785   3.288   3.591   3.087
 2629SOL    HW1 8786   3.189   3.606   3.094
 2629SOL    HW2 8787   3.321   3.550   3.172
 2630SOL     OW 8788   3.097   0.881   4.725
 2630SOL    HW1 8789   3.150   0.945   4.782
 2630SOL    HW2 8790   3.105   0.908   4.629
 2631SOL     OW 8791   4.958   6.211   0.621
 2631SOL    HW1 8792   4.963   6.148   0.698
 2631SOL    HW2 8793   5.032   6.278   0.626
 2632SOL     OW 8794   4.575   5.167   1.660
 2632SOL    HW1 8795   4.552   5.219   1.742
 2632SOL    HW2 8796   4.578   5.069   1.682
 2633SOL     OW 8797   6.984   2.847   5.862
 2633SOL    HW1 8798   6.993   2.914   5.935
 2633SOL    HW2 8799   0.054   2.817   5.834
 2634SOL     OW 8800   2.001   2.196   6.270
 2634SOL    HW1 8801   2.024   2.167   6.363
 2634SOL    HW2 8802   1.998   2.296   6.266
 2635SOL     OW 8803   3.992   5.267   3.069
 2635SOL    HW1 8804   3.941   5.184   3.090
 2635SOL    HW2 8805   3.928   5.338   3.040
 2636SOL     OW 8806   3.080   6.830   6.358
 2636SOL    HW1 8807   3.102   6.856   6.264
 2636SOL    HW2 8808   3.089   6.730   6.367
 2637SOL     OW 8809   0.160   1.151   2.865
 2637SOL    HW1 8810   0.204   1.166   2.776
 2637SOL    HW2 8811   0.224   1.176   2.938
 2638SOL     OW 8812   0.773   6.361   5.061
 2638SOL    HW1 8813   0.726   6.433   5.010
 2638SOL    HW2 8814   0.848   6.325   5.006
 2639SOL     OW 8815   4.728   5.524   4.659
 2639SOL    HW1 8816   4.705   5.498   4.566
 2639SOL    HW2 8817   4.660   5.488   4.722
 2640SOL     OW 8818   2.322   1.053   3.178
 2640SOL    HW1 8819   2.366   1.103   3.103
 2640SOL    HW2 8820   2.223   1.054   3.164
 2641SOL     OW 8821   5.311   2.264   0.633
 2641SOL    HW1 8822   5.311   2.247   0.731
 2641SOL    HW2 8823   5.404   2.255   0.597
 2642SOL     OW 8824   0.245   0.315   2.623
 2642SOL    HW1 8825   0.244   0.262   2.708
 2642SOL    HW2 8826   0.161   0.369   2.617
 2643SOL     OW 8827   1.953   4.203   4.158
 2643SOL    HW1 8828   1.944   4.166   4.250
 2643SOL    HW2 8829   2.016   4.281   4.160
 2644SOL     OW 8830   5.844   5.320   3.454
 2644SOL    HW1 8831   5.835   5.335   3.552
 2644SOL    HW2 8832   5.782   5.246   3.426
 2645SOL     OW 8833   4.784   5.360   2.412
 2645SOL    HW1 8834   4.825   5.427   2.351
 2645SOL    HW2 8835   4.685   5.376   2.419
 2646SOL     OW 8836   0.997   1.643   6.506
 2646SOL    HW1 8837   1.005   1.550   6.541
 2646SOL    HW2 8838   1.088   1.677   6.480
 2647SOL     OW 8839   4.365   0.372   3.081
 2647SOL    HW1 8840   4.423   0.410   3.154
 2647SOL    HW2 8841   4.334   0.447   3.023
 2648SOL     OW 8842   1.834   0.329   5.912
 2648SOL    HW1 8843   1.804   0.241   5.949
 2648SOL    HW2 8844   1.821   0.401   5.980
 2649SOL     OW 8845   6.237   1.736   3.666
 2649SOL    HW1 8846   6.146   1.732   3.624
 2649SOL    HW2 8847   6.264   1.832   3.676
 2650SOL     OW 8848   1.870   6.881   4.719
 2650SOL    HW1 8849   1.894   6.832   4.635
 2650SOL    HW2 8850   1.771   6.876   4.733
 2651SOL     OW 8851   3.423   1.781   3.023
 2651SOL    HW1 8852   3.512   1.806   2.985
 2651SOL    HW2 8853   3.351   1.806   2.959
 2652SOL     OW 8854   4.566   3.434   5.877
 2652SOL    HW1 8855   4.492   3.500   5.878
 2652SOL    HW2 8856   4.550   3.366   5.805
 2653SOL     OW 8857   2.296   6.379   0.060
 2653SOL    HW1 8858   2.209   6.333   0.079
 2653SOL    HW2 8859   2.369   6.337   0.113
 2654SOL     OW 8860   6.558   0.617   0.820
 2654SOL    HW1 8861   6.594   0.575   0.903
 2654SOL    HW2 8862   6.583   0.562   0.740
 2655SOL     OW 8863   5.134   6.530   3.658
 2655SOL    HW1 8864   5.073   6.608   3.673
 2655SOL    HW2 8865   5.211   6.534   3.721
 2656SOL     OW 8866   4.668   6.810   4.999
 2656SOL    HW1 8867   4.687   6.720   4.961
 2656SOL    HW2 8868   4.631   6.870   4.928
 2657SOL     OW 8869   2.003   3.478   5.990
 2657SOL    HW1 8870   2.053   3.402   5.949
 2657SOL    HW2 8871   2.066   3.538   6.038
 2658SOL     OW 8872   3.855   4.278   0.650
 2658SOL    HW1 8873   3.811   4.279   0.740
 2658SOL    HW2 8874   3.859   4.184   0.615
 2659SOL     OW 8875   0.582   2.158   5.499
 2659SOL    HW1 8876   0.521   2.132   5.424
 2659SOL    HW2 8877   0.587   2.084   5.566
 2660SOL     OW 8878   1.297   1.512   0.657
 2660SOL    HW1 8879   1.258   1.593   0.614
 2660SOL    HW2 8880   1.248   1.431   0.624
 2661SOL     OW 8881   2.228   0.963   1.032
 2661SOL    HW1 8882   2.175   1.026   1.089
 2661SOL    HW2 8883   2.220   0.990   0.936
 2662SOL     OW 8884   2.527   1.628   1.626
 2662SOL    HW1 8885   2.530   1.537   1.584
 2662SOL    HW2 8886   2.609   1.679   1.599
 2663SOL     OW 8887   3.722   0.447   0.708
 2663SOL    HW1 8888   3.813   0.422   0.675
 2663SOL    HW2 8889   3.660   0.369   0.698
 2664SOL     OW 8890   4.910   3.552   5.688
 2664SOL    HW1 8891   4.998   3.562   5.642
 2664SOL    HW2 8892   4.914   3.475   5.752
 2665SOL     OW 8893   0.986   3.657   4.466
 2665SOL    HW1 8894   0.986   3.756   4.472
 2665SOL    HW2 8895   1.081   3.624   4.464
 2666SOL     OW 8896   1.837   3.908   1.752
 2666SOL    HW1 8897   1.828   3.976   1.680
 2666SOL    HW2 8898   1.809   3.948   1.839
 2667SOL     OW 8899   6.199   2.468   4.604
 2667SOL    HW1 8900   6.275   2.532   4.601
 2667SOL    HW2 8901   6.167   2.459   4.698
 2668SOL     OW 8902   5.658   0.943   4.361
 2668SOL    HW1 8903   5.582   0.880   4.350
 2668SOL    HW2 8904   5.714   0.944   4.278
 2669SOL     OW 8905   2.455   1.429   2.196
 2669SOL    HW1 8906   2.460   1.490   2.117
 2669SOL    HW2 8907   2.523   1.356   2.186
 2670SOL     OW 8908   0.536   0.275   1.262
 2670SOL    HW1 8909   0.511   0.322   1.346
 2670SOL    HW2 8910   0.631   0.244   1.268
 2671SOL     OW 8911   5.446   4.402   6.267
 2671SOL    HW1 8912   5.531   4.441   6.232
 2671SOL    HW2 8913   5.368   4.458   6.238
 2672SOL     OW 8914   2.006   1.638   2.371
 2672SOL    HW1 8915   2.105   1.641   2.362
 2672SOL    HW2 8916   1.981   1.582   2.450
 2673SOL     OW 8917   3.427   0.491   3.294
 2673SOL    HW1 8918   3.459   0.414   3.348
 2673SOL    HW2 8919   3.489   0.507   3.218
 2674SOL     OW 8920   6.199   5.971   3.497
 2674SOL    HW1 8921   6.175   5.875   3.480
 2674SOL    HW2 8922   6.136   6.031   3.448
 2675SOL     OW 8923   4.856   1.123   4.016
 2675SOL    HW1 8924   4.928   1.193   4.021
 2675SOL    HW2 8925   4.827   1.099   4.108
 2676SOL     OW 8926   4.002   3.418   5.413
 2676SOL    HW1 8927   3.990   3.513   5.442
 2676SOL    HW2 8928   4.061   3.415   5.332
 2677SOL     OW 8929   1.562   5.885   1.085
 2677SOL    HW1 8930   1.525   5.972   1.117
 2677SOL    HW2 8931   1.490   5.816   1.082
 2678SOL     OW 8932   3.702   1.944   1.993
 2678SOL    HW1 8933   3.697   2.043   1.996
 2678SOL    HW2 8934   3.628   1.905   2.048
 2679SOL     OW 8935   2.122   3.410   2.458
 2679SOL    HW1 8936   2.059   3.335   2.436
 2679SOL    HW2 8937   2.118   3.430   2.556
 2680SOL     OW 8938   6.053   2.419   6.359
 2680SOL    HW1 8939   5.973   2.406   6.418
 2680SOL    HW2 8940   6.024   2.448   6.268
 2681SOL     OW 8941   2.603   2.418   3.177
 2681SOL    HW1 8942   2.678   2.410   3.243
 2681SOL    HW2 8943   2.632   2.382   3.089
 2682SOL     OW 8944   3.416   4.093   2.750
 2682SOL    HW1 8945   3.485   4.040   2.799
 2682SOL    HW2 8946   3.369   4.153   2.814
 2683SOL     OW 8947   1.811   2.978   1.152
 2683SOL    HW1 8948   1.793   3.073   1.178
 2683SOL    HW2 8949   1.866   2.977   1.069
 2684SOL     OW 8950   5.577   0.702   3.715
 2684SOL    HW1 8951   5.563   0.606   3.693
 2684SOL    HW2 8952   5.503   0.757   3.675
 2685SOL     OW 8953   1.808   6.434   5.625
 2685SOL    HW1 8954   1.904   6.462   5.636
 2685SOL    HW2 8955   1.757   6.507   5.579
 2686SOL     OW 8956   2.307   2.524   5.912
 2686SOL    HW1 8957   2.210   2.549   5.913
 2686SOL    HW2 8958   2.357   2.584   5.975
 2687SOL     OW 8959   3.715   2.501   1.718
 2687SOL    HW1 8960   3.624   2.543   1.714
 2687SOL    HW2 8961   3.715   2.430   1.789
 2688SOL     OW 8962   4.438   2.294   0.346
 2688SOL    HW1 8963   4.341   2.266   0.346
 2688SOL    HW2 8964   4.456   2.352   0.425
 2689SOL     OW 8965   6.863   3.934   2.289
 2689SOL    HW1 8966   6.877   4.033   2.297
 2689SOL    HW2 8967   6.819   3.899   2.372
 2690SOL     OW 8968   5.096   1.059   4.388
 2690SOL    HW1 8969   5.022   1.072   4.454
 2690SOL    HW2 8970   5.164   1.131   4.399
 2691SOL     OW 8971   5.571   3.631   3.887
 2691SOL    HW1 8972   5.626   3.689   3.828
 2691SOL    HW2 8973   5.598   3.535   3.873
 2692SOL     OW 8974   1.511   5.200   1.161
 2692SOL    HW1 8975   1.525   5.289   1.117
 2692SOL    HW2 8976   1.434   5.206   1.224
 2693SOL     OW 8977   0.580   6.061   2.505
 2693SOL    HW1 8978   0.527   6.100   2.580
 2693SOL    HW2 8979   0.670   6.104   2.502
 2694SOL     OW 8980   2.381   0.312   2.728
 2694SOL    HW1 8981   2.419   0.353   2.812
 2694SOL    HW2 8982   2.412   0.218   2.721
 2695SOL     OW 8983   6.532   6.075   3.463
 2695SOL    HW1 8984   6.608   6.011   3.474
 2695SOL    HW2 8985   6.468   6.040   3.395
 2696SOL     OW 8986   3.665   4.537   6.362
 2696SOL    HW1 8987   3.720   4.472   6.415
 2696SOL    HW2 8988   3.607   4.590   6.425
 2697SOL     OW 8989   4.584   2.402   0.622
 2697SOL    HW1 8990   4.608   2.409   0.719
 2697SOL    HW2 8991   4.485   2.389   0.613
 2698SOL     OW 8992   1.529   5.674   0.321
 2698SOL    HW1 8993   1.623   5.658   0.288
 2698SOL    HW2 8994   1.531   5.689   0.420
 2699SOL     OW 8995   2.667   6.804   2.642
 2699SOL    HW1 8996   2.612   6.779   2.721
 2699SOL    HW2 8997   2.732   6.730   2.622
 2700SOL     OW 8998   4.501   2.138   1.750
 2700SOL    HW1 8999   4.497   2.176   1.658
 2700SOL    HW2 9000   4.575   2.071   1.755
 2701SOL     OW 9001   5.294   3.756   5.503
 2701SOL    HW1 9002   5.320   3.842   5.547
 2701SOL    HW2 9003   5.231   3.706   5.562
 2702SOL     OW 9004   1.826   1.976   4.830
 2702SOL    HW1 9005   1.817   2.027   4.915
 2702SOL    HW2 9006   1.734   1.952   4.796
 2703SOL     OW 9007   2.090   6.030   1.713
 2703SOL    HW1 9008   2.174   5.976   1.704
 2703SOL    HW2 9009   2.099   6.114   1.660
 2704SOL     OW 9010   4.275   0.900   3.550
 2704SOL    HW1 9011   4.187   0.901   3.596
 2704SOL    HW2 9012   4.312   0.807   3.549
 2705SOL     OW 9013   1.002   0.016   5.567
 2705SOL    HW1 9014   0.986   6.960   5.506
 2705SOL    HW2 9015   1.078   7.015   5.629
 2706SOL     OW 9016   0.499   4.504   4.366
 2706SOL    HW1 9017   0.497   4.558   4.450
 2706SOL    HW2 9018   0.582   4.448   4.364
 2707SOL     OW 9019   4.128   1.314   3.034
 2707SOL    HW1 9020   4.082   1.227   3.053
 2707SOL    HW2 9021   4.196   1.331   3.105
 2708SOL     OW 9022   5.825   3.328   5.390
 2708SOL    HW1 9023   5.791   3.382   5.466
 2708SOL    HW2 9024   5.871   3.387   5.324
 2709SOL     OW 9025   5.019   1.155   5.463
 2709SOL    HW1 9026   4.926   1.178   5.491
 2709SOL    HW2 9027   5.084   1.196   5.527
 2710SOL     OW 9028   1.116   3.032   4.141
 2710SOL    HW1 9029   1.037   3.053   4.199
 2710SOL    HW2 9030   1.138   3.111   4.084
 2711SOL     OW 9031   4.853   1.063   1.650
 2711SOL    HW1 9032   4.915   1.014   1.588
 2711SOL    HW2 9033   4.761   1.025   1.641
 2712SOL     OW 9034   5.012   6.432   2.059
 2712SOL    HW1 9035   5.029   6.385   1.973
 2712SOL    HW2 9036   5.035   6.529   2.050
 2713SOL     OW 9037   3.874   5.012   5.412
 2713SOL    HW1 9038   3.948   5.031   5.348
 2713SOL    HW2 9039   3.900   4.935   5.470
 2714SOL     OW 9040   2.812   4.755   5.991
 2714SOL    HW1 9041   2.720   4.722   5.974
 2714SOL    HW2 9042   2.843   4.726   6.082
 2715SOL     OW 9043   4.423   6.631   0.221
 2715SOL    HW1 9044   4.482   6.599   0.294
 2715SOL    HW2 9045   4.327   6.612   0.243
 2716SOL     OW 9046   4.786   1.107   2.171
 2716SOL    HW1 9047   4.851   1.090   2.097
 2716SOL    HW2 9048   4.793   1.033   2.238
 2717SOL     OW 9049   0.425   1.780   2.422
 2717SOL    HW1 9050   0.445   1.792   2.325
 2717SOL    HW2 9051   0.348   1.717   2.433
 2718SOL     OW 9052   6.610   1.279   6.210
 2718SOL    HW1 9053   6.608   1.272   6.111
 2718SOL    HW2 9054   6.517   1.267   6.247
 2719SOL     OW 9055   1.010   4.625   3.811
 2719SOL    HW1 9056   0.951   4.705   3.826
 2719SOL    HW2 9057   1.086   4.627   3.876
 2720SOL     OW 9058   1.939   5.428   6.445
 2720SOL    HW1 9059   1.932   5.508   6.504
 2720SOL    HW2 9060   1.877   5.439   6.367
 2721SOL     OW 9061   2.179   6.012   3.652
 2721SOL    HW1 9062   2.181   5.966   3.563
 2721SOL    HW2 9063   2.188   5.944   3.724
 2722SOL     OW 9064   3.396   4.013   6.524
 2722SOL    HW1 9065   3.483   4.019   6.573
 2722SOL    HW2 9066   3.380   4.098   6.474
 2723SOL     OW 9067   4.503   5.400   0.574
 2723SOL    HW1 9068   4.412   5.357   0.577
 2723SOL    HW2 9069   4.541   5.405   0.666
 2724SOL     OW 9070   6.816   6.231   0.919
 2724SOL    HW1 9071   6.841   6.324   0.946
 2724SOL    HW2 9072   6.833   6.219   0.821
 2725SOL     OW 9073   5.892   4.144   2.885
 2725SOL    HW1 9074   5.976   4.101   2.853
 2725SOL    HW2 9075   5.911   4.199   2.966
 2726SOL     OW 9076   6.637   2.805   2.732
 2726SOL    HW1 9077   6.708   2.861   2.775
 2726SOL    HW2 9078   6.594   2.857   2.658
 2727SOL     OW 9079   1.639   4.644   3.947
 2727SOL    HW1 9080   1.598   4.632   3.857
 2727SOL    HW2 9081   1.646   4.556   3.994
 2728SOL     OW 9082   4.700   4.881   5.973
 2728SOL    HW1 9083   4.673   4.890   5.877
 2728SOL    HW2 9084   4.736   4.968   6.006
 2729SOL     OW 9085   0.252   0.302   0.450
 2729SOL    HW1 9086   0.305   0.249   0.517
 2729SOL    HW2 9087   0.167   0.332   0.492
 2730SOL     OW 9088   1.451   5.349   3.119
 2730SOL    HW1 9089   1.416   5.387   3.205
 2730SOL    HW2 9090   1.472   5.253   3.131
 2731SOL     OW 9091   4.326   3.673   5.503
 2731SOL    HW1 9092   4.404   3.701   5.559
 2731SOL    HW2 9093   4.278   3.755   5.470
 2732SOL     OW 9094   4.350   0.702   2.322
 2732SOL    HW1 9095   4.410   0.649   2.381
 2732SOL    HW2 9096   4.403   0.740   2.246
 2733SOL     OW 9097   0.717   0.357   0.792
 2733SOL    HW1 9098   0.619   0.342   0.789
 2733SOL    HW2 9099   0.737   0.432   0.856
 2734SOL     OW 9100   3.264   0.279   1.854
 2734SOL    HW1 9101   3.347   0.322   1.889
 2734SOL    HW2 9102   3.246   0.194   1.904
 2735SOL     OW 9103   0.636   2.472   2.635
 2735SOL    HW1 9104   0.687   2.404   2.688
 2735SOL    HW2 9105   0.663   2.564   2.664
 2736SOL     OW 9106   5.489   4.583   2.503
 2736SOL    HW1 9107   5.420   4.518   2.473
 2736SOL    HW2 9108   5.546   4.542   2.574
 2737SOL     OW 9109   2.564   0.323   6.312
 2737SOL    HW1 9110   2.510   0.303   6.231
 2737SOL    HW2 9111   2.574   0.422   6.321
 2738SOL     OW 9112   5.453   6.349   1.422
 2738SOL    HW1 9113   5.471   6.424   1.486
 2738SOL    HW2 9114   5.388   6.380   1.352
 2739SOL     OW 9115   0.623   5.200   1.661
 2739SOL    HW1 9116   0.677   5.284   1.668
 2739SOL    HW2 9117   0.594   5.171   1.752
 2740SOL     OW 9118   6.814   5.623   5.274
 2740SOL    HW1 9119   6.776   5.619   5.367
 2740SOL    HW2 9120   6.746   5.589   5.209
 2741SOL     OW 9121   0.192   0.008   6.970
 2741SOL    HW1 9122   0.173   6.944   7.017
 2741SOL    HW2 9123   0.200   7.012   6.872
 2742SOL     OW 9124   2.513   4.969   2.232
 2742SOL    HW1 9125   2.462   4.931   2.154
 2742SOL    HW2 9126   2.600   4.922   2.240
 2743SOL     OW 9127   5.802   2.021   2.766
 2743SOL    HW1 9128   5.730   2.088   2.780
 2743SOL    HW2 9129   5.842   1.996   2.855
 2744SOL     OW 9130   2.953   3.684   2.869
 2744SOL    HW1 9131   2.988   3.641   2.952
 2744SOL    HW2 9132   2.854   3.670   2.864
 2745SOL     OW 9133   0.844   6.020   6.867
 2745SOL    HW1 9134   0.849   6.033   6.966
 2745SOL    HW2 9135   0.934   5.992   6.833
 2746SOL     OW 9136   1.544   0.857   4.548
 2746SOL    HW1 9137   1.559   0.839   4.451
 2746SOL    HW2 9138   1.601   0.796   4.602
 2747SOL     OW 9139   5.018   4.980   0.202
 2747SOL    HW1 9140   5.077   5.012   0.128
 2747SOL    HW2 9141   4.975   4.893   0.175
 2748SOL     OW 9142   4.062   0.056   0.566
 2748SOL    HW1 9143   4.079   0.106   0.481
 2748SOL    HW2 9144   4.144   0.005   0.591
 2749SOL     OW 9145   3.508   0.361   0.214
 2749SOL    HW1 9146   3.555   0.309   0.286
 2749SOL    HW2 9147   3.542   0.455   0.212
 2750SOL     OW 9148   1.838   6.168   1.821
 2750SOL    HW1 9149   1.782   6.103   1.872
 2750SOL    HW2 9150   1.928   6.126   1.802
 2751SOL     OW 9151   6.611   5.496   1.715
 2751SOL    HW1 9152   6.679   5.441   1.763
 2751SOL    HW2 9153   6.588   5.452   1.629
 2752SOL     OW 9154   4.351   5.290   6.310
 2752SOL    HW1 9155   4.416   5.221   6.343
 2752SOL    HW2 9156   4.263   5.246   6.290
 2753SOL     OW 9157   4.421   5.052   6.095
 2753SOL    HW1 9158   4.439   5.041   6.193
 2753SOL    HW2 9159   4.370   4.973   6.062
 2754SOL     OW 9160   1.132   0.889   4.812
 2754SOL    HW1 9161   1.183   0.911   4.729
 2754SOL    HW2 9162   1.147   0.793   4.837
 2755SOL     OW 9163   3.374   0.212   2.441
 2755SOL    HW1 9164   3.459   0.180   2.481
 2755SOL    HW2 9165   3.310   0.135   2.434
 2756SOL     OW 9166   4.876   5.109   6.052
 2756SOL    HW1 9167   4.929   5.037   6.096
 2756SOL    HW2 9168   4.919   5.198   6.071
 2757SOL     OW 9169   0.816   4.753   0.587
 2757SOL    HW1 9170   0.777   4.730   0.498
 2757SOL    HW2 9171   0.742   4.773   0.651
 2758SOL     OW 9172   4.714   6.958   6.063
 2758SOL    HW1 9173   4.705   0.035   6.051
 2758SOL    HW2 9174   4.653   6.910   6.000
 2759SOL     OW 9175   4.710   5.013   3.406
 2759SOL    HW1 9176   4.679   4.981   3.495
 2759SOL    HW2 9177   4.654   5.091   3.376
 2760SOL     OW 9178   0.868   6.094   3.580
 2760SOL    HW1 9179   0.961   6.126   3.560
 2760SOL    HW2 9180   0.831   6.145   3.658
 2761SOL     OW 9181   2.579   4.709   4.981
 2761SOL    HW1 9182   2.674   4.714   4.949
 2761SOL    HW2 9183   2.562   4.785   5.044
 2762SOL     OW 9184   1.908   2.351   5.899
 2762SOL    HW1 9185   1.840   2.299   5.950
 2762SOL    HW2 9186   1.934   2.299   5.817
 2763SOL     OW 9187   5.283   6.829   2.295
 2763SOL    HW1 9188   5.214   6.898   2.271
 2763SOL    HW2 9189   5.324   6.852   2.383
 2764SOL     OW 9190   6.265   0.717   1.637
 2764SOL    HW1 9191   6.186   0.690   1.691
 2764SOL    HW2 9192   6.348   0.710   1.693
 2765SOL     OW 9193   5.277   1.689   3.901
 2765SOL    HW1 9194   5.184   1.723   3.884
 2765SOL    HW2 9195   5.284   1.594   3.872
 2766SOL     OW 9196   5.765   6.598   2.501
 2766SOL    HW1 9197   5.760   6.684   2.551
 2766SOL    HW2 9198   5.860   6.578   2.478
 2767SOL     OW 9199   6.413   3.960   5.417
 2767SOL    HW1 9200   6.437   4.010   5.500
 2767SOL    HW2 9201   6.387   3.866   5.440
 2768SOL     OW 9202   5.758   0.677   6.630
 2768SOL    HW1 9203   5.825   0.614   6.670
 2768SOL    HW2 9204   5.744   0.654   6.534
 2769SOL     OW 9205   1.308   3.975   1.112
 2769SOL    HW1 9206   1.308   4.035   1.192
 2769SOL    HW2 9207   1.398   3.933   1.101
 2770SOL     OW 9208   4.899   6.145   2.260
 2770SOL    HW1 9209   4.934   6.235   2.287
 2770SOL    HW2 9210   4.849   6.104   2.335
 2771SOL     OW 9211   4.434   0.482   1.614
 2771SOL    HW1 9212   4.498   0.406   1.620
 2771SOL    HW2 9213   4.476   0.564   1.655
 2772SOL     OW 9214   3.469   0.870   0.232
 2772SOL    HW1 9215   3.450   0.772   0.222
 2772SOL    HW2 9216   3.416   0.907   0.308
 2773SOL     OW 9217   3.013   4.537   1.319
 2773SOL    HW1 9218   2.965   4.495   1.397
 2773SOL    HW2 9219   3.067   4.467   1.272
 2774SOL     OW 9220   4.998   2.947   1.981
 2774SOL    HW1 9221   5.058   2.988   2.050
 2774SOL    HW2 9222   4.903   2.953   2.012
 2775SOL     OW 9223   0.092   6.801   2.574
 2775SOL    HW1 9224   0.002   6.765   2.554
 2775SOL    HW2 9225   0.090   6.901   2.567
 2776SOL     OW 9226   3.157   6.030   7.021
 2776SOL    HW1 9227   3.135   5.938   6.990
 2776SOL    HW2 9228   3.244   6.059   6.981
 2777SOL     OW 9229   1.286   2.558   4.029
 2777SOL    HW1 9230   1.253   2.486   4.091
 2777SOL    HW2 9231   1.347   2.517   3.960
 2778SOL     OW 9232   3.108   2.136   5.339
 2778SOL    HW1 9233   3.118   2.204   5.266
 2778SOL    HW2 9234   3.047   2.063   5.308
 2779SOL     OW 9235   6.200   0.718   0.609
 2779SOL    HW1 9236   6.144   0.713   0.692
 2779SOL    HW2 9237   6.253   0.634   0.600
 2780SOL     OW 9238   3.432   6.150   6.627
 2780SOL    HW1 9239   3.394   6.221   6.686
 2780SOL    HW2 9240   3.532   6.151   6.635
 2781SOL     OW 9241   5.347   4.147   6.698
 2781SOL    HW1 9242   5.384   4.080   6.634
 2781SOL    HW2 9243   5.264   4.188   6.659
 2782SOL     OW 9244   3.594   0.653   5.215
 2782SOL    HW1 9245   3.654   0.684   5.289
 2782SOL    HW2 9246   3.499   0.652   5.248
 2783SOL     OW 9247   0.366   3.975   5.276
 2783SOL    HW1 9248   0.407   3.973   5.367
 2783SOL    HW2 9249   0.357   4.070   5.246
 2784SOL     OW 9250   2.727   1.824   1.585
 2784SOL    HW1 9251   2.790   1.826   1.508
 2784SOL    HW2 9252   2.769   1.870   1.663
 2785SOL     OW 9253   6.178   2.492   2.591
 2785SOL    HW1 9254   6.165   2.538   2.503
 2785SOL    HW2 9255   6.108   2.423   2.603
 2786SOL     OW 9256   3.889   0.306   1.285
 2786SOL    HW1 9257   3.874   0.388   1.341
 2786SOL    HW2 9258   3.806   0.250   1.287
 2787SOL     OW 9259   1.758   4.070   6.038
 2787SOL    HW1 9260   1.707   4.132   5.978
 2787SOL    HW2 9261   1.855   4.096   6.038
 2788SOL     OW 9262   1.261   2.930   0.508
 2788SOL    HW1 9263   1.295   2.896   0.596
 2788SOL    HW2 9264   1.305   2.880   0.434
 2789SOL     OW 9265   0.204   3.414   3.474
 2789SOL    HW1 9266   0.209   3.513   3.457
 2789SOL    HW2 9267   0.126   3.376   3.425
 2790SOL     OW 9268   3.851   6.283   4.646
 2790SOL    HW1 9269   3.786   6.343   4.692
 2790SOL    HW2 9270   3.851   6.193   4.689
 2791SOL     OW 9271   1.944   3.216   2.402
 2791SOL    HW1 9272   1.891   3.218   2.317
 2791SOL    HW2 9273   1.915   3.138   2.457
 2792SOL     OW 9274   0.431   1.808   5.964
 2792SOL    HW1 9275   0.377   1.811   5.880
 2792SOL    HW2 9276   0.484   1.723   5.967
 2793SOL     OW 9277   4.332   0.590   4.407
 2793SOL    HW1 9278   4.353   0.661   4.340
 2793SOL    HW2 9279   4.296   0.509   4.360
 2794SOL     OW 9280   1.031   1.568   1.909
 2794SOL    HW1 9281   0.975   1.602   1.984
 2794SOL    HW2 9282   0.993   1.600   1.822
 2795SOL     OW 9283   0.625   3.640   0.622
 2795SOL    HW1 9284   0.631   3.660   0.720
 2795SOL    HW2 9285   0.529   3.634   0.595
 2796SOL     OW 9286   3.987   4.992   1.878
 2796SOL    HW1 9287   3.962   4.925   1.948
 2796SOL    HW2 9288   3.906   5.046   1.854
 2797SOL     OW 9289   4.656   4.258   5.260
 2797SOL    HW1 9290   4.754   4.241   5.268
 2797SOL    HW2 9291   4.605   4.179   5.296
 2798SOL     OW 9292   1.964   3.578   3.334
 2798SOL    HW1 9293   2.017   3.496   3.315
 2798SOL    HW2 9294   1.928   3.614   3.248
 2799SOL     OW 9295   6.656   5.804   5.697
 2799SOL    HW1 9296   6.568   5.793   5.742
 2799SOL    HW2 9297   6.714   5.866   5.751
 2800SOL     OW 9298   2.649   0.583   6.286
 2800SOL    HW1 9299   2.621   0.659   6.345
 2800SOL    HW2 9300   2.645   0.611   6.190
 2801SOL     OW 9301   3.847   5.210   1.818
 2801SOL    HW1 9302   3.900   5.289   1.850
 2801SOL    HW2 9303   3.805   5.233   1.730
 2802SOL     OW 9304   6.511   0.046   6.441
 2802SOL    HW1 9305   6.589   0.042   6.503
 2802SOL    HW2 9306   6.506   0.137   6.399
 2803SOL     OW 9307   2.489   6.043   4.750
 2803SOL    HW1 9308   2.474   6.033   4.849
 2803SOL    HW2 9309   2.497   5.953   4.709
 2804SOL     OW 9310   0.776   4.946   2.579
 2804SOL    HW1 9311   0.868   4.927   2.545
 2804SOL    HW2 9312   0.751   5.040   2.557
 2805SOL     OW 9313   6.744   3.840   6.665
 2805SOL    HW1 9314   6.795   3.877   6.743
 2805SOL    HW2 9315   6.807   3.820   6.590
 2806SOL     OW 9316   6.178   4.948   2.721
 2806SOL    HW1 9317   6.254   5.005   2.753
 2806SOL    HW2 9318   6.116   5.004   2.666
 2807SOL     OW 9319   3.801   4.850   3.387
 2807SOL    HW1 9320   3.877   4.906   3.354
 2807SOL    HW2 9321   3.751   4.811   3.310
 2808SOL     OW 9322   4.925   6.498   4.716
 2808SOL    HW1 9323   4.915   6.596   4.735
 2808SOL    HW2 9324   4.885   6.446   4.792
 2809SOL     OW 9325   5.314   2.093   0.112
 2809SOL    HW1 9326   5.396   2.036   0.119
 2809SOL    HW2 9327   5.289   2.126   0.204
 2810SOL     OW 9328   2.386   1.068   6.233
 2810SOL    HW1 9329   2.483   1.057   6.256
 2810SOL    HW2 9330   2.339   1.115   6.307
 2811SOL     OW 9331   0.449   0.511   4.034
 2811SOL    HW1 9332   0.523   0.579   4.033
 2811SOL    HW2 9333   0.484   0.423   4.002
 2812SOL     OW 9334   4.736   4.540   2.786
 2812SOL    HW1 9335   4.680   4.525   2.868
 2812SOL    HW2 9336   4.746   4.638   2.770
 2813SOL     OW 9337   6.243   1.803   5.867
 2813SOL    HW1 9338   6.277   1.816   5.960
 2813SOL    HW2 9339   6.218   1.892   5.828
 2814SOL     OW 9340   5.431   4.596   5.423
 2814SOL    HW1 9341   5.473   4.537   5.354
 2814SOL    HW2 9342   5.412   4.686   5.382
 2815SOL     OW 9343   1.466   0.946   3.817
 2815SOL    HW1 9344   1.547   0.978   3.865
 2815SOL    HW2 9345   1.477   0.849   3.794
 2816SOL     OW 9346   4.262   6.218   3.403
 2816SOL    HW1 9347   4.349   6.169   3.394
 2816SOL    HW2 9348   4.219   6.225   3.312
 2817SOL     OW 9349   1.152   1.574   1.393
 2817SOL    HW1 9350   1.198   1.511   1.456
 2817SOL    HW2 9351   1.196   1.568   1.303
 2818SOL     OW 9352   1.416   2.469   6.797
 2818SOL    HW1 9353   1.483   2.447   6.726
 2818SOL    HW2 9354   1.359   2.545   6.766
 2819SOL     OW 9355   6.506   3.286   1.518
 2819SOL    HW1 9356   6.554   3.265   1.433
 2819SOL    HW2 9357   6.546   3.367   1.560
 2820SOL     OW 9358   5.115   3.143   3.918
 2820SOL    HW1 9359   5.175   3.195   3.857
 2820SOL    HW2 9360   5.159   3.133   4.007
 2821SOL     OW 9361   1.306   3.266   2.825
 2821SOL    HW1 9362   1.389   3.210   2.825
 2821SOL    HW2 9363   1.326   3.354   2.782
 2822SOL     OW 9364   3.258   2.416   0.629
 2822SOL    HW1 9365   3.221   2.382   0.542
 2822SOL    HW2 9366   3.337   2.474   0.610
 2823SOL     OW 9367   1.201   0.431   4.303
 2823SOL    HW1 9368   1.289   0.402   4.341
 2823SOL    HW2 9369   1.194   0.400   4.208
 2824SOL     OW 9370   3.627   2.178   6.181
 2824SOL    HW1 9371   3.551   2.160   6.243
 2824SOL    HW2 9372   3.634   2.277   6.164
 2825SOL     OW 9373   5.640   5.754   1.110
 2825SOL    HW1 9374   5.583   5.813   1.168
 2825SOL    HW2 9375   5.737   5.769   1.133
 2826SOL     OW 9376   4.988   3.772   4.395
 2826SOL    HW1 9377   4.925   3.695   4.401
 2826SOL    HW2 9378   5.032   3.773   4.305
 2827SOL     OW 9379   0.010   6.858   6.022
 2827SOL    HW1 9380   6.945   6.850   5.971
 2827SOL    HW2 9381   7.020   6.925   6.095
 2828SOL     OW 9382   3.420   2.204   6.356
 2828SOL    HW1 9383   3.416   2.207   6.456
 2828SOL    HW2 9384   3.328   2.194   6.319
 2829SOL     OW 9385   2.904   1.530   6.889
 2829SOL    HW1 9386   2.882   1.435   6.868
 2829SOL    HW2 9387   2.821   1.585   6.886
 2830SOL     OW 9388   3.204   3.717   6.855
 2830SOL    HW1 9389   3.217   3.815   6.842
 2830SOL    HW2 9390   3.111   3.692   6.828
 2831SOL     OW 9391   6.646   6.558   3.978
 2831SOL    HW1 9392   6.562   6.505   3.966
 2831SOL    HW2 9393   6.636   6.621   4.055
 2832SOL     OW 9394   0.217   0.934   2.170
 2832SOL    HW1 9395   0.206   1.008   2.235
 2832SOL    HW2 9396   0.150   0.862   2.189
 2833SOL     OW 9397   6.113   3.340   2.572
 2833SOL    HW1 9398   6.112   3.257   2.517
 2833SOL    HW2 9399   6.107   3.420   2.512
 2834SOL     OW 9400   4.314   0.817   5.385
 2834SOL    HW1 9401   4.280   0.815   5.479
 2834SOL    HW2 9402   4.266   0.748   5.331
 2835SOL     OW 9403   6.142   6.420   3.185
 2835SOL    HW1 9404   6.140   6.500   3.245
 2835SOL    HW2 9405   6.224   6.366   3.205
 2836SOL     OW 9406   6.400   6.851   1.315
 2836SOL    HW1 9407   6.331   6.856   1.242
 2836SOL    HW2 9408   6.379   6.919   1.385
 2837SOL     OW 9409   5.899   2.412   4.083
 2837SOL    HW1 9410   5.953   2.334   4.117
 2837SOL    HW2 9411   5.904   2.414   3.983
 2838SOL     OW 9412   1.842   4.715   4.495
 2838SOL    HW1 9413   1.827   4.636   4.435
 2838SOL    HW2 9414   1.891   4.686   4.577
 2839SOL     OW 9415   5.247   2.989   0.764
 2839SOL    HW1 9416   5.234   2.895   0.795
 2839SOL    HW2 9417   5.248   2.991   0.664
 2840SOL     OW 9418   0.064   2.681   4.920
 2840SOL    HW1 9419   0.155   2.701   4.957
 2840SOL    HW2 9420   0.056   2.583   4.903
 2841SOL     OW 9421   0.079   6.001   0.063
 2841SOL    HW1 9422   0.024   6.071   0.017
 2841SOL    HW2 9423   0.097   5.926   0.000
 2842SOL     OW 9424   6.143   3.337   2.820
 2842SOL    HW1 9425   6.125   3.345   2.722
 2842SOL    HW2 9426   6.065   3.371   2.871
 2843SOL     OW 9427   4.224   0.664   3.315
 2843SOL    HW1 9428   4.306   0.648   3.370
 2843SOL    HW2 9429   4.224   0.760   3.285
 2844SOL     OW 9430   1.615   4.163   5.171
 2844SOL    HW1 9431   1.714   4.165   5.186
 2844SOL    HW2 9432   1.579   4.075   5.202
 2845SOL     OW 9433   0.530   4.034   6.317
 2845SOL    HW1 9434   0.506   4.011   6.411
 2845SOL    HW2 9435   0.447   4.056   6.266
 2846SOL     OW 9436   5.250   1.266   6.183
 2846SOL    HW1 9437   5.336   1.238   6.224
 2846SOL    HW2 9438   5.183   1.193   6.192
 2847SOL     OW 9439   4.087   4.921   4.291
 2847SOL    HW1 9440   4.165   4.977   4.320
 2847SOL    HW2 9441   4.042   4.883   4.372
 2848SOL     OW 9442   2.404   6.878   5.644
 2848SOL    HW1 9443   2.363   6.808   5.586
 2848SOL    HW2 9444   2.416   6.962   5.591
 2849SOL     OW 9445   2.061   2.699   1.418
 2849SOL    HW1 9446   2.150   2.738   1.441
 2849SOL    HW2 9447   2.055   2.605   1.451
 2850SOL     OW 9448   4.401   1.597   0.865
 2850SOL    HW1 9449   4.467   1.656   0.819
 2850SOL    HW2 9450   4.359   1.647   0.941
 2851SOL     OW 9451   2.952   5.612   5.295
 2851SOL    HW1 9452   2.912   5.665   5.220
 2851SOL    HW2 9453   3.051   5.613   5.287
 2852SOL     OW 9454   0.250   2.213   6.574
 2852SOL    HW1 9455   0.297   2.126   6.559
 2852SOL    HW2 9456   0.152   2.201   6.561
 2853SOL     OW 9457   3.854   2.816   1.496
 2853SOL    HW1 9458   3.831   2.821   1.593
 2853SOL    HW2 9459   3.803   2.885   1.445
 2854SOL     OW 9460   0.521   0.640   3.661
 2854SOL    HW1 9461   0.442   0.639   3.600
 2854SOL    HW2 9462   0.537   0.733   3.694
 2855SOL     OW 9463   3.241   1.741   4.227
 2855SOL    HW1 9464   3.301   1.814   4.259
 2855SOL    HW2 9465   3.191   1.772   4.146
 2856SOL     OW 9466   3.262   1.388   5.685
 2856SOL    HW1 9467   3.184   1.383   5.623
 2856SOL    HW2 9468   3.253   1.317   5.756
 2857SOL     OW 9469   3.774   2.898   4.079
 2857SOL    HW1 9470   3.689   2.928   4.036
 2857SOL    HW2 9471   3.775   2.798   4.088
 2858SOL     OW 9472   5.255   2.854   3.027
 2858SOL    HW1 9473   5.224   2.948   3.040
 2858SOL    HW2 9474   5.197   2.809   2.959
 2859SOL     OW 9475   5.621   5.407   6.624
 2859SOL    HW1 9476   5.709   5.449   6.603
 2859SOL    HW2 9477   5.551   5.440   6.560
 2860SOL     OW 9478   4.541   2.555   1.105
 2860SOL    HW1 9479   4.521   2.474   1.160
 2860SOL    HW2 9480   4.609   2.533   1.036
 2861SOL     OW 9481   4.449   4.577   5.954
 2861SOL    HW1 9482   4.480   4.513   6.025
 2861SOL    HW2 9483   4.470   4.540   5.864
 2862SOL     OW 9484   6.689   6.766   3.488
 2862SOL    HW1 9485   6.719   6.694   3.425
 2862SOL    HW2 9486   6.727   6.748   3.579
 2863SOL     OW 9487   5.769   0.140   0.198
 2863SOL    HW1 9488   5.732   0.188   0.119
 2863SOL    HW2 9489   5.863   0.111   0.179
 2864SOL     OW 9490   4.235   2.192   0.794
 2864SOL    HW1 9491   4.137   2.177   0.808
 2864SOL    HW2 9492   4.284   2.171   0.879
 2865SOL     OW 9493   4.803   4.963   5.008
 2865SOL    HW1 9494   4.822   4.864   5.007
 2865SOL    HW2 9495   4.810   4.999   4.915
 2866SOL     OW 9496   0.076   0.057   6.501
 2866SOL    HW1 9497   0.095   0.155   6.495
 2866SOL    HW2 9498   0.130   0.016   6.575
 2867SOL     OW 9499   6.179   4.077   4.751
 2867SOL    HW1 9500   6.114   4.031   4.689
 2867SOL    HW2 9501   6.151   4.172   4.763
 2868SOL     OW 9502   1.776   4.786   4.851
 2868SOL    HW1 9503   1.855   4.753   4.799
 2868SOL    HW2 9504   1.709   4.712   4.861
 2869SOL     OW 9505   6.062   1.426   2.160
 2869SOL    HW1 9506   5.996   1.354   2.136
 2869SOL    HW2 9507   6.148   1.384   2.188
 2870SOL     OW 9508   4.338   2.335   1.850
 2870SOL    HW1 9509   4.395   2.415   1.868
 2870SOL    HW2 9510   4.396   2.256   1.833
 2871SOL     OW 9511   1.308   1.589   5.788
 2871SOL    HW1 9512   1.250   1.642   5.726
 2871SOL    HW2 9513   1.399   1.630   5.793
 2872SOL     OW 9514   1.649   0.227   3.738
 2872SOL    HW1 9515   1.574   0.268   3.687
 2872SOL    HW2 9516   1.736   0.263   3.706
 2873SOL     OW 9517   6.355   5.514   2.383
 2873SOL    HW1 9518   6.344   5.550   2.290
 2873SOL    HW2 9519   6.287   5.555   2.443
 2874SOL     OW 9520   4.983   2.333   1.943
 2874SOL    HW1 9521   5.072   2.370   1.971
 2874SOL    HW2 9522   4.924   2.326   2.023
 2875SOL     OW 9523   3.142   4.684   0.575
 2875SOL    HW1 9524   3.045   4.666   0.591
 2875SOL    HW2 9525   3.193   4.598   0.584
 2876SOL     OW 9526   5.737   2.193   2.081
 2876SOL    HW1 9527   5.751   2.255   2.004
 2876SOL    HW2 9528   5.825   2.152   2.107
 2877SOL     OW 9529   1.304   3.590   5.461
 2877SOL    HW1 9530   1.368   3.527   5.418
 2877SOL    HW2 9531   1.351   3.641   5.534
 2878SOL     OW 9532   4.493   4.953   0.354
 2878SOL    HW1 9533   4.501   5.050   0.378
 2878SOL    HW2 9534   4.542   4.936   0.269
 2879SOL     OW 9535   5.014   4.661   6.879
 2879SOL    HW1 9536   4.933   4.617   6.917
 2879SOL    HW2 9537   4.993   4.699   6.789
 2880SOL     OW 9538   1.736   6.337   3.330
 2880SOL    HW1 9539   1.688   6.285   3.259
 2880SOL    HW2 9540   1.833   6.315   3.328
 2881SOL     OW 9541   6.779   0.175   0.094
 2881SOL    HW1 9542   6.862   0.136   0.133
 2881SOL    HW2 9543   6.722   0.103   0.056
 2882SOL     OW 9544   6.583   3.926   3.353
 2882SOL    HW1 9545   6.653   3.997   3.359
 2882SOL    HW2 9546   6.609   3.849   3.411
 2883SOL     OW 9547   3.479   6.671   2.382
 2883SOL    HW1 9548   3.388   6.698   2.350
 2883SOL    HW2 9549   3.509   6.732   2.455
 2884SOL     OW 9550   2.028   4.993   3.227
 2884SOL    HW1 9551   2.016   4.926   3.153
 2884SOL    HW2 9552   2.043   5.083   3.188
 2885SOL     OW 9553   1.183   1.985   4.787
 2885SOL    HW1 9554   1.231   1.942   4.711
 2885SOL    HW2 9555   1.167   2.082   4.766
 2886SOL     OW 9556   2.416   2.685   6.124
 2886SOL    HW1 9557   2.486   2.640   6.180
 2886SOL    HW2 9558   2.326   2.671   6.167
 2887SOL     OW 9559   2.441   0.981   5.157
 2887SOL    HW1 9560   2.518   0.981   5.221
 2887SOL    HW2 9561   2.469   1.024   5.071
 2888SOL     OW 9562   6.846   5.809   6.527
 2888SOL    HW1 9563   6.919   5.855   6.477
 2888SOL    HW2 9564   6.825   5.722   6.482
 2889SOL     OW 9565   1.305   0.962   0.812
 2889SOL    HW1 9566   1.367   1.024   0.763
 2889SOL    HW2 9567   1.287   0.998   0.903
 2890SOL     OW 9568   2.349   0.335   0.899
 2890SOL    HW1 9569   2.353   0.267   0.825
 2890SOL    HW2 9570   2.440   0.373   0.914
 2891SOL     OW 9571   3.051   4.851   5.062
 2891SOL    HW1 9572   3.004   4.785   5.004
 2891SOL    HW2 9573   3.096   4.804   5.137
 2892SOL     OW 9574   4.198   3.900   5.444
 2892SOL    HW1 9575   4.260   3.977   5.455
 2892SOL    HW2 9576   4.125   3.923   5.379
 2893SOL     OW 9577   3.214   0.521   5.003
 2893SOL    HW1 9578   3.215   0.601   5.063
 2893SOL    HW2 9579   3.161   0.542   4.921
 2894SOL     OW 9580   4.217   3.211   1.850
 2894SOL    HW1 9581   4.220   3.311   1.848
 2894SOL    HW2 9582   4.283   3.174   1.785
 2895SOL     OW 9583   3.687   2.743   0.417
 2895SOL    HW1 9584   3.626   2.766   0.341
 2895SOL    HW2 9585   3.632   2.729   0.500
 2896SOL     OW 9586   1.544   4.734   0.400
 2896SOL    HW1 9587   1.521   4.647   0.443
 2896SOL    HW2 9588   1.634   4.764   0.432
 2897SOL     OW 9589   0.592   6.760   3.234
 2897SOL    HW1 9590   0.636   6.841   3.272
 2897SOL    HW2 9591   0.586   6.768   3.134
 2898SOL     OW 9592   1.814   5.120   2.689
 2898SOL    HW1 9593   1.854   5.146   2.602
 2898SOL    HW2 9594   1.730   5.172   2.705
 2899SOL     OW 9595   5.453   0.834   0.959
 2899SOL    HW1 9596   5.376   0.891   0.990
 2899SOL    HW2 9597   5.484   0.777   1.035
 2900SOL     OW 9598   2.669   5.337   6.247
 2900SOL    HW1 9599   2.733   5.398   6.199
 2900SOL    HW2 9600   2.718   5.288   6.319
 2901SOL     OW 9601   2.800   6.489   1.517
 2901SOL    HW1 9602   2.833   6.515   1.426
 2901SOL    HW2 9603   2.876   6.459   1.574
 2902SOL     OW 9604   4.718   5.404   1.123
 2902SOL    HW1 9605   4.773   5.321   1.110
 2902SOL    HW2 9606   4.776   5.476   1.160
 2903SOL     OW 9607   3.151   2.520   1.729
 2903SOL    HW1 9608   3.068   2.499   1.780
 2903SOL    HW2 9609   3.187   2.437   1.688
 2904SOL     OW 9610   2.855   1.961   4.435
 2904SOL    HW1 9611   2.938   1.971   4.491
 2904SOL    HW2 9612   2.816   2.051   4.417
 2905SOL     OW 9613   0.715   2.292   2.089
 2905SOL    HW1 9614   0.631   2.337   2.119
 2905SOL    HW2 9615   0.780   2.290   2.164
 2906SOL     OW 9616   5.299   4.941   2.284
 2906SOL    HW1 9617   5.317   4.940   2.382
 2906SOL    HW2 9618   5.204   4.915   2.268
 2907SOL     OW 9619   5.545   0.526   5.100
 2907SOL    HW1 9620   5.457   0.569   5.081
 2907SOL    HW2 9621   5.597   0.519   5.014
 2908SOL     OW 9622   4.197   6.101   4.821
 2908SOL    HW1 9623   4.223   6.162   4.747
 2908SOL    HW2 9624   4.153   6.019   4.783
 2909SOL     OW 9625   2.270   6.005   5.775
 2909SOL    HW1 9626   2.227   5.954   5.701
 2909SOL    HW2 9627   2.359   6.038   5.745
 2910SOL     OW 9628   4.263   5.552   5.228
 2910SOL    HW1 9629   4.238   5.494   5.305
 2910SOL    HW2 9630   4.181   5.592   5.188
 2911SOL     OW 9631   2.389   4.387   3.205
 2911SOL    HW1 9632   2.404   4.426   3.115
 2911SOL    HW2 9633   2.369   4.290   3.197
 2912SOL     OW 9634   2.800   5.183   1.556
 2912SOL    HW1 9635   2.700   5.195   1.553
 2912SOL    HW2 9636   2.821   5.085   1.562
 2913SOL     OW 9637   0.123   2.671   1.163
 2913SOL    HW1 9638   0.128   2.606   1.238
 2913SOL    HW2 9639   0.197   2.653   1.098
 2914SOL     OW 9640   4.967   4.394   6.348
 2914SOL    HW1 9641   4.938   4.376   6.442
 2914SOL    HW2 9642   5.011   4.313   6.310
 2915SOL     OW 9643   4.810   1.241   3.022
 2915SOL    HW1 9644   4.746   1.165   3.012
 2915SOL    HW2 9645   4.856   1.257   2.934
 2916SOL     OW 9646   4.843   0.267   4.324
 2916SOL    HW1 9647   4.812   0.202   4.394
 2916SOL    HW2 9648   4.926   0.231   4.280
 2917SOL     OW 9649   4.053   0.140   2.236
 2917SOL    HW1 9650   4.079   0.209   2.168
 2917SOL    HW2 9651   4.083   0.169   2.326
 2918SOL     OW 9652   1.173   3.184   4.557
 2918SOL    HW1 9653   1.176   3.086   4.575
 2918SOL    HW2 9654   1.118   3.201   4.475
 2919SOL     OW 9655   5.508   5.773   6.991
 2919SOL    HW1 9656   5.608   5.781   6.987
 2919SOL    HW2 9657   5.476   5.789   0.063
 2920SOL     OW 9658   4.648   1.136   2.773
 2920SOL    HW1 9659   4.555   1.131   2.810
 2920SOL    HW2 9660   4.655   1.214   2.711
 2921SOL     OW 9661   6.449   1.593   0.878
 2921SOL    HW1 9662   6.432   1.673   0.821
 2921SOL    HW2 9663   6.373   1.529   0.869
 2922SOL     OW 9664   4.553   0.227   4.852
 2922SOL    HW1 9665   4.608   0.234   4.769
 2922SOL    HW2 9666   4.483   0.157   4.839
 2923SOL     OW 9667   0.435   4.454   6.786
 2923SOL    HW1 9668   0.351   4.496   6.753
 2923SOL    HW2 9669   0.440   4.360   6.754
 2924SOL     OW 9670   6.331   6.890   6.299
 2924SOL    HW1 9671   6.404   6.945   6.340
 2924SOL    HW2 9672   6.347   6.793   6.317
 2925SOL     OW 9673   6.426   4.500   0.194
 2925SOL    HW1 9674   6.417   4.463   0.286
 2925SOL    HW2 9675   6.336   4.500   0.149
 2926SOL     OW 9676   0.092   1.396   2.666
 2926SOL    HW1 9677   0.014   1.402   2.603
 2926SOL    HW2 9678   0.061   1.355   2.752
 2927SOL     OW 9679   6.848   3.570   2.936
 2927SOL    HW1 9680   6.860   3.583   2.838
 2927SOL    HW2 9681   6.751   3.557   2.956
 2928SOL     OW 9682   5.488   5.976   0.866
 2928SOL    HW1 9683   5.553   5.905   0.892
 2928SOL    HW2 9684   5.419   5.938   0.805
 2929SOL     OW 9685   0.640   0.379   5.343
 2929SOL    HW1 9686   0.626   0.420   5.253
 2929SOL    HW2 9687   0.730   0.402   5.377
 2930SOL     OW 9688   2.632   0.508   4.073
 2930SOL    HW1 9689   2.565   0.582   4.078
 2930SOL    HW2 9690   2.720   0.545   4.043
 2931SOL     OW 9691   4.400   4.738   6.361
 2931SOL    HW1 9692   4.384   4.760   6.458
 2931SOL    HW2 9693   4.313   4.710   6.319
 2932SOL     OW 9694   1.044   4.571   1.595
 2932SOL    HW1 9695   1.097   4.488   1.582
 2932SOL    HW2 9696   0.988   4.563   1.678
 2933SOL     OW 9697   4.916   2.347   3.500
 2933SOL    HW1 9698   4.995   2.365   3.441
 2933SOL    HW2 9699   4.838   2.321   3.443
 2934SOL     OW 9700   2.080   1.174   1.089
 2934SOL    HW1 9701   2.028   1.174   1.003
 2934SOL    HW2 9702   2.016   1.172   1.166
 2935SOL     OW 9703   6.972   0.920   1.209
 2935SOL    HW1 9704   6.919   0.837   1.226
 2935SOL    HW2 9705   6.914   1.000   1.225
 2936SOL     OW 9706   3.681   4.898   1.251
 2936SOL    HW1 9707   3.758   4.835   1.236
 2936SOL    HW2 9708   3.608   4.878   1.187
 2937SOL     OW 9709   2.636   4.295   0.061
 2937SOL    HW1 9710   2.564   4.353   0.099
 2937SOL    HW2 9711   2.622   4.201   0.092
 2938SOL     OW 9712   4.271   5.128   6.903
 2938SOL    HW1 9713   4.303   5.158   6.993
 2938SOL    HW2 9714   4.192   5.067   6.915
 2939SOL     OW 9715   6.979   6.545   5.953
 2939SOL    HW1 9716   0.004   6.627   5.922
 2939SOL    HW2 9717   7.013   6.465   5.903
 2940SOL     OW 9718   3.828   6.987   5.549
 2940SOL    HW1 9719   3.749   0.023   5.568
 2940SOL    HW2 9720   3.889   0.012   5.484
 2941SOL     OW 9721   3.955   1.533   5.336
 2941SOL    HW1 9722   3.902   1.569   5.413
 2941SOL    HW2 9723   4.007   1.454   5.365
 2942SOL     OW 9724   3.385   6.651   4.201
 2942SOL    HW1 9725   3.395   6.733   4.145
 2942SOL    HW2 9726   3.466   6.593   4.189
 2943SOL     OW 9727   5.704   4.657   2.789
 2943SOL    HW1 9728   5.649   4.600   2.851
 2943SOL    HW2 9729   5.747   4.598   2.720
 2944SOL     OW 9730   5.250   5.964   0.353
 2944SOL    HW1 9731   5.166   6.000   0.395
 2944SOL    HW2 9732   5.322   6.032   0.360
 2945SOL     OW 9733   3.069   3.510   4.511
 2945SOL    HW1 9734   3.131   3.564   4.567
 2945SOL    HW2 9735   3.034   3.433   4.565
 2946SOL     OW 9736   1.114   6.281   5.263
 2946SOL    HW1 9737   1.075   6.224   5.190
 2946SOL    HW2 9738   1.214   6.281   5.255
 2947SOL     OW 9739   6.968   5.374   6.592
 2947SOL    HW1 9740   0.036   5.385   6.635
 2947SOL    HW2 9741   6.904   5.438   6.633
 2948SOL     OW 9742   6.346   3.246   5.585
 2948SOL    HW1 9743   6.423   3.292   5.628
 2948SOL    HW2 9744   6.342   3.269   5.488
 2949SOL     OW 9745   0.665   6.580   0.556
 2949SOL    HW1 9746   0.710   6.560   0.469
 2949SOL    HW2 9747   0.716   6.535   0.630
 2950SOL     OW 9748   4.928   3.381   5.103
 2950SOL    HW1 9749   4.851   3.347   5.158
 2950SOL    HW2 9750   4.919   3.348   5.009
 2951SOL     OW 9751   5.754   0.483   0.206
 2951SOL    HW1 9752   5.754   0.383   0.204
 2951SOL    HW2 9753   5.789   0.515   0.294
 2952SOL     OW 9754   0.577   3.198   1.810
 2952SOL    HW1 9755   0.560   3.103   1.782
 2952SOL    HW2 9756   0.568   3.204   1.910
 2953SOL     OW 9757   5.736   1.809   2.037
 2953SOL    HW1 9758   5.734   1.778   2.132
 2953SOL    HW2 9759   5.767   1.734   1.978
 2954SOL     OW 9760   5.006   6.074   2.028
 2954SOL    HW1 9761   4.965   5.992   1.989
 2954SOL    HW2 9762   4.970   6.089   2.120
 2955SOL     OW 9763   6.099   1.762   1.202
 2955SOL    HW1 9764   6.028   1.720   1.259
 2955SOL    HW2 9765   6.185   1.713   1.215
 2956SOL     OW 9766   5.671   6.219   3.890
 2956SOL    HW1 9767   5.655   6.288   3.961
 2956SOL    HW2 9768   5.584   6.197   3.845
 2957SOL     OW 9769   1.656   4.667   1.755
 2957SOL    HW1 9770   1.593   4.728   1.707
 2957SOL    HW2 9771   1.670   4.700   1.848
 2958SOL     OW 9772   2.858   4.760   6.255
 2958SOL    HW1 9773   2.943   4.729   6.298
 2958SOL    HW2 9774   2.781   4.742   6.316
 2959SOL     OW 9775   3.700   5.110   0.158
 2959SOL    HW1 9776   3.611   5.130   0.200
 2959SOL    HW2 9777   3.773   5.130   0.223
 2960SOL     OW 9778   2.759   1.822   0.373
 2960SOL    HW1 9779   2.793   1.729   0.355
 2960SOL    HW2 9780   2.672   1.816   0.422
 2961SOL     OW 9781   5.697   1.297   4.231
 2961SOL    HW1 9782   5.762   1.272   4.160
 2961SOL    HW2 9783   5.711   1.239   4.311
 2962SOL     OW 9784   4.729   0.171   2.798
 2962SOL    HW1 9785   4.799   0.243   2.804
 2962SOL    HW2 9786   4.740   0.121   2.713
 2963SOL     OW 9787   2.198   3.317   5.067
 2963SOL    HW1 9788   2.168   3.252   5.136
 2963SOL    HW2 9789   2.212   3.270   4.980
 2964SOL     OW 9790   2.893   6.070   0.634
 2964SOL    HW1 9791   2.915   6.118   0.719
 2964SOL    HW2 9792   2.834   6.129   0.577
 2965SOL     OW 9793   0.598   3.151   6.395
 2965SOL    HW1 9794   0.648   3.066   6.413
 2965SOL    HW2 9795   0.519   3.132   6.337
 2966SOL     OW 9796   4.614   5.266   3.332
 2966SOL    HW1 9797   4.552   5.292   3.257
 2966SOL    HW2 9798   4.690   5.330   3.335
 2967SOL     OW 9799   5.965   2.536   4.399
 2967SOL    HW1 9800   5.977   2.493   4.309
 2967SOL    HW2 9801   6.040   2.509   4.459
 2968SOL     OW 9802   6.533   4.269   3.448
 2968SOL    HW1 9803   6.553   4.228   3.536
 2968SOL    HW2 9804   6.521   4.368   3.458
 2969SOL     OW 9805   3.356   1.421   5.020
 2969SOL    HW1 9806   3.283   1.478   5.057
 2969SOL    HW2 9807   3.326   1.378   4.936
 2970SOL     OW 9808   0.976   4.210   5.868
 2970SOL    HW1 9809   0.924   4.125   5.862
 2970SOL    HW2 9810   0.991   4.233   5.964
 2971SOL     OW 9811   5.816   3.403   1.913
 2971SOL    HW1 9812   5.817   3.310   1.948
 2971SOL    HW2 9813   5.906   3.445   1.925
 2972SOL     OW 9814   0.618   4.216   4.430
 2972SOL    HW1 9815   0.540   4.169   4.472
 2972SOL    HW2 9816   0.604   4.223   4.332
 2973SOL     OW 9817   6.284   0.172   3.933
 2973SOL    HW1 9818   6.256   0.210   4.021
 2973SOL    HW2 9819   6.376   0.134   3.941
 2974SOL     OW 9820   6.520   4.285   0.790
 2974SOL    HW1 9821   6.486   4.357   0.851
 2974SOL    HW2 9822   6.484   4.197   0.820
 2975SOL     OW 9823   6.407   1.345   3.925
 2975SOL    HW1 9824   6.335   1.384   3.869
 2975SOL    HW2 9825   6.457   1.418   3.971
 2976SOL     OW 9826   2.502   5.764   1.329
 2976SOL    HW1 9827   2.461   5.856   1.333
 2976SOL    HW2 9828   2.578   5.758   1.393
 2977SOL     OW 9829   2.974   0.032   3.530
 2977SOL    HW1 9830   2.954   6.970   3.581
 2977SOL    HW2 9831   3.004   0.103   3.594
 2978SOL     OW 9832   2.072   0.189   6.747
 2978SOL    HW1 9833   2.087   0.093   6.771
 2978SOL    HW2 9834   2.128   0.247   6.806
 2979SOL     OW 9835   2.707   1.484   3.437
 2979SOL    HW1 9836   2.626   1.465   3.381
 2979SOL    HW2 9837   2.703   1.429   3.521
 2980SOL     OW 9838   5.961   6.995   3.206
 2980SOL    HW1 9839   6.002   0.060   3.234
 2980SOL    HW2 9840   6.032   6.938   3.163
 2981SOL     OW 9841   1.785   1.515   5.905
 2981SOL    HW1 9842   1.760   1.610   5.890
 2981SOL    HW2 9843   1.878   1.499   5.873
 2982SOL     OW 9844   4.923   5.633   2.091
 2982SOL    HW1 9845   5.015   5.673   2.092
 2982SOL    HW2 9846   4.923   5.552   2.033
 2983SOL     OW 9847   0.702   1.091   2.557
 2983SOL    HW1 9848   0.664   1.182   2.572
 2983SOL    HW2 9849   0.708   1.043   2.645
 2984SOL     OW 9850   6.062   4.792   1.547
 2984SOL    HW1 9851   6.140   4.855   1.543
 2984SOL    HW2 9852   6.048   4.763   1.641
 2985SOL     OW 9853   6.254   2.409   3.276
 2985SOL    HW1 9854   6.266   2.445   3.369
 2985SOL    HW2 9855   6.193   2.330   3.279
 2986SOL     OW 9856   1.503   3.452   5.042
 2986SOL    HW1 9857   1.577   3.514   5.068
 2986SOL    HW2 9858   1.424   3.467   5.102
 2987SOL     OW 9859   5.253   1.850   5.069
 2987SOL    HW1 9860   5.336   1.859   5.125
 2987SOL    HW2 9861   5.274   1.872   4.974
 2988SOL     OW 9862   0.844   0.574   2.741
 2988SOL    HW1 9863   0.798   0.490   2.712
 2988SOL    HW2 9864   0.880   0.621   2.661
 2989SOL     OW 9865   6.834   5.396   0.553
 2989SOL    HW1 9866   6.788   5.482   0.577
 2989SOL    HW2 9867   6.800   5.363   0.466
 2990SOL     OW 9868   2.886   1.336   1.396
 2990SOL    HW1 9869   2.788   1.358   1.395
 2990SOL    HW2 9870   2.934   1.400   1.456
 2991SOL     OW 9871   6.324   4.546   6.861
 2991SOL    HW1 9872   6.424   4.544   6.864
 2991SOL    HW2 9873   6.292   4.492   6.783
 2992SOL     OW 9874   4.366   4.320   6.926
 2992SOL    HW1 9875   4.296   4.391   6.920
 2992SOL    HW2 9876   4.358   4.259   6.846
 2993SOL     OW 9877   1.418   4.327   6.966
 2993SOL    HW1 9878   1.446   4.339   6.871
 2993SOL    HW2 9879   1.408   4.416   7.010
 2994SOL     OW 9880   4.527   6.524   6.889
 2994SOL    HW1 9881   4.495   6.429   6.882
 2994SOL    HW2 9882   4.550   6.558   6.798
 2995SOL     OW 9883   2.670   0.593   5.752
 2995SOL    HW1 9884   2.671   0.692   5.736
 2995SOL    HW2 9885   2.576   0.561   5.758
 2996SOL     OW 9886   4.526   6.555   6.116
 2996SOL    HW1 9887   4.615   6.596   6.138
 2996SOL    HW2 9888   4.476   6.536   6.200
 2997SOL     OW 9889   3.655   5.600   0.488
 2997SOL    HW1 9890   3.667   5.686   0.439
 2997SOL    HW2 9891   3.615   5.618   0.578
 2998SOL     OW 9892   6.327   3.782   5.893
 2998SOL    HW1 9893   6.423   3.806   5.878
 2998SOL    HW2 9894   6.281   3.857   5.941
 2999SOL     OW 9895   2.424   1.535   1.911
 2999SOL    HW1 9896   2.501   1.477   1.886
 2999SOL    HW2 9897   2.338   1.485   1.896
 3000SOL     OW 9898   1.568   1.955   4.752
 3000SOL    HW1 9899   1.500   1.968   4.679
 3000SOL    HW2 9900   1.533   1.992   4.837
 3001SOL     OW 9901   4.910   6.110   5.633
 3001SOL    HW1 9902   4.932   6.165   5.552
 3001SOL    HW2 9903   4.879   6.019   5.605
 3002SOL     OW 9904   3.028   0.282   5.105
 3002SOL    HW1 9905   2.985   0.334   5.179
 3002SOL    HW2 9906   3.106   0.333   5.069
 3003SOL     OW 9907   1.536   7.018   5.834
 3003SOL    HW1 9908   1.463   6.990   5.897
 3003SOL    HW2 9909   1.515   6.984   5.742
 3004SOL     OW 9910   6.880   2.613   5.801
 3004SOL    HW1 9911   6.928   2.697   5.826
 3004SOL    HW2 9912   6.928   2.535   5.841
 3005SOL     OW 9913   5.091   1.848   0.658
 3005SOL    HW1 9914   5.013   1.903   0.625
 3005SOL    HW2 9915   5.065   1.751   0.660
 3006SOL     OW 9916   4.351   6.629   2.032
 3006SOL    HW1 9917   4.397   6.683   2.102
 3006SOL    HW2 9918   4.267   6.591   2.071
 3007SOL     OW 9919   5.984   5.226   1.720
 3007SOL    HW1 9920   5.955   5.300   1.781
 3007SOL    HW2 9921   5.972   5.254   1.625
 3008SOL     OW 9922   4.563   5.268   5.579
 3008SOL    HW1 9923   4.567   5.215   5.663
 3008SOL    HW2 9924   4.655   5.276   5.540
 3009SOL     OW 9925   1.279   0.433   2.443
 3009SOL    HW1 9926   1.331   0.365   2.391
 3009SOL    HW2 9927   1.218   0.483   2.382
 3010SOL     OW 9928   3.159   0.370   3.566
 3010SOL    HW1 9929   3.233   0.315   3.527
 3010SOL    HW2 9930   3.107   0.314   3.631
 3011SOL     OW 9931   5.148   0.287   0.792
 3011SOL    HW1 9932   5.167   0.374   0.747
 3011SOL    HW2 9933   5.227   0.227   0.783
 3012SOL     OW 9934   0.125   5.723   1.181
 3012SOL    HW1 9935   0.148   5.670   1.099
 3012SOL    HW2 9936   0.090   5.662   1.252
 3013SOL     OW 9937   5.962   4.782   1.866
 3013SOL    HW1 9938   5.870   4.746   1.880
 3013SOL    HW2 9939   5.959   4.882   1.867
 3014SOL     OW 9940   5.674   6.133   5.278
 3014SOL    HW1 9941   5.726   6.047   5.281
 3014SOL    HW2 9942   5.693   6.187   5.360
 3015SOL     OW 9943   3.015   1.195   0.386
 3015SOL    HW1 9944   3.005   1.185   0.287
 3015SOL    HW2 9945   3.105   1.232   0.407
 3016SOL     OW 9946   4.219   6.106   4.074
 3016SOL    HW1 9947   4.149   6.045   4.112
 3016SOL    HW2 9948   4.307   6.088   4.118
 3017SOL     OW 9949   0.898   6.322   1.792
 3017SOL    HW1 9950   0.842   6.247   1.826
 3017SOL    HW2 9951   0.955   6.289   1.717
 3018SOL     OW 9952   4.593   6.805   5.866
 3018SOL    HW1 9953   4.563   6.710   5.858
 3018SOL    HW2 9954   4.632   6.835   5.779
 3019SOL     OW 9955   4.761   0.727   1.540
 3019SOL    HW1 9956   4.754   0.821   1.508
 3019SOL    HW2 9957   4.676   0.702   1.587
 3020SOL     OW 9958   1.717   0.763   1.808
 3020SOL    HW1 9959   1.710   0.703   1.728
 3020SOL    HW2 9960   1.710   0.858   1.779
 3021SOL     OW 9961   4.377   0.912   6.465
 3021SOL    HW1 9962   4.403   0.839   6.402
 3021SOL    HW2 9963   4.277   0.921   6.466
 3022SOL     OW 9964   0.271   0.536   3.234
 3022SOL    HW1 9965   0.326   0.539   3.151
 3022SOL    HW2 9966   0.189   0.592   3.222
 3023SOL     OW 9967   5.571   0.234   1.541
 3023SOL    HW1 9968   5.533   0.322   1.569
 3023SOL    HW2 9969   5.663   0.247   1.504
 3024SOL     OW 9970   2.083   6.908   6.734
 3024SOL    HW1 9971   2.167   6.897   6.787
 3024SOL    HW2 9972   2.067   6.825   6.681
 3025SOL     OW 9973   1.848   2.406   1.658
 3025SOL    HW1 9974   1.770   2.467   1.645
 3025SOL    HW2 9975   1.918   2.427   1.589
 3026SOL     OW 9976   2.835   5.811   0.645
 3026SOL    HW1 9977   2.741   5.808   0.678
 3026SOL    HW2 9978   2.864   5.906   0.633
 3027SOL     OW 9979   1.429   1.662   3.775
 3027SOL    HW1 9980   1.332   1.679   3.758
 3027SOL    HW2 9981   1.468   1.616   3.696
 3028SOL     OW 9982   1.133   0.656   4.461
 3028SOL    HW1 9983   1.120   0.743   4.414
 3028SOL    HW2 9984   1.153   0.584   4.394
 3029SOL     OW 9985   6.088   4.954   5.974
 3029SOL    HW1 9986   6.166   4.895   5.955
 3029SOL    HW2 9987   6.027   4.909   6.039
 3030SOL     OW 9988   0.907   0.428   5.410
 3030SOL    HW1 9989   0.933   0.471   5.497
 3030SOL    HW2 9990   0.872   0.498   5.348
 3031SOL     OW 9991   7.010   5.973   6.364
 3031SOL    HW1 9992   0.060   5.906   6.343
 3031SOL    HW2 9993   6.982   6.019   6.280
 3032SOL     OW 9994   3.723   6.657   6.126
 3032SOL    HW1 9995   3.658   6.637   6.053
 3032SOL    HW2 9996   3.673   6.681   6.209
 3033SOL     OW 9997   4.816   4.529   6.165
 3033SOL    HW1 9998   4.740   4.591   6.182
 3033SOL    HW2 9999   4.849   4.492   6.252
 3034SOL     OW10000   2.413   6.970   4.680
 3034SOL    HW110001   2.510   6.953   4.698
 3034SOL    HW210002   2.400   6.994   4.584
 3035SOL     OW10003   6.021   0.070   0.148
 3035SOL    HW110004   6.049   7.001   0.178
 3035SOL    HW210005   6.068   0.140   0.203
 3036SOL     OW10006   0.725   5.198   5.520
 3036SOL    HW110007   0.636   5.236   5.493
 3036SOL    HW210008   0.738   5.110   5.474
 3037SOL     OW10009   5.387   6.484   6.215
 3037SOL    HW110010   5.421   6.454   6.304
 3037SOL    HW210011   5.392   6.583   6.209
 3038SOL     OW10012   5.774   5.875   5.655
 3038SOL    HW110013   5.701   5.813   5.683
 3038SOL    HW210014   5.847   5.824   5.610
 3039SOL     OW10015   0.389   5.340   0.525
 3039SOL    HW110016   0.458   5.269   0.508
 3039SOL    HW210017   0.313   5.327   0.461
 3040SOL     OW10018   2.702   1.196   0.192
 3040SOL    HW110019   2.655   1.197   0.104
 3040SOL    HW210020   2.753   1.281   0.204
 3041SOL     OW10021   1.682   2.223   6.019
 3041SOL    HW110022   1.702   2.129   5.989
 3041SOL    HW210023   1.655   2.222   6.115
 3042SOL     OW10024   5.873   0.299   1.177
 3042SOL    HW110025   5.812   0.231   1.218
 3042SOL    HW210026   5.956   0.255   1.144
 3043SOL     OW10027   0.124   5.545   6.393
 3043SOL    HW110028   0.180   5.469   6.361
 3043SOL    HW210029   0.166   5.586   6.474
 3044SOL     OW10030   2.448   3.259   6.537
 3044SOL    HW110031   2.496   3.171   6.533
 3044SOL    HW210032   2.384   3.265   6.461
 3045SOL     OW10033   4.756   2.519   4.646
 3045SOL    HW110034   4.746   2.542   4.549
 3045SOL    HW210035   4.667   2.491   4.683
 3046SOL     OW10036   2.400   2.324   6.215
 3046SOL    HW110037   2.358   2.287   6.133
 3046SOL    HW210038   2.345   2.399   6.250
 3047SOL     OW10039   0.080   5.447   1.945
 3047SOL    HW110040   0.100   5.376   1.879
 3047SOL    HW210041   0.138   5.435   2.026
 3048SOL     OW10042   3.641   2.862   2.192
 3048SOL    HW110043   3.592   2.869   2.105
 3048SOL    HW210044   3.689   2.774   2.195
 3049SOL     OW10045   1.070   0.659   0.842
 3049SOL    HW110046   1.013   0.601   0.785
 3049SOL    HW210047   1.037   0.659   0.936
 3050SOL     OW10048   1.393   0.544   3.925
 3050SOL    HW110049   1.485   0.508   3.918
 3050SOL    HW210050   1.395   0.636   3.965
 3051SOL     OW10051   2.856   4.953   5.758
 3051SOL    HW110052   2.859   4.898   5.841
 3051SOL    HW210053   2.905   4.904   5.685
 3052SOL     OW10054   5.003   6.190   2.653
 3052SOL    HW110055   4.940   6.255   2.611
 3052SOL    HW210056   4.996   6.197   2.753
 3053SOL     OW10057   3.844   6.782   1.948
 3053SOL    HW110058   3.763   6.742   1.905
 3053SOL    HW210059   3.884   6.717   2.013
 3054SOL     OW10060   1.714   4.185   5.610
 3054SOL    HW110061   1.733   4.284   5.612
 3054SOL    HW210062   1.799   4.135   5.628
 3055SOL     OW10063   6.511   6.670   2.735
 3055SOL    HW110064   6.460   6.754   2.721
 3055SOL    HW210065   6.593   6.689   2.790
 3056SOL     OW10066   5.225   0.804   2.184
 3056SOL    HW110067   5.323   0.817   2.204
 3056SOL    HW210068   5.173   0.877   2.228
 3057SOL     OW10069   6.670   5.122   2.637
 3057SOL    HW110070   6.710   5.213   2.635
 3057SOL    HW210071   6.642   5.096   2.545
 3058SOL     OW10072   5.809   6.410   1.518
 3058SOL    HW110073   5.728   6.369   1.560
 3058SOL    HW210074   5.888   6.351   1.535
 3059SOL     OW10075   2.738   2.376   6.736
 3059SOL    HW110076   2.666   2.397   6.669
 3059SOL    HW210077   2.700   2.385   6.828
 3060SOL     OW10078   0.171   6.341   6.125
 3060SOL    HW110079   0.182   6.252   6.081
 3060SOL    HW210080   0.116   6.330   6.208
 3061SOL     OW10081   0.514   0.832   5.994
 3061SOL    HW110082   0.513   0.930   6.012
 3061SOL    HW210083   0.460   0.785   6.064
 3062SOL     OW10084   3.127   5.008   6.437
 3062SOL    HW110085   3.180   4.924   6.438
 3062SOL    HW210086   3.050   4.999   6.374
 3063SOL     OW10087   2.385   5.879   0.971
 3063SOL    HW110088   2.304   5.860   1.027
 3063SOL    HW210089   2.417   5.972   0.989
 3064SOL     OW10090   0.233   4.448   3.224
 3064SOL    HW110091   0.218   4.467   3.321
 3064SOL    HW210092   0.328   4.419   3.210
 3065SOL     OW10093   3.260   1.822   1.266
 3065SOL    HW110094   3.321   1.757   1.221
 3065SOL    HW210095   3.314   1.897   1.304
 3066SOL     OW10096   5.409   5.137   0.888
 3066SOL    HW110097   5.418   5.067   0.959
 3066SOL    HW210098   5.453   5.105   0.804
 3067SOL     OW10099   4.315   6.854   3.157
 3067SOL    HW110100   4.258   6.850   3.239
 3067SOL    HW210101   4.299   6.941   3.110
 3068SOL     OW10102   6.314   4.474   6.595
 3068SOL    HW110103   6.272   4.440   6.511
 3068SOL    HW210104   6.406   4.436   6.605
 3069SOL     OW10105   1.388   4.502   3.272
 3069SOL    HW110106   1.413   4.433   3.340
 3069SOL    HW210107   1.398   4.593   3.312
 3070SOL     OW10108   4.686   1.646   3.548
 3070SOL    HW110109   4.759   1.582   3.572
 3070SOL    HW210110   4.718   1.739   3.564
 3071SOL     OW10111   5.662   0.464   3.576
 3071SOL    HW110112   5.762   0.465   3.573
 3071SOL    HW210113   5.630   0.375   3.607
 3072SOL     OW10114   0.044   0.645   1.420
 3072SOL    HW110115   7.003   0.582   1.374
 3072SOL    HW210116   7.016   0.729   1.443
 3073SOL     OW10117   2.073   1.851   4.783
 3073SOL    HW110118   2.141   1.912   4.823
 3073SOL    HW210119   1.983   1.872   4.821
 3074SOL     OW10120   4.672   3.896   5.891
 3074SOL    HW110121   4.692   3.828   5.962
 3074SOL    HW210122   4.751   3.956   5.880
 3075SOL     OW10123   0.425   5.773   0.879
 3075SOL    HW110124   0.379   5.757   0.966
 3075SOL    HW210125   0.386   5.714   0.808
 3076SOL     OW10126   0.465   0.794   5.219
 3076SOL    HW110127   0.552   0.753   5.245
 3076SOL    HW210128   0.403   0.794   5.298
 3077SOL     OW10129   4.607   4.719   3.083
 3077SOL    HW110130   4.562   4.759   3.003
 3077SOL    HW210131   4.697   4.762   3.096
 3078SOL     OW10132   1.756   3.170   0.277
 3078SOL    HW110133   1.786   3.214   0.192
 3078SOL    HW210134   1.662   3.198   0.298
 3079SOL     OW10135   5.386   3.012   5.960
 3079SOL    HW110136   5.313   3.031   5.893
 3079SOL    HW210137   5.391   3.088   6.026
 3080SOL     OW10138   6.007   6.633   2.341
 3080SOL    HW110139   5.952   6.688   2.277
 3080SOL    HW210140   6.061   6.566   2.290
 3081SOL     OW10141   0.839   4.489   5.773
 3081SOL    HW110142   0.913   4.551   5.747
 3081SOL    HW210143   0.878   4.405   5.811
 3082SOL     OW10144   3.642   0.134   2.546
 3082SOL    HW110145   3.632   0.182   2.633
 3082SOL    HW210146   3.717   0.068   2.552
 3083SOL     OW10147   3.855   6.973   2.410
 3083SOL    HW110148   3.926   6.973   2.341
 3083SOL    HW210149   3.847   6.882   2.451
 3084SOL     OW10150   4.565   6.409   4.045
 3084SOL    HW110151   4.498   6.470   4.003
 3084SOL    HW210152   4.626   6.461   4.104
 3085SOL     OW10153   1.264   5.032   2.432
 3085SOL    HW110154   1.353   5.003   2.396
 3085SOL    HW210155   1.193   5.011   2.365
 3086SOL     OW10156   6.411   1.467   4.531
 3086SOL    HW110157   6.319   1.433   4.550
 3086SOL    HW210158   6.468   1.392   4.498
 3087SOL     OW10159   5.723   3.795   1.364
 3087SOL    HW110160   5.759   3.798   1.457
 3087SOL    HW210161   5.673   3.709   1.352
 3088SOL     OW10162   2.987   3.767   6.408
 3088SOL    HW110163   3.079   3.803   6.419
 3088SOL    HW210164   2.986   3.670   6.434
 3089SOL     OW10165   3.833   1.891   1.709
 3089SOL    HW110166   3.824   1.916   1.805
 3089SOL    HW210167   3.820   1.792   1.699
 3090SOL     OW10168   6.028   1.784   0.935
 3090SOL    HW110169   6.097   1.835   0.882
 3090SOL    HW210170   6.040   1.803   1.032
 3091SOL     OW10171   2.294   6.041   6.787
 3091SOL    HW110172   2.369   6.010   6.729
 3091SOL    HW210173   2.247   5.961   6.826
 3092SOL     OW10174   4.135   5.129   0.353
 3092SOL    HW110175   4.190   5.047   0.372
 3092SOL    HW210176   4.038   5.104   0.352
 3093SOL     OW10177   5.029   6.579   3.308
 3093SOL    HW110178   4.971   6.526   3.370
 3093SOL    HW210179   5.026   6.676   3.335
 3094SOL     OW10180   3.681   5.276   4.740
 3094SOL    HW110181   3.647   5.311   4.652
 3094SOL    HW210182   3.607   5.279   4.808
 3095SOL     OW10183   1.893   5.332   4.995
 3095SOL    HW110184   1.949   5.310   5.075
 3095SOL    HW210185   1.821   5.396   5.022
 3096SOL     OW10186   0.885   1.707   5.528
 3096SOL    HW110187   0.816   1.721   5.457
 3096SOL    HW210188   0.972   1.684   5.484
 3097SOL     OW10189   1.833   0.830   6.890
 3097SOL    HW110190   1.881   0.909   6.929
 3097SOL    HW210191   1.806   0.850   6.796
 3098SOL     OW10192   4.129   2.586   0.947
 3098SOL    HW110193   4.066   2.570   0.872
 3098SOL    HW210194   4.125   2.509   1.011
 3099SOL     OW10195   1.251   5.946   5.609
 3099SOL    HW110196   1.248   5.956   5.510
 3099SOL    HW210197   1.347   5.944   5.639
 3100SOL     OW10198   6.325   0.021   6.045
 3100SOL    HW110199   6.260   6.973   6.074
 3100SOL    HW210200   6.286   0.112   6.060
 3101SOL     OW10201   3.678   0.349   1.069
 3101SOL    HW110202   3.777   0.364   1.071
 3101SOL    HW210203   3.657   0.263   1.024
 3102SOL     OW10204   1.143   5.795   0.289
 3102SOL    HW110205   1.122   5.825   0.382
 3102SOL    HW210206   1.118   5.868   0.224
 3103SOL     OW10207   4.336   4.305   1.636
 3103SOL    HW110208   4.378   4.243   1.702
 3103SOL    HW210209   4.401   4.325   1.563
 3104SOL     OW10210   5.737   5.751   3.870
 3104SOL    HW110211   5.640   5.763   3.891
 3104SOL    HW210212   5.758   5.796   3.783
 3105SOL     OW10213   5.986   5.777   3.967
 3105SOL    HW110214   5.970   5.816   4.058
 3105SOL    HW210215   5.899   5.754   3.924
 3106SOL     OW10216   0.012   3.379   4.804
 3106SOL    HW110217   6.960   3.349   4.864
 3106SOL    HW210218   7.006   3.464   4.758
 3107SOL     OW10219   2.725   0.185   4.015
 3107SOL    HW110220   2.738   0.256   4.084
 3107SOL    HW210221   2.711   0.227   3.926
 3108SOL     OW10222   2.385   0.011   2.941
 3108SOL    HW110223   2.466   0.006   3.000
 3108SOL    HW210224   2.413   0.015   2.845
 3109SOL     OW10225   4.743   5.803   3.159
 3109SOL    HW110226   4.782   5.757   3.238
 3109SOL    HW210227   4.755   5.902   3.168
 3110SOL     OW10228   0.694   2.688   1.389
 3110SOL    HW110229   0.782   2.704   1.433
 3110SOL    HW210230   0.651   2.607   1.429
 3111SOL     OW10231   0.681   4.805   2.030
 3111SOL    HW110232   0.712   4.713   2.054
 3111SOL    HW210233   0.648   4.851   2.112
 3112SOL     OW10234   2.971   3.555   5.896
 3112SOL    HW110235   2.914   3.525   5.819
 3112SOL    HW210236   3.030   3.480   5.925
 3113SOL     OW10237   4.051   6.657   4.131
 3113SOL    HW110238   4.050   6.558   4.120
 3113SOL    HW210239   4.141   6.693   4.104
 3114SOL     OW10240   5.051   5.849   0.630
 3114SOL    HW110241   4.979   5.782   0.647
 3114SOL    HW210242   5.028   5.903   0.549
 3115SOL     OW10243   3.412   2.842   2.399
 3115SOL    HW110244   3.400   2.747   2.372
 3115SOL    HW210245   3.493   2.880   2.354
 3116SOL     OW10246   6.839   1.482   6.609
 3116SOL    HW110247   6.909   1.539   6.565
 3116SOL    HW210248   6.804   1.530   6.689
 3117SOL     OW10249   3.315   4.210   6.334
 3117SOL    HW110250   3.368   4.172   6.259
 3117SOL    HW210251   3.224   4.169   6.335
 3118SOL     OW10252   6.341   5.392   0.045
 3118SOL    HW110253   6.294   5.306   0.029
 3118SOL    HW210254   6.287   5.467   0.006
 3119SOL     OW10255   2.278   4.389   6.497
 3119SOL    HW110256   2.321   4.343   6.419
 3119SOL    HW210257   2.307   4.344   6.582
 3120SOL     OW10258   2.542   5.297   6.930
 3120SOL    HW110259   2.603   5.375   6.935
 3120SOL    HW210260   2.592   5.213   6.952
 3121SOL     OW10261   0.328   5.639   3.688
 3121SOL    HW110262   0.312   5.579   3.609
 3121SOL    HW210263   0.242   5.652   3.737
 3122SOL     OW10264   3.241   5.656   1.512
 3122SOL    HW110265   3.233   5.712   1.430
 3122SOL    HW210266   3.322   5.684   1.563
 3123SOL     OW10267   3.321   7.020   4.222
 3123SOL    HW110268   3.393   7.005   4.289
 3123SOL    HW210269   3.362   0.026   4.135
 3124SOL     OW10270   3.606   0.072   5.802
 3124SOL    HW110271   3.555   7.012   5.831
 3124SOL    HW210272   3.571   0.152   5.851
 3125SOL     OW10273   0.060   2.002   6.185
 3125SOL    HW110274   0.143   1.965   6.143
 3125SOL    HW210275   0.073   2.099   6.206
 3126SOL     OW10276   3.821   6.283   6.630
 3126SOL    HW110277   3.813   6.225   6.711
 3126SOL    HW210278   3.795   6.377   6.653
 3127SOL     OW10279   0.963   1.011   4.465
 3127SOL    HW110280   1.004   1.062   4.389
 3127SOL    HW210281   0.969   1.065   4.549
 3128SOL     OW10282   1.519   1.025   1.178
 3128SOL    HW110283   1.452   1.095   1.204
 3128SOL    HW210284   1.474   0.954   1.125
 3129SOL     OW10285   0.890   3.071   3.122
 3129SOL    HW110286   0.820   3.003   3.145
 3129SOL    HW210287   0.980   3.033   3.140
 3130SOL     OW10288   2.374   5.369   2.964
 3130SOL    HW110289   2.456   5.416   2.995
 3130SOL    HW210290   2.301   5.381   3.031
 3131SOL     OW10291   0.786   2.942   4.019
 3131SOL    HW110292   0.778   2.844   4.037
 3131SOL    HW210293   0.712   2.971   3.958
 3132SOL     OW10294   5.226   3.569   5.976
 3132SOL    HW110295   5.160   3.548   6.048
 3132SOL    HW210296   5.213   3.507   5.899
 3133SOL     OW10297   2.190   1.810   3.837
 3133SOL    HW110298   2.109   1.807   3.895
 3133SOL    HW210299   2.270   1.784   3.890
 3134SOL     OW10300   5.908   2.740   2.228
 3134SOL    HW110301   5.987   2.785   2.270
 3134SOL    HW210302   5.939   2.685   2.151
 3135SOL     OW10303   1.243   2.243   2.900
 3135SOL    HW110304   1.144   2.259   2.903
 3135SOL    HW210305   1.261   2.150   2.867
 3136SOL     OW10306   6.475   0.534   4.879
 3136SOL    HW110307   6.517   0.612   4.833
 3136SOL    HW210308   6.428   0.565   4.962
 3137SOL     OW10309   0.556   1.673   4.599
 3137SOL    HW110310   0.549   1.750   4.662
 3137SOL    HW210311   0.493   1.601   4.626
 3138SOL     OW10312   6.233   2.199   4.233
 3138SOL    HW110313   6.195   2.238   4.317
 3138SOL    HW210314   6.182   2.117   4.208
 3139SOL     OW10315   4.817   5.463   5.034
 3139SOL    HW110316   4.875   5.505   5.104
 3139SOL    HW210317   4.770   5.535   4.982
 3140SOL     OW10318   6.183   6.066   5.533
 3140SOL    HW110319   6.187   6.165   5.540
 3140SOL    HW210320   6.273   6.027   5.550
 3141SOL     OW10321   0.769   0.067   2.052
 3141SOL    HW110322   0.669   0.069   2.049
 3141SOL    HW210323   0.803   0.001   1.985
 3142SOL     OW10324   3.330   6.957   0.477
 3142SOL    HW110325   3.345   6.873   0.530
 3142SOL    HW210326   3.301   0.009   0.538
 3143SOL     OW10327   0.132   1.690   0.238
 3143SOL    HW110328   0.218   1.733   0.265
 3143SOL    HW210329   0.059   1.757   0.240
 3144SOL     OW10330   2.859   2.801   0.049
 3144SOL    HW110331   2.840   2.782   0.145
 3144SOL    HW210332   2.957   2.815   0.037
 3145SOL     OW10333   2.491   5.089   2.660
 3145SOL    HW110334   2.551   5.012   2.641
 3145SOL    HW210335   2.438   5.111   2.577
 3146SOL     OW10336   2.296   0.027   3.939
 3146SOL    HW110337   2.368   6.980   3.924
 3146SOL    HW210338   2.214   7.021   3.889
 3147SOL     OW10339   3.683   4.280   0.881
 3147SOL    HW110340   3.725   4.226   0.955
 3147SOL    HW210341   3.639   4.219   0.816
 3148SOL     OW10342   2.794   5.804   4.540
 3148SOL    HW110343   2.732   5.733   4.506
 3148SOL    HW210344   2.880   5.761   4.569
 3149SOL     OW10345   2.420   6.296   5.709
 3149SOL    HW110346   2.355   6.302   5.785
 3149SOL    HW210347   2.382   6.236   5.638
 3150SOL     OW10348   6.826   0.349   4.207
 3150SOL    HW110349   6.803   0.424   4.145
 3150SOL    HW210350   6.854   0.270   4.153
 3151SOL     OW10351   3.421   6.694   1.694
 3151SOL    HW110352   3.514   6.691   1.658
 3151SOL    HW210353   3.420   6.745   1.780
 3152SOL     OW10354   1.312   4.914   6.293
 3152SOL    HW110355   1.410   4.908   6.315
 3152SOL    HW210356   1.259   4.892   6.374
 3153SOL     OW10357   0.037   3.937   3.355
 3153SOL    HW110358   6.979   3.892   3.315
 3153SOL    HW210359   0.067   4.011   3.294
 3154SOL     OW10360   5.591   2.671   6.122
 3154SOL    HW110361   5.491   2.663   6.122
 3154SOL    HW210362   5.619   2.733   6.195
 3155SOL     OW10363   4.225   5.943   0.013
 3155SOL    HW110364   4.322   5.965   0.022
 3155SOL    HW210365   4.189   5.914   0.102
 3156SOL     OW10366   3.466   3.808   3.380
 3156SOL    HW110367   3.423   3.895   3.403
 3156SOL    HW210368   3.522   3.820   3.297
 3157SOL     OW10369   2.228   2.061   4.899
 3157SOL    HW110370   2.307   2.012   4.937
 3157SOL    HW210371   2.256   2.112   4.819
 3158SOL     OW10372   4.589   6.894   1.653
 3158SOL    HW110373   4.511   6.895   1.716
 3158SOL    HW210374   4.557   6.901   1.559
 3159SOL     OW10375   5.430   4.897   0.555
 3159SOL    HW110376   5.471   4.987   0.569
 3159SOL    HW210377   5.333   4.900   0.580
 3160SOL     OW10378   6.316   4.697   0.478
 3160SOL    HW110379   6.395   4.663   0.530
 3160SOL    HW210380   6.259   4.620   0.450
 3161SOL     OW10381   0.733   1.490   4.135
 3161SOL    HW110382   0.809   1.468   4.074
 3161SOL    HW210383   0.763   1.558   4.202
 3162SOL     OW10384   0.180   0.424   6.156
 3162SOL    HW110385   0.243   0.460   6.225
 3162SOL    HW210386   0.093   0.400   6.199
 3163SOL     OW10387   1.453   4.353   5.273
 3163SOL    HW110388   1.468   4.419   5.198
 3163SOL    HW210389   1.518   4.278   5.264
 3164SOL     OW10390   6.196   4.946   5.507
 3164SOL    HW110391   6.198   4.992   5.596
 3164SOL    HW210392   6.110   4.968   5.461
 3165SOL     OW10393   6.855   2.716   1.060
 3165SOL    HW110394   6.949   2.681   1.062
 3165SOL    HW210395   6.838   2.770   1.142
 3166SOL     OW10396   3.700   3.050   6.266
 3166SOL    HW110397   3.723   3.117   6.195
 3166SOL    HW210398   3.603   3.059   6.289
 3167SOL     OW10399   0.194   5.441   2.225
 3167SOL    HW110400   0.123   5.508   2.205
 3167SOL    HW210401   0.160   5.374   2.291
 3168SOL     OW10402   6.214   2.897   1.015
 3168SOL    HW110403   6.150   2.820   1.006
 3168SOL    HW210404   6.259   2.913   0.928
 3169SOL     OW10405   3.227   2.421   5.729
 3169SOL    HW110406   3.236   2.437   5.630
 3169SOL    HW210407   3.163   2.488   5.768
 3170SOL     OW10408   3.269   0.299   4.790
 3170SOL    HW110409   3.252   0.281   4.887
 3170SOL    HW210410   3.222   0.382   4.763
 3171SOL     OW10411   6.009   5.684   2.959
 3171SOL    HW110412   6.049   5.734   3.037
 3171SOL    HW210413   6.066   5.605   2.937
 3172SOL     OW10414   5.502   6.781   5.545
 3172SOL    HW110415   5.419   6.808   5.497
 3172SOL    HW210416   5.565   6.737   5.482
 3173SOL     OW10417   1.801   1.061   1.672
 3173SOL    HW110418   1.872   0.997   1.642
 3173SOL    HW210419   1.829   1.155   1.649
 3174SOL     OW10420   2.567   3.106   6.890
 3174SOL    HW110421   2.481   3.148   6.861
 3174SOL    HW210422   2.619   3.170   6.947
 3175SOL     OW10423   6.894   6.026   0.262
 3175SOL    HW110424   6.973   6.008   0.203
 3175SOL    HW210425   6.835   6.094   0.220
 3176SOL     OW10426   0.550   5.529   0.094
 3176SOL    HW110427   0.469   5.520   0.037
 3176SOL    HW210428   0.533   5.485   0.183
 3177SOL     OW10429   1.105   0.219   3.850
 3177SOL    HW110430   1.059   0.131   3.864
 3177SOL    HW210431   1.053   0.273   3.784
 3178SOL     OW10432   3.669   3.089   0.035
 3178SOL    HW110433   3.620   3.172   0.011
 3178SOL    HW210434   3.726   3.106   0.116
 3179SOL     OW10435   1.385   2.743   4.461
 3179SOL    HW110436   1.429   2.762   4.373
 3179SOL    HW210437   1.344   2.652   4.459
 3180SOL     OW10438   6.481   1.246   6.921
 3180SOL    HW110439   6.451   1.320   6.861
 3180SOL    HW210440   6.515   1.170   6.866
 3181SOL     OW10441   0.288   1.426   2.146
 3181SOL    HW110442   0.266   1.523   2.140
 3181SOL    HW210443   0.358   1.413   2.217
 3182SOL     OW10444   1.711   5.354   5.727
 3182SOL    HW110445   1.728   5.423   5.657
 3182SOL    HW210446   1.793   5.342   5.783
 3183SOL     OW10447   4.796   3.590   1.298
 3183SOL    HW110448   4.778   3.673   1.245
 3183SOL    HW210449   4.788   3.610   1.395
 3184SOL     OW10450   0.414   1.979   3.002
 3184SOL    HW110451   0.397   2.017   2.911
 3184SOL    HW210452   0.460   1.891   2.993
 3185SOL     OW10453   0.374   6.322   7.012
 3185SOL    HW110454   0.408   6.266   6.937
 3185SOL    HW210455   0.407   6.416   7.001
 3186SOL     OW10456   3.696   0.167   1.432
 3186SOL    HW110457   3.730   0.193   1.522
 3186SOL    HW210458   3.603   0.203   1.421
 3187SOL     OW10459   3.462   4.245   0.349
 3187SOL    HW110460   3.514   4.287   0.275
 3187SOL    HW210461   3.364   4.253   0.329
 3188SOL     OW10462   3.911   6.873   3.783
 3188SOL    HW110463   3.934   6.872   3.880
 3188SOL    HW210464   3.898   6.968   3.753
 3189SOL     OW10465   6.274   6.421   2.130
 3189SOL    HW110466   6.295   6.518   2.122
 3189SOL    HW210467   6.331   6.369   2.067
 3190SOL     OW10468   1.015   0.190   2.133
 3190SOL    HW110469   1.011   0.281   2.091
 3190SOL    HW210470   0.926   0.144   2.122
 3191SOL     OW10471   3.216   1.360   0.651
 3191SOL    HW110472   3.177   1.277   0.693
 3191SOL    HW210473   3.232   1.429   0.721
 3192SOL     OW10474   5.583   3.030   4.308
 3192SOL    HW110475   5.549   2.940   4.338
 3192SOL    HW210476   5.674   3.020   4.268
 3193SOL     OW10477   5.178   4.470   1.668
 3193SOL    HW110478   5.272   4.450   1.640
 3193SOL    HW210479   5.124   4.386   1.666
 3194SOL     OW10480   3.041   5.699   4.620
 3194SOL    HW110481   3.041   5.604   4.652
 3194SOL    HW210482   3.121   5.746   4.657
 3195SOL     OW10483   6.290   4.311   4.320
 3195SOL    HW110484   6.335   4.295   4.233
 3195SOL    HW210485   6.256   4.405   4.323
 3196SOL     OW10486   6.934   6.509   6.531
 3196SOL    HW110487   6.883   6.568   6.469
 3196SOL    HW210488   6.874   6.477   6.604
 3197SOL     OW10489   0.295   4.533   5.788
 3197SOL    HW110490   0.301   4.529   5.888
 3197SOL    HW210491   0.386   4.525   5.749
 3198SOL     OW10492   5.782   6.974   0.828
 3198SOL    HW110493   5.853   6.906   0.847
 3198SOL    HW210494   5.692   6.936   0.851
 3199SOL     OW10495   3.106   1.457   3.515
 3199SOL    HW110496   3.122   1.542   3.564
 3199SOL    HW210497   3.193   1.419   3.484
 3200SOL     OW10498   6.499   1.959   0.072
 3200SOL    HW110499   6.489   1.868   0.032
 3200SOL    HW210500   6.535   2.022   0.003
 3201SOL     OW10501   3.979   4.814   2.795
 3201SOL    HW110502   3.993   4.734   2.737
 3201SOL    HW210503   3.884   4.845   2.788
 3202SOL     OW10504   1.176   5.069   1.865
 3202SOL    HW110505   1.079   5.043   1.873
 3202SOL    HW210506   1.231   4.987   1.851
 3203SOL     OW10507   4.331   0.045   0.836
 3203SOL    HW110508   4.367   0.098   0.759
 3203SOL    HW210509   4.241   0.080   0.862
 3204SOL     OW10510   6.665   6.827   2.046
 3204SOL    HW110511   6.625   6.756   1.988
 3204SOL    HW210512   6.763   6.835   2.026
 3205SOL     OW10513   1.235   3.838   4.243
 3205SOL    HW110514   1.273   3.840   4.336
 3205SOL    HW210515   1.230   3.931   4.207
 3206SOL     OW10516   2.279   6.074   0.115
 3206SOL    HW110517   2.248   6.016   0.190
 3206SOL    HW210518   2.212   6.071   0.040
 3207SOL     OW10519   1.821   1.049   3.137
 3207SOL    HW110520   1.769   1.047   3.052
 3207SOL    HW210521   1.761   1.030   3.214
 3208SOL     OW10522   5.927   6.645   5.541
 3208SOL    HW110523   5.939   6.623   5.444
 3208SOL    HW210524   5.879   6.569   5.586
 3209SOL     OW10525   1.140   6.843   3.611
 3209SOL    HW110526   1.172   6.845   3.706
 3209SOL    HW210527   1.161   6.930   3.567
 3210SOL     OW10528   0.421   6.173   1.939
 3210SOL    HW110529   0.341   6.185   1.880
 3210SOL    HW210530   0.393   6.176   2.034
 3211SOL     OW10531   0.456   4.478   3.778
 3211SOL    HW110532   0.472   4.575   3.762
 3211SOL    HW210533   0.358   4.459   3.771
 3212SOL     OW10534   4.437   2.376   5.017
 3212SOL    HW110535   4.343   2.405   5.031
 3212SOL    HW210536   4.444   2.277   5.032
 3213SOL     OW10537   4.979   0.331   1.725
 3213SOL    HW110538   5.003   0.405   1.788
 3213SOL    HW210539   4.905   0.277   1.764
 3214SOL     OW10540   4.784   4.206   0.146
 3214SOL    HW110541   4.830   4.221   0.058
 3214SOL    HW210542   4.692   4.170   0.129
 3215SOL     OW10543   6.413   1.345   0.149
 3215SOL    HW110544   6.379   1.281   0.219
 3215SOL    HW210545   6.444   1.294   0.069
 3216SOL     OW10546   5.458   6.540   5.681
 3216SOL    HW110547   5.359   6.553   5.679
 3216SOL    HW210548   5.502   6.618   5.637
 3217SOL     OW10549   0.293   4.361   6.498
 3217SOL    HW110550   0.247   4.426   6.559
 3217SOL    HW210551   0.344   4.412   6.428
 3218SOL     OW10552   3.975   2.575   1.689
 3218SOL    HW110553   3.990   2.588   1.591
 3218SOL    HW210554   3.878   2.556   1.705
 3219SOL     OW10555   0.723   1.706   3.248
 3219SOL    HW110556   0.709   1.779   3.315
 3219SOL    HW210557   0.643   1.699   3.188
 3220SOL     OW10558   6.478   2.861   6.458
 3220SOL    HW110559   6.509   2.766   6.454
 3220SOL    HW210560   6.505   2.901   6.546
 3221SOL     OW10561   3.771   0.358   1.750
 3221SOL    HW110562   3.819   0.425   1.807
 3221SOL    HW210563   3.699   0.315   1.804
 3222SOL     OW10564   6.447   3.704   2.243
 3222SOL    HW110565   6.535   3.731   2.204
 3222SOL    HW210566   6.407   3.631   2.187
 3223SOL     OW10567   1.014   4.216   5.008
 3223SOL    HW110568   0.999   4.119   4.989
 3223SOL    HW210569   0.974   4.240   5.097
 3224SOL     OW10570   2.795   6.097   1.336
 3224SOL    HW110571   2.764   6.041   1.259
 3224SOL    HW210572   2.719   6.109   1.400
 3225SOL     OW10573   1.510   1.897   0.598
 3225SOL    HW110574   1.531   1.833   0.672
 3225SOL    HW210575   1.533   1.854   0.510
 3226SOL     OW10576   6.895   1.402   3.658
 3226SOL    HW110577   6.939   1.400   3.568
 3226SOL    HW210578   6.796   1.411   3.646
 3227SOL     OW10579   2.715   1.346   4.904
 3227SOL    HW110580   2.679   1.252   4.904
 3227SOL    HW210581   2.744   1.370   4.812
 3228SOL     OW10582   4.894   3.274   4.790
 3228SOL    HW110583   4.884   3.365   4.750
 3228SOL    HW210584   4.920   3.209   4.719
 3229SOL     OW10585   4.469   1.530   4.607
 3229SOL    HW110586   4.446   1.623   4.578
 3229SOL    HW210587   4.541   1.493   4.548
 3230SOL     OW10588   1.763   0.190   4.495
 3230SOL    HW110589   1.665   0.170   4.492
 3230SOL    HW210590   1.809   0.142   4.421
 3231SOL     OW10591   4.367   4.589   0.606
 3231SOL    HW110592   4.283   4.591   0.661
 3231SOL    HW210593   4.379   4.498   0.566
 3232SOL     OW10594   0.740   3.930   3.423
 3232SOL    HW110595   0.826   3.931   3.371
 3232SOL    HW210596   0.672   3.876   3.375
 3233SOL     OW10597   2.305   4.086   0.405
 3233SOL    HW110598   2.288   4.019   0.477
 3233SOL    HW210599   2.380   4.055   0.347
 3234SOL     OW10600   6.856   1.624   4.249
 3234SOL    HW110601   6.820   1.703   4.199
 3234SOL    HW210602   6.946   1.600   4.213
 3235SOL     OW10603   6.369   0.783   2.192
 3235SOL    HW110604   6.451   0.813   2.144
 3235SOL    HW210605   6.395   0.739   2.278
 3236SOL     OW10606   6.725   1.798   1.373
 3236SOL    HW110607   6.771   1.834   1.454
 3236SOL    HW210608   6.636   1.760   1.399
 3237SOL     OW10609   2.788   6.077   4.546
 3237SOL    HW110610   2.789   6.094   4.644
 3237SOL    HW210611   2.783   5.978   4.529
 3238SOL     OW10612   6.568   6.655   6.619
 3238SOL    HW110613   6.632   6.677   6.546
 3238SOL    HW210614   6.600   6.574   6.668
 3239SOL     OW10615   2.166   6.470   6.323
 3239SOL    HW110616   2.225   6.459   6.242
 3239SOL    HW210617   2.205   6.420   6.400
 3240SOL     OW10618   1.366   2.395   4.633
 3240SOL    HW110619   1.453   2.354   4.661
 3240SOL    HW210620   1.373   2.429   4.540
 3241SOL     OW10621   3.715   6.197   5.378
 3241SOL    HW110622   3.649   6.268   5.352
 3241SOL    HW210623   3.688   6.110   5.338
 3242SOL     OW10624   2.501   0.696   1.048
 3242SOL    HW110625   2.534   0.790   1.047
 3242SOL    HW210626   2.453   0.678   1.134
 3243SOL     OW10627   3.639   5.896   2.131
 3243SOL    HW110628   3.661   5.919   2.036
 3243SOL    HW210629   3.717   5.849   2.173
 3244SOL     OW10630   1.273   0.149   5.181
 3244SOL    HW110631   1.192   0.166   5.238
 3244SOL    HW210632   1.354   0.184   5.227
 3245SOL     OW10633   3.135   2.093   5.742
 3245SOL    HW110634   3.222   2.142   5.753
 3245SOL    HW210635   3.075   2.145   5.681
 3246SOL     OW10636   6.249   6.458   2.558
 3246SOL    HW110637   6.342   6.438   2.589
 3246SOL    HW210638   6.195   6.496   2.633
 3247SOL     OW10639   5.997   2.860   4.936
 3247SOL    HW110640   5.990   2.858   4.837
 3247SOL    HW210641   5.910   2.833   4.977
 3248SOL     OW10642   5.149   4.365   2.954
 3248SOL    HW110643   5.206   4.343   2.875
 3248SOL    HW210644   5.151   4.288   3.018
 3249SOL     OW10645   3.646   5.230   6.019
 3249SOL    HW110646   3.714   5.174   5.973
 3249SOL    HW210647   3.678   5.325   6.021
 3250SOL     OW10648   4.620   4.685   0.738
 3250SOL    HW110649   4.542   4.676   0.675
 3250SOL    HW210650   4.692   4.739   0.694
 3251SOL     OW10651   2.311   1.528   3.584
 3251SOL    HW110652   2.358   1.482   3.509
 3251SOL    HW210653   2.224   1.482   3.602
 3252SOL     OW10654   2.937   2.144   2.816
 3252SOL    HW110655   3.037   2.149   2.814
 3252SOL    HW210656   2.904   2.099   2.733
 3253SOL     OW10657   4.791   4.165   1.847
 3253SOL    HW110658   4.764   4.201   1.936
 3253SOL    HW210659   4.738   4.210   1.775
 3254SOL     OW10660   6.257   3.486   3.091
 3254SOL    HW110661   6.278   3.546   3.168
 3254SOL    HW210662   6.212   3.539   3.018
 3255SOL     OW10663   3.392   4.812   0.963
 3255SOL    HW110664   3.376   4.887   1.027
 3255SOL    HW210665   3.305   4.782   0.925
 3256SOL     OW10666   6.489   0.282   5.359
 3256SOL    HW110667   6.515   0.242   5.446
 3256SOL    HW210668   6.537   0.236   5.285
 3257SOL     OW10669   2.667   1.224   1.649
 3257SOL    HW110670   2.756   1.184   1.670
 3257SOL    HW210671   2.596   1.154   1.658
 3258SOL     OW10672   4.758   0.009   2.575
 3258SOL    HW110673   4.730   7.020   2.479
 3258SOL    HW210674   4.804   6.947   2.606
 3259SOL     OW10675   6.047   5.310   3.268
 3259SOL    HW110676   5.999   5.339   3.186
 3259SOL    HW210677   5.982   5.298   3.343
 3260SOL     OW10678   2.105   1.556   1.340
 3260SOL    HW110679   2.155   1.516   1.263
 3260SOL    HW210680   2.153   1.536   1.425
 3261SOL     OW10681   5.360   6.915   4.089
 3261SOL    HW110682   5.368   6.895   3.991
 3261SOL    HW210683   5.264   6.903   4.117
 3262SOL     OW10684   4.777   2.147   3.782
 3262SOL    HW110685   4.815   2.172   3.871
 3262SOL    HW210686   4.741   2.228   3.737
 3263SOL     OW10687   3.228   4.991   3.038
 3263SOL    HW110688   3.151   5.053   3.027
 3263SOL    HW210689   3.237   4.934   2.956
 3264SOL     OW10690   5.157   4.298   6.615
 3264SOL    HW110691   5.078   4.359   6.617
 3264SOL    HW210692   5.240   4.352   6.600
 3265SOL     OW10693   5.232   7.007   5.671
 3265SOL    HW110694   5.238   6.962   5.582
 3265SOL    HW210695   5.137   0.005   5.692
 3266SOL     OW10696   1.054   2.394   6.117
 3266SOL    HW110697   1.149   2.425   6.113
 3266SOL    HW210698   1.021   2.372   6.025
 3267SOL     OW10699   5.772   4.471   1.464
 3267SOL    HW110700   5.838   4.518   1.405
 3267SOL    HW210701   5.754   4.380   1.427
 3268SOL     OW10702   2.088   5.471   0.353
 3268SOL    HW110703   2.055   5.495   0.262
 3268SOL    HW210704   2.174   5.420   0.345
 3269SOL     OW10705   4.345   2.691   1.260
 3269SOL    HW110706   4.423   2.649   1.214
 3269SOL    HW210707   4.295   2.748   1.194
 3270SOL     OW10708   6.406   5.703   3.082
 3270SOL    HW110709   6.375   5.611   3.107
 3270SOL    HW210710   6.396   5.715   2.983
 3271SOL     OW10711   4.939   0.106   0.769
 3271SOL    HW110712   4.935   0.059   0.857
 3271SOL    HW210713   5.009   0.177   0.772
 3272SOL     OW10714   4.706   5.517   5.658
 3272SOL    HW110715   4.645   5.439   5.646
 3272SOL    HW210716   4.674   5.574   5.733
 3273SOL     OW10717   0.010   6.938   3.119
 3273SOL    HW110718   7.021   0.001   3.067
 3273SOL    HW210719   0.093   6.942   3.174
 3274SOL     OW10720   3.057   0.804   1.384
 3274SOL    HW110721   3.017   0.888   1.421
 3274SOL    HW210722   3.071   0.738   1.457
 3275SOL     OW10723   4.251   0.516   6.549
 3275SOL    HW110724   4.179   0.539   6.484
 3275SOL    HW210725   4.209   0.481   6.633
 3276SOL     OW10726   1.506   5.553   1.264
 3276SOL    HW110727   1.515   5.518   1.357
 3276SOL    HW210728   1.412   5.542   1.232
 3277SOL     OW10729   0.377   6.184   6.774
 3277SOL    HW110730   0.356   6.088   6.795
 3277SOL    HW210731   0.469   6.191   6.735
 3278SOL     OW10732   0.834   0.331   0.168
 3278SOL    HW110733   0.927   0.307   0.196
 3278SOL    HW210734   0.789   0.251   0.130
 3279SOL     OW10735   2.026   6.495   1.491
 3279SOL    HW110736   2.004   6.489   1.394
 3279SOL    HW210737   2.125   6.490   1.503
 3280SOL     OW10738   2.938   5.518   3.352
 3280SOL    HW110739   3.025   5.565   3.339
 3280SOL    HW210740   2.878   5.536   3.274
 3281SOL     OW10741   1.444   6.857   1.059
 3281SOL    HW110742   1.488   6.770   1.036
 3281SOL    HW210743   1.430   6.862   1.158
 3282SOL     OW10744   1.666   4.832   1.981
 3282SOL    HW110745   1.665   4.929   2.004
 3282SOL    HW210746   1.712   4.781   2.053
 3283SOL     OW10747   1.511   0.513   3.099
 3283SOL    HW110748   1.417   0.530   3.127
 3283SOL    HW210749   1.571   0.585   3.135
 3284SOL     OW10750   1.791   6.155   5.657
 3284SOL    HW110751   1.798   6.146   5.756
 3284SOL    HW210752   1.761   6.247   5.633
 3285SOL     OW10753   0.659   3.235   4.380
 3285SOL    HW110754   0.687   3.224   4.475
 3285SOL    HW210755   0.723   3.187   4.320
 3286SOL     OW10756   4.916   4.442   6.640
 3286SOL    HW110757   4.932   4.533   6.677
 3286SOL    HW210758   4.822   4.414   6.659
 3287SOL     OW10759   0.354   2.614   0.839
 3287SOL    HW110760   0.404   2.551   0.780
 3287SOL    HW210761   0.368   2.708   0.807
 3288SOL     OW10762   0.605   0.172   0.384
 3288SOL    HW110763   0.559   0.229   0.315
 3288SOL    HW210764   0.649   0.094   0.339
 3289SOL     OW10765   1.578   0.016   3.548
 3289SOL    HW110766   1.611   0.074   3.622
 3289SOL    HW210767   1.483   0.041   3.525
 3290SOL     OW10768   6.945   4.777   4.219
 3290SOL    HW110769   6.899   4.769   4.130
 3290SOL    HW210770   7.012   4.851   4.216
 3291SOL     OW10771   0.999   1.650   1.608
 3291SOL    HW110772   1.006   1.744   1.575
 3291SOL    HW210773   1.037   1.588   1.539
 3292SOL     OW10774   1.131   6.879   4.425
 3292SOL    HW110775   1.131   6.789   4.468
 3292SOL    HW210776   1.061   6.937   4.467
 3293SOL     OW10777   6.053   0.480   2.872
 3293SOL    HW110778   6.131   0.432   2.832
 3293SOL    HW210779   5.980   0.415   2.893
 3294SOL     OW10780   6.878   6.658   1.477
 3294SOL    HW110781   6.853   6.589   1.545
 3294SOL    HW210782   6.796   6.710   1.451
 3295SOL     OW10783   2.865   2.900   6.163
 3295SOL    HW110784   2.774   2.942   6.158
 3295SOL    HW210785   2.908   2.902   6.072
 3296SOL     OW10786   0.903   6.779   1.660
 3296SOL    HW110787   0.896   6.833   1.576
 3296SOL    HW210788   0.894   6.682   1.637
 3297SOL     OW10789   3.326   0.790   5.513
 3297SOL    HW110790   3.360   0.781   5.606
 3297SOL    HW210791   3.372   0.723   5.454
 3298SOL     OW10792   0.326   5.371   3.157
 3298SOL    HW110793   0.321   5.301   3.086
 3298SOL    HW210794   0.393   5.440   3.130
 3299SOL     OW10795   1.924   1.419   4.369
 3299SOL    HW110796   1.920   1.496   4.433
 3299SOL    HW210797   1.979   1.444   4.290
 3300SOL     OW10798   0.564   7.006   5.245
 3300SOL    HW110799   0.548   6.908   5.250
 3300SOL    HW210800   0.661   0.001   5.228
 3301SOL     OW10801   6.552   4.126   2.517
 3301SOL    HW110802   6.489   4.071   2.462
 3301SOL    HW210803   6.616   4.066   2.564
 3302SOL     OW10804   1.516   5.938   5.687
 3302SOL    HW110805   1.564   5.880   5.752
 3302SOL    HW210806   1.538   6.034   5.705
 3303SOL     OW10807   3.232   3.557   5.184
 3303SOL    HW110808   3.217   3.524   5.277
 3303SOL    HW210809   3.274   3.647   5.187
 3304SOL     OW10810   1.701   0.586   3.910
 3304SOL    HW110811   1.780   0.532   3.880
 3304SOL    HW210812   1.705   0.599   4.009
 3305SOL     OW10813   0.807   2.312   0.338
 3305SOL    HW110814   0.761   2.255   0.270
 3305SOL    HW210815   0.878   2.259   0.383
 3306SOL     OW10816   1.211   1.373   0.937
 3306SOL    HW110817   1.214   1.446   0.868
 3306SOL    HW210818   1.149   1.400   1.011
 3307SOL     OW10819   0.219   6.698   0.118
 3307SOL    HW110820   0.294   6.762   0.135
 3307SOL    HW210821   0.203   6.642   0.199
 3308SOL     OW10822   5.550   6.419   7.014
 3308SOL    HW110823   5.515   6.437   6.923
 3308SOL    HW210824   5.582   6.504   0.034
 3309SOL     OW10825   0.671   4.517   2.042
 3309SOL    HW110826   0.610   4.535   1.965
 3309SOL    HW210827   0.619   4.475   2.116
 3310SOL     OW10828   2.203   6.233   2.297
 3310SOL    HW110829   2.125   6.237   2.360
 3310SOL    HW210830   2.170   6.226   2.203
 3311SOL     OW10831   4.177   5.546   0.850
 3311SOL    HW110832   4.231   5.474   0.893
 3311SOL    HW210833   4.082   5.540   0.880
 3312SOL     OW10834   1.752   2.590   6.000
 3312SOL    HW110835   1.812   2.668   5.982
 3312SOL    HW210836   1.806   2.506   5.996
 3313SOL     OW10837   5.474   6.808   5.147
 3313SOL    HW110838   5.397   6.769   5.096
 3313SOL    HW210839   5.559   6.787   5.100
 3314SOL     OW10840   0.996   3.945   6.200
 3314SOL    HW110841   0.903   3.908   6.203
 3314SOL    HW210842   1.061   3.870   6.182
 3315SOL     OW10843   6.361   3.291   3.486
 3315SOL    HW110844   6.451   3.275   3.525
 3315SOL    HW210845   6.308   3.351   3.546
 3316SOL     OW10846   3.654   0.315   6.755
 3316SOL    HW110847   3.596   0.250   6.804
 3316SOL    HW210848   3.701   0.268   6.680
 3317SOL     OW10849   5.762   2.928   1.352
 3317SOL    HW110850   5.682   2.982   1.381
 3317SOL    HW210851   5.739   2.830   1.357
 3318SOL     OW10852   2.633   5.021   6.641
 3318SOL    HW110853   2.661   5.030   6.737
 3318SOL    HW210854   2.541   5.058   6.629
 3319SOL     OW10855   0.987   5.703   6.118
 3319SOL    HW110856   0.979   5.793   6.160
 3319SOL    HW210857   1.065   5.654   6.157
 3320SOL     OW10858   1.159   0.666   1.182
 3320SOL    HW110859   1.182   0.570   1.200
 3320SOL    HW210860   1.218   0.701   1.109
 3321SOL     OW10861   3.719   3.868   4.338
 3321SOL    HW110862   3.643   3.815   4.375
 3321SOL    HW210863   3.805   3.827   4.365
 3322SOL     OW10864   5.301   3.892   2.566
 3322SOL    HW110865   5.348   3.830   2.628
 3322SOL    HW210866   5.204   3.869   2.562
 3323SOL     OW10867   1.554   4.247   0.866
 3323SOL    HW110868   1.555   4.347   0.861
 3323SOL    HW210869   1.626   4.210   0.807
 3324SOL     OW10870   6.644   3.223   1.299
 3324SOL    HW110871   6.711   3.185   1.363
 3324SOL    HW210872   6.686   3.233   1.209
 3325SOL     OW10873   1.269   4.962   5.448
 3325SOL    HW110874   1.279   5.062   5.451
 3325SOL    HW210875   1.317   4.926   5.369
 3326SOL     OW10876   4.424   6.570   2.433
 3326SOL    HW110877   4.492   6.617   2.377
 3326SOL    HW210878   4.469   6.500   2.489
 3327SOL     OW10879   4.831   6.425   1.591
 3327SOL    HW110880   4.766   6.356   1.562
 3327SOL    HW210881   4.923   6.400   1.560
 3328SOL     OW10882   6.221   6.258   3.856
 3328SOL    HW110883   6.297   6.224   3.802
 3328SOL    HW210884   6.197   6.350   3.825
 3329SOL     OW10885   5.550   0.556   6.389
 3329SOL    HW110886   5.540   0.487   6.317
 3329SOL    HW210887   5.627   0.615   6.368
 3330SOL     OW10888   5.878   0.294   2.995
 3330SOL    HW110889   5.840   0.333   3.079
 3330SOL    HW210890   5.879   0.195   3.002
 3331SOL     OW10891   0.778   2.964   2.066
 3331SOL    HW110892   0.732   3.039   2.113
 3331SOL    HW210893   0.862   2.998   2.024
 3332SOL     OW10894   4.630   4.936   1.117
 3332SOL    HW110895   4.725   4.967   1.109
 3332SOL    HW210896   4.601   4.942   1.212
 3333SOL     OW10897   2.218   3.919   0.893
 3333SOL    HW110898   2.317   3.915   0.881
 3333SOL    HW210899   2.182   4.002   0.849
 3334SOL     OW10900   1.962   2.811   2.040
 3334SOL    HW110901   1.869   2.830   2.073
 3334SOL    HW210902   2.026   2.815   2.117
 3335SOL     OW10903   4.501   4.153   6.722
 3335SOL    HW110904   4.551   4.066   6.721
 3335SOL    HW210905   4.404   4.136   6.705
 3336SOL     OW10906   3.672   5.736   6.025
 3336SOL    HW110907   3.744   5.804   6.011
 3336SOL    HW210908   3.604   5.772   6.088
 3337SOL     OW10909   3.182   3.984   3.769
 3337SOL    HW110910   3.157   3.972   3.866
 3337SOL    HW210911   3.266   4.038   3.763
 3338SOL     OW10912   3.416   2.956   1.685
 3338SOL    HW110913   3.393   2.859   1.692
 3338SOL    HW210914   3.335   3.006   1.655
 3339SOL     OW10915   0.624   6.819   6.027
 3339SOL    HW110916   0.600   6.826   6.124
 3339SOL    HW210917   0.701   6.757   6.016
 3340SOL     OW10918   4.618   1.718   6.535
 3340SOL    HW110919   4.674   1.798   6.513
 3340SOL    HW210920   4.678   1.644   6.565
 3341SOL     OW10921   1.045   3.520   1.770
 3341SOL    HW110922   1.140   3.542   1.748
 3341SOL    HW210923   0.992   3.515   1.686
 3342SOL     OW10924   5.871   0.322   2.709
 3342SOL    HW110925   5.887   0.275   2.796
 3342SOL    HW210926   5.778   0.359   2.708
 3343SOL     OW10927   3.568   4.583   0.450
 3343SOL    HW110928   3.537   4.515   0.518
 3343SOL    HW210929   3.617   4.536   0.376
 3344SOL     OW10930   1.491   3.658   0.852
 3344SOL    HW110931   1.544   3.589   0.900
 3344SOL    HW210932   1.437   3.614   0.780
 3345SOL     OW10933   4.579   4.667   1.039
 3345SOL    HW110934   4.609   4.756   1.074
 3345SOL    HW210935   4.594   4.663   0.940
 3346SOL     OW10936   0.771   0.563   0.281
 3346SOL    HW110937   0.786   0.480   0.228
 3346SOL    HW210938   0.851   0.623   0.274
 3347SOL     OW10939   0.727   3.250   5.772
 3347SOL    HW110940   0.788   3.306   5.828
 3347SOL    HW210941   0.776   3.218   5.691
 3348SOL     OW10942   3.218   4.332   5.706
 3348SOL    HW110943   3.251   4.360   5.615
 3348SOL    HW210944   3.225   4.408   5.770
 3349SOL     OW10945   2.471   5.180   1.861
 3349SOL    HW110946   2.565   5.151   1.844
 3349SOL    HW210947   2.468   5.242   1.940
 3350SOL     OW10948   3.093   5.639   4.094
 3350SOL    HW110949   3.079   5.637   3.995
 3350SOL    HW210950   3.127   5.551   4.125
 3351SOL     OW10951   4.916   7.007   1.992
 3351SOL    HW110952   4.930   6.990   1.894
 3351SOL    HW210953   4.865   0.071   2.003
 3352SOL     OW10954   5.928   1.000   0.448
 3352SOL    HW110955   5.892   0.984   0.356
 3352SOL    HW210956   5.875   0.947   0.514
 3353SOL     OW10957   4.384   0.768   6.037
 3353SOL    HW110958   4.284   0.767   6.030
 3353SOL    HW210959   4.423   0.709   5.967
 3354SOL     OW10960   3.472   1.917   0.158
 3354SOL    HW110961   3.415   1.873   0.228
 3354SOL    HW210962   3.413   1.968   0.095
 3355SOL     OW10963   0.967   2.453   5.450
 3355SOL    HW110964   0.887   2.503   5.482
 3355SOL    HW210965   1.012   2.506   5.378
 3356SOL     OW10966   2.925   0.398   5.355
 3356SOL    HW110967   2.969   0.355   5.433
 3356SOL    HW210968   2.884   0.485   5.384
 3357SOL     OW10969   2.959   3.726   4.358
 3357SOL    HW110970   2.945   3.799   4.425
 3357SOL    HW210971   2.965   3.638   4.405
 3358SOL     OW10972   6.466   1.982   1.725
 3358SOL    HW110973   6.462   1.884   1.703
 3358SOL    HW210974   6.488   1.994   1.822
 3359SOL     OW10975   0.790   6.553   3.413
 3359SOL    HW110976   0.797   6.639   3.362
 3359SOL    HW210977   0.874   6.539   3.465
 3360SOL     OW10978   1.248   5.527   4.755
 3360SOL    HW110979   1.226   5.431   4.735
 3360SOL    HW210980   1.251   5.540   4.854
 3361SOL     OW10981   0.615   0.140   4.383
 3361SOL    HW110982   0.643   0.209   4.315
 3361SOL    HW210983   0.611   0.051   4.339
 3362SOL     OW10984   2.740   0.643   5.421
 3362SOL    HW110985   2.677   0.720   5.421
 3362SOL    HW210986   2.818   0.662   5.480
 3363SOL     OW10987   4.981   3.327   0.736
 3363SOL    HW110988   4.983   3.282   0.647
 3363SOL    HW210989   4.893   3.373   0.748
 3364SOL     OW10990   1.908   3.046   0.891
 3364SOL    HW110991   1.844   2.987   0.843
 3364SOL    HW210992   1.871   3.139   0.894
 3365SOL     OW10993   0.396   2.838   2.484
 3365SOL    HW110994   0.342   2.758   2.512
 3365SOL    HW210995   0.377   2.914   2.546
 3366SOL     OW10996   5.910   3.633   3.400
 3366SOL    HW110997   5.853   3.687   3.462
 3366SOL    HW210998   5.948   3.692   3.329
 3367SOL     OW10999   3.010   3.216   3.639
 3367SOL    HW111000   3.057   3.295   3.678
 3367SOL    HW211001   3.002   3.144   3.707
 3368SOL     OW11002   1.440   1.023   3.519
 3368SOL    HW111003   1.426   1.120   3.500
 3368SOL    HW211004   1.449   1.009   3.618
 3369SOL     OW11005   6.019   2.574   0.671
 3369SOL    HW111006   5.939   2.548   0.725
 3369SOL    HW211007   5.991   2.636   0.597
 3370SOL     OW11008   0.535   5.838   3.669
 3370SOL    HW111009   0.494   5.929   3.664
 3370SOL    HW211010   0.469   5.773   3.705
 3371SOL     OW11011   3.183   3.052   1.534
 3371SOL    HW111012   3.114   3.090   1.596
 3371SOL    HW211013   3.140   2.982   1.476
 3372SOL     OW11014   5.387   3.022   3.618
 3372SOL    HW111015   5.476   3.059   3.588
 3372SOL    HW211016   5.377   2.929   3.583
 3373SOL     OW11017   0.563   4.578   0.872
 3373SOL    HW111018   0.647   4.524   0.866
 3373SOL    HW211019   0.576   4.666   0.827
 3374SOL     OW11020   1.039   5.275   4.055
 3374SOL    HW111021   0.956   5.220   4.046
 3374SOL    HW211022   1.119   5.218   4.035
 3375SOL     OW11023   6.625   6.928   5.559
 3375SOL    HW111024   6.659   7.013   5.597
 3375SOL    HW211025   6.546   6.946   5.500
 3376SOL     OW11026   3.629   3.964   5.107
 3376SOL    HW111027   3.536   3.988   5.082
 3376SOL    HW211028   3.685   4.047   5.113
 3377SOL     OW11029   6.642   5.802   4.595
 3377SOL    HW111030   6.606   5.781   4.686
 3377SOL    HW211031   6.677   5.896   4.594
 3378SOL     OW11032   1.140   6.023   0.146
 3378SOL    HW111033   1.173   6.020   0.051
 3378SOL    HW211034   1.160   6.113   0.185
 3379SOL     OW11035   5.434   4.940   3.917
 3379SOL    HW111036   5.372   4.862   3.928
 3379SOL    HW211037   5.498   4.943   3.993
 3380SOL     OW11038   1.454   4.494   2.250
 3380SOL    HW111039   1.355   4.503   2.253
 3380SOL    HW211040   1.479   4.415   2.195
 3381SOL     OW11041   3.289   4.576   6.605
 3381SOL    HW111042   3.296   4.656   6.546
 3381SOL    HW211043   3.195   4.567   6.638
 3382SOL     OW11044   0.466   3.936   6.563
 3382SOL    HW111045   0.372   3.905   6.551
 3382SOL    HW211046   0.521   3.861   6.601
 3383SOL     OW11047   3.696   5.807   0.349
 3383SOL    HW111048   3.740   5.891   0.380
 3383SOL    HW211049   3.748   5.769   0.272
 3384SOL     OW11050   3.634   2.545   6.530
 3384SOL    HW111051   3.631   2.598   6.615
 3384SOL    HW211052   3.541   2.526   6.499
 3385SOL     OW11053   5.970   1.854   4.408
 3385SOL    HW111054   5.955   1.930   4.345
 3385SOL    HW211055   6.047   1.874   4.468
 3386SOL     OW11056   6.883   4.795   5.258
 3386SOL    HW111057   6.890   4.893   5.278
 3386SOL    HW211058   6.805   4.757   5.306
 3387SOL     OW11059   6.227   0.464   3.252
 3387SOL    HW111060   6.162   0.535   3.225
 3387SOL    HW211061   6.320   0.501   3.245
 3388SOL     OW11062   0.961   3.883   0.738
 3388SOL    HW111063   0.981   3.886   0.835
 3388SOL    HW211064   0.989   3.969   0.695
 3389SOL     OW11065   6.159   5.093   5.739
 3389SOL    HW111066   6.111   5.180   5.727
 3389SOL    HW211067   6.129   5.049   5.823
 3390SOL     OW11068   2.942   4.816   1.027
 3390SOL    HW111069   3.014   4.851   0.967
 3390SOL    HW211070   2.919   4.723   1.001
 3391SOL     OW11071   5.323   3.969   5.715
 3391SOL    HW111072   5.308   3.916   5.799
 3391SOL    HW211073   5.237   4.011   5.687
 3392SOL     OW11074   4.863   5.673   5.456
 3392SOL    HW111075   4.957   5.685   5.487
 3392SOL    HW211076   4.818   5.604   5.514
 3393SOL     OW11077   3.081   1.093   0.671
 3393SOL    HW111078   3.107   1.077   0.575
 3393SOL    HW211079   3.113   1.018   0.727
 3394SOL     OW11080   3.116   5.802   1.909
 3394SOL    HW111081   3.168   5.884   1.884
 3394SOL    HW211082   3.084   5.756   1.826
 3395SOL     OW11083   1.363   5.817   2.912
 3395SOL    HW111084   1.327   5.750   2.977
 3395SOL    HW211085   1.311   5.813   2.827
 3396SOL     OW11086   3.497   6.925   4.421
 3396SOL    HW111087   3.458   6.875   4.498
 3396SOL    HW211088   3.576   6.875   4.385
 3397SOL     OW11089   3.077   6.185   2.337
 3397SOL    HW111090   3.151   6.210   2.400
 3397SOL    HW211091   3.072   6.252   2.264
 3398SOL     OW11092   6.544   0.261   0.681
 3398SOL    HW111093   6.575   0.280   0.774
 3398SOL    HW211094   6.623   0.260   0.620
 3399SOL     OW11095   6.717   6.628   2.281
 3399SOL    HW111096   6.700   6.694   2.208
 3399SOL    HW211097   6.713   6.535   2.243
 3400SOL     OW11098   3.525   3.433   5.658
 3400SOL    HW111099   3.621   3.426   5.632
 3400SOL    HW211100   3.467   3.414   5.579
 3401SOL     OW11101   6.602   3.580   3.784
 3401SOL    HW111102   6.676   3.645   3.803
 3401SOL    HW211103   6.518   3.611   3.828
 3402SOL     OW11104   6.320   3.919   0.367
 3402SOL    HW111105   6.317   3.824   0.336
 3402SOL    HW211106   6.372   3.924   0.452
 3403SOL     OW11107   5.463   0.230   3.793
 3403SOL    HW111108   5.400   0.234   3.870
 3403SOL    HW211109   5.539   0.169   3.814
 3404SOL     OW11110   5.093   4.717   2.517
 3404SOL    HW111111   5.182   4.679   2.544
 3404SOL    HW211112   5.089   4.814   2.543
 3405SOL     OW11113   4.713   6.987   0.671
 3405SOL    HW111114   4.683   0.027   0.598
 3405SOL    HW211115   4.774   0.015   0.732
 3406SOL     OW11116   4.588   4.967   1.375
 3406SOL    HW111117   4.497   4.951   1.411
 3406SOL    HW211118   4.610   5.064   1.382
 3407SOL     OW11119   2.190   1.605   0.908
 3407SOL    HW111120   2.279   1.609   0.862
 3407SOL    HW211121   2.169   1.695   0.947
 3408SOL     OW11122   2.426   6.925   4.405
 3408SOL    HW111123   2.479   6.970   4.334
 3408SOL    HW211124   2.464   6.834   4.422
 3409SOL     OW11125   4.401   2.200   0.073
 3409SOL    HW111126   4.301   2.202   0.067
 3409SOL    HW211127   4.432   2.270   0.136
 3410SOL     OW11128   6.083   1.862   2.348
 3410SOL    HW111129   6.015   1.822   2.287
 3410SOL    HW211130   6.123   1.943   2.305
 3411SOL     OW11131   5.654   3.491   6.486
 3411SOL    HW111132   5.692   3.576   6.449
 3411SOL    HW211133   5.684   3.413   6.431
 3412SOL     OW11134   5.105   3.784   3.177
 3412SOL    HW111135   5.014   3.795   3.218
 3412SOL    HW211136   5.102   3.814   3.082
 3413SOL     OW11137   1.274   2.824   0.770
 3413SOL    HW111138   1.179   2.815   0.801
 3413SOL    HW211139   1.324   2.740   0.790
 3414SOL     OW11140   3.666   3.358   1.976
 3414SOL    HW111141   3.760   3.376   2.006
 3414SOL    HW211142   3.650   3.401   1.888
 3415SOL     OW11143   2.789   0.833   6.948
 3415SOL    HW111144   2.837   0.845   0.013
 3415SOL    HW211145   2.701   0.789   6.964
 3416SOL     OW11146   5.156   6.331   6.482
 3416SOL    HW111147   5.126   6.251   6.430
 3416SOL    HW211148   5.254   6.346   6.466
 3417SOL     OW11149   6.045   0.583   2.404
 3417SOL    HW111150   6.103   0.653   2.446
 3417SOL    HW211151   6.039   0.600   2.306
 3418SOL     OW11152   4.523   5.746   1.062
 3418SOL    HW111153   4.489   5.830   1.105
 3418SOL    HW211154   4.522   5.671   1.129
 3419SOL     OW11155   2.826   4.784   5.283
 3419SOL    HW111156   2.866   4.703   5.239
 3419SOL    HW211157   2.854   4.866   5.232
 3420SOL     OW11158   5.237   0.536   2.271
 3420SOL    HW111159   5.305   0.473   2.233
 3420SOL    HW211160   5.241   0.623   2.221
 3421SOL     OW11161   0.448   1.592   4.340
 3421SOL    HW111162   0.504   1.654   4.285
 3421SOL    HW211163   0.484   1.591   4.434
 3422SOL     OW11164   2.911   5.237   1.179
 3422SOL    HW111165   2.975   5.167   1.210
 3422SOL    HW211166   2.955   5.295   1.111
 3423SOL     OW11167   1.801   5.523   5.484
 3423SOL    HW111168   1.715   5.567   5.508
 3423SOL    HW211169   1.784   5.449   5.418
 3424SOL     OW11170   5.917   5.833   2.504
 3424SOL    HW111171   6.000   5.883   2.477
 3424SOL    HW211172   5.837   5.875   2.462
 3425SOL     OW11173   5.480   3.144   6.317
 3425SOL    HW111174   5.419   3.209   6.272
 3425SOL    HW211175   5.445   3.051   6.306
 3426SOL     OW11176   6.459   5.521   5.864
 3426SOL    HW111177   6.528   5.480   5.803
 3426SOL    HW211178   6.494   5.607   5.901
 3427SOL     OW11179   1.533   0.852   6.772
 3427SOL    HW111180   1.515   0.924   6.839
 3427SOL    HW211181   1.469   0.776   6.787
 3428SOL     OW11182   4.096   0.882   4.046
 3428SOL    HW111183   4.005   0.912   4.075
 3428SOL    HW211184   4.114   0.790   4.081
 3429SOL     OW11185   5.132   5.319   0.036
 3429SOL    HW111186   5.112   5.318   6.960
 3429SOL    HW211187   5.103   5.407   0.075
 3430SOL     OW11188   2.868   4.055   6.648
 3430SOL    HW111189   2.876   3.961   6.680
 3430SOL    HW211190   2.845   4.056   6.550
 3431SOL     OW11191   1.371   3.619   1.665
 3431SOL    HW111192   1.406   3.641   1.574
 3431SOL    HW211193   1.323   3.531   1.661
 3432SOL     OW11194   6.870   5.617   6.325
 3432SOL    HW111195   6.821   5.530   6.325
 3432SOL    HW211196   6.967   5.600   6.341
 3433SOL     OW11197   0.753   1.436   0.042
 3433SOL    HW111198   0.775   1.520   0.092
 3433SOL    HW211199   0.816   1.363   0.070
 3434SOL     OW11200   4.242   2.672   1.688
 3434SOL    HW111201   4.223   2.763   1.652
 3434SOL    HW211202   4.158   2.618   1.687
 3435SOL     OW11203   2.891   2.649   1.394
 3435SOL    HW111204   2.872   2.560   1.436
 3435SOL    HW211205   2.857   2.649   1.300
 3436SOL     OW11206   4.490   5.699   5.079
 3436SOL    HW111207   4.412   5.638   5.066
 3436SOL    HW211208   4.538   5.674   5.164
 3437SOL     OW11209   2.596   5.780   0.802
 3437SOL    HW111210   2.674   5.751   0.858
 3437SOL    HW211211   2.526   5.821   0.861
 3438SOL     OW11212   2.642   4.239   0.428
 3438SOL    HW111213   2.730   4.286   0.435
 3438SOL    HW211214   2.584   4.266   0.505
 3439SOL     OW11215   2.789   5.729   0.978
 3439SOL    HW111216   2.888   5.736   0.967
 3439SOL    HW211217   2.767   5.649   1.035
 3440SOL     OW11218   4.178   4.856   5.631
 3440SOL    HW111219   4.268   4.861   5.676
 3440SOL    HW211220   4.106   4.854   5.700
 3441SOL     OW11221   0.113   5.454   5.740
 3441SOL    HW111222   0.169   5.470   5.658
 3441SOL    HW211223   0.082   5.359   5.740
 3442SOL     OW11224   1.860   1.836   0.708
 3442SOL    HW111225   1.826   1.918   0.753
 3442SOL    HW211226   1.875   1.856   0.611
 3443SOL     OW11227   6.678   5.561   2.171
 3443SOL    HW111228   6.654   5.498   2.246
 3443SOL    HW211229   6.635   5.650   2.188
 3444SOL     OW11230   1.460   3.649   5.688
 3444SOL    HW111231   1.541   3.705   5.704
 3444SOL    HW211232   1.478   3.555   5.716
 3445SOL     OW11233   5.887   4.814   4.447
 3445SOL    HW111234   5.902   4.718   4.471
 3445SOL    HW211235   5.962   4.870   4.483
 3446SOL     OW11236   5.149   1.514   6.974
 3446SOL    HW111237   5.215   1.518   0.028
 3446SOL    HW211238   5.061   1.482   7.009
 3447SOL     OW11239   5.029   1.889   6.018
 3447SOL    HW111240   4.974   1.907   5.936
 3447SOL    HW211241   5.056   1.793   6.020
 3448SOL     OW11242   0.496   5.281   4.621
 3448SOL    HW111243   0.482   5.299   4.718
 3448SOL    HW211244   0.526   5.364   4.575
 3449SOL     OW11245   1.268   4.476   4.684
 3449SOL    HW111246   1.293   4.562   4.639
 3449SOL    HW211247   1.170   4.460   4.672
 3450SOL     OW11248   1.934   6.058   3.179
 3450SOL    HW111249   1.959   6.115   3.258
 3450SOL    HW211250   1.970   6.100   3.096
 3451SOL     OW11251   2.339   1.937   1.250
 3451SOL    HW111252   2.266   1.922   1.318
 3451SOL    HW211253   2.298   1.957   1.161
 3452SOL     OW11254   4.386   1.045   5.201
 3452SOL    HW111255   4.353   0.975   5.263
 3452SOL    HW211256   4.481   1.025   5.175
 3453SOL     OW11257   4.448   6.634   5.554
 3453SOL    HW111258   4.542   6.602   5.542
 3453SOL    HW211259   4.388   6.585   5.490
 3454SOL     OW11260   1.476   3.287   3.935
 3454SOL    HW111261   1.542   3.247   3.871
 3454SOL    HW211262   1.461   3.383   3.910
 3455SOL     OW11263   1.436   3.711   5.995
 3455SOL    HW111264   1.480   3.796   6.025
 3455SOL    HW211265   1.408   3.719   5.900
 3456SOL     OW11266   4.753   5.299   2.692
 3456SOL    HW111267   4.712   5.208   2.685
 3456SOL    HW211268   4.796   5.323   2.604
 3457SOL     OW11269   4.022   3.857   0.402
 3457SOL    HW111270   3.969   3.937   0.372
 3457SOL    HW211271   4.009   3.782   0.338
 3458SOL     OW11272   4.132   1.816   1.193
 3458SOL    HW111273   4.071   1.778   1.263
 3458SOL    HW211274   4.131   1.916   1.199
 3459SOL     OW11275   6.619   0.997   2.721
 3459SOL    HW111276   6.570   0.932   2.780
 3459SOL    HW211277   6.702   1.029   2.767
 3460SOL     OW11278   4.804   1.819   5.193
 3460SOL    HW111279   4.824   1.743   5.132
 3460SOL    HW211280   4.708   1.843   5.186
 3461SOL     OW11281   4.645   4.483   4.503
 3461SOL    HW111282   4.577   4.554   4.521
 3461SOL    HW211283   4.695   4.507   4.419
 3462SOL     OW11284   1.192   4.174   6.734
 3462SOL    HW111285   1.236   4.087   6.758
 3462SOL    HW211286   1.255   4.250   6.755
 3463SOL     OW11287   6.346   3.514   6.611
 3463SOL    HW111288   6.290   3.432   6.612
 3463SOL    HW211289   6.400   3.518   6.695
 3464SOL     OW11290   0.184   4.979   4.570
 3464SOL    HW111291   0.102   5.004   4.622
 3464SOL    HW211292   0.182   4.882   4.548
 3465SOL     OW11293   0.841   2.946   1.080
 3465SOL    HW111294   0.913   2.998   1.127
 3465SOL    HW211295   0.760   3.004   1.069
 3466SOL     OW11296   5.406   4.038   3.261
 3466SOL    HW111297   5.457   4.084   3.333
 3466SOL    HW211298   5.468   3.984   3.205
 3467SOL     OW11299   2.342   1.424   6.233
 3467SOL    HW111300   2.246   1.394   6.235
 3467SOL    HW211301   2.352   1.499   6.167
 3468SOL     OW11302   5.694   4.903   1.594
 3468SOL    HW111303   5.703   4.872   1.688
 3468SOL    HW211304   5.612   4.959   1.584
 3469SOL     OW11305   5.491   3.766   1.102
 3469SOL    HW111306   5.485   3.673   1.065
 3469SOL    HW211307   5.568   3.772   1.165
 3470SOL     OW11308   6.519   6.206   6.461
 3470SOL    HW111309   6.490   6.187   6.368
 3470SOL    HW211310   6.442   6.193   6.524
 3471SOL     OW11311   3.942   6.597   4.394
 3471SOL    HW111312   3.876   6.522   4.385
 3471SOL    HW211313   3.988   6.612   4.307
 3472SOL     OW11314   3.479   0.668   4.249
 3472SOL    HW111315   3.509   0.667   4.153
 3472SOL    HW211316   3.493   0.577   4.289
 3473SOL     OW11317   4.850   6.653   3.619
 3473SOL    HW111318   4.794   6.592   3.562
 3473SOL    HW211319   4.845   6.622   3.714
 3474SOL     OW11320   5.655   5.232   0.376
 3474SOL    HW111321   5.735   5.173   0.385
 3474SOL    HW211322   5.651   5.295   0.453
 3475SOL     OW11323   1.948   5.684   5.073
 3475SOL    HW111324   2.020   5.623   5.043
 3475SOL    HW211325   1.868   5.673   5.015
 3476SOL     OW11326   2.768   1.784   3.181
 3476SOL    HW111327   2.836   1.857   3.192
 3476SOL    HW211328   2.813   1.695   3.189
 3477SOL     OW11329   4.697   5.416   2.124
 3477SOL    HW111330   4.774   5.471   2.090
 3477SOL    HW211331   4.625   5.477   2.156
 3478SOL     OW11332   3.465   4.879   0.110
 3478SOL    HW111333   3.446   4.781   0.108
 3478SOL    HW211334   3.500   4.905   0.200
 3479SOL     OW11335   1.844   0.677   0.326
 3479SOL    HW111336   1.830   0.580   0.307
 3479SOL    HW211337   1.900   0.687   0.408
 3480SOL     OW11338   1.362   6.491   4.273
 3480SOL    HW111339   1.447   6.541   4.253
 3480SOL    HW211340   1.360   6.467   4.370
 3481SOL     OW11341   2.277   4.342   0.417
 3481SOL    HW111342   2.278   4.243   0.427
 3481SOL    HW211343   2.359   4.381   0.459
 3482SOL     OW11344   6.822   2.134   1.739
 3482SOL    HW111345   6.903   2.173   1.784
 3482SOL    HW211346   6.739   2.175   1.777
 3483SOL     OW11347   4.370   1.692   1.146
 3483SOL    HW111348   4.281   1.735   1.164
 3483SOL    HW211349   4.442   1.745   1.191
 3484SOL     OW11350   3.407   4.148   3.810
 3484SOL    HW111351   3.472   4.072   3.808
 3484SOL    HW211352   3.444   4.224   3.756
 3485SOL     OW11353   6.279   2.516   3.952
 3485SOL    HW111354   6.264   2.605   3.908
 3485SOL    HW211355   6.282   2.528   4.051
 3486SOL     OW11356   6.252   1.826   2.543
 3486SOL    HW111357   6.178   1.837   2.476
 3486SOL    HW211358   6.339   1.854   2.502
 3487SOL     OW11359   1.652   6.558   1.204
 3487SOL    HW111360   1.616   6.550   1.111
 3487SOL    HW211361   1.628   6.476   1.256
 3488SOL     OW11362   6.301   3.186   5.311
 3488SOL    HW111363   6.272   3.091   5.325
 3488SOL    HW211364   6.240   3.230   5.245
 3489SOL     OW11365   2.540   5.617   6.767
 3489SOL    HW111366   2.578   5.579   6.851
 3489SOL    HW211367   2.613   5.658   6.712
 3490SOL     OW11368   5.699   3.430   0.396
 3490SOL    HW111369   5.599   3.440   0.400
 3490SOL    HW211370   5.726   3.416   0.301
 3491SOL     OW11371   6.025   2.536   5.197
 3491SOL    HW111372   5.979   2.610   5.148
 3491SOL    HW211373   6.094   2.574   5.259
 3492SOL     OW11374   0.706   4.288   6.248
 3492SOL    HW111375   0.754   4.293   6.335
 3492SOL    HW211376   0.677   4.193   6.231
 3493SOL     OW11377   0.026   5.153   1.064
 3493SOL    HW111378   6.984   5.099   1.120
 3493SOL    HW211379   7.000   5.186   0.983
 3494SOL     OW11380   3.060   0.175   1.116
 3494SOL    HW111381   3.059   0.180   1.216
 3494SOL    HW211382   3.081   0.266   1.079
 3495SOL     OW11383   5.763   4.171   5.904
 3495SOL    HW111384   5.722   4.115   5.833
 3495SOL    HW211385   5.805   4.252   5.863
 3496SOL     OW11386   0.519   6.438   1.873
 3496SOL    HW111387   0.479   6.421   1.783
 3496SOL    HW211388   0.481   6.372   1.939
 3497SOL     OW11389   2.990   0.138   4.870
 3497SOL    HW111390   3.017   0.195   4.792
 3497SOL    HW211391   3.007   0.188   4.955
 3498SOL     OW11392   1.619   2.073   0.447
 3498SOL    HW111393   1.633   2.016   0.366
 3498SOL    HW211394   1.586   2.016   0.522
 3499SOL     OW11395   6.763   3.905   2.939
 3499SOL    HW111396   6.689   3.847   2.974
 3499SOL    HW211397   6.849   3.880   2.985
 3500SOL     OW11398   6.458   2.024   0.573
 3500SOL    HW111399   6.520   2.091   0.531
 3500SOL    HW211400   6.453   1.942   0.516
 3501SOL     OW11401   6.828   5.288   3.348
 3501SOL    HW111402   6.892   5.214   3.330
 3501SOL    HW211403   6.863   5.345   3.422
 3502SOL     OW11404   1.106   6.647   1.065
 3502SOL    HW111405   1.093   6.722   1.000
 3502SOL    HW211406   1.150   6.570   1.019
 3503SOL     OW11407   2.920   1.056   3.641
 3503SOL    HW111408   2.932   0.990   3.716
 3503SOL    HW211409   2.965   1.142   3.664
 3504SOL     OW11410   2.092   2.719   2.287
 3504SOL    HW111411   2.055   2.775   2.362
 3504SOL    HW211412   2.025   2.650   2.261
 3505SOL     OW11413   4.584   6.610   4.494
 3505SOL    HW111414   4.540   6.555   4.566
 3505SOL    HW211415   4.613   6.697   4.533
 3506SOL     OW11416   0.059   3.141   2.720
 3506SOL    HW111417   0.011   3.132   2.632
 3506SOL    HW211418   0.067   3.237   2.744
 3507SOL     OW11419   6.854   0.348   5.184
 3507SOL    HW111420   6.874   0.343   5.086
 3507SOL    HW211421   6.832   0.256   5.218
 3508SOL     OW11422   0.424   4.770   6.865
 3508SOL    HW111423   0.521   4.751   6.884
 3508SOL    HW211424   0.368   4.694   6.895
 3509SOL     OW11425   3.972   6.667   6.941
 3509SOL    HW111426   3.886   6.714   6.921
 3509SOL    HW211427   3.961   6.569   6.926
 3510SOL     OW11428   2.133   1.711   2.774
 3510SOL    HW111429   2.203   1.646   2.804
 3510SOL    HW211430   2.149   1.735   2.678
 3511SOL     OW11431   1.213   0.959   3.915
 3511SOL    HW111432   1.305   0.985   3.886
 3511SOL    HW211433   1.182   0.882   3.861
 3512SOL     OW11434   3.013   3.096   2.197
 3512SOL    HW111435   3.063   3.045   2.127
 3512SOL    HW211436   2.944   3.036   2.239
 3513SOL     OW11437   0.181   5.221   0.378
 3513SOL    HW111438   0.226   5.132   0.382
 3513SOL    HW211439   0.103   5.222   0.440
 3514SOL     OW11440   3.673   5.553   3.314
 3514SOL    HW111441   3.579   5.585   3.301
 3514SOL    HW211442   3.695   5.551   3.411
 3515SOL     OW11443   3.718   5.651   4.279
 3515SOL    HW111444   3.730   5.660   4.377
 3515SOL    HW211445   3.622   5.670   4.255
 3516SOL     OW11446   1.479   1.338   0.848
 3516SOL    HW111447   1.496   1.401   0.772
 3516SOL    HW211448   1.392   1.360   0.891
 3517SOL     OW11449   0.379   0.889   6.645
 3517SOL    HW111450   0.369   0.986   6.620
 3517SOL    HW211451   0.296   0.857   6.690
 3518SOL     OW11452   4.169   3.949   6.262
 3518SOL    HW111453   4.211   3.893   6.190
 3518SOL    HW211454   4.196   3.914   6.351
 3519SOL     OW11455   4.162   6.922   6.740
 3519SOL    HW111456   4.200   6.849   6.796
 3519SOL    HW211457   4.070   6.945   6.773
 3520SOL     OW11458   4.463   4.884   0.896
 3520SOL    HW111459   4.411   4.800   0.913
 3520SOL    HW211460   4.526   4.900   0.972
 3521SOL     OW11461   0.332   1.844   5.692
 3521SOL    HW111462   0.378   1.759   5.667
 3521SOL    HW211463   0.326   1.904   5.612
 3522SOL     OW11464   2.164   0.432   1.077
 3522SOL    HW111465   2.227   0.384   1.016
 3522SOL    HW211466   2.215   0.477   1.150
 3523SOL     OW11467   2.324   4.372   4.401
 3523SOL    HW111468   2.283   4.289   4.361
 3523SOL    HW211469   2.271   4.452   4.371
 3524SOL     OW11470   2.456   1.540   3.816
 3524SOL    HW111471   2.553   1.517   3.807
 3524SOL    HW211472   2.413   1.538   3.725
 3525SOL     OW11473   2.156   3.252   4.014
 3525SOL    HW111474   2.183   3.244   4.110
 3525SOL    HW211475   2.194   3.175   3.963
 3526SOL     OW11476   3.602   5.738   3.751
 3526SOL    HW111477   3.607   5.766   3.655
 3526SOL    HW211478   3.668   5.665   3.768
 3527SOL     OW11479   6.885   3.924   6.118
 3527SOL    HW111480   6.903   3.837   6.164
 3527SOL    HW211481   6.786   3.933   6.103
 3528SOL     OW11482   1.228   6.667   4.109
 3528SOL    HW111483   1.148   6.619   4.074
 3528SOL    HW211484   1.276   6.609   4.175
 3529SOL     OW11485   3.538   6.498   0.384
 3529SOL    HW111486   3.545   6.543   0.295
 3529SOL    HW211487   3.451   6.521   0.427
 3530SOL     OW11488   1.463   5.547   2.376
 3530SOL    HW111489   1.542   5.570   2.319
 3530SOL    HW211490   1.485   5.567   2.472
 3531SOL     OW11491   5.587   4.207   6.818
 3531SOL    HW111492   5.512   4.160   6.772
 3531SOL    HW211493   5.637   4.143   6.876
 3532SOL     OW11494   2.699   6.720   6.611
 3532SOL    HW111495   2.727   6.787   6.542
 3532SOL    HW211496   2.775   6.658   6.630
 3533SOL     OW11497   1.530   1.790   2.848
 3533SOL    HW111498   1.491   1.880   2.833
 3533SOL    HW211499   1.562   1.783   2.943
 3534SOL     OW11500   4.875   6.796   4.274
 3534SOL    HW111501   4.878   6.832   4.367
 3534SOL    HW211502   4.945   6.840   4.218
 3535SOL     OW11503   4.149   4.568   6.983
 3535SOL    HW111504   4.103   4.480   6.978
 3535SOL    HW211505   4.182   4.583   0.055
 3536SOL     OW11506   2.168   3.018   2.342
 3536SOL    HW111507   2.180   3.095   2.280
 3536SOL    HW211508   2.072   2.989   2.340
 3537SOL     OW11509   3.284   5.393   1.761
 3537SOL    HW111510   3.268   5.313   1.703
 3537SOL    HW211511   3.197   5.433   1.788
 3538SOL     OW11512   2.916   0.506   3.641
 3538SOL    HW111513   2.907   0.595   3.596
 3538SOL    HW211514   3.008   0.471   3.626
 3539SOL     OW11515   5.104   5.323   6.195
 3539SOL    HW111516   5.123   5.351   6.289
 3539SOL    HW211517   5.042   5.389   6.153
 3540SOL     OW11518   5.172   4.175   0.536
 3540SOL    HW111519   5.130   4.251   0.587
 3540SOL    HW211520   5.246   4.209   0.479
 3541SOL     OW11521   0.481   2.959   2.041
 3541SOL    HW111522   0.472   2.884   1.975
 3541SOL    HW211523   0.506   2.921   2.131
 3542SOL     OW11524   5.820   1.175   6.942
 3542SOL    HW111525   5.823   1.075   6.945
 3542SOL    HW211526   5.895   1.209   6.885
 3543SOL     OW11527   6.934   2.928   4.942
 3543SOL    HW111528   6.992   2.998   4.985
 3543SOL    HW211529   6.988   2.846   4.924
 3544SOL     OW11530   4.013   4.850   5.837
 3544SOL    HW111531   3.982   4.863   5.932
 3544SOL    HW211532   3.991   4.757   5.808
 3545SOL     OW11533   2.552   6.446   1.627
 3545SOL    HW111534   2.577   6.430   1.722
 3545SOL    HW211535   2.629   6.490   1.580
 3546SOL     OW11536   0.301   4.702   0.880
 3546SOL    HW111537   0.296   4.778   0.945
 3546SOL    HW211538   0.385   4.650   0.897
 3547SOL     OW11539   1.776   3.883   4.472
 3547SOL    HW111540   1.720   3.961   4.445
 3547SOL    HW211541   1.767   3.868   4.570
 3548SOL     OW11542   6.079   0.183   5.374
 3548SOL    HW111543   6.069   0.227   5.463
 3548SOL    HW211544   6.078   0.084   5.386
 3549SOL     OW11545   1.606   6.987   6.460
 3549SOL    HW111546   1.509   6.964   6.465
 3549SOL    HW211547   1.644   6.991   6.553
 3550SOL     OW11548   6.412   2.423   4.862
 3550SOL    HW111549   6.328   2.477   4.854
 3550SOL    HW211550   6.442   2.395   4.771
 3551SOL     OW11551   6.454   1.471   5.318
 3551SOL    HW111552   6.427   1.565   5.341
 3551SOL    HW211553   6.548   1.455   5.349
 3552SOL     OW11554   6.323   0.830   3.632
 3552SOL    HW111555   6.360   0.798   3.545
 3552SOL    HW211556   6.373   0.912   3.661
 3553SOL     OW11557   5.735   6.090   6.604
 3553SOL    HW111558   5.728   5.995   6.635
 3553SOL    HW211559   5.670   6.106   6.530
 3554SOL     OW11560   6.102   3.680   6.814
 3554SOL    HW111561   6.067   3.762   6.769
 3554SOL    HW211562   6.173   3.639   6.757
 3555SOL     OW11563   3.122   1.218   5.437
 3555SOL    HW111564   3.173   1.282   5.379
 3555SOL    HW211565   3.186   1.152   5.478
 3556SOL     OW11566   5.410   1.354   0.553
 3556SOL    HW111567   5.335   1.309   0.601
 3556SOL    HW211568   5.469   1.401   0.620
 3557SOL     OW11569   4.675   0.272   1.028
 3557SOL    HW111570   4.653   0.277   0.931
 3557SOL    HW211571   4.736   0.195   1.045
 3558SOL     OW11572   4.233   5.823   3.085
 3558SOL    HW111573   4.290   5.770   3.023
 3558SOL    HW211574   4.176   5.762   3.139
 3559SOL     OW11575   4.671   6.176   6.433
 3559SOL    HW111576   4.605   6.225   6.490
 3559SOL    HW211577   4.750   6.150   6.489
 3560SOL     OW11578   1.925   6.020   4.528
 3560SOL    HW111579   1.893   6.049   4.438
 3560SOL    HW211580   1.984   5.941   4.519
 3561SOL     OW11581   4.360   3.282   6.694
 3561SOL    HW111582   4.333   3.378   6.696
 3561SOL    HW211583   4.437   3.268   6.757
 3562SOL     OW11584   2.484   0.996   0.671
 3562SOL    HW111585   2.448   0.903   0.664
 3562SOL    HW211586   2.574   0.994   0.716
 3563SOL     OW11587   6.327   1.856   6.403
 3563SOL    HW111588   6.261   1.850   6.478
 3563SOL    HW211589   6.280   1.841   6.316
 3564SOL     OW11590   5.798   2.798   3.036
 3564SOL    HW111591   5.854   2.809   2.953
 3564SOL    HW211592   5.841   2.848   3.111
 3565SOL     OW11593   4.847   6.106   5.256
 3565SOL    HW111594   4.934   6.058   5.249
 3565SOL    HW211595   4.795   6.094   5.171
 3566SOL     OW11596   0.729   0.960   4.912
 3566SOL    HW111597   0.661   0.990   4.979
 3566SOL    HW211598   0.813   1.014   4.924
 3567SOL     OW11599   1.186   4.618   6.615
 3567SOL    HW111600   1.154   4.674   6.691
 3567SOL    HW211601   1.283   4.636   6.599
 3568SOL     OW11602   2.015   3.897   5.408
 3568SOL    HW111603   2.068   3.822   5.449
 3568SOL    HW211604   2.047   3.914   5.315
 3569SOL     OW11605   0.714   0.225   3.751
 3569SOL    HW111606   0.736   0.130   3.773
 3569SOL    HW211607   0.795   0.270   3.713
 3570SOL     OW11608   0.543   1.712   5.049
 3570SOL    HW111609   0.591   1.723   4.962
 3570SOL    HW211610   0.453   1.755   5.042
 3571SOL     OW11611   6.721   5.508   4.869
 3571SOL    HW111612   6.694   5.459   4.787
 3571SOL    HW211613   6.812   5.547   4.856
 3572SOL     OW11614   5.553   6.832   5.806
 3572SOL    HW111615   5.534   6.810   5.710
 3572SOL    HW211616   5.525   6.756   5.864
 3573SOL     OW11617   0.137   2.921   1.584
 3573SOL    HW111618   0.095   2.967   1.663
 3573SOL    HW211619   0.169   2.830   1.612
 3574SOL     OW11620   0.366   3.748   0.232
 3574SOL    HW111621   0.316   3.723   0.150
 3574SOL    HW211622   0.405   3.839   0.222
 3575SOL     OW11623   6.727   0.663   2.497
 3575SOL    HW111624   6.781   0.669   2.581
 3575SOL    HW211625   6.635   0.699   2.514
 3576SOL     OW11626   0.430   1.238   0.896
 3576SOL    HW111627   0.474   1.324   0.869
 3576SOL    HW211628   0.481   1.161   0.857
 3577SOL     OW11629   2.497   4.338   0.637
 3577SOL    HW111630   2.486   4.436   0.620
 3577SOL    HW211631   2.432   4.308   0.706
 3578SOL     OW11632   3.383   4.587   1.674
 3578SOL    HW111633   3.451   4.623   1.738
 3578SOL    HW211634   3.406   4.616   1.581
 3579SOL     OW11635   2.586   2.991   6.533
 3579SOL    HW111636   2.520   2.983   6.459
 3579SOL    HW211637   2.638   2.906   6.542
 3580SOL     OW11638   5.793   1.471   2.312
 3580SOL    HW111639   5.717   1.517   2.266
 3580SOL    HW211640   5.879   1.503   2.273
 3581SOL     OW11641   6.919   1.617   2.424
 3581SOL    HW111642   6.856   1.556   2.376
 3581SOL    HW211643   6.892   1.625   2.520
 3582SOL     OW11644   0.934   0.737   5.689
 3582SOL    HW111645   0.980   0.650   5.666
 3582SOL    HW211646   0.867   0.721   5.761
 3583SOL     OW11647   1.302   6.888   2.245
 3583SOL    HW111648   1.370   6.816   2.249
 3583SOL    HW211649   1.343   6.972   2.209
 3584SOL     OW11650   5.077   0.602   4.743
 3584SOL    HW111651   5.019   0.655   4.804
 3584SOL    HW211652   5.020   0.552   4.677
 3585SOL     OW11653   2.296   4.777   3.247
 3585SOL    HW111654   2.249   4.807   3.164
 3585SOL    HW211655   2.273   4.681   3.265
 3586SOL     OW11656   1.298   1.350   0.115
 3586SOL    HW111657   1.343   1.309   0.036
 3586SOL    HW211658   1.313   1.449   0.114
 3587SOL     OW11659   3.453   6.364   5.537
 3587SOL    HW111660   3.521   6.432   5.510
 3587SOL    HW211661   3.499   6.280   5.563
 3588SOL     OW11662   2.664   2.543   5.452
 3588SOL    HW111663   2.722   2.485   5.395
 3588SOL    HW211664   2.656   2.633   5.410
 3589SOL     OW11665   2.657   6.344   4.474
 3589SOL    HW111666   2.721   6.386   4.538
 3589SOL    HW211667   2.666   6.245   4.478
 3590SOL     OW11668   1.364   5.954   6.995
 3590SOL    HW111669   1.407   5.880   6.943
 3590SOL    HW211670   1.405   5.958   0.064
 3591SOL     OW11671   5.152   1.820   4.644
 3591SOL    HW111672   5.069   1.808   4.700
 3591SOL    HW211673   5.232   1.825   4.705
 3592SOL     OW11674   5.593   1.606   2.189
 3592SOL    HW111675   5.536   1.649   2.258
 3592SOL    HW211676   5.542   1.600   2.102
 3593SOL     OW11677   0.515   4.790   4.478
 3593SOL    HW111678   0.584   4.739   4.528
 3593SOL    HW211679   0.533   4.888   4.486
 3594SOL     OW11680   4.466   1.285   4.696
 3594SOL    HW111681   4.472   1.291   4.796
 3594SOL    HW211682   4.440   1.374   4.659
 3595SOL     OW11683   2.209   6.641   6.953
 3595SOL    HW111684   2.160   6.694   0.000
 3595SOL    HW211685   2.206   6.544   6.977
 3596SOL     OW11686   6.563   3.609   3.076
 3596SOL    HW111687   6.546   3.707   3.090
 3596SOL    HW211688   6.561   3.562   3.165
 3597SOL     OW11689   4.095   0.344   3.997
 3597SOL    HW111690   4.144   0.273   3.946
 3597SOL    HW211691   4.002   0.314   4.016
 3598SOL     OW11692   2.308   6.590   0.228
 3598SOL    HW111693   2.372   6.657   0.191
 3598SOL    HW211694   2.311   6.507   0.171
 3599SOL     OW11695   0.273   2.357   3.981
 3599SOL    HW111696   0.294   2.282   4.043
 3599SOL    HW211697   0.196   2.332   3.923
 3600SOL     OW11698   6.652   6.663   1.042
 3600SOL    HW111699   6.586   6.605   1.090
 3600SOL    HW211700   6.719   6.697   1.108
 3601SOL     OW11701   6.763   3.567   5.946
 3601SOL    HW111702   6.858   3.535   5.945
 3601SOL    HW211703   6.728   3.564   6.040
 3602SOL     OW11704   3.415   2.741   1.016
 3602SOL    HW111705   3.459   2.769   0.931
 3602SOL    HW211706   3.468   2.668   1.059
 3603SOL     OW11707   3.889   5.260   5.146
 3603SOL    HW111708   3.939   5.184   5.187
 3603SOL    HW211709   3.845   5.314   5.217
 3604SOL     OW11710   5.534   4.364   3.174
 3604SOL    HW111711   5.576   4.274   3.187
 3604SOL    HW211712   5.472   4.383   3.251
 3605SOL     OW11713   5.691   1.469   6.465
 3605SOL    HW111714   5.615   1.523   6.501
 3605SOL    HW211715   5.655   1.389   6.417
 3606SOL     OW11716   1.993   3.588   2.641
 3606SOL    HW111717   1.922   3.614   2.707
 3606SOL    HW211718   1.955   3.522   2.576
 3607SOL     OW11719   4.409   6.483   5.264
 3607SOL    HW111720   4.428   6.385   5.259
 3607SOL    HW211721   4.317   6.502   5.231
 3608SOL     OW11722   6.667   3.365   2.766
 3608SOL    HW111723   6.722   3.400   2.690
 3608SOL    HW211724   6.574   3.402   2.760
 3609SOL     OW11725   0.724   0.961   4.025
 3609SOL    HW111726   0.808   1.015   4.034
 3609SOL    HW211727   0.650   1.021   3.995
 3610SOL     OW11728   1.283   4.675   5.584
 3610SOL    HW111729   1.287   4.771   5.557
 3610SOL    HW211730   1.301   4.617   5.504
 3611SOL     OW11731   4.599   4.699   6.803
 3611SOL    HW111732   4.620   4.603   6.786
 3611SOL    HW211733   4.545   4.735   6.727
 3612SOL     OW11734   2.347   5.602   1.127
 3612SOL    HW111735   2.358   5.656   1.211
 3612SOL    HW211736   2.395   5.647   1.052
 3613SOL     OW11737   5.539   4.786   6.145
 3613SOL    HW111738   5.452   4.757   6.105
 3613SOL    HW211739   5.562   4.727   6.222
 3614SOL     OW11740   3.793   3.416   5.061
 3614SOL    HW111741   3.854   3.378   4.992
 3614SOL    HW211742   3.698   3.406   5.030
 3615SOL     OW11743   6.019   6.927   6.531
 3615SOL    HW111744   5.925   6.936   6.497
 3615SOL    HW211745   6.057   6.839   6.502
 3616SOL     OW11746   6.986   1.216   3.832
 3616SOL    HW111747   6.938   1.283   3.776
 3616SOL    HW211748   7.006   1.255   3.922
 3617SOL     OW11749   0.300   0.578   0.924
 3617SOL    HW111750   0.383   0.555   0.974
 3617SOL    HW211751   0.227   0.601   0.989
 3618SOL     OW11752   4.099   5.829   6.140
 3618SOL    HW111753   4.107   5.896   6.214
 3618SOL    HW211754   4.132   5.740   6.172
 3619SOL     OW11755   4.947   3.450   3.821
 3619SOL    HW111756   4.964   3.491   3.911
 3619SOL    HW211757   4.885   3.372   3.832
 3620SOL     OW11758   5.651   1.893   5.021
 3620SOL    HW111759   5.658   1.829   4.945
 3620SOL    HW211760   5.695   1.979   4.996
 3621SOL     OW11761   2.082   2.454   6.561
 3621SOL    HW111762   1.999   2.510   6.551
 3621SOL    HW211763   2.083   2.413   6.652
 3622SOL     OW11764   1.262   4.123   0.887
 3622SOL    HW111765   1.345   4.174   0.907
 3622SOL    HW211766   1.247   4.055   0.959
 3623SOL     OW11767   6.330   5.339   4.603
 3623SOL    HW111768   6.332   5.258   4.662
 3623SOL    HW211769   6.335   5.311   4.507
 3624SOL     OW11770   1.635   0.338   1.939
 3624SOL    HW111771   1.693   0.418   1.922
 3624SOL    HW211772   1.692   0.256   1.945
 3625SOL     OW11773   1.748   2.010   5.111
 3625SOL    HW111774   1.664   2.031   5.061
 3625SOL    HW211775   1.728   2.000   5.208
 3626SOL     OW11776   1.750   3.305   5.576
 3626SOL    HW111777   1.838   3.319   5.530
 3626SOL    HW211778   1.677   3.345   5.522
 3627SOL     OW11779   4.030   3.660   4.554
 3627SOL    HW111780   3.978   3.593   4.501
 3627SOL    HW211781   4.007   3.752   4.523
 3628SOL     OW11782   3.038   5.613   3.827
 3628SOL    HW111783   3.100   5.649   3.757
 3628SOL    HW211784   3.002   5.525   3.797
 3629SOL     OW11785   6.248   3.743   4.887
 3629SOL    HW111786   6.286   3.813   4.947
 3629SOL    HW211787   6.316   3.719   4.817
 3630SOL     OW11788   6.203   1.894   4.534
 3630SOL    HW111789   6.235   1.941   4.451
 3630SOL    HW211790   6.278   1.841   4.573
 3631SOL     OW11791   2.002   0.615   4.165
 3631SOL    HW111792   1.990   0.707   4.200
 3631SOL    HW211793   2.084   0.574   4.204
 3632SOL     OW11794   5.196   6.610   5.933
 3632SOL    HW111795   5.294   6.605   5.948
 3632SOL    HW211796   5.169   6.704   5.913
 3633SOL     OW11797   0.917   2.838   5.633
 3633SOL    HW111798   0.945   2.779   5.709
 3633SOL    HW211799   0.817   2.844   5.630
 3634SOL     OW11800   2.371   4.766   6.641
 3634SOL    HW111801   2.384   4.805   6.550
 3634SOL    HW211802   2.273   4.755   6.658
 3635SOL     OW11803   1.818   1.834   4.464
 3635SOL    HW111804   1.903   1.803   4.423
 3635SOL    HW211805   1.837   1.907   4.530
 3636SOL     OW11806   0.541   0.020   1.551
 3636SOL    HW111807   0.561   7.006   1.460
 3636SOL    HW211808   0.526   0.118   1.545
 3637SOL     OW11809   5.189   1.348   2.480
 3637SOL    HW111810   5.211   1.312   2.390
 3637SOL    HW211811   5.203   1.447   2.481
 3638SOL     OW11812   0.002   4.891   3.071
 3638SOL    HW111813   6.939   4.890   3.125
 3638SOL    HW211814   7.003   4.922   2.979
 3639SOL     OW11815   2.748   5.959   6.797
 3639SOL    HW111816   2.671   5.981   6.737
 3639SOL    HW211817   2.787   5.871   6.771
 3640SOL     OW11818   2.479   6.453   2.811
 3640SOL    HW111819   2.384   6.422   2.800
 3640SOL    HW211820   2.541   6.383   2.776
 3641SOL     OW11821   1.969   0.926   5.169
 3641SOL    HW111822   1.962   0.995   5.098
 3641SOL    HW211823   2.061   0.887   5.168
 3642SOL     OW11824   6.225   0.235   2.991
 3642SOL    HW111825   6.166   0.197   3.063
 3642SOL    HW211826   6.314   0.257   3.029
 3643SOL     OW11827   3.882   6.866   4.098
 3643SOL    HW111828   3.905   6.941   4.160
 3643SOL    HW211829   3.947   6.791   4.111
 3644SOL     OW11830   6.024   0.681   1.775
 3644SOL    HW111831   5.999   0.775   1.797
 3644SOL    HW211832   5.967   0.649   1.699
 3645SOL     OW11833   4.855   5.551   3.899
 3645SOL    HW111834   4.774   5.610   3.890
 3645SOL    HW211835   4.825   5.455   3.905
 3646SOL     OW11836   0.612   5.518   5.319
 3646SOL    HW111837   0.702   5.509   5.275
 3646SOL    HW211838   0.545   5.549   5.251
 3647SOL     OW11839   3.575   2.992   1.073
 3647SOL    HW111840   3.661   2.950   1.042
 3647SOL    HW211841   3.519   2.922   1.118
 3648SOL     OW11842   2.737   6.535   3.709
 3648SOL    HW111843   2.660   6.487   3.752
 3648SOL    HW211844   2.701   6.595   3.637
 3649SOL     OW11845   4.045   3.113   3.248
 3649SOL    HW111846   3.995   3.029   3.268
 3649SOL    HW211847   4.062   3.163   3.332
 3650SOL     OW11848   5.616   6.100   1.814
 3650SOL    HW111849   5.593   6.113   1.718
 3650SOL    HW211850   5.668   6.178   1.847
 3651SOL     OW11851   1.904   5.211   1.760
 3651SOL    HW111852   1.823   5.152   1.771
 3651SOL    HW211853   1.960   5.176   1.685
 3652SOL     OW11854   4.296   6.431   4.184
 3652SOL    HW111855   4.208   6.419   4.140
 3652SOL    HW211856   4.364   6.374   4.138
 3653SOL     OW11857   0.281   3.158   3.332
 3653SOL    HW111858   0.369   3.203   3.348
 3653SOL    HW211859   0.246   3.186   3.242
 3654SOL     OW11860   2.079   6.882   1.936
 3654SOL    HW111861   2.171   6.872   1.898
 3654SOL    HW211862   2.012   6.870   1.864
 3655SOL     OW11863   6.406   1.060   3.713
 3655SOL    HW111864   6.413   1.125   3.638
 3655SOL    HW211865   6.361   1.103   3.791
 3656SOL     OW11866   1.870   1.941   2.931
 3656SOL    HW111867   1.969   1.927   2.923
 3656SOL    HW211868   1.852   2.009   3.001
 3657SOL     OW11869   5.759   5.273   0.980
 3657SOL    HW111870   5.664   5.305   0.973
 3657SOL    HW211871   5.763   5.176   0.958
 3658SOL     OW11872   2.797   4.339   5.655
 3658SOL    HW111873   2.753   4.270   5.598
 3658SOL    HW211874   2.880   4.302   5.696
 3659SOL     OW11875   1.575   3.507   6.114
 3659SOL    HW111876   1.544   3.588   6.064
 3659SOL    HW211877   1.583   3.528   6.211
 3660SOL     OW11878   5.062   3.893   0.823
 3660SOL    HW111879   5.049   3.943   0.908
 3660SOL    HW211880   5.030   3.799   0.834
 3661SOL     OW11881   5.383   0.951   1.847
 3661SOL    HW111882   5.395   0.971   1.749
 3661SOL    HW211883   5.442   0.875   1.872
 3662SOL     OW11884   1.556   6.265   4.271
 3662SOL    HW111885   1.474   6.321   4.278
 3662SOL    HW211886   1.621   6.309   4.209
 3663SOL     OW11887   2.721   2.450   5.859
 3663SOL    HW111888   2.668   2.400   5.790
 3663SOL    HW211889   2.743   2.388   5.935
 3664SOL     OW11890   3.786   0.235   2.228
 3664SOL    HW111891   3.737   0.234   2.316
 3664SOL    HW211892   3.856   0.163   2.229
 3665SOL     OW11893   2.722   1.664   5.453
 3665SOL    HW111894   2.744   1.739   5.516
 3665SOL    HW211895   2.803   1.606   5.441
 3666SOL     OW11896   1.045   4.701   3.300
 3666SOL    HW111897   0.987   4.626   3.331
 3666SOL    HW211898   1.001   4.748   3.224
 3667SOL     OW11899   0.176   0.783   0.152
 3667SOL    HW111900   0.139   0.873   0.173
 3667SOL    HW211901   0.104   0.714   0.160
 3668SOL     OW11902   2.217   6.839   1.596
 3668SOL    HW111903   2.120   6.861   1.609
 3668SOL    HW211904   2.240   6.849   1.500
 3669SOL     OW11905   5.126   1.498   4.228
 3669SOL    HW111906   5.113   1.513   4.326
 3669SOL    HW211907   5.224   1.492   4.209
 3670SOL     OW11908   3.507   5.030   5.782
 3670SOL    HW111909   3.605   5.050   5.790
 3670SOL    HW211910   3.454   5.103   5.824
 3671SOL     OW11911   2.005   1.369   3.231
 3671SOL    HW111912   2.102   1.371   3.204
 3671SOL    HW211913   1.990   1.436   3.304
 3672SOL     OW11914   6.367   6.111   0.059
 3672SOL    HW111915   6.389   6.102   0.156
 3672SOL    HW211916   6.380   6.023   0.013
 3673SOL     OW11917   4.139   6.778   6.484
 3673SOL    HW111918   4.182   6.819   6.565
 3673SOL    HW211919   4.085   6.847   6.436
 3674SOL     OW11920   0.916   6.301   0.992
 3674SOL    HW111921   0.942   6.386   0.945
 3674SOL    HW211922   0.848   6.252   0.936
 3675SOL     OW11923   2.354   2.293   4.294
 3675SOL    HW111924   2.294   2.328   4.365
 3675SOL    HW211925   2.308   2.220   4.244
 3676SOL     OW11926   0.961   4.705   2.627
 3676SOL    HW111927   1.029   4.647   2.673
 3676SOL    HW211928   0.874   4.700   2.676
 3677SOL     OW11929   6.373   0.760   3.358
 3677SOL    HW111930   6.274   0.761   3.349
 3677SOL    HW211931   6.409   0.672   3.326
 3678SOL     OW11932   0.781   2.695   4.113
 3678SOL    HW111933   0.731   2.642   4.181
 3678SOL    HW211934   0.776   2.649   4.024
 3679SOL     OW11935   6.038   1.427   1.837
 3679SOL    HW111936   6.074   1.365   1.906
 3679SOL    HW211937   6.044   1.383   1.747
 3680SOL     OW11938   5.971   4.494   5.091
 3680SOL    HW111939   6.001   4.545   5.171
 3680SOL    HW211940   6.010   4.534   5.008
 3681SOL     OW11941   5.281   0.595   4.988
 3681SOL    HW111942   5.219   0.669   5.015
 3681SOL    HW211943   5.317   0.612   4.897
 3682SOL     OW11944   0.277   2.057   0.073
 3682SOL    HW111945   0.284   1.973   0.020
 3682SOL    HW211946   0.322   2.132   0.024
 3683SOL     OW11947   4.855   6.142   3.698
 3683SOL    HW111948   4.756   6.153   3.701
 3683SOL    HW211949   4.898   6.212   3.756
 3684SOL     OW11950   2.245   3.817   1.858
 3684SOL    HW111951   2.206   3.879   1.925
 3684SOL    HW211952   2.172   3.779   1.800
 3685SOL     OW11953   6.008   5.874   5.452
 3685SOL    HW111954   6.076   5.946   5.465
 3685SOL    HW211955   6.053   5.785   5.451
 3686SOL     OW11956   0.393   4.313   0.434
 3686SOL    HW111957   0.406   4.342   0.339
 3686SOL    HW211958   0.457   4.363   0.493
 3687SOL     OW11959   3.923   0.586   0.491
 3687SOL    HW111960   3.991   0.518   0.518
 3687SOL    HW211961   3.907   0.648   0.568
 3688SOL     OW11962   0.063   2.922   6.829
 3688SOL    HW111963   0.147   2.955   6.873
 3688SOL    HW211964   0.084   2.894   6.736
 3689SOL     OW11965   1.782   6.016   3.765
 3689SOL    HW111966   1.818   6.074   3.692
 3689SOL    HW211967   1.716   6.068   3.820
 3690SOL     OW11968   4.975   4.650   5.949
 3690SOL    HW111969   4.929   4.734   5.917
 3690SOL    HW211970   4.919   4.605   6.017
 3691SOL     OW11971   3.182   3.329   6.226
 3691SOL    HW111972   3.214   3.422   6.244
 3691SOL    HW211973   3.145   3.324   6.133
 3692SOL     OW11974   6.793   0.531   5.381
 3692SOL    HW111975   6.797   0.455   5.316
 3692SOL    HW211976   6.871   0.526   5.443
 3693SOL     OW11977   1.659   1.369   3.524
 3693SOL    HW111978   1.561   1.351   3.513
 3693SOL    HW211979   1.704   1.360   3.435
 3694SOL     OW11980   1.966   4.860   3.761
 3694SOL    HW111981   1.948   4.956   3.741
 3694SOL    HW211982   1.940   4.840   3.856
 3695SOL     OW11983   2.201   2.612   0.820
 3695SOL    HW111984   2.291   2.573   0.838
 3695SOL    HW211985   2.163   2.572   0.736
 3696SOL     OW11986   3.104   6.152   5.600
 3696SOL    HW111987   3.159   6.161   5.683
 3696SOL    HW211988   3.073   6.057   5.590
 3697SOL     OW11989   5.354   1.000   3.434
 3697SOL    HW111990   5.438   1.052   3.454
 3697SOL    HW211991   5.313   1.034   3.350
 3698SOL     OW11992   3.249   6.927   6.112
 3698SOL    HW111993   3.229   7.002   6.049
 3698SOL    HW211994   3.286   6.850   6.061
 3699SOL     OW11995   0.870   5.233   2.096
 3699SOL    HW111996   0.967   5.244   2.120
 3699SOL    HW211997   0.815   5.297   2.150
 3700SOL     OW11998   6.070   0.585   3.825
 3700SOL    HW111999   6.033   0.669   3.864
 3700SOL    HW212000   6.146   0.552   3.881
 3701SOL     OW12001   4.173   1.295   3.448
 3701SOL    HW112002   4.180   1.268   3.544
 3701SOL    HW212003   4.121   1.380   3.441
 3702SOL     OW12004   4.435   1.409   6.569
 3702SOL    HW112005   4.438   1.454   6.658
 3702SOL    HW212006   4.377   1.328   6.574
 3703SOL     OW12007   3.617   4.912   0.754
 3703SOL    HW112008   3.568   4.860   0.824
 3703SOL    HW212009   3.711   4.927   0.782
 3704SOL     OW12010   3.365   6.570   0.837
 3704SOL    HW112011   3.366   6.648   0.899
 3704SOL    HW212012   3.434   6.503   0.865
 3705SOL     OW12013   0.166   0.948   4.272
 3705SOL    HW112014   0.221   0.884   4.218
 3705SOL    HW212015   0.225   0.997   4.336
 3706SOL     OW12016   2.522   1.823   3.336
 3706SOL    HW112017   2.540   1.809   3.433
 3706SOL    HW212018   2.606   1.806   3.284
 3707SOL     OW12019   4.314   2.421   5.451
 3707SOL    HW112020   4.409   2.454   5.444
 3707SOL    HW212021   4.281   2.433   5.544
 3708SOL     OW12022   6.349   0.076   0.639
 3708SOL    HW112023   6.331   0.102   0.544
 3708SOL    HW212024   6.435   0.116   0.669
 3709SOL     OW12025   0.258   6.702   6.464
 3709SOL    HW112026   0.235   6.719   6.368
 3709SOL    HW212027   0.226   6.611   6.490
 3710SOL     OW12028   0.763   5.115   6.549
 3710SOL    HW112029   0.802   5.167   6.473
 3710SOL    HW212030   0.716   5.177   6.611
 3711SOL     OW12031   6.703   5.246   2.185
 3711SOL    HW112032   6.666   5.252   2.092
 3711SOL    HW212033   6.659   5.315   2.243
 3712SOL     OW12034   1.344   6.678   6.028
 3712SOL    HW112035   1.421   6.666   6.090
 3712SOL    HW212036   1.281   6.601   6.038
 3713SOL     OW12037   3.643   5.071   6.266
 3713SOL    HW112038   3.587   5.084   6.348
 3713SOL    HW212039   3.605   5.124   6.191
 3714SOL     OW12040   4.765   2.066   5.011
 3714SOL    HW112041   4.726   2.073   5.103
 3714SOL    HW212042   4.844   2.005   5.012
 3715SOL     OW12043   4.693   4.236   3.233
 3715SOL    HW112044   4.761   4.202   3.168
 3715SOL    HW212045   4.725   4.218   3.326
 3716SOL     OW12046   1.306   1.132   4.719
 3716SOL    HW112047   1.295   1.054   4.657
 3716SOL    HW212048   1.332   1.100   4.809
 3717SOL     OW12049   5.956   0.444   6.758
 3717SOL    HW112050   6.025   0.442   6.830
 3717SOL    HW212051   5.895   0.364   6.766
 3718SOL     OW12052   0.774   6.184   6.313
 3718SOL    HW112053   0.740   6.148   6.226
 3718SOL    HW212054   0.698   6.196   6.376
 3719SOL     OW12055   3.568   3.989   0.294
 3719SOL    HW112056   3.513   3.937   0.359
 3719SOL    HW212057   3.540   4.085   0.297
 3720SOL     OW12058   0.047   1.261   6.323
 3720SOL    HW112059   0.103   1.331   6.367
 3720SOL    HW212060   6.972   1.274   6.348
 3721SOL     OW12061   5.308   3.091   0.307
 3721SOL    HW112062   5.306   3.008   0.253
 3721SOL    HW212063   5.265   3.165   0.256
 3722SOL     OW12064   4.354   6.136   0.749
 3722SOL    HW112065   4.369   6.190   0.666
 3722SOL    HW212066   4.389   6.185   0.828
 3723SOL     OW12067   4.381   1.293   0.862
 3723SOL    HW112068   4.370   1.340   0.774
 3723SOL    HW212069   4.457   1.333   0.912
 3724SOL     OW12070   1.257   4.283   6.347
 3724SOL    HW112071   1.283   4.205   6.404
 3724SOL    HW212072   1.166   4.314   6.373
 3725SOL     OW12073   5.131   6.268   1.616
 3725SOL    HW112074   5.163   6.318   1.696
 3725SOL    HW212075   5.154   6.171   1.627
 3726SOL     OW12076   6.215   3.109   1.867
 3726SOL    HW112077   6.263   3.171   1.805
 3726SOL    HW212078   6.258   3.019   1.863
 3727SOL     OW12079   2.808   2.730   5.627
 3727SOL    HW112080   2.745   2.679   5.568
 3727SOL    HW212081   2.771   2.821   5.645
 3728SOL     OW12082   0.829   3.994   6.491
 3728SOL    HW112083   0.807   4.091   6.497
 3728SOL    HW212084   0.846   3.968   6.396
 3729SOL     OW12085   1.108   3.549   3.372
 3729SOL    HW112086   1.191   3.604   3.377
 3729SOL    HW212087   1.042   3.581   3.440
 3730SOL     OW12088   2.163   7.015   1.153
 3730SOL    HW112089   2.110   0.058   1.207
 3730SOL    HW212090   2.180   6.932   1.206
 3731SOL     OW12091   3.097   6.191   0.217
 3731SOL    HW112092   3.125   6.142   0.134
 3731SOL    HW212093   2.997   6.189   0.224
 3732SOL     OW12094   2.018   3.675   4.171
 3732SOL    HW112095   2.097   3.653   4.114
 3732SOL    HW212096   1.937   3.627   4.136
 3733SOL     OW12097   3.136   2.928   2.031
 3733SOL    HW112098   3.113   2.887   1.943
 3733SOL    HW212099   3.233   2.915   2.050
 3734SOL     OW12100   4.255   1.701   3.378
 3734SOL    HW112101   4.319   1.673   3.306
 3734SOL    HW212102   4.239   1.799   3.370
 3735SOL     OW12103   3.929   2.226   1.793
 3735SOL    HW112104   3.962   2.195   1.882
 3735SOL    HW212105   3.843   2.276   1.805
 3736SOL     OW12106   4.976   0.861   6.154
 3736SOL    HW112107   4.901   0.802   6.185
 3736SOL    HW212108   5.000   0.838   6.060
 3737SOL     OW12109   2.774   0.313   3.760
 3737SOL    HW112110   2.717   0.275   3.687
 3737SOL    HW212111   2.829   0.388   3.724
 3738SOL     OW12112   0.359   0.673   4.343
 3738SOL    HW112113   0.285   0.611   4.318
 3738SOL    HW212114   0.346   0.705   4.437
 3739SOL     OW12115   0.134   3.469   0.708
 3739SOL    HW112116   0.082   3.540   0.754
 3739SOL    HW212117   0.085   3.440   0.625
 3740SOL     OW12118   5.703   6.926   6.882
 3740SOL    HW112119   5.784   6.984   6.878
 3740SOL    HW212120   5.680   6.907   6.977
 3741SOL     OW12121   3.613   0.581   0.344
 3741SOL    HW112122   3.617   0.680   0.357
 3741SOL    HW212123   3.592   0.537   0.431
 3742SOL     OW12124   3.460   3.297   6.279
 3742SOL    HW112125   3.372   3.318   6.237
 3742SOL    HW212126   3.531   3.356   6.239
 3743SOL     OW12127   0.845   5.995   5.887
 3743SOL    HW112128   0.768   6.050   5.919
 3743SOL    HW212129   0.882   5.943   5.963
 3744SOL     OW12130   6.332   4.654   3.084
 3744SOL    HW112131   6.245   4.632   3.129
 3744SOL    HW212132   6.360   4.577   3.027
 3745SOL     OW12133   5.080   4.963   1.325
 3745SOL    HW112134   5.098   4.998   1.233
 3745SOL    HW212135   5.162   4.915   1.359
 3746SOL     OW12136   3.881   1.269   1.192
 3746SOL    HW112137   3.795   1.262   1.244
 3746SOL    HW212138   3.901   1.365   1.173
 3747SOL     OW12139   3.086   6.684   1.403
 3747SOL    HW112140   3.179   6.652   1.419
 3747SOL    HW212141   3.086   6.751   1.329
 3748SOL     OW12142   5.547   0.436   1.762
 3748SOL    HW112143   5.536   0.527   1.724
 3748SOL    HW212144   5.640   0.403   1.744
 3749SOL     OW12145   0.992   0.662   4.026
 3749SOL    HW112146   1.091   0.659   4.016
 3749SOL    HW212147   0.957   0.569   4.040
 3750SOL     OW12148   0.663   3.790   6.738
 3750SOL    HW112149   0.670   3.849   6.818
 3750SOL    HW212150   0.643   3.697   6.767
 3751SOL     OW12151   2.122   5.054   1.922
 3751SOL    HW112152   2.103   5.122   1.992
 3751SOL    HW212153   2.047   4.988   1.917
 3752SOL     OW12154   5.731   5.049   6.310
 3752SOL    HW112155   5.683   5.081   6.229
 3752SOL    HW212156   5.671   4.991   6.364
 3753SOL     OW12157   0.440   1.437   3.776
 3753SOL    HW112158   0.378   1.376   3.826
 3753SOL    HW212159   0.398   1.527   3.768
 3754SOL     OW12160   3.766   1.757   1.393
 3754SOL    HW112161   3.859   1.783   1.419
 3754SOL    HW212162   3.762   1.744   1.294
 3755SOL     OW12163   2.834   6.042   4.041
 3755SOL    HW112164   2.915   6.084   4.082
 3755SOL    HW212165   2.763   6.031   4.111
 3756SOL     OW12166   1.474   6.531   0.730
 3756SOL    HW112167   1.544   6.546   0.660
 3756SOL    HW212168   1.383   6.534   0.687
 3757SOL     OW12169   0.657   5.352   0.300
 3757SOL    HW112170   0.661   5.317   0.394
 3757SOL    HW212171   0.678   5.278   0.236
 3758SOL     OW12172   0.653   6.263   4.171
 3758SOL    HW112173   0.599   6.217   4.100
 3758SOL    HW212174   0.745   6.225   4.174
 3759SOL     OW12175   4.721   0.656   3.763
 3759SOL    HW112176   4.769   0.641   3.677
 3759SOL    HW212177   4.710   0.754   3.779
 3760SOL     OW12178   0.794   1.279   3.274
 3760SOL    HW112179   0.821   1.347   3.342
 3760SOL    HW212180   0.795   1.322   3.183
 3761SOL     OW12181   4.233   1.448   5.024
 3761SOL    HW112182   4.198   1.506   4.950
 3761SOL    HW212183   4.217   1.352   5.001
 3762SOL     OW12184   6.968   2.134   3.210
 3762SOL    HW112185   7.007   2.079   3.136
 3762SOL    HW212186   6.874   2.160   3.187
 3763SOL     OW12187   0.817   6.759   6.518
 3763SOL    HW112188   0.828   6.660   6.503
 3763SOL    HW212189   0.864   6.785   6.602
 3764SOL     OW12190   4.030   1.706   2.580
 3764SOL    HW112191   3.945   1.685   2.628
 3764SOL    HW212192   4.010   1.730   2.486
 3765SOL     OW12193   5.988   3.925   2.398
 3765SOL    HW112194   5.960   4.020   2.389
 3765SOL    HW212195   6.040   3.897   2.317
 3766SOL     OW12196   2.349   2.737   2.286
 3766SOL    HW112197   2.254   2.739   2.316
 3766SOL    HW212198   2.381   2.831   2.273
 3767SOL     OW12199   1.316   6.297   5.834
 3767SOL    HW112200   1.414   6.290   5.855
 3767SOL    HW212201   1.297   6.387   5.795
 3768SOL     OW12202   1.916   6.672   3.941
 3768SOL    HW112203   1.899   6.579   3.909
 3768SOL    HW212204   1.871   6.737   3.879
 3769SOL     OW12205   5.198   5.028   5.948
 3769SOL    HW112206   5.212   5.128   5.949
 3769SOL    HW212207   5.163   4.999   6.037
 3770SOL     OW12208   2.518   6.996   0.911
 3770SOL    HW112209   2.450   0.031   0.865
 3770SOL    HW212210   2.578   6.952   0.844
 3771SOL     OW12211   6.448   6.390   5.966
 3771SOL    HW112212   6.516   6.447   5.920
 3771SOL    HW212213   6.390   6.448   6.023
 3772SOL     OW12214   3.504   5.534   1.702
 3772SOL    HW112215   3.498   5.613   1.762
 3772SOL    HW212216   3.424   5.475   1.716
 3773SOL     OW12217   5.153   4.085   0.137
 3773SOL    HW112218   5.213   4.124   0.068
 3773SOL    HW212219   5.129   4.155   0.205
 3774SOL     OW12220   0.093   4.594   0.510
 3774SOL    HW112221   7.018   4.574   0.523
 3774SOL    HW212222   0.140   4.591   0.598
 3775SOL     OW12223   5.551   6.981   4.905
 3775SOL    HW112224   5.591   0.034   4.958
 3775SOL    HW212225   5.621   6.911   4.889
 3776SOL     OW12226   4.044   2.675   6.745
 3776SOL    HW112227   4.070   2.701   6.652
 3776SOL    HW212228   4.010   2.756   6.794
 3777SOL     OW12229   3.066   5.164   3.317
 3777SOL    HW112230   3.139   5.097   3.305
 3777SOL    HW212231   3.052   5.181   3.414
 3778SOL     OW12232   2.762   5.731   6.590
 3778SOL    HW112233   2.847   5.782   6.578
 3778SOL    HW212234   2.775   5.637   6.557
 3779SOL     OW12235   6.858   4.954   6.129
 3779SOL    HW112236   6.924   4.965   6.203
 3779SOL    HW212237   6.835   5.044   6.092
 3780SOL     OW12238   5.660   2.350   1.852
 3780SOL    HW112239   5.622   2.328   1.762
 3780SOL    HW212240   5.602   2.418   1.896
 3781SOL     OW12241   1.549   6.578   6.434
 3781SOL    HW112242   1.565   6.599   6.338
 3781SOL    HW212243   1.467   6.626   6.466
 3782SOL     OW12244   3.392   5.418   7.020
 3782SOL    HW112245   3.363   5.323   0.008
 3782SOL    HW212246   3.467   5.423   6.954
 3783SOL     OW12247   4.827   5.243   5.488
 3783SOL    HW112248   4.819   5.159   5.434
 3783SOL    HW212249   4.908   5.294   5.459
 3784SOL     OW12250   5.663   3.511   4.837
 3784SOL    HW112251   5.721   3.548   4.764
 3784SOL    HW212252   5.619   3.585   4.886
 3785SOL     OW12253   0.751   3.441   2.475
 3785SOL    HW112254   0.831   3.487   2.437
 3785SOL    HW212255   0.738   3.354   2.428
 3786SOL     OW12256   2.842   2.780   5.908
 3786SOL    HW112257   2.747   2.757   5.892
 3786SOL    HW212258   2.895   2.697   5.924
 3787SOL     OW12259   5.398   6.212   5.396
 3787SOL    HW112260   5.428   6.242   5.487
 3787SOL    HW212261   5.463   6.145   5.360
 3788SOL     OW12262   5.723   3.286   6.304
 3788SOL    HW112263   5.796   3.218   6.295
 3788SOL    HW212264   5.634   3.240   6.302
 3789SOL     OW12265   1.877   4.462   1.208
 3789SOL    HW112266   1.882   4.393   1.137
 3789SOL    HW212267   1.839   4.547   1.171
 3790SOL     OW12268   2.440   0.025   1.830
 3790SOL    HW112269   2.450   6.952   1.796
 3790SOL    HW212270   2.417   0.085   1.753
 3791SOL     OW12271   5.033   0.917   3.956
 3791SOL    HW112272   4.990   0.853   3.892
 3791SOL    HW212273   4.970   0.992   3.976
 3792SOL     OW12274   5.919   0.402   3.462
 3792SOL    HW112275   5.933   0.313   3.506
 3792SOL    HW212276   5.974   0.471   3.509
 3793SOL     OW12277   5.184   3.283   6.996
 3793SOL    HW112278   5.175   3.324   0.066
 3793SOL    HW212279   5.261   3.325   6.949
 3794SOL     OW12280   1.560   5.198   5.584
 3794SOL    HW112281   1.612   5.261   5.642
 3794SOL    HW212282   1.468   5.235   5.569
 3795SOL     OW12283   3.108   6.293   0.447
 3795SOL    HW112284   3.126   6.220   0.514
 3795SOL    HW212285   3.122   6.258   0.355
 3796SOL     OW12286   5.169   1.170   0.240
 3796SOL    HW112287   5.211   1.238   0.180
 3796SOL    HW212288   5.073   1.191   0.253
 3797SOL     OW12289   6.788   1.959   0.729
 3797SOL    HW112290   6.779   2.000   0.638
 3797SOL    HW212291   6.833   2.022   0.791
 3798SOL     OW12292   0.109   4.066   4.019
 3798SOL    HW112293   0.090   4.099   4.112
 3798SOL    HW212294   0.024   4.035   3.977
 3799SOL     OW12295   6.653   1.966   2.643
 3799SOL    HW112296   6.657   1.880   2.694
 3799SOL    HW212297   6.588   1.957   2.567
 3800SOL     OW12298   5.380   3.440   2.155
 3800SOL    HW112299   5.329   3.434   2.069
 3800SOL    HW212300   5.469   3.395   2.145
 3801SOL     OW12301   5.384   1.693   0.408
 3801SOL    HW112302   5.466   1.657   0.365
 3801SOL    HW212303   5.327   1.736   0.338
 3802SOL     OW12304   6.507   3.904   3.854
 3802SOL    HW112305   6.425   3.877   3.804
 3802SOL    HW212306   6.564   3.962   3.796
 3803SOL     OW12307   3.833   4.182   6.169
 3803SOL    HW112308   3.933   4.185   6.173
 3803SOL    HW212309   3.801   4.092   6.199
 3804SOL     OW12310   3.106   5.999   3.025
 3804SOL    HW112311   3.147   6.077   2.977
 3804SOL    HW212312   3.161   5.976   3.105
 3805SOL     OW12313   2.926   1.997   6.914
 3805SOL    HW112314   2.839   1.955   6.885
 3805SOL    HW212315   2.921   2.021   7.010
 3806SOL     OW12316   1.872   3.471   2.093
 3806SOL    HW112317   1.965   3.501   2.116
 3806SOL    HW212318   1.834   3.420   2.170
 3807SOL     OW12319   0.345   4.117   3.871
 3807SOL    HW112320   0.341   4.077   3.779
 3807SOL    HW212321   0.253   4.136   3.904
 3808SOL     OW12322   2.802   6.545   5.748
 3808SOL    HW112323   2.900   6.553   5.733
 3808SOL    HW212324   2.758   6.510   5.666
 3809SOL     OW12325   5.440   1.689   1.515
 3809SOL    HW112326   5.353   1.701   1.467
 3809SOL    HW212327   5.515   1.719   1.456
 3810SOL     OW12328   4.767   1.855   3.712
 3810SOL    HW112329   4.753   1.944   3.755
 3810SOL    HW212330   4.721   1.785   3.765
 3811SOL     OW12331   6.926   5.989   5.538
 3811SOL    HW112332   7.010   6.038   5.561
 3811SOL    HW212333   6.948   5.895   5.512
 3812SOL     OW12334   4.185   5.824   6.786
 3812SOL    HW112335   4.231   5.851   6.871
 3812SOL    HW212336   4.103   5.771   6.808
 3813SOL     OW12337   6.952   3.243   6.479
 3813SOL    HW112338   6.909   3.256   6.568
 3813SOL    HW212339   6.909   3.303   6.412
 3814SOL     OW12340   6.380   0.692   5.074
 3814SOL    HW112341   6.447   0.708   5.146
 3814SOL    HW212342   6.295   0.742   5.095
 3815SOL     OW12343   5.118   2.043   5.495
 3815SOL    HW112344   5.216   2.026   5.494
 3815SOL    HW212345   5.086   2.048   5.589
 3816SOL     OW12346   6.651   6.814   1.687
 3816SOL    HW112347   6.646   6.720   1.722
 3816SOL    HW212348   6.622   6.816   1.592
 3817SOL     OW12349   3.435   3.792   2.666
 3817SOL    HW112350   3.338   3.771   2.678
 3817SOL    HW212351   3.467   3.845   2.744
 3818SOL     OW12352   4.558   5.652   2.160
 3818SOL    HW112353   4.546   5.697   2.071
 3818SOL    HW212354   4.589   5.719   2.227
 3819SOL     OW12355   6.121   2.856   2.889
 3819SOL    HW112356   6.064   2.937   2.873
 3819SOL    HW212357   6.217   2.882   2.890
 3820SOL     OW12358   3.111   6.306   6.030
 3820SOL    HW112359   3.126   6.303   6.129
 3820SOL    HW212360   3.096   6.401   6.002
 3821SOL     OW12361   1.873   6.726   1.565
 3821SOL    HW112362   1.826   6.764   1.486
 3821SOL    HW212363   1.929   6.648   1.537
 3822SOL     OW12364   5.597   6.790   1.603
 3822SOL    HW112365   5.556   6.867   1.554
 3822SOL    HW212366   5.670   6.824   1.663
 3823SOL     OW12367   5.726   5.886   4.377
 3823SOL    HW112368   5.824   5.903   4.380
 3823SOL    HW212369   5.681   5.934   4.453
 3824SOL     OW12370   2.096   2.497   0.589
 3824SOL    HW112371   2.100   2.538   0.498
 3824SOL    HW212372   2.088   2.398   0.581
 3825SOL     OW12373   6.999   4.481   5.503
 3825SOL    HW112374   0.052   4.417   5.525
 3825SOL    HW212375   7.015   4.522   5.414
 3826SOL     OW12376   4.711   4.183   3.878
 3826SOL    HW112377   4.770   4.262   3.861
 3826SOL    HW212378   4.765   4.107   3.912
 3827SOL     OW12379   0.485   1.577   0.083
 3827SOL    HW112380   0.583   1.561   0.071
 3827SOL    HW212381   0.434   1.497   0.054
 3828SOL     OW12382   3.369   3.335   5.431
 3828SOL    HW112383   3.274   3.365   5.427
 3828SOL    HW212384   3.389   3.276   5.352
 3829SOL     OW12385   6.808   2.928   1.297
 3829SOL    HW112386   6.718   2.885   1.312
 3829SOL    HW212387   6.794   3.021   1.263
 3830SOL     OW12388   5.646   6.484   3.715
 3830SOL    HW112389   5.718   6.490   3.646
 3830SOL    HW212390   5.639   6.390   3.749
 3831SOL     OW12391   5.445   2.486   3.877
 3831SOL    HW112392   5.453   2.585   3.887
 3831SOL    HW212393   5.371   2.466   3.813
 3832SOL     OW12394   6.639   1.419   3.621
 3832SOL    HW112395   6.594   1.505   3.645
 3832SOL    HW212396   6.570   1.353   3.592
 3833SOL     OW12397   2.332   2.943   6.069
 3833SOL    HW112398   2.398   2.869   6.058
 3833SOL    HW212399   2.258   2.933   6.003
 3834SOL     OW12400   4.804   4.523   1.084
 3834SOL    HW112401   4.708   4.552   1.073
 3834SOL    HW212402   4.816   4.483   1.175
 3835SOL     OW12403   4.662   5.499   4.226
 3835SOL    HW112404   4.743   5.521   4.172
 3835SOL    HW212405   4.663   5.401   4.249
 3836SOL     OW12406   0.123   0.035   5.147
 3836SOL    HW112407   0.141   0.054   5.050
 3836SOL    HW212408   0.210   0.036   5.197
 3837SOL     OW12409   5.103   4.052   5.563
 3837SOL    HW112410   5.012   4.094   5.565
 3837SOL    HW212411   5.153   4.084   5.482
 3838SOL     OW12412   0.490   1.655   4.060
 3838SOL    HW112413   0.439   1.569   4.055
 3838SOL    HW212414   0.587   1.637   4.076
 3839SOL     OW12415   4.051   1.743   3.599
 3839SOL    HW112416   4.006   1.829   3.575
 3839SOL    HW212417   4.142   1.762   3.634
 3840SOL     OW12418   3.873   1.446   6.296
 3840SOL    HW112419   3.952   1.506   6.289
 3840SOL    HW212420   3.903   1.353   6.316
 3841SOL     OW12421   5.460   4.024   2.907
 3841SOL    HW112422   5.511   3.982   2.832
 3841SOL    HW212423   5.510   4.013   2.992
 3842SOL     OW12424   1.476   3.941   5.210
 3842SOL    HW112425   1.481   3.954   5.309
 3842SOL    HW212426   1.392   3.892   5.186
 3843SOL     OW12427   5.671   2.110   6.752
 3843SOL    HW112428   5.711   2.158   6.674
 3843SOL    HW212429   5.578   2.143   6.767
 3844SOL     OW12430   6.091   6.683   0.553
 3844SOL    HW112431   6.015   6.744   0.530
 3844SOL    HW212432   6.160   6.687   0.481
 3845SOL     OW12433   2.049   5.442   6.793
 3845SOL    HW112434   2.126   5.476   6.740
 3845SOL    HW212435   2.082   5.373   6.858
 3846SOL     OW12436   6.932   3.186   2.509
 3846SOL    HW112437   6.853   3.248   2.504
 3846SOL    HW212438   6.907   3.098   2.468
 3847SOL     OW12439   0.873   0.976   7.021
 3847SOL    HW112440   0.784   0.943   0.032
 3847SOL    HW212441   0.915   0.906   6.964
 3848SOL     OW12442   6.116   4.787   2.470
 3848SOL    HW112443   6.178   4.815   2.543
 3848SOL    HW212444   6.105   4.861   2.404
 3849SOL     OW12445   0.081   2.880   5.563
 3849SOL    HW112446   0.118   2.803   5.616
 3849SOL    HW212447   7.008   2.897   5.591
 3850SOL     OW12448   3.649   3.154   1.584
 3850SOL    HW112449   3.584   3.094   1.631
 3850SOL    HW212450   3.644   3.246   1.623
 3851SOL     OW12451   0.305   5.749   2.454
 3851SOL    HW112452   0.260   5.690   2.521
 3851SOL    HW212453   0.260   5.838   2.452
 3852SOL     OW12454   2.701   1.020   5.270
 3852SOL    HW112455   2.787   1.011   5.321
 3852SOL    HW212456   2.633   1.066   5.327
 3853SOL     OW12457   2.449   1.214   2.976
 3853SOL    HW112458   2.521   1.279   3.001
 3853SOL    HW212459   2.412   1.238   2.886
 3854SOL     OW12460   0.310   1.655   1.588
 3854SOL    HW112461   0.242   1.652   1.514
 3854SOL    HW212462   0.398   1.623   1.553
 3855SOL     OW12463   2.994   5.911   6.636
 3855SOL    HW112464   2.951   5.994   6.600
 3855SOL    HW212465   3.092   5.914   6.617
 3856SOL     OW12466   0.075   2.779   6.246
 3856SOL    HW112467   0.038   2.865   6.281
 3856SOL    HW212468   7.021   2.718   6.223
 3857SOL     OW12469   1.023   0.394   5.897
 3857SOL    HW112470   0.963   0.340   5.955
 3857SOL    HW212471   1.072   0.461   5.953
 3858SOL     OW12472   3.544   1.162   4.842
 3858SOL    HW112473   3.610   1.223   4.800
 3858SOL    HW212474   3.571   1.067   4.826
 3859SOL     OW12475   5.358   0.599   2.521
 3859SOL    HW112476   5.339   0.576   2.425
 3859SOL    HW212477   5.381   0.696   2.528
 3860SOL     OW12478   1.560   6.370   4.816
 3860SOL    HW112479   1.526   6.276   4.825
 3860SOL    HW212480   1.621   6.391   4.892
 3861SOL     OW12481   3.260   5.926   2.499
 3861SOL    HW112482   3.284   6.022   2.482
 3861SOL    HW212483   3.226   5.917   2.592
 3862SOL     OW12484   1.733   0.615   4.178
 3862SOL    HW112485   1.833   0.618   4.180
 3862SOL    HW212486   1.702   0.525   4.207
 3863SOL     OW12487   4.374   0.406   1.115
 3863SOL    HW112488   4.303   0.336   1.101
 3863SOL    HW212489   4.346   0.491   1.070
 3864SOL     OW12490   0.775   0.225   4.999
 3864SOL    HW112491   0.702   0.293   5.015
 3864SOL    HW212492   0.852   0.269   4.954
 3865SOL     OW12493   5.224   1.095   0.817
 3865SOL    HW112494   5.279   1.039   0.755
 3865SOL    HW212495   5.252   1.078   0.911
 3866SOL     OW12496   3.344   0.916   6.820
 3866SOL    HW112497   3.437   0.878   6.819
 3866SOL    HW212498   3.349   1.016   6.825
 3867SOL     OW12499   6.348   3.474   2.090
 3867SOL    HW112500   6.278   3.477   2.019
 3867SOL    HW212501   6.418   3.407   2.065
 3868SOL     OW12502   3.852   0.269   0.348
 3868SOL    HW112503   3.902   0.348   0.384
 3868SOL    HW212504   3.916   0.202   0.312
 3869SOL     OW12505   3.751   1.236   4.069
 3869SOL    HW112506   3.667   1.231   4.123
 3869SOL    HW212507   3.776   1.331   4.053
 3870SOL     OW12508   0.101   1.512   5.749
 3870SOL    HW112509   0.119   1.415   5.731
 3870SOL    HW212510   0.005   1.532   5.734
 3871SOL     OW12511   2.966   5.228   3.972
 3871SOL    HW112512   2.921   5.149   3.931
 3871SOL    HW212513   2.957   5.307   3.912
 3872SOL     OW12514   2.937   3.841   5.218
 3872SOL    HW112515   2.957   3.939   5.222
 3872SOL    HW212516   2.952   3.800   5.308
 3873SOL     OW12517   5.022   2.367   6.614
 3873SOL    HW112518   5.095   2.304   6.640
 3873SOL    HW212519   4.966   2.326   6.542
 3874SOL     OW12520   1.907   1.205   1.296
 3874SOL    HW112521   1.858   1.132   1.344
 3874SOL    HW212522   1.882   1.293   1.335
 3875SOL     OW12523   1.013   1.187   6.913
 3875SOL    HW112524   0.999   1.098   6.957
 3875SOL    HW212525   1.053   1.174   6.822
 3876SOL     OW12526   3.359   5.448   2.203
 3876SOL    HW112527   3.319   5.401   2.281
 3876SOL    HW212528   3.304   5.529   2.180
 3877SOL     OW12529   1.232   1.413   5.594
 3877SOL    HW112530   1.232   1.480   5.668
 3877SOL    HW212531   1.206   1.323   5.630
 3878SOL     OW12532   4.494   1.380   4.973
 3878SOL    HW112533   4.533   1.472   4.960
 3878SOL    HW212534   4.400   1.388   5.006
 3879SOL     OW12535   5.458   5.681   6.585
 3879SOL    HW112536   5.493   5.767   6.623
 3879SOL    HW212537   5.448   5.614   6.658
 3880SOL     OW12538   4.924   4.668   3.818
 3880SOL    HW112539   4.840   4.703   3.861
 3880SOL    HW212540   4.997   4.734   3.829
 3881SOL     OW12541   1.306   2.906   0.155
 3881SOL    HW112542   1.282   2.849   0.077
 3881SOL    HW212543   1.376   2.860   0.210
 3882SOL     OW12544   0.598   1.983   5.697
 3882SOL    HW112545   0.663   1.911   5.722
 3882SOL    HW212546   0.508   1.960   5.735
 3883SOL     OW12547   4.411   5.965   3.880
 3883SOL    HW112548   4.392   5.867   3.887
 3883SOL    HW212549   4.332   6.011   3.841
 3884SOL     OW12550   6.800   3.101   1.889
 3884SOL    HW112551   6.742   3.106   1.971
 3884SOL    HW212552   6.812   3.192   1.851
 3885SOL     OW12553   4.371   5.521   1.888
 3885SOL    HW112554   4.284   5.557   1.923
 3885SOL    HW212555   4.432   5.596   1.866
 3886SOL     OW12556   2.918   5.717   6.255
 3886SOL    HW112557   2.941   5.670   6.340
 3886SOL    HW212558   2.960   5.670   6.178
 3887SOL     OW12559   2.207   5.828   2.102
 3887SOL    HW112560   2.295   5.805   2.059
 3887SOL    HW212561   2.169   5.909   2.059
 3888SOL     OW12562   5.362   4.849   3.357
 3888SOL    HW112563   5.347   4.800   3.271
 3888SOL    HW212564   5.429   4.799   3.412
 3889SOL     OW12565   5.649   3.741   0.274
 3889SOL    HW112566   5.618   3.646   0.268
 3889SOL    HW212567   5.747   3.742   0.295
 3890SOL     OW12568   5.337   3.901   3.831
 3890SOL    HW112569   5.338   3.938   3.738
 3890SOL    HW212570   5.396   3.821   3.836
 3891SOL     OW12571   4.719   4.824   3.885
 3891SOL    HW112572   4.657   4.796   3.958
 3891SOL    HW212573   4.665   4.856   3.807
 3892SOL     OW12574   6.586   2.305   1.813
 3892SOL    HW112575   6.511   2.280   1.752
 3892SOL    HW212576   6.625   2.392   1.783
 3893SOL     OW12577   4.038   3.238   3.993
 3893SOL    HW112578   4.004   3.148   3.965
 3893SOL    HW212579   4.107   3.227   4.065
 3894SOL     OW12580   3.954   1.006   6.049
 3894SOL    HW112581   3.970   0.939   6.121
 3894SOL    HW212582   4.002   1.091   6.070
 3895SOL     OW12583   0.620   0.595   4.374
 3895SOL    HW112584   0.678   0.666   4.414
 3895SOL    HW212585   0.527   0.629   4.366
 3896SOL     OW12586   2.055   1.338   6.297
 3896SOL    HW112587   2.020   1.333   6.390
 3896SOL    HW212588   2.028   1.257   6.246
 3897SOL     OW12589   2.981   6.202   0.855
 3897SOL    HW112590   3.067   6.253   0.849
 3897SOL    HW212591   2.983   6.143   0.935
 3898SOL     OW12592   3.901   3.151   1.147
 3898SOL    HW112593   3.849   3.220   1.097
 3898SOL    HW212594   3.839   3.078   1.177
 3899SOL     OW12595   2.939   6.847   5.525
 3899SOL    HW112596   2.953   6.865   5.622
 3899SOL    HW212597   2.862   6.902   5.492
 3900SOL     OW12598   4.579   4.794   2.482
 3900SOL    HW112599   4.523   4.871   2.450
 3900SOL    HW212600   4.523   4.711   2.482
 3901SOL     OW12601   2.848   1.542   0.349
 3901SOL    HW112602   2.915   1.548   0.424
 3901SOL    HW212603   2.896   1.518   0.264
 3902SOL     OW12604   5.365   3.213   2.829
 3902SOL    HW112605   5.347   3.311   2.838
 3902SOL    HW212606   5.414   3.196   2.743
 3903SOL     OW12607   3.745   4.597   6.832
 3903SOL    HW112608   3.694   4.671   6.876
 3903SOL    HW212609   3.841   4.623   6.823
 3904SOL     OW12610   1.847   6.659   0.844
 3904SOL    HW112611   1.854   6.747   0.797
 3904SOL    HW212612   1.840   6.586   0.776
 3905SOL     OW12613   6.952   6.312   5.411
 3905SOL    HW112614   6.976   6.369   5.489
 3905SOL    HW212615   7.007   6.229   5.412
 3906SOL     OW12616   0.168   6.137   5.585
 3906SOL    HW112617   0.225   6.057   5.606
 3906SOL    HW212618   0.223   6.220   5.596
 3907SOL     OW12619   5.396   1.943   3.881
 3907SOL    HW112620   5.382   1.848   3.910
 3907SOL    HW212621   5.320   1.999   3.913
 3908SOL     OW12622   2.544   4.140   6.043
 3908SOL    HW112623   2.636   4.104   6.060
 3908SOL    HW212624   2.550   4.237   6.024
 3909SOL     OW12625   5.368   5.749   3.601
 3909SOL    HW112626   5.295   5.774   3.665
 3909SOL    HW212627   5.334   5.680   3.537
 3910SOL     OW12628   3.471   3.816   2.364
 3910SOL    HW112629   3.421   3.895   2.329
 3910SOL    HW212630   3.476   3.821   2.464
 3911SOL     OW12631   5.784   1.973   5.624
 3911SOL    HW112632   5.820   1.956   5.715
 3911SOL    HW212633   5.849   1.940   5.555
 3912SOL     OW12634   5.342   2.772   6.063
 3912SOL    HW112635   5.349   2.840   5.990
 3912SOL    HW212636   5.342   2.818   6.151
 3913SOL     OW12637   1.444   6.803   1.324
 3913SOL    HW112638   1.391   6.801   1.408
 3913SOL    HW212639   1.541   6.798   1.346
 3914SOL     OW12640   3.164   5.617   5.090
 3914SOL    HW112641   3.082   5.577   5.047
 3914SOL    HW212642   3.239   5.615   5.024
 3915SOL     OW12643   5.941   5.773   1.608
 3915SOL    HW112644   5.930   5.832   1.688
 3915SOL    HW212645   5.979   5.686   1.636
 3916SOL     OW12646   0.171   0.068   3.440
 3916SOL    HW112647   0.075   0.053   3.417
 3916SOL    HW212648   0.190   0.166   3.441
 3917SOL     OW12649   2.621   0.030   6.825
 3917SOL    HW112650   2.684   0.036   6.748
 3917SOL    HW212651   2.577   6.961   6.825
 3918SOL     OW12652   5.858   3.776   7.007
 3918SOL    HW112653   5.822   3.785   0.079
 3918SOL    HW212654   5.958   3.774   7.010
 3919SOL     OW12655   3.229   6.332   0.836
 3919SOL    HW112656   3.280   6.277   0.770
 3919SOL    HW212657   3.271   6.423   0.842
 3920SOL     OW12658   2.218   0.772   6.966
 3920SOL    HW112659   2.162   0.691   6.984
 3920SOL    HW212660   2.196   0.807   6.875
 3921SOL     OW12661   0.832   3.514   0.825
 3921SOL    HW112662   0.787   3.464   0.751
 3921SOL    HW212663   0.779   3.596   0.847
 3922SOL     OW12664   0.616   5.354   1.179
 3922SOL    HW112665   0.564   5.325   1.260
 3922SOL    HW212666   0.681   5.283   1.153
 3923SOL     OW12667   6.765   6.120   0.661
 3923SOL    HW112668   6.824   6.073   0.595
 3923SOL    HW212669   6.677   6.074   0.666
 3924SOL     OW12670   6.390   5.024   4.351
 3924SOL    HW112671   6.415   5.016   4.448
 3924SOL    HW212672   6.344   5.112   4.336
 3925SOL     OW12673   1.137   4.835   0.779
 3925SOL    HW112674   1.130   4.737   0.760
 3925SOL    HW212675   1.107   4.853   0.873
 3926SOL     OW12676   3.231   5.450   2.920
 3926SOL    HW112677   3.215   5.414   2.828
 3926SOL    HW212678   3.229   5.550   2.917
 3927SOL     OW12679   2.465   3.527   6.623
 3927SOL    HW112680   2.380   3.541   6.674
 3927SOL    HW212681   2.482   3.429   6.612
 3928SOL     OW12682   6.731   6.704   6.409
 3928SOL    HW112683   6.805   6.770   6.425
 3928SOL    HW212684   6.697   6.714   6.315
 3929SOL     OW12685   1.013   1.609   4.722
 3929SOL    HW112686   1.101   1.653   4.706
 3929SOL    HW212687   0.990   1.550   4.645
 3930SOL     OW12688   2.958   1.534   4.230
 3930SOL    HW112689   2.875   1.591   4.230
 3930SOL    HW212690   3.038   1.593   4.234
 3931SOL     OW12691   4.251   7.017   2.057
 3931SOL    HW112692   4.230   0.044   1.973
 3931SOL    HW212693   4.231   0.054   2.136
 3932SOL     OW12694   1.995   2.864   3.459
 3932SOL    HW112695   2.075   2.876   3.401
 3932SOL    HW212696   2.023   2.823   3.546
 3933SOL     OW12697   1.973   1.136   6.130
 3933SOL    HW112698   2.051   1.152   6.069
 3933SOL    HW212699   1.968   1.039   6.153
 3934SOL     OW12700   5.381   6.147   6.817
 3934SOL    HW112701   5.371   6.244   6.797
 3934SOL    HW212702   5.428   6.135   6.904
 3935SOL     OW12703   5.206   6.751   1.839
 3935SOL    HW112704   5.246   6.830   1.793
 3935SOL    HW212705   5.158   6.782   1.922
 3936SOL     OW12706   0.583   4.147   2.343
 3936SOL    HW112707   0.593   4.064   2.289
 3936SOL    HW212708   0.653   4.213   2.316
 3937SOL     OW12709   0.186   2.005   2.344
 3937SOL    HW112710   0.248   1.981   2.419
 3937SOL    HW212711   0.101   1.953   2.353
 3938SOL     OW12712   6.597   2.972   3.293
 3938SOL    HW112713   6.517   3.008   3.340
 3938SOL    HW212714   6.575   2.954   3.197
 3939SOL     OW12715   1.956   2.069   1.521
 3939SOL    HW112716   1.958   2.103   1.615
 3939SOL    HW212717   1.873   2.102   1.476
 3940SOL     OW12718   4.336   4.585   0.903
 3940SOL    HW112719   4.374   4.531   0.828
 3940SOL    HW212720   4.410   4.607   0.968
 3941SOL     OW12721   5.447   3.349   6.954
 3941SOL    HW112722   5.460   3.250   6.964
 3941SOL    HW212723   5.507   3.397   7.017
 3942SOL     OW12724   6.443   6.890   0.959
 3942SOL    HW112725   6.487   6.810   0.917
 3942SOL    HW212726   6.353   6.864   0.993
 3943SOL     OW12727   6.647   3.016   5.248
 3943SOL    HW112728   6.655   2.948   5.320
 3943SOL    HW212729   6.618   3.103   5.286
 3944SOL     OW12730   5.601   1.648   5.132
 3944SOL    HW112731   5.562   1.596   5.056
 3944SOL    HW212732   5.630   1.738   5.099
 3945SOL     OW12733   0.107   0.172   1.022
 3945SOL    HW112734   0.206   0.156   1.025
 3945SOL    HW212735   0.060   0.090   1.053
 3946SOL     OW12736   3.486   5.011   3.232
 3946SOL    HW112737   3.520   4.963   3.152
 3946SOL    HW212738   3.471   5.108   3.209
 3947SOL     OW12739   6.603   3.865   6.064
 3947SOL    HW112740   6.603   3.843   5.967
 3947SOL    HW212741   6.609   3.781   6.118
 3948SOL     OW12742   6.600   3.541   0.856
 3948SOL    HW112743   6.561   3.461   0.810
 3948SOL    HW212744   6.528   3.592   0.903
 3949SOL     OW12745   5.454   6.337   2.889
 3949SOL    HW112746   5.392   6.342   2.811
 3949SOL    HW212747   5.547   6.319   2.857
 3950SOL     OW12748   1.527   6.889   0.511
 3950SOL    HW112749   1.563   6.795   0.507
 3950SOL    HW212750   1.539   6.925   0.603
 3951SOL     OW12751   5.927   5.484   1.810
 3951SOL    HW112752   5.840   5.488   1.761
 3951SOL    HW212753   5.910   5.487   1.909
 3952SOL     OW12754   5.992   1.515   6.362
 3952SOL    HW112755   6.027   1.584   6.425
 3952SOL    HW212756   5.900   1.487   6.391
 3953SOL     OW12757   2.903   3.286   3.116
 3953SOL    HW112758   2.894   3.257   3.021
 3953SOL    HW212759   2.987   3.249   3.154
 3954SOL     OW12760   4.090   4.345   5.795
 3954SOL    HW112761   4.044   4.385   5.716
 3954SOL    HW212762   4.083   4.406   5.874
 3955SOL     OW12763   3.594   1.319   5.101
 3955SOL    HW112764   3.512   1.343   5.049
 3955SOL    HW212765   3.675   1.343   5.048
 3956SOL     OW12766   2.038   1.616   0.677
 3956SOL    HW112767   2.078   1.609   0.769
 3956SOL    HW212768   1.972   1.690   0.676
 3957SOL     OW12769   4.158   1.243   3.701
 3957SOL    HW112770   4.115   1.154   3.715
 3957SOL    HW212771   4.219   1.263   3.777
 3958SOL     OW12772   5.485   6.589   5.948
 3958SOL    HW112773   5.476   6.548   5.857
 3958SOL    HW212774   5.504   6.517   6.015
 3959SOL     OW12775   5.569   5.369   5.912
 3959SOL    HW112776   5.538   5.334   6.001
 3959SOL    HW212777   5.632   5.446   5.927
 3960SOL     OW12778   5.876   2.582   4.755
 3960SOL    HW112779   5.886   2.651   4.683
 3960SOL    HW212780   5.802   2.609   4.817
 3961SOL     OW12781   5.094   6.970   4.231
 3961SOL    HW112782   5.156   6.977   4.309
 3961SOL    HW212783   5.069   0.041   4.200
 3962SOL     OW12784   6.295   5.124   4.833
 3962SOL    HW112785   6.302   5.189   4.909
 3962SOL    HW212786   6.202   5.124   4.797
 3963SOL     OW12787   4.122   6.856   2.236
 3963SOL    HW112788   4.166   6.917   2.170
 3963SOL    HW212789   4.070   6.786   2.186
 3964SOL     OW12790   5.440   2.778   3.930
 3964SOL    HW112791   5.504   2.843   3.971
 3964SOL    HW212792   5.356   2.825   3.903
 3965SOL     OW12793   5.116   4.287   4.018
 3965SOL    HW112794   5.030   4.314   4.062
 3965SOL    HW212795   5.192   4.310   4.078
 3966SOL     OW12796   2.444   6.674   6.680
 3966SOL    HW112797   2.542   6.673   6.658
 3966SOL    HW212798   2.417   6.584   6.716
 3967SOL     OW12799   1.479   4.006   3.816
 3967SOL    HW112800   1.452   4.012   3.720
 3967SOL    HW212801   1.566   3.959   3.823
 3968SOL     OW12802   4.083   0.122   0.943
 3968SOL    HW112803   4.105   0.149   1.037
 3968SOL    HW212804   4.019   0.045   0.945
 3969SOL     OW12805   0.520   4.839   3.456
 3969SOL    HW112806   0.606   4.799   3.485
 3969SOL    HW212807   0.530   4.937   3.444
 3970SOL     OW12808   4.325   6.019   1.596
 3970SOL    HW112809   4.296   6.114   1.586
 3970SOL    HW212810   4.375   6.009   1.682
 3971SOL     OW12811   1.327   5.948   3.813
 3971SOL    HW112812   1.331   5.859   3.768
 3971SOL    HW212813   1.311   6.019   3.745
 3972SOL     OW12814   1.509   3.474   6.979
 3972SOL    HW112815   1.419   3.431   6.980
 3972SOL    HW212816   1.523   3.524   0.044
 3973SOL     OW12817   1.950   4.494   0.676
 3973SOL    HW112818   1.993   4.572   0.722
 3973SOL    HW212819   1.945   4.416   0.739
 3974SOL     OW12820   2.862   0.458   5.901
 3974SOL    HW112821   2.811   0.379   5.866
 3974SOL    HW212822   2.822   0.542   5.866
 3975SOL     OW12823   6.360   3.123   0.150
 3975SOL    HW112824   6.292   3.151   0.218
 3975SOL    HW212825   6.442   3.090   0.196
 3976SOL     OW12826   1.634   4.047   2.677
 3976SOL    HW112827   1.585   3.975   2.726
 3976SOL    HW212828   1.683   4.007   2.599
 3977SOL     OW12829   0.775   2.652   0.084
 3977SOL    HW112830   0.742   2.737   0.042
 3977SOL    HW212831   0.709   2.579   0.066
 3978SOL     OW12832   6.130   4.130   4.065
 3978SOL    HW112833   6.140   4.110   4.162
 3978SOL    HW212834   6.088   4.219   4.052
 3979SOL     OW12835   4.426   5.665   6.095
 3979SOL    HW112836   4.334   5.656   6.134
 3979SOL    HW212837   4.442   5.760   6.070
 3980SOL     OW12838   5.580   4.995   5.985
 3980SOL    HW112839   5.667   5.042   6.001
 3980SOL    HW212840   5.562   4.931   6.060
 3981SOL     OW12841   4.302   5.539   6.886
 3981SOL    HW112842   4.225   5.489   6.846
 3981SOL    HW212843   4.299   5.634   6.855
 3982SOL     OW12844   2.591   6.092   2.925
 3982SOL    HW112845   2.662   6.026   2.950
 3982SOL    HW212846   2.625   6.185   2.943
 3983SOL     OW12847   3.656   6.058   4.169
 3983SOL    HW112848   3.737   6.003   4.148
 3983SOL    HW212849   3.685   6.144   4.210
 3984SOL     OW12850   6.796   2.959   2.904
 3984SOL    HW112851   6.894   2.959   2.923
 3984SOL    HW212852   6.755   3.043   2.939
 3985SOL     OW12853   4.015   5.332   6.286
 3985SOL    HW112854   4.013   5.250   6.229
 3985SOL    HW212855   4.019   5.305   6.383
 3986SOL     OW12856   5.469   0.890   2.605
 3986SOL    HW112857   5.538   0.867   2.674
 3986SOL    HW212858   5.392   0.936   2.649
 3987SOL     OW12859   3.613   5.500   5.767
 3987SOL    HW112860   3.651   5.426   5.712
 3987SOL    HW212861   3.595   5.467   5.859
 3988SOL     OW12862   5.035   6.001   0.855
 3988SOL    HW112863   4.940   5.987   0.881
 3988SOL    HW212864   5.055   5.951   0.771
 3989SOL     OW12865   6.358   2.656   1.185
 3989SOL    HW112866   6.434   2.648   1.121
 3989SOL    HW212867   6.366   2.741   1.237
 3990SOL     OW12868   6.713   1.640   1.956
 3990SOL    HW112869   6.651   1.715   1.981
 3990SOL    HW212870   6.693   1.560   2.013
 3991SOL     OW12871   5.853   1.562   3.312
 3991SOL    HW112872   5.781   1.625   3.339
 3991SOL    HW212873   5.863   1.564   3.212
 3992SOL     OW12874   4.310   1.797   1.528
 3992SOL    HW112875   4.353   1.741   1.599
 3992SOL    HW212876   4.322   1.752   1.439
 3993SOL     OW12877   0.932   3.313   1.417
 3993SOL    HW112878   0.958   3.220   1.442
 3993SOL    HW212879   0.844   3.311   1.368
 3994SOL     OW12880   2.204   5.541   4.458
 3994SOL    HW112881   2.224   5.525   4.362
 3994SOL    HW212882   2.261   5.482   4.515
 3995SOL     OW12883   1.851   2.283   4.474
 3995SOL    HW112884   1.888   2.210   4.532
 3995SOL    HW212885   1.889   2.275   4.382
 3996SOL     OW12886   0.124   5.595   4.495
 3996SOL    HW112887   0.160   5.506   4.467
 3996SOL    HW212888   0.170   5.667   4.443
 3997SOL     OW12889   2.829   1.082   3.216
 3997SOL    HW112890   2.755   1.136   3.257
 3997SOL    HW212891   2.790   1.008   3.161
 3998SOL     OW12892   4.463   2.447   2.780
 3998SOL    HW112893   4.467   2.415   2.685
 3998SOL    HW212894   4.526   2.524   2.791
 3999SOL     OW12895   4.652   1.258   4.246
 3999SOL    HW112896   4.558   1.224   4.235
 3999SOL    HW212897   4.715   1.180   4.250
 4000SOL     OW12898   4.100   5.950   4.591
 4000SOL    HW112899   4.083   5.882   4.520
 4000SOL    HW212900   4.114   6.040   4.549
 4001SOL     OW12901   0.945   1.854   4.815
 4001SOL    HW112902   0.969   1.761   4.789
 4001SOL    HW212903   1.029   1.909   4.822
 4002SOL     OW12904   2.050   4.400   1.439
 4002SOL    HW112905   2.120   4.332   1.418
 4002SOL    HW212906   2.041   4.464   1.363
 4003SOL     OW12907   4.042   2.133   5.024
 4003SOL    HW112908   4.061   2.228   5.048
 4003SOL    HW212909   4.124   2.077   5.038
 4004SOL     OW12910   6.716   1.676   6.352
 4004SOL    HW112911   6.796   1.631   6.392
 4004SOL    HW212912   6.745   1.756   6.301
 4005SOL     OW12913   6.527   4.565   4.641
 4005SOL    HW112914   6.448   4.565   4.703
 4005SOL    HW212915   6.535   4.475   4.598
 4006SOL     OW12916   3.628   6.259   3.291
 4006SOL    HW112917   3.544   6.299   3.327
 4006SOL    HW212918   3.604   6.188   3.223
 4007SOL     OW12919   0.463   1.382   5.469
 4007SOL    HW112920   0.561   1.365   5.484
 4007SOL    HW212921   0.438   1.353   5.377
 4008SOL     OW12922   2.965   1.423   5.618
 4008SOL    HW112923   2.902   1.382   5.684
 4008SOL    HW212924   2.934   1.403   5.525
 4009SOL     OW12925   3.319   3.800   2.907
 4009SOL    HW112926   3.317   3.718   2.964
 4009SOL    HW212927   3.247   3.793   2.837
 4010SOL     OW12928   1.016   3.149   0.281
 4010SOL    HW112929   0.945   3.123   0.347
 4010SOL    HW212930   1.001   3.243   0.251
 4011SOL     OW12931   0.386   2.248   0.886
 4011SOL    HW112932   0.436   2.290   0.810
 4011SOL    HW212933   0.449   2.197   0.944
 4012SOL     OW12934   5.950   3.404   3.263
 4012SOL    HW112935   6.031   3.348   3.277
 4012SOL    HW212936   5.955   3.486   3.321
 4013SOL     OW12937   4.930   2.806   3.212
 4013SOL    HW112938   4.900   2.804   3.117
 4013SOL    HW212939   4.854   2.779   3.271
 4014SOL     OW12940   5.420   4.536   2.056
 4014SOL    HW112941   5.433   4.577   1.965
 4014SOL    HW212942   5.503   4.487   2.082
 4015SOL     OW12943   5.228   3.384   0.243
 4015SOL    HW112944   5.291   3.399   0.320
 4015SOL    HW212945   5.138   3.422   0.265
 4016SOL     OW12946   3.387   6.384   4.438
 4016SOL    HW112947   3.298   6.351   4.406
 4016SOL    HW212948   3.411   6.338   4.524
 4017SOL     OW12949   5.577   0.049   6.022
 4017SOL    HW112950   5.529   0.067   5.936
 4017SOL    HW212951   5.614   0.134   6.059
 4018SOL     OW12952   2.449   0.301   6.758
 4018SOL    HW112953   2.536   0.290   6.807
 4018SOL    HW212954   2.444   0.233   6.684
 4019SOL     OW12955   5.341   6.506   3.868
 4019SOL    HW112956   5.393   6.460   3.796
 4019SOL    HW212957   5.405   6.556   3.927
 4020SOL     OW12958   5.464   1.569   4.492
 4020SOL    HW112959   5.375   1.563   4.447
 4020SOL    HW212960   5.532   1.605   4.428
 4021SOL     OW12961   5.552   3.865   0.032
 4021SOL    HW112962   5.571   3.807   0.111
 4021SOL    HW212963   5.521   3.808   6.977
 4022SOL     OW12964   5.801   1.138   0.983
 4022SOL    HW112965   5.748   1.159   1.065
 4022SOL    HW212966   5.739   1.106   0.911
 4023SOL     OW12967   6.505   6.131   5.856
 4023SOL    HW112968   6.494   6.207   5.920
 4023SOL    HW212969   6.602   6.120   5.833
 4024SOL     OW12970   4.573   4.519   5.166
 4024SOL    HW112971   4.620   4.435   5.191
 4024SOL    HW212972   4.528   4.508   5.078
 4025SOL     OW12973   0.241   3.831   4.110
 4025SOL    HW112974   0.291   3.792   4.033
 4025SOL    HW212975   0.208   3.923   4.086
 4026SOL     OW12976   5.637   1.038   5.290
 4026SOL    HW112977   5.557   1.038   5.351
 4026SOL    HW212978   5.636   0.954   5.235
 4027SOL     OW12979   2.637   5.260   2.791
 4027SOL    HW112980   2.581   5.209   2.725
 4027SOL    HW212981   2.658   5.202   2.869
 4028SOL     OW12982   1.675   5.644   3.244
 4028SOL    HW112983   1.721   5.717   3.193
 4028SOL    HW212984   1.654   5.676   3.336
 4029SOL     OW12985   1.705   3.638   3.169
 4029SOL    HW112986   1.642   3.646   3.247
 4029SOL    HW212987   1.653   3.621   3.086
 4030SOL     OW12988   2.402   1.137   6.543
 4030SOL    HW112989   2.312   1.100   6.524
 4030SOL    HW212990   2.456   1.070   6.595
 4031SOL     OW12991   6.781   5.878   4.293
 4031SOL    HW112992   6.689   5.913   4.312
 4031SOL    HW212993   6.786   5.782   4.322
 4032SOL     OW12994   3.075   6.673   4.911
 4032SOL    HW112995   3.119   6.738   4.850
 4032SOL    HW212996   3.120   6.674   5.000
 4033SOL     OW12997   3.747   3.826   6.127
 4033SOL    HW112998   3.821   3.786   6.182
 4033SOL    HW212999   3.719   3.762   6.057
 4034SOL     OW13000   5.831   3.364   5.019
 4034SOL    HW113001   5.799   3.282   5.066
 4034SOL    HW213002   5.758   3.399   4.960
 4035SOL     OW13003   6.853   6.529   1.736
 4035SOL    HW113004   6.937   6.500   1.782
 4035SOL    HW213005   6.819   6.454   1.678
 4036SOL     OW13006   6.142   6.094   1.357
 4036SOL    HW113007   6.163   5.998   1.338
 4036SOL    HW213008   6.060   6.100   1.414
 4037SOL     OW13009   0.647   3.578   6.243
 4037SOL    HW113010   0.692   3.662   6.213
 4037SOL    HW213011   0.556   3.598   6.279
 4038SOL     OW13012   6.252   5.266   3.555
 4038SOL    HW113013   6.163   5.222   3.546
 4038SOL    HW213014   6.250   5.331   3.630
 4039SOL     OW13015   2.535   4.824   1.245
 4039SOL    HW113016   2.576   4.875   1.170
 4039SOL    HW213017   2.582   4.736   1.256
 4040SOL     OW13018   3.311   6.785   0.170
 4040SOL    HW113019   3.267   6.853   0.111
 4040SOL    HW213020   3.352   6.831   0.249
 4041SOL     OW13021   0.558   6.131   3.380
 4041SOL    HW113022   0.587   6.037   3.363
 4041SOL    HW213023   0.476   6.151   3.326
 4042SOL     OW13024   5.639   5.816   1.921
 4042SOL    HW113025   5.722   5.777   1.961
 4042SOL    HW213026   5.656   5.910   1.892
 4043SOL     OW13027   6.859   3.398   0.846
 4043SOL    HW113028   6.925   3.473   0.843
 4043SOL    HW213029   6.769   3.433   0.872
 4044SOL     OW13030   5.714   4.702   2.149
 4044SOL    HW113031   5.786   4.767   2.124
 4044SOL    HW213032   5.669   4.732   2.233
 4045SOL     OW13033   2.464   4.900   5.799
 4045SOL    HW113034   2.500   4.863   5.714
 4045SOL    HW213035   2.372   4.864   5.814
 4046SOL     OW13036   0.408   3.379   0.450
 4046SOL    HW113037   0.409   3.281   0.429
 4046SOL    HW213038   0.445   3.394   0.542
 4047SOL     OW13039   2.895   3.407   3.426
 4047SOL    HW113040   2.856   3.343   3.360
 4047SOL    HW213041   2.938   3.355   3.500
 4048SOL     OW13042   4.721   2.249   0.276
 4048SOL    HW113043   4.623   2.247   0.293
 4048SOL    HW213044   4.758   2.337   0.304
 4049SOL     OW13045   6.955   6.514   6.838
 4049SOL    HW113046   6.949   6.560   6.927
 4049SOL    HW213047   0.026   6.479   6.825
 4050SOL     OW13048   2.550   0.993   2.723
 4050SOL    HW113049   2.613   1.025   2.653
 4050SOL    HW213050   2.549   1.057   2.800
 4051SOL     OW13051   2.670   3.425   0.641
 4051SOL    HW113052   2.667   3.425   0.542
 4051SOL    HW213053   2.599   3.365   0.677
 4052SOL     OW13054   1.563   6.930   0.801
 4052SOL    HW113055   1.522   6.914   0.890
 4052SOL    HW213056   1.656   6.892   0.799
 4053SOL     OW13057   3.011   5.745   2.475
 4053SOL    HW113058   2.981   5.841   2.482
 4053SOL    HW213059   3.104   5.742   2.440
 4054SOL     OW13060   5.323   1.327   6.603
 4054SOL    HW113061   5.274   1.275   6.673
 4054SOL    HW213062   5.348   1.417   6.640
 4055SOL     OW13063   4.580   3.680   6.688
 4055SOL    HW113064   4.628   3.595   6.711
 4055SOL    HW213065   4.624   3.756   6.735
 4056SOL     OW13066   4.695   3.037   6.790
 4056SOL    HW113067   4.631   3.069   6.860
 4056SOL    HW213068   4.786   3.023   6.831
 4057SOL     OW13069   6.260   2.649   0.743
 4057SOL    HW113070   6.275   2.600   0.829
 4057SOL    HW213071   6.164   2.641   0.716
 4058SOL     OW13072   0.776   3.453   4.022
 4058SOL    HW113073   0.868   3.454   4.062
 4058SOL    HW213074   0.708   3.456   4.094
 4059SOL     OW13075   0.301   1.851   4.949
 4059SOL    HW113076   0.223   1.847   4.887
 4059SOL    HW213077   0.273   1.892   5.035
 4060SOL     OW13078   2.532   6.540   5.590
 4060SOL    HW113079   2.451   6.585   5.553
 4060SOL    HW213080   2.507   6.450   5.627
 4061SOL     OW13081   2.165   3.109   1.335
 4061SOL    HW113082   2.148   3.094   1.238
 4061SOL    HW213083   2.226   3.037   1.369
 4062SOL     OW13084   2.956   0.246   3.295
 4062SOL    HW113085   2.896   0.170   3.318
 4062SOL    HW213086   2.901   0.325   3.267
 4063SOL     OW13087   3.622   6.032   6.409
 4063SOL    HW113088   3.690   6.096   6.373
 4063SOL    HW213089   3.667   5.945   6.431
 4064SOL     OW13090   6.250   0.009   4.597
 4064SOL    HW113091   6.289   0.092   4.556
 4064SOL    HW213092   6.322   6.961   4.607
 4065SOL     OW13093   1.138   4.318   5.570
 4065SOL    HW113094   1.187   4.231   5.572
 4065SOL    HW213095   1.093   4.333   5.658
 4066SOL     OW13096   4.821   5.131   1.852
 4066SOL    HW113097   4.729   5.095   1.838
 4066SOL    HW213098   4.828   5.170   1.943
 4067SOL     OW13099   5.592   0.574   1.149
 4067SOL    HW113100   5.682   0.559   1.191
 4067SOL    HW213101   5.575   0.503   1.081
 4068SOL     OW13102   4.885   0.791   4.614
 4068SOL    HW113103   4.889   0.883   4.577
 4068SOL    HW213104   4.921   0.726   4.547
 4069SOL     OW13105   6.748   6.323   0.472
 4069SOL    HW113106   6.842   6.317   0.441
 4069SOL    HW213107   6.736   6.267   0.554
 4070SOL     OW13108   6.763   3.491   2.522
 4070SOL    HW113109   6.708   3.422   2.474
 4070SOL    HW213110   6.748   3.580   2.479
 4071SOL     OW13111   2.699   0.105   4.887
 4071SOL    HW113112   2.677   0.069   4.796
 4071SOL    HW213113   2.799   0.114   4.895
 4072SOL     OW13114   0.621   0.358   4.219
 4072SOL    HW113115   0.532   0.358   4.173
 4072SOL    HW213116   0.634   0.445   4.267
 4073SOL     OW13117   2.562   4.614   2.114
 4073SOL    HW113118   2.487   4.554   2.085
 4073SOL    HW213119   2.627   4.624   2.038
 4074SOL     OW13120   0.375   2.889   1.096
 4074SOL    HW113121   0.413   2.800   1.119
 4074SOL    HW213122   0.359   2.941   1.180
 4075SOL     OW13123   6.589   0.513   3.504
 4075SOL    HW113124   6.539   0.456   3.569
 4075SOL    HW213125   6.641   0.582   3.553
 4076SOL     OW13126   1.395   3.314   3.338
 4076SOL    HW113127   1.419   3.323   3.242
 4076SOL    HW213128   1.362   3.402   3.372
 4077SOL     OW13129   3.683   0.719   1.494
 4077SOL    HW113130   3.625   0.761   1.564
 4077SOL    HW213131   3.772   0.765   1.493
 4078SOL     OW13132   5.024   4.619   2.267
 4078SOL    HW113133   5.067   4.647   2.353
 4078SOL    HW213134   4.930   4.652   2.264
 4079SOL     OW13135   4.909   0.955   3.517
 4079SOL    HW113136   4.820   0.967   3.474
 4079SOL    HW213137   4.930   1.036   3.572
 4080SOL     OW13138   2.966   3.834   4.605
 4080SOL    HW113139   2.979   3.884   4.691
 4080SOL    HW213140   2.897   3.763   4.619
 4081SOL     OW13141   2.714   0.168   0.224
 4081SOL    HW113142   2.665   0.214   0.150
 4081SOL    HW213143   2.799   0.129   0.189
 4082SOL     OW13144   1.956   1.522   5.630
 4082SOL    HW113145   1.962   1.425   5.606
 4082SOL    HW213146   1.904   1.571   5.561
 4083SOL     OW13147   5.850   4.513   2.622
 4083SOL    HW113148   5.906   4.433   2.644
 4083SOL    HW213149   5.882   4.553   2.536
 4084SOL     OW13150   4.119   6.470   2.504
 4084SOL    HW113151   4.041   6.440   2.558
 4084SOL    HW213152   4.192   6.501   2.565
 4085SOL     OW13153   1.689   4.315   2.752
 4085SOL    HW113154   1.773   4.342   2.800
 4085SOL    HW213155   1.699   4.221   2.719
 4086SOL     OW13156   5.333   5.364   4.648
 4086SOL    HW113157   5.242   5.404   4.663
 4086SOL    HW213158   5.332   5.268   4.674
 4087SOL     OW13159   1.749   1.020   1.398
 4087SOL    HW113160   1.711   1.026   1.490
 4087SOL    HW213161   1.679   1.045   1.331
 4088SOL     OW13162   7.005   2.239   5.323
 4088SOL    HW113163   0.012   2.157   5.372
 4088SOL    HW213164   0.065   2.286   5.288
 4089SOL     OW13165   6.804   6.650   2.761
 4089SOL    HW113166   6.869   6.673   2.834
 4089SOL    HW213167   6.834   6.565   2.716
 4090SOL     OW13168   3.528   2.564   5.333
 4090SOL    HW113169   3.617   2.581   5.376
 4090SOL    HW213170   3.513   2.466   5.326
 4091SOL     OW13171   3.958   6.575   3.241
 4091SOL    HW113172   3.944   6.674   3.231
 4091SOL    HW213173   3.873   6.527   3.216
 4092SOL     OW13174   4.423   1.650   6.362
 4092SOL    HW113175   4.504   1.693   6.401
 4092SOL    HW213176   4.414   1.557   6.399
 4093SOL     OW13177   5.777   4.056   1.843
 4093SOL    HW113178   5.822   4.079   1.757
 4093SOL    HW213179   5.827   4.099   1.919
 4094SOL     OW13180   6.295   6.256   0.545
 4094SOL    HW113181   6.367   6.318   0.513
 4094SOL    HW213182   6.229   6.308   0.600
 4095SOL     OW13183   1.307   4.894   0.376
 4095SOL    HW113184   1.381   4.830   0.396
 4095SOL    HW213185   1.298   4.959   0.452
 4096SOL     OW13186   0.842   6.275   5.823
 4096SOL    HW113187   0.878   6.182   5.807
 4096SOL    HW213188   0.755   6.285   5.775
 4097SOL     OW13189   1.375   3.953   5.819
 4097SOL    HW113190   1.472   3.966   5.799
 4097SOL    HW213191   1.341   4.031   5.872
 4098SOL     OW13192   1.182   6.057   1.782
 4098SOL    HW113193   1.271   6.101   1.777
 4098SOL    HW213194   1.118   6.103   1.721
 4099SOL     OW13195   6.810   2.213   6.025
 4099SOL    HW113196   6.891   2.172   5.982
 4099SOL    HW213197   6.739   2.228   5.956
 4100SOL     OW13198   2.339   0.955   3.790
 4100SOL    HW113199   2.403   1.000   3.854
 4100SOL    HW213200   2.308   1.021   3.722
 4101SOL     OW13201   6.055   6.466   5.934
 4101SOL    HW113202   6.056   6.376   5.977
 4101SOL    HW213203   6.109   6.463   5.850
 4102SOL     OW13204   2.789   5.067   0.394
 4102SOL    HW113205   2.794   4.976   0.354
 4102SOL    HW213206   2.697   5.084   0.428
 4103SOL     OW13207   2.193   5.135   2.823
 4103SOL    HW113208   2.148   5.224   2.829
 4103SOL    HW213209   2.291   5.148   2.812
 4104SOL     OW13210   2.674   5.562   5.445
 4104SOL    HW113211   2.753   5.615   5.414
 4104SOL    HW213212   2.591   5.617   5.435
 4105SOL     OW13213   3.672   0.177   1.960
 4105SOL    HW113214   3.657   0.091   2.008
 4105SOL    HW213215   3.676   0.252   2.027
 4106SOL     OW13216   1.546   6.615   2.904
 4106SOL    HW113217   1.635   6.640   2.942
 4106SOL    HW213218   1.492   6.698   2.889
 4107SOL     OW13219   2.250   1.961   0.774
 4107SOL    HW113220   2.170   2.003   0.817
 4107SOL    HW213221   2.226   1.933   0.680
 4108SOL     OW13222   0.602   5.639   4.962
 4108SOL    HW113223   0.656   5.585   5.027
 4108SOL    HW213224   0.534   5.693   5.012
 4109SOL     OW13225   4.872   0.227   5.233
 4109SOL    HW113226   4.917   0.252   5.147
 4109SOL    HW213227   4.807   0.153   5.217
 4110SOL     OW13228   4.969   2.152   0.412
 4110SOL    HW113229   4.894   2.203   0.369
 4110SOL    HW213230   4.933   2.072   0.460
 4111SOL     OW13231   6.534   4.622   3.768
 4111SOL    HW113232   6.538   4.567   3.685
 4111SOL    HW213233   6.556   4.717   3.747
 4112SOL     OW13234   3.835   5.820   5.660
 4112SOL    HW113235   3.879   5.744   5.707
 4112SOL    HW213236   3.776   5.870   5.724
 4113SOL     OW13237   5.427   5.791   5.711
 4113SOL    HW113238   5.331   5.770   5.694
 4113SOL    HW213239   5.437   5.888   5.731
 4114SOL     OW13240   6.557   1.655   3.397
 4114SOL    HW113241   6.505   1.729   3.355
 4114SOL    HW213242   6.533   1.647   3.493
 4115SOL     OW13243   4.599   6.903   4.622
 4115SOL    HW113244   4.602   7.003   4.626
 4115SOL    HW213245   4.511   6.871   4.656
 4116SOL     OW13246   6.082   3.791   3.257
 4116SOL    HW113247   6.128   3.715   3.302
 4116SOL    HW213248   6.122   3.877   3.289
 4117SOL     OW13249   0.679   2.739   2.668
 4117SOL    HW113250   0.602   2.759   2.728
 4117SOL    HW213251   0.687   2.811   2.598
 4118SOL     OW13252   0.843   1.027   2.026
 4118SOL    HW113253   0.941   1.009   2.039
 4118SOL    HW213254   0.826   1.125   2.036
 4119SOL     OW13255   6.382   0.893   4.373
 4119SOL    HW113256   6.390   0.851   4.283
 4119SOL    HW213257   6.462   0.869   4.428
 4120SOL     OW13258   1.642   0.664   0.031
 4120SOL    HW113259   1.696   0.587   7.017
 4120SOL    HW213260   1.685   0.750   0.005
 4121SOL     OW13261   6.615   0.261   1.175
 4121SOL    HW113262   6.634   0.272   1.272
 4121SOL    HW213263   6.700   0.262   1.123
 4122SOL     OW13264   1.343   4.384   3.525
 4122SOL    HW113265   1.387   4.295   3.512
 4122SOL    HW213266   1.244   4.373   3.519
 4123SOL     OW13267   6.138   4.377   2.083
 4123SOL    HW113268   6.186   4.398   2.168
 4123SOL    HW213269   6.040   4.384   2.098
 4124SOL     OW13270   5.780   6.329   0.098
 4124SOL    HW113271   5.839   6.288   0.028
 4124SOL    HW213272   5.702   6.373   0.053
 4125SOL     OW13273   0.405   2.802   6.929
 4125SOL    HW113274   0.358   2.889   6.937
 4125SOL    HW213275   0.407   2.773   6.833
 4126SOL     OW13276   1.672   3.900   3.454
 4126SOL    HW113277   1.758   3.873   3.498
 4126SOL    HW213278   1.611   3.821   3.451
 4127SOL     OW13279   4.761   2.564   4.362
 4127SOL    HW113280   4.732   2.657   4.339
 4127SOL    HW213281   4.857   2.552   4.338
 4128SOL     OW13282   5.907   2.902   6.107
 4128SOL    HW113283   5.898   2.981   6.046
 4128SOL    HW213284   5.896   2.933   6.202
 4129SOL     OW13285   3.108   6.847   2.042
 4129SOL    HW113286   3.172   6.770   2.052
 4129SOL    HW213287   3.030   6.832   2.103
 4130SOL     OW13288   4.916   1.226   0.495
 4130SOL    HW113289   4.841   1.238   0.560
 4130SOL    HW213290   4.931   1.312   0.446
 4131SOL     OW13291   5.192   6.361   4.065
 4131SOL    HW113292   5.215   6.427   4.136
 4131SOL    HW213293   5.226   6.394   3.976
 4132SOL     OW13294   6.781   3.427   2.176
 4132SOL    HW113295   6.702   3.482   2.147
 4132SOL    HW213296   6.803   3.361   2.104
 4133SOL     OW13297   5.557   6.128   3.534
 4133SOL    HW113298   5.655   6.145   3.517
 4133SOL    HW213299   5.534   6.034   3.507
 4134SOL     OW13300   1.777   2.769   0.830
 4134SOL    HW113301   1.708   2.747   0.761
 4134SOL    HW213302   1.809   2.685   0.873
 4135SOL     OW13303   6.035   0.970   1.005
 4135SOL    HW113304   5.951   1.021   0.990
 4135SOL    HW213305   6.029   0.919   1.090
 4136SOL     OW13306   0.761   4.542   0.156
 4136SOL    HW113307   0.795   4.598   0.081
 4136SOL    HW213308   0.729   4.601   0.230
 4137SOL     OW13309   0.252   2.347   5.236
 4137SOL    HW113310   0.191   2.420   5.267
 4137SOL    HW213311   0.335   2.348   5.292
 4138SOL     OW13312   5.873   6.567   6.147
 4138SOL    HW113313   5.912   6.659   6.150
 4138SOL    HW213314   5.909   6.517   6.068
 4139SOL     OW13315   1.569   3.841   2.219
 4139SOL    HW113316   1.510   3.921   2.202
 4139SOL    HW213317   1.592   3.798   2.131
 4140SOL     OW13318   2.491   6.648   0.724
 4140SOL    HW113319   2.574   6.596   0.706
 4140SOL    HW213320   2.510   6.746   0.721
 4141SOL     OW13321   5.113   0.003   6.267
 4141SOL    HW113322   5.077   0.015   6.175
 4141SOL    HW213323   5.213   0.015   6.266
 4142SOL     OW13324   0.183   6.685   1.915
 4142SOL    HW113325   0.280   6.666   1.929
 4142SOL    HW213326   0.157   6.766   1.969
 4143SOL     OW13327   6.577   3.382   6.428
 4143SOL    HW113328   6.477   3.385   6.423
 4143SOL    HW213329   6.606   3.291   6.457
 4144SOL     OW13330   4.912   0.921   1.923
 4144SOL    HW113331   4.910   0.985   1.846
 4144SOL    HW213332   5.004   0.882   1.931
 4145SOL     OW13333   4.440   0.998   1.406
 4145SOL    HW113334   4.385   1.043   1.336
 4145SOL    HW213335   4.386   0.926   1.449
 4146SOL     OW13336   3.422   1.652   2.270
 4146SOL    HW113337   3.426   1.592   2.191
 4146SOL    HW213338   3.515   1.670   2.303
 4147SOL     OW13339   4.985   4.274   6.922
 4147SOL    HW113340   5.080   4.260   6.950
 4147SOL    HW213341   4.966   4.372   6.917
 4148SOL     OW13342   3.600   0.808   6.365
 4148SOL    HW113343   3.571   0.904   6.359
 4148SOL    HW213344   3.519   0.750   6.368
 4149SOL     OW13345   1.662   2.410   6.615
 4149SOL    HW113346   1.668   2.429   6.517
 4149SOL    HW213347   1.727   2.467   6.665
 4150SOL     OW13348   0.098   1.224   1.134
 4150SOL    HW113349   0.103   1.167   1.052
 4150SOL    HW213350   0.030   1.296   1.121
 4151SOL     OW13351   2.776   5.351   4.666
 4151SOL    HW113352   2.870   5.385   4.674
 4151SOL    HW213353   2.724   5.377   4.747
 4152SOL     OW13354   2.874   3.890   1.441
 4152SOL    HW113355   2.879   3.807   1.385
 4152SOL    HW213356   2.797   3.946   1.411
 4153SOL     OW13357   6.069   6.410   0.628
 4153SOL    HW113358   6.019   6.400   0.714
 4153SOL    HW213359   6.086   6.507   0.611
 4154SOL     OW13360   0.576   6.437   3.914
 4154SOL    HW113361   0.525   6.523   3.916
 4154SOL    HW213362   0.597   6.413   3.819
 4155SOL     OW13363   5.530   1.289   2.164
 4155SOL    HW113364   5.541   1.388   2.154
 4155SOL    HW213365   5.607   1.252   2.216
 4156SOL     OW13366   0.724   5.405   5.880
 4156SOL    HW113367   0.752   5.500   5.894
 4156SOL    HW213368   0.805   5.346   5.878
 4157SOL     OW13369   4.550   6.246   0.525
 4157SOL    HW113370   4.588   6.288   0.607
 4157SOL    HW213371   4.569   6.147   0.526
 4158SOL     OW13372   6.238   1.167   6.757
 4158SOL    HW113373   6.206   1.109   6.831
 4158SOL    HW213374   6.334   1.191   6.773
 4159SOL     OW13375   3.042   0.622   4.822
 4159SOL    HW113376   2.970   0.615   4.890
 4159SOL    HW213377   3.062   0.719   4.803
 4160SOL     OW13378   1.376   0.118   6.251
 4160SOL    HW113379   1.428   0.194   6.212
 4160SOL    HW213380   1.302   0.153   6.308
 4161SOL     OW13381   3.304   3.364   5.008
 4161SOL    HW113382   3.288   3.290   5.074
 4161SOL    HW213383   3.285   3.452   5.052
 4162SOL     OW13384   4.251   6.368   1.064
 4162SOL    HW113385   4.258   6.307   1.142
 4162SOL    HW213386   4.342   6.379   1.022
 4163SOL     OW13387   3.443   5.936   1.310
 4163SOL    HW113388   3.526   5.935   1.254
 4163SOL    HW213389   3.453   5.872   1.386
 4164SOL     OW13390   5.796   1.358   0.132
 4164SOL    HW113391   5.837   1.290   0.072
 4164SOL    HW213392   5.869   1.413   0.174
 4165SOL     OW13393   3.119   1.911   4.555
 4165SOL    HW113394   3.181   1.853   4.503
 4165SOL    HW213395   3.132   1.894   4.653
 4166SOL     OW13396   5.566   1.806   2.411
 4166SOL    HW113397   5.587   1.902   2.427
 4166SOL    HW213398   5.641   1.749   2.445
 4167SOL     OW13399   3.637   6.660   4.637
 4167SOL    HW113400   3.539   6.680   4.625
 4167SOL    HW213401   3.679   6.729   4.695
 4168SOL     OW13402   5.594   3.823   6.713
 4168SOL    HW113403   5.550   3.752   6.768
 4168SOL    HW213404   5.532   3.852   6.640
 4169SOL     OW13405   5.287   4.202   6.959
 4169SOL    HW113406   5.297   4.176   6.863
 4169SOL    HW213407   5.349   4.278   6.980
 4170SOL     OW13408   0.977   3.050   5.172
 4170SOL    HW113409   0.999   3.002   5.087
 4170SOL    HW213410   0.991   2.990   5.250
 4171SOL     OW13411   6.965   0.794   6.376
 4171SOL    HW113412   6.988   0.866   6.442
 4171SOL    HW213413   6.987   0.825   6.284
 4172SOL     OW13414   3.348   2.983   0.342
 4172SOL    HW113415   3.275   3.036   0.298
 4172SOL    HW213416   3.400   3.042   0.403
 4173SOL     OW13417   5.584   1.350   6.046
 4173SOL    HW113418   5.598   1.333   5.949
 4173SOL    HW213419   5.669   1.383   6.087
 4174SOL     OW13420   2.596   6.885   3.753
 4174SOL    HW113421   2.596   6.828   3.835
 4174SOL    HW213422   2.647   6.969   3.771
 4175SOL     OW13423   1.225   3.985   6.434
 4175SOL    HW113424   1.126   4.000   6.445
 4175SOL    HW213425   1.241   3.895   6.394
 4176SOL     OW13426   4.245   6.753   5.041
 4176SOL    HW113427   4.184   6.680   5.072
 4176SOL    HW213428   4.332   6.746   5.089
 4177SOL     OW13429   4.798   6.540   4.193
 4177SOL    HW113430   4.795   6.487   4.277
 4177SOL    HW213431   4.829   6.633   4.212
 4178SOL     OW13432   3.333   6.553   1.473
 4178SOL    HW113433   3.366   6.460   1.461
 4178SOL    HW213434   3.360   6.587   1.564
 4179SOL     OW13435   4.085   1.653   0.255
 4179SOL    HW113436   4.094   1.669   0.353
 4179SOL    HW213437   4.070   1.555   0.239
 4180SOL     OW13438   4.178   4.150   0.104
 4180SOL    HW113439   4.217   4.195   0.024
 4180SOL    HW213440   4.141   4.061   0.077
 4181SOL     OW13441   5.504   6.275   5.635
 4181SOL    HW113442   5.571   6.232   5.696
 4181SOL    HW213443   5.491   6.370   5.662
 4182SOL     OW13444   6.438   5.077   5.341
 4182SOL    HW113445   6.509   5.036   5.398
 4182SOL    HW213446   6.352   5.080   5.392
 4183SOL     OW13447   5.237   2.879   0.169
 4183SOL    HW113448   5.245   2.821   0.087
 4183SOL    HW213449   5.195   2.825   0.242
 4184SOL     OW13450   3.468   5.741   3.379
 4184SOL    HW113451   3.547   5.766   3.435
 4184SOL    HW213452   3.404   5.818   3.375
 4185SOL     OW13453   4.587   4.448   3.034
 4185SOL    HW113454   4.590   4.544   3.062
 4185SOL    HW213455   4.610   4.390   3.112
 4186SOL     OW13456   1.900   5.476   0.761
 4186SOL    HW113457   1.865   5.383   0.750
 4186SOL    HW213458   1.894   5.526   0.675
 4187SOL     OW13459   1.475   4.070   6.529
 4187SOL    HW113460   1.480   4.018   6.615
 4187SOL    HW213461   1.402   4.032   6.472
 4188SOL     OW13462   5.194   0.922   6.326
 4188SOL    HW113463   5.280   0.872   6.325
 4188SOL    HW213464   5.145   0.904   6.241
 4189SOL     OW13465   4.163   5.652   3.689
 4189SOL    HW113466   4.157   5.750   3.669
 4189SOL    HW213467   4.244   5.614   3.644
 4190SOL     OW13468   6.336   5.955   1.109
 4190SOL    HW113469   6.285   6.004   1.038
 4190SOL    HW213470   6.413   6.011   1.139
 4191SOL     OW13471   4.908   2.844   5.725
 4191SOL    HW113472   4.886   2.936   5.758
 4191SOL    HW213473   4.885   2.777   5.796
 4192SOL     OW13474   2.134   3.653   6.174
 4192SOL    HW113475   2.097   3.714   6.244
 4192SOL    HW213476   2.199   3.703   6.117
 4193SOL     OW13477   5.692   6.637   1.379
 4193SOL    HW113478   5.740   6.552   1.398
 4193SOL    HW213479   5.666   6.680   1.465
 4194SOL     OW13480   5.372   0.508   6.620
 4194SOL    HW113481   5.305   0.439   6.592
 4194SOL    HW213482   5.412   0.551   6.540
 4195SOL     OW13483   2.262   6.024   0.687
 4195SOL    HW113484   2.311   5.954   0.635
 4195SOL    HW213485   2.164   6.016   0.669
 4196SOL     OW13486   6.628   3.273   3.478
 4196SOL    HW113487   6.706   3.330   3.504
 4196SOL    HW213488   6.637   3.245   3.383
 4197SOL     OW13489   4.214   0.446   0.021
 4197SOL    HW113490   4.171   0.533   0.000
 4197SOL    HW213491   4.228   0.438   0.120
 4198SOL     OW13492   6.353   2.538   1.647
 4198SOL    HW113493   6.437   2.515   1.597
 4198SOL    HW213494   6.298   2.601   1.593
 4199SOL     OW13495   1.747   3.793   0.072
 4199SOL    HW113496   1.688   3.873   0.062
 4199SOL    HW213497   1.698   3.722   0.122
 4200SOL     OW13498   5.832   1.445   2.819
 4200SOL    HW113499   5.809   1.483   2.908
 4200SOL    HW213500   5.903   1.501   2.775
 4201SOL     OW13501   4.757   0.003   5.174
 4201SOL    HW113502   4.758   6.947   5.112
 4201SOL    HW213503   4.663   0.026   5.198
 4202SOL     OW13504   4.632   4.192   1.579
 4202SOL    HW113505   4.579   4.180   1.663
 4202SOL    HW213506   4.608   4.279   1.537
 4203SOL     OW13507   6.599   3.758   4.494
 4203SOL    HW113508   6.693   3.787   4.515
 4203SOL    HW213509   6.545   3.838   4.468
 4204SOL     OW13510   2.543   4.031   5.779
 4204SOL    HW113511   2.566   4.058   5.873
 4204SOL    HW213512   2.474   4.094   5.742
 4205SOL     OW13513   5.825   5.560   5.499
 4205SOL    HW113514   5.738   5.608   5.493
 4205SOL    HW213515   5.859   5.564   5.593
 4206SOL     OW13516   2.686   2.389   5.045
 4206SOL    HW113517   2.725   2.440   5.122
 4206SOL    HW213518   2.641   2.452   4.983
 4207SOL     OW13519   2.112   2.605   1.156
 4207SOL    HW113520   2.075   2.638   1.244
 4207SOL    HW213521   2.212   2.617   1.156
 4208SOL     OW13522   1.753   2.502   2.907
 4208SOL    HW113523   1.840   2.453   2.906
 4208SOL    HW213524   1.767   2.595   2.940
 4209SOL     OW13525   6.793   5.373   2.576
 4209SOL    HW113526   6.877   5.339   2.533
 4209SOL    HW213527   6.816   5.426   2.657
 4210SOL     OW13528   3.245   5.443   5.346
 4210SOL    HW113529   3.329   5.390   5.354
 4210SOL    HW213530   3.250   5.503   5.267
 4211SOL     OW13531   4.829   2.694   5.931
 4211SOL    HW113532   4.773   2.733   6.004
 4211SOL    HW213533   4.857   2.601   5.957
 4212SOL     OW13534   0.870   2.551   3.040
 4212SOL    HW113535   0.843   2.641   3.006
 4212SOL    HW213536   0.789   2.494   3.052
 4213SOL     OW13537   3.162   0.735   3.921
 4213SOL    HW113538   3.131   0.738   4.016
 4213SOL    HW213539   3.226   0.659   3.909
 4214SOL     OW13540   6.174   6.496   4.167
 4214SOL    HW113541   6.082   6.459   4.175
 4214SOL    HW213542   6.241   6.423   4.186
 4215SOL     OW13543   5.419   0.282   5.195
 4215SOL    HW113544   5.450   0.287   5.290
 4215SOL    HW213545   5.438   0.369   5.150
 4216SOL     OW13546   1.970   5.865   2.512
 4216SOL    HW113547   2.017   5.843   2.597
 4216SOL    HW213548   1.938   5.960   2.515
 4217SOL     OW13549   0.322   0.129   3.132
 4217SOL    HW113550   0.315   0.060   3.204
 4217SOL    HW213551   0.307   0.219   3.172
 4218SOL     OW13552   2.559   0.760   1.839
 4218SOL    HW113553   2.591   0.700   1.766
 4218SOL    HW213554   2.512   0.839   1.799
 4219SOL     OW13555   3.245   5.865   2.762
 4219SOL    HW113556   3.338   5.840   2.786
 4219SOL    HW213557   3.182   5.792   2.788
 4220SOL     OW13558   5.660   1.789   1.660
 4220SOL    HW113559   5.691   1.698   1.688
 4220SOL    HW213560   5.569   1.782   1.620
 4221SOL     OW13561   0.789   0.259   1.343
 4221SOL    HW113562   0.754   0.341   1.389
 4221SOL    HW213563   0.792   0.183   1.409
 4222SOL     OW13564   4.912   3.383   4.166
 4222SOL    HW113565   4.883   3.426   4.251
 4222SOL    HW213566   4.954   3.294   4.186
 4223SOL     OW13567   3.631   3.942   2.858
 4223SOL    HW113568   3.629   3.924   2.957
 4223SOL    HW213569   3.723   3.966   2.830
 4224SOL     OW13570   4.848   4.044   4.684
 4224SOL    HW113571   4.840   4.096   4.599
 4224SOL    HW213572   4.787   4.084   4.753
 4225SOL     OW13573   0.874   1.523   5.968
 4225SOL    HW113574   0.915   1.438   5.936
 4225SOL    HW213575   0.928   1.560   6.044
 4226SOL     OW13576   5.168   5.122   3.942
 4226SOL    HW113577   5.112   5.147   4.020
 4226SOL    HW213578   5.246   5.184   3.936
 4227SOL     OW13579   5.621   5.731   0.840
 4227SOL    HW113580   5.693   5.792   0.806
 4227SOL    HW213581   5.640   5.706   0.935
 4228SOL     OW13582   1.818   4.272   3.493
 4228SOL    HW113583   1.912   4.294   3.519
 4228SOL    HW213584   1.757   4.287   3.571
 4229SOL     OW13585   6.282   6.439   5.738
 4229SOL    HW113586   6.328   6.440   5.827
 4229SOL    HW213587   6.311   6.519   5.685
 4230SOL     OW13588   0.578   1.444   2.286
 4230SOL    HW113589   0.605   1.531   2.244
 4230SOL    HW213590   0.620   1.368   2.236
 4231SOL     OW13591   0.426   0.644   5.796
 4231SOL    HW113592   0.444   0.627   5.700
 4231SOL    HW213593   0.458   0.736   5.821
 4232SOL     OW13594   1.706   4.517   2.352
 4232SOL    HW113595   1.681   4.564   2.437
 4232SOL    HW213596   1.627   4.515   2.291
 4233SOL     OW13597   4.525   5.415   2.418
 4233SOL    HW113598   4.479   5.380   2.336
 4233SOL    HW213599   4.457   5.427   2.491
 4234SOL     OW13600   3.295   5.217   6.430
 4234SOL    HW113601   3.282   5.267   6.345
 4234SOL    HW213602   3.221   5.151   6.442
 4235SOL     OW13603   6.962   6.198   6.978
 4235SOL    HW113604   6.881   6.194   0.015
 4235SOL    HW213605   6.935   6.182   6.883
 4236SOL     OW13606   0.012   5.066   3.273
 4236SOL    HW113607   0.103   5.086   3.307
 4236SOL    HW213608   0.019   5.029   3.180
 4237SOL     OW13609   6.200   4.799   4.064
 4237SOL    HW113610   6.193   4.893   4.030
 4237SOL    HW213611   6.199   4.799   4.164
 4238SOL     OW13612   1.913   5.639   2.958
 4238SOL    HW113613   1.894   5.552   3.004
 4238SOL    HW213614   1.900   5.628   2.859
 4239SOL     OW13615   4.106   0.926   3.195
 4239SOL    HW113616   4.059   1.014   3.192
 4239SOL    HW213617   4.043   0.854   3.166
 4240SOL     OW13618   4.845   6.863   1.730
 4240SOL    HW113619   4.758   6.882   1.685
 4240SOL    HW213620   4.836   6.780   1.786
 4241SOL     OW13621   0.712   4.446   6.732
 4241SOL    HW113622   0.753   4.537   6.741
 4241SOL    HW213623   0.614   4.452   6.748
 4242SOL     OW13624   3.941   2.109   2.625
 4242SOL    HW113625   4.036   2.098   2.653
 4242SOL    HW213626   3.932   2.088   2.527
 4243SOL     OW13627   3.197   2.136   2.786
 4243SOL    HW113628   3.202   2.200   2.709
 4243SOL    HW213629   3.289   2.111   2.815
 4244SOL     OW13630   2.875   3.460   5.151
 4244SOL    HW113631   2.945   3.513   5.103
 4244SOL    HW213632   2.838   3.515   5.226
 4245SOL     OW13633   6.840   1.431   5.592
 4245SOL    HW113634   6.914   1.378   5.551
 4245SOL    HW213635   6.851   1.527   5.570
 4246SOL     OW13636   0.948   5.023   6.229
 4246SOL    HW113637   0.954   4.933   6.273
 4246SOL    HW213638   0.959   5.013   6.130
 4247SOL     OW13639   0.142   4.679   4.891
 4247SOL    HW113640   0.128   4.580   4.898
 4247SOL    HW213641   0.233   4.697   4.855
 4248SOL     OW13642   2.247   3.589   6.757
 4248SOL    HW113643   2.160   3.541   6.756
 4248SOL    HW213644   2.231   3.687   6.770
 4249SOL     OW13645   5.271   3.221   6.163
 4249SOL    HW113646   5.177   3.189   6.174
 4249SOL    HW213647   5.270   3.320   6.148
 4250SOL     OW13648   6.670   4.082   3.705
 4250SOL    HW113649   6.726   4.027   3.643
 4250SOL    HW213650   6.728   4.142   3.759
 4251SOL     OW13651   5.901   4.881   6.162
 4251SOL    HW113652   5.830   4.936   6.207
 4251SOL    HW213653   5.927   4.805   6.222
 4252SOL     OW13654   6.215   4.794   5.248
 4252SOL    HW113655   6.219   4.844   5.335
 4252SOL    HW213656   6.169   4.706   5.263
 4253SOL     OW13657   3.193   0.302   3.192
 4253SOL    HW113658   3.114   0.273   3.246
 4253SOL    HW213659   3.199   0.402   3.192
 4254SOL     OW13660   3.780   3.155   3.004
 4254SOL    HW113661   3.700   3.170   2.946
 4254SOL    HW213662   3.777   3.063   3.043
 4255SOL     OW13663   0.602   2.260   4.488
 4255SOL    HW113664   0.698   2.238   4.504
 4255SOL    HW213665   0.581   2.348   4.531
 4256SOL     OW13666   1.093   0.853   1.967
 4256SOL    HW113667   1.188   0.865   1.938
 4256SOL    HW213668   1.038   0.822   1.889
 4257SOL     OW13669   4.450   2.108   5.039
 4257SOL    HW113670   4.499   2.054   5.108
 4257SOL    HW213671   4.355   2.075   5.034
 4258SOL     OW13672   5.419   5.820   2.070
 4258SOL    HW113673   5.450   5.839   2.163
 4258SOL    HW213674   5.496   5.825   2.006
 4259SOL     OW13675   2.558   3.221   1.662
 4259SOL    HW113676   2.611   3.291   1.709
 4259SOL    HW213677   2.615   3.139   1.650
 4260SOL     OW13678   3.688   6.165   5.030
 4260SOL    HW113679   3.674   6.158   4.932
 4260SOL    HW213680   3.786   6.171   5.049
 4261SOL     OW13681   1.227   1.269   2.959
 4261SOL    HW113682   1.131   1.296   2.954
 4261SOL    HW213683   1.273   1.297   2.874
 4262SOL     OW13684   0.753   6.714   5.185
 4262SOL    HW113685   0.839   6.668   5.163
 4262SOL    HW213686   0.690   6.704   5.107
 4263SOL     OW13687   4.409   5.205   6.694
 4263SOL    HW113688   4.508   5.221   6.705
 4263SOL    HW213689   4.370   5.181   6.783
 4264SOL     OW13690   1.462   0.426   1.258
 4264SOL    HW113691   1.373   0.382   1.277
 4264SOL    HW213692   1.481   0.422   1.160
 4265SOL     OW13693   1.835   1.423   0.747
 4265SOL    HW113694   1.908   1.487   0.725
 4265SOL    HW213695   1.748   1.457   0.709
 4266SOL     OW13696   3.348   4.732   0.375
 4266SOL    HW113697   3.275   4.698   0.434
 4266SOL    HW213698   3.433   4.683   0.395
 4267SOL     OW13699   1.751   3.553   5.173
 4267SOL    HW113700   1.801   3.601   5.245
 4267SOL    HW213701   1.750   3.608   5.090
 4268SOL     OW13702   0.736   1.352   1.146
 4268SOL    HW113703   0.716   1.257   1.123
 4268SOL    HW213704   0.659   1.409   1.118
 4269SOL     OW13705   3.045   3.591   0.596
 4269SOL    HW113706   2.996   3.642   0.525
 4269SOL    HW213707   2.986   3.517   0.629
 4270SOL     OW13708   3.962   2.933   6.793
 4270SOL    HW113709   3.863   2.920   6.796
 4270SOL    HW213710   3.985   3.023   6.830
 4271SOL     OW13711   1.825   0.406   1.671
 4271SOL    HW113712   1.780   0.486   1.629
 4271SOL    HW213713   1.844   0.426   1.767
 4272SOL     OW13714   1.084   4.421   3.637
 4272SOL    HW113715   1.058   4.506   3.681
 4272SOL    HW213716   1.124   4.359   3.705
 4273SOL     OW13717   6.245   6.826   3.418
 4273SOL    HW113718   6.156   6.785   3.396
 4273SOL    HW213719   6.240   6.925   3.400
 4274SOL     OW13720   1.958   0.331   3.493
 4274SOL    HW113721   1.922   0.382   3.415
 4274SOL    HW213722   1.976   0.237   3.466
 4275SOL     OW13723   1.054   0.490   5.652
 4275SOL    HW113724   1.069   0.456   5.745
 4275SOL    HW213725   1.137   0.477   5.598
 4276SOL     OW13726   1.831   3.517   3.572
 4276SOL    HW113727   1.786   3.428   3.572
 4276SOL    HW213728   1.856   3.542   3.478
 4277SOL     OW13729   0.416   5.617   5.822
 4277SOL    HW113730   0.465   5.622   5.909
 4277SOL    HW213731   0.481   5.600   5.747
 4278SOL     OW13732   1.086   6.018   6.759
 4278SOL    HW113733   1.147   6.065   6.823
 4278SOL    HW213734   1.128   6.014   6.669
 4279SOL     OW13735   3.707   6.045   2.725
 4279SOL    HW113736   3.712   5.967   2.663
 4279SOL    HW213737   3.705   6.012   2.819
 4280SOL     OW13738   4.860   2.624   4.044
 4280SOL    HW113739   4.922   2.603   4.120
 4280SOL    HW213740   4.890   2.710   4.001
 4281SOL     OW13741   1.739   3.919   5.031
 4281SOL    HW113742   1.772   3.982   5.102
 4281SOL    HW213743   1.644   3.894   5.050
 4282SOL     OW13744   1.039   1.448   6.957
 4282SOL    HW113745   1.003   1.354   6.950
 4282SOL    HW213746   1.032   1.479   0.030
 4283SOL     OW13747   3.020   1.095   4.108
 4283SOL    HW113748   2.929   1.076   4.144
 4283SOL    HW213749   3.071   1.009   4.099
 4284SOL     OW13750   0.164   2.734   2.980
 4284SOL    HW113751   0.076   2.718   2.935
 4284SOL    HW213752   0.203   2.646   3.008
 4285SOL     OW13753   0.897   6.144   4.262
 4285SOL    HW113754   0.990   6.115   4.240
 4285SOL    HW213755   0.893   6.175   4.357
 4286SOL     OW13756   4.577   5.518   6.734
 4286SOL    HW113757   4.606   5.602   6.688
 4286SOL    HW213758   4.482   5.528   6.765
 4287SOL     OW13759   4.012   5.247   5.930
 4287SOL    HW113760   4.019   5.342   5.960
 4287SOL    HW213761   4.103   5.204   5.933
 4288SOL     OW13762   1.164   6.115   3.948
 4288SOL    HW113763   1.219   6.039   3.914
 4288SOL    HW213764   1.145   6.178   3.872
 4289SOL     OW13765   0.632   4.162   6.912
 4289SOL    HW113766   0.585   4.075   6.926
 4289SOL    HW213767   0.617   4.192   6.818
 4290SOL     OW13768   1.610   2.064   2.817
 4290SOL    HW113769   1.694   2.040   2.866
 4290SOL    HW213770   1.588   2.160   2.833
 4291SOL     OW13771   0.055   4.028   1.236
 4291SOL    HW113772   0.029   3.960   1.167
 4291SOL    HW213773   0.122   4.091   1.197
 4292SOL     OW13774   5.700   5.501   4.781
 4292SOL    HW113775   5.706   5.447   4.866
 4292SOL    HW213776   5.772   5.570   4.781
 4293SOL     OW13777   0.820   1.752   0.473
 4293SOL    HW113778   0.817   1.661   0.515
 4293SOL    HW213779   0.736   1.802   0.496
 4294SOL     OW13780   4.745   2.368   6.039
 4294SOL    HW113781   4.840   2.365   6.010
 4294SOL    HW213782   4.712   2.275   6.058
 4295SOL     OW13783   3.365   5.439   5.596
 4295SOL    HW113784   3.426   5.517   5.611
 4295SOL    HW213785   3.309   5.456   5.515
 4296SOL     OW13786   2.282   1.592   2.330
 4296SOL    HW113787   2.333   1.535   2.266
 4296SOL    HW213788   2.311   1.571   2.424
 4297SOL     OW13789   5.487   0.245   0.579
 4297SOL    HW113790   5.498   0.338   0.613
 4297SOL    HW213791   5.458   0.186   0.654
 4298SOL     OW13792   1.612   4.423   1.625
 4298SOL    HW113793   1.683   4.356   1.647
 4298SOL    HW213794   1.635   4.511   1.667
 4299SOL     OW13795   1.303   5.827   5.176
 4299SOL    HW113796   1.256   5.870   5.099
 4299SOL    HW213797   1.306   5.890   5.253
 4300SOL     OW13798   5.627   0.265   5.661
 4300SOL    HW113799   5.584   0.234   5.577
 4300SOL    HW213800   5.695   0.198   5.691
 4301SOL     OW13801   3.031   1.060   0.967
 4301SOL    HW113802   3.041   0.966   1.001
 4301SOL    HW213803   2.966   1.109   1.025
 4302SOL     OW13804   0.727   0.458   6.716
 4302SOL    HW113805   0.676   0.371   6.717
 4302SOL    HW213806   0.663   0.533   6.733
 4303SOL     OW13807   0.556   4.018   1.682
 4303SOL    HW113808   0.608   3.941   1.644
 4303SOL    HW213809   0.590   4.103   1.643
 4304SOL     OW13810   2.877   3.808   5.729
 4304SOL    HW113811   2.842   3.889   5.682
 4304SOL    HW213812   2.941   3.836   5.800
 4305SOL     OW13813   0.204   1.555   5.144
 4305SOL    HW113814   0.291   1.511   5.123
 4305SOL    HW213815   0.155   1.574   5.059
 4306SOL     OW13816   6.158   5.391   5.490
 4306SOL    HW113817   6.151   5.354   5.583
 4306SOL    HW213818   6.075   5.367   5.439
 4307SOL     OW13819   6.096   3.883   0.960
 4307SOL    HW113820   6.141   3.926   0.881
 4307SOL    HW213821   6.070   3.790   0.937
 4308SOL     OW13822   3.294   0.335   5.302
 4308SOL    HW113823   3.242   0.280   5.367
 4308SOL    HW213824   3.387   0.348   5.336
 4309SOL     OW13825   1.089   0.055   1.242
 4309SOL    HW113826   1.104   0.132   1.304
 4309SOL    HW213827   1.002   0.067   1.194
 4310SOL     OW13828   1.587   6.836   2.648
 4310SOL    HW113829   1.549   6.907   2.707
 4310SOL    HW213830   1.686   6.844   2.645
 4311SOL     OW13831   1.117   4.873   4.811
 4311SOL    HW113832   1.055   4.795   4.816
 4311SOL    HW213833   1.096   4.928   4.731
 4312SOL     OW13834   1.364   5.278   2.504
 4312SOL    HW113835   1.317   5.191   2.487
 4312SOL    HW213836   1.300   5.353   2.491
 4313SOL     OW13837   5.130   1.435   1.359
 4313SOL    HW113838   5.113   1.466   1.452
 4313SOL    HW213839   5.043   1.426   1.310
 4314SOL     OW13840   6.264   3.414   1.077
 4314SOL    HW113841   6.235   3.323   1.107
 4314SOL    HW213842   6.184   3.475   1.074
 4315SOL     OW13843   2.006   1.057   2.419
 4315SOL    HW113844   1.950   1.113   2.358
 4315SOL    HW213845   1.947   1.009   2.484
 4316SOL     OW13846   0.299   1.226   2.643
 4316SOL    HW113847   0.232   1.299   2.633
 4316SOL    HW213848   0.288   1.159   2.570
 4317SOL     OW13849   4.659   0.685   3.111
 4317SOL    HW113850   4.734   0.628   3.144
 4317SOL    HW213851   4.614   0.729   3.189
 4318SOL     OW13852   6.958   2.136   5.070
 4318SOL    HW113853   6.893   2.096   5.007
 4318SOL    HW213854   6.945   2.098   5.161
 4319SOL     OW13855   4.086   2.735   6.452
 4319SOL    HW113856   4.017   2.807   6.467
 4319SOL    HW213857   4.141   2.759   6.372
 4320SOL     OW13858   6.930   6.395   3.690
 4320SOL    HW113859   6.870   6.342   3.749
 4320SOL    HW213860   6.925   6.492   3.715
 4321SOL     OW13861   0.259   0.738   4.637
 4321SOL    HW113862   0.177   0.681   4.625
 4321SOL    HW213863   0.301   0.719   4.725
 4322SOL     OW13864   6.272   1.057   0.839
 4322SOL    HW113865   6.334   0.981   0.860
 4322SOL    HW213866   6.192   1.053   0.898
 4323SOL     OW13867   0.067   2.200   3.789
 4323SOL    HW113868   0.015   2.286   3.793
 4323SOL    HW213869   0.011   2.129   3.746
 4324SOL     OW13870   5.619   2.467   5.772
 4324SOL    HW113871   5.613   2.492   5.675
 4324SOL    HW213872   5.691   2.521   5.815
 4325SOL     OW13873   1.875   2.613   6.555
 4325SOL    HW113874   1.834   2.679   6.492
 4325SOL    HW213875   1.879   2.654   6.646
 4326SOL     OW13876   6.578   2.340   5.124
 4326SOL    HW113877   6.562   2.422   5.069
 4326SOL    HW213878   6.676   2.332   5.144
 4327SOL     OW13879   5.093   0.834   3.249
 4327SOL    HW113880   5.120   0.789   3.333
 4327SOL    HW213881   5.027   0.907   3.269
 4328SOL     OW13882   6.606   5.073   0.572
 4328SOL    HW113883   6.685   5.050   0.629
 4328SOL    HW213884   6.526   5.085   0.631
 4329SOL     OW13885   4.715   1.849   6.254
 4329SOL    HW113886   4.669   1.784   6.194
 4329SOL    HW213887   4.706   1.942   6.216
 4330SOL     OW13888   0.895   1.042   6.039
 4330SOL    HW113889   0.886   1.062   5.941
 4330SOL    HW213890   0.947   0.957   6.051
 4331SOL     OW13891   5.110   2.959   6.371
 4331SOL    HW113892   5.207   2.940   6.386
 4331SOL    HW213893   5.068   2.881   6.323
 4332SOL     OW13894   6.392   4.615   2.211
 4332SOL    HW113895   6.349   4.641   2.125
 4332SOL    HW213896   6.321   4.591   2.278
 4333SOL     OW13897   6.308   1.311   4.968
 4333SOL    HW113898   6.285   1.404   4.939
 4333SOL    HW213899   6.301   1.250   4.890
 4334SOL     OW13900   4.097   0.361   2.077
 4334SOL    HW113901   4.093   0.317   1.987
 4334SOL    HW213902   4.065   0.456   2.070
 4335SOL     OW13903   3.786   4.445   6.069
 4335SOL    HW113904   3.712   4.443   6.136
 4335SOL    HW213905   3.824   4.353   6.059
 4336SOL     OW13906   1.331   6.967   6.432
 4336SOL    HW113907   1.353   7.019   6.349
 4336SOL    HW213908   1.286   0.006   6.498
 4337SOL     OW13909   0.807   5.545   6.290
 4337SOL    HW113910   0.859   5.569   6.208
 4337SOL    HW213911   0.821   5.448   6.311
 4338SOL     OW13912   5.484   0.018   3.049
 4338SOL    HW113913   5.530   0.025   2.960
 4338SOL    HW213914   5.439   6.950   3.056
 4339SOL     OW13915   6.555   0.863   0.259
 4339SOL    HW113916   6.487   0.873   0.186
 4339SOL    HW213917   6.562   0.949   0.310
 4340SOL     OW13918   4.659   3.529   1.575
 4340SOL    HW113919   4.594   3.538   1.651
 4340SOL    HW213920   4.691   3.620   1.547
 4341SOL     OW13921   0.963   3.390   0.128
 4341SOL    HW113922   0.886   3.431   0.177
 4341SOL    HW213923   0.942   3.386   0.030
 4342SOL     OW13924   0.545   2.366   2.409
 4342SOL    HW113925   0.546   2.418   2.323
 4342SOL    HW213926   0.576   2.424   2.484
 4343SOL     OW13927   3.381   2.929   1.288
 4343SOL    HW113928   3.318   2.928   1.211
 4343SOL    HW213929   3.373   3.017   1.337
 4344SOL     OW13930   2.307   3.127   1.734
 4344SOL    HW113931   2.396   3.159   1.701
 4344SOL    HW213932   2.292   3.033   1.705
 4345SOL     OW13933   3.039   0.905   6.106
 4345SOL    HW113934   3.049   0.807   6.125
 4345SOL    HW213935   3.108   0.932   6.039
 4346SOL     OW13936   0.357   4.017   0.937
 4346SOL    HW113937   0.337   4.096   0.995
 4346SOL    HW213938   0.408   4.048   0.856
 4347SOL     OW13939   5.128   5.933   2.334
 4347SOL    HW113940   5.064   5.943   2.410
 4347SOL    HW213941   5.113   6.007   2.268
 4348SOL     OW13942   1.377   3.803   0.136
 4348SOL    HW113943   1.304   3.808   0.067
 4348SOL    HW213944   1.404   3.896   0.162
 4349SOL     OW13945   6.483   1.182   1.336
 4349SOL    HW113946   6.422   1.136   1.272
 4349SOL    HW213947   6.556   1.118   1.364
 4350SOL     OW13948   3.599   0.374   3.073
 4350SOL    HW113949   3.662   0.305   3.110
 4350SOL    HW213950   3.512   0.331   3.050
 4351SOL     OW13951   3.489   0.017   0.261
 4351SOL    HW113952   3.525   0.109   0.278
 4351SOL    HW213953   3.421   7.016   0.331
 4352SOL     OW13954   6.019   2.091   1.705
 4352SOL    HW113955   5.970   2.163   1.656
 4352SOL    HW213956   6.108   2.076   1.663
 4353SOL     OW13957   3.272   5.603   1.020
 4353SOL    HW113958   3.344   5.672   1.020
 4353SOL    HW213959   3.285   5.540   0.943
 4354SOL     OW13960   2.921   0.699   1.624
 4354SOL    HW113961   2.948   0.609   1.589
 4354SOL    HW213962   2.829   0.694   1.662
 4355SOL     OW13963   4.778   6.512   6.989
 4355SOL    HW113964   4.832   6.592   7.014
 4355SOL    HW213965   4.689   6.541   6.953
 4356SOL     OW13966   3.609   3.788   1.178
 4356SOL    HW113967   3.629   3.698   1.218
 4356SOL    HW213968   3.594   3.854   1.252
 4357SOL     OW13969   5.676   0.587   0.707
 4357SOL    HW113970   5.638   0.610   0.618
 4357SOL    HW213971   5.743   0.513   0.697
 4358SOL     OW13972   6.497   0.760   1.257
 4358SOL    HW113973   6.406   0.740   1.221
 4358SOL    HW213974   6.557   0.787   1.182
 4359SOL     OW13975   0.360   4.047   4.401
 4359SOL    HW113976   0.369   4.049   4.301
 4359SOL    HW213977   0.401   3.963   4.437
 4360SOL     OW13978   2.392   3.621   0.795
 4360SOL    HW113979   2.395   3.640   0.697
 4360SOL    HW213980   2.366   3.526   0.810
 4361SOL     OW13981   5.298   1.987   2.587
 4361SOL    HW113982   5.391   1.988   2.624
 4361SOL    HW213983   5.280   2.073   2.540
 4362SOL     OW13984   4.639   4.368   2.345
 4362SOL    HW113985   4.604   4.340   2.434
 4362SOL    HW213986   4.736   4.345   2.339
 4363SOL     OW13987   4.996   0.672   6.454
 4363SOL    HW113988   4.934   0.746   6.430
 4363SOL    HW213989   5.017   0.619   6.371
 4364SOL     OW13990   4.292   3.619   5.138
 4364SOL    HW113991   4.331   3.673   5.063
 4364SOL    HW213992   4.358   3.614   5.213
 4365SOL     OW13993   4.771   2.379   0.026
 4365SOL    HW113994   4.751   2.346   0.118
 4365SOL    HW213995   4.721   2.325   6.981
 4366SOL     OW13996   4.607   5.318   0.797
 4366SOL    HW113997   4.619   5.218   0.799
 4366SOL    HW213998   4.680   5.361   0.850
 4367SOL     OW13999   6.285   6.483   0.859
 4367SOL    HW114000   6.313   6.497   0.954
 4367SOL    HW214001   6.186   6.487   0.852
 4368SOL     OW14002   4.296   5.861   2.241
 4368SOL    HW114003   4.218   5.885   2.299
 4368SOL    HW214004   4.290   5.765   2.214
 4369SOL     OW14005   3.044   5.462   1.881
 4369SOL    HW114006   3.015   5.514   1.800
 4369SOL    HW214007   3.007   5.506   1.963
 4370SOL     OW14008   5.129   4.224   1.609
 4370SOL    HW114009   5.077   4.151   1.652
 4370SOL    HW214010   5.218   4.190   1.579
 4371SOL     OW14011   1.253   1.417   2.257
 4371SOL    HW114012   1.258   1.338   2.317
 4371SOL    HW214013   1.216   1.495   2.308
 4372SOL     OW14014   5.319   6.868   3.743
 4372SOL    HW114015   5.308   6.966   3.760
 4372SOL    HW214016   5.241   6.818   3.781
 4373SOL     OW14017   0.419   1.782   5.403
 4373SOL    HW114018   0.512   1.801   5.434
 4373SOL    HW214019   0.382   1.705   5.454
 4374SOL     OW14020   3.481   1.143   0.548
 4374SOL    HW114021   3.418   1.215   0.519
 4374SOL    HW214022   3.572   1.161   0.510
 4375SOL     OW14023   3.531   5.414   4.525
 4375SOL    HW114024   3.483   5.495   4.491
 4375SOL    HW214025   3.464   5.351   4.564
 4376SOL     OW14026   0.058   2.697   3.602
 4376SOL    HW114027   7.001   2.686   3.541
 4376SOL    HW214028   0.126   2.756   3.558
 4377SOL     OW14029   7.020   4.417   6.164
 4377SOL    HW114030   0.025   4.321   6.179
 4377SOL    HW214031   6.944   4.420   6.100
 4378SOL     OW14032   3.070   2.180   4.185
 4378SOL    HW114033   2.997   2.228   4.136
 4378SOL    HW214034   3.070   2.208   4.281
 4379SOL     OW14035   3.528   1.749   6.281
 4379SOL    HW114036   3.555   1.793   6.195
 4379SOL    HW214037   3.450   1.798   6.320
 4380SOL     OW14038   0.189   2.294   2.890
 4380SOL    HW114039   0.192   2.208   2.942
 4380SOL    HW214040   0.118   2.288   2.820
 4381SOL     OW14041   1.320   4.799   7.003
 4381SOL    HW114042   1.356   4.890   0.001
 4381SOL    HW214043   1.239   4.806   6.945
 4382SOL     OW14044   1.358   4.768   4.685
 4382SOL    HW114045   1.394   4.810   4.602
 4382SOL    HW214046   1.268   4.805   4.706
 4383SOL     OW14047   0.649   4.681   0.376
 4383SOL    HW114048   0.594   4.608   0.417
 4383SOL    HW214049   0.596   4.765   0.373
 4384SOL     OW14050   4.884   6.554   3.878
 4384SOL    HW114051   4.946   6.476   3.867
 4384SOL    HW214052   4.837   6.547   3.966
 4385SOL     OW14053   4.370   0.194   5.525
 4385SOL    HW114054   4.271   0.179   5.522
 4385SOL    HW214055   4.410   0.136   5.596
 4386SOL     OW14056   2.190   3.257   4.304
 4386SOL    HW114057   2.108   3.289   4.350
 4386SOL    HW214058   2.249   3.335   4.283
 4387SOL     OW14059   5.028   1.871   0.970
 4387SOL    HW114060   5.116   1.864   1.017
 4387SOL    HW214061   5.042   1.863   0.871
 4388SOL     OW14062   6.011   3.329   0.802
 4388SOL    HW114063   5.980   3.286   0.887
 4388SOL    HW214064   6.029   3.258   0.733
 4389SOL     OW14065   2.442   1.416   6.707
 4389SOL    HW114066   2.486   1.348   6.649
 4389SOL    HW214067   2.510   1.458   6.767
 4390SOL     OW14068   6.982   1.353   0.902
 4390SOL    HW114069   0.011   1.316   0.824
 4390SOL    HW214070   6.998   1.452   0.907
 4391SOL     OW14071   0.167   6.380   1.148
 4391SOL    HW114072   0.073   6.397   1.176
 4391SOL    HW214073   0.202   6.462   1.102
 4392SOL     OW14074   1.535   2.766   6.066
 4392SOL    HW114075   1.529   2.827   6.145
 4392SOL    HW214076   1.601   2.693   6.084
 4393SOL     OW14077   6.512   0.451   1.857
 4393SOL    HW114078   6.455   0.494   1.926
 4393SOL    HW214079   6.579   0.390   1.901
 4394SOL     OW14080   6.869   1.111   2.751
 4394SOL    HW114081   6.882   1.157   2.839
 4394SOL    HW214082   6.901   1.169   2.677
 4395SOL     OW14083   1.160   3.476   1.394
 4395SOL    HW114084   1.078   3.431   1.429
 4395SOL    HW214085   1.143   3.574   1.385
 4396SOL     OW14086   2.526   1.827   2.547
 4396SOL    HW114087   2.566   1.820   2.456
 4396SOL    HW214088   2.457   1.755   2.559
 4397SOL     OW14089   3.543   0.393   4.755
 4397SOL    HW114090   3.447   0.365   4.763
 4397SOL    HW214091   3.572   0.436   4.841
 4398SOL     OW14092   1.864   2.856   5.931
 4398SOL    HW114093   1.899   2.929   5.990
 4398SOL    HW214094   1.897   2.870   5.838
 4399SOL     OW14095   2.675   5.821   1.652
 4399SOL    HW114096   2.748   5.856   1.593
 4399SOL    HW214097   2.679   5.721   1.652
 4400SOL     OW14098   1.261   6.042   5.339
 4400SOL    HW114099   1.332   6.112   5.330
 4400SOL    HW214100   1.174   6.079   5.308
 4401SOL     OW14101   3.058   0.394   6.405
 4401SOL    HW114102   3.152   0.364   6.389
 4401SOL    HW214103   3.058   0.485   6.445
 4402SOL     OW14104   1.427   0.637   2.537
 4402SOL    HW114105   1.396   0.550   2.498
 4402SOL    HW214106   1.389   0.713   2.483
 4403SOL     OW14107   6.433   6.012   3.196
 4403SOL    HW114108   6.379   5.961   3.129
 4403SOL    HW214109   6.526   6.025   3.161
 4404SOL     OW14110   0.615   6.551   5.354
 4404SOL    HW114111   0.662   6.601   5.281
 4404SOL    HW214112   0.682   6.499   5.406
 4405SOL     OW14113   1.289   4.931   2.834
 4405SOL    HW114114   1.217   4.958   2.770
 4405SOL    HW214115   1.258   4.947   2.927
 4406SOL     OW14116   6.247   4.478   2.590
 4406SOL    HW114117   6.225   4.551   2.654
 4406SOL    HW214118   6.183   4.402   2.603
 4407SOL     OW14119   5.227   6.990   1.352
 4407SOL    HW114120   5.213   6.919   1.283
 4407SOL    HW214121   5.155   6.985   1.420
 4408SOL     OW14122   4.913   0.674   1.131
 4408SOL    HW114123   4.988   0.630   1.182
 4408SOL    HW214124   4.826   0.635   1.162
 4409SOL     OW14125   3.793   0.862   3.721
 4409SOL    HW114126   3.699   0.838   3.699
 4409SOL    HW214127   3.800   0.961   3.738
 4410SOL     OW14128   1.509   0.267   0.923
 4410SOL    HW114129   1.442   0.193   0.917
 4410SOL    HW214130   1.462   0.355   0.912
 4411SOL     OW14131   4.441   4.684   4.511
 4411SOL    HW114132   4.403   4.658   4.422
 4411SOL    HW214133   4.367   4.684   4.579
 4412SOL     OW14134   4.213   6.253   1.343
 4412SOL    HW114135   4.225   6.252   1.442
 4412SOL    HW214136   4.174   6.165   1.313
 4413SOL     OW14137   5.386   6.572   4.200
 4413SOL    HW114138   5.305   6.548   4.253
 4413SOL    HW214139   5.461   6.594   4.261
 4414SOL     OW14140   5.852   4.234   1.287
 4414SOL    HW114141   5.884   4.192   1.202
 4414SOL    HW214142   5.830   4.162   1.353
 4415SOL     OW14143   1.457   4.356   1.427
 4415SOL    HW114144   1.480   4.394   1.337
 4415SOL    HW214145   1.534   4.367   1.489
 4416SOL     OW14146   4.726   2.850   4.293
 4416SOL    HW114147   4.788   2.890   4.226
 4416SOL    HW214148   4.701   2.919   4.361
 4417SOL     OW14149   0.335   4.127   2.229
 4417SOL    HW114150   0.334   4.073   2.145
 4417SOL    HW214151   0.423   4.117   2.275
 4418SOL     OW14152   6.536   1.811   5.393
 4418SOL    HW114153   6.580   1.722   5.378
 4418SOL    HW214154   6.478   1.805   5.475
 4419SOL     OW14155   6.123   6.341   6.599
 4419SOL    HW114156   6.206   6.291   6.624
 4419SOL    HW214157   6.088   6.389   6.680
 4420SOL     OW14158   3.488   0.701   0.991
 4420SOL    HW114159   3.465   0.796   0.973
 4420SOL    HW214160   3.441   0.642   0.925
 4421SOL     OW14161   2.837   2.749   0.312
 4421SOL    HW114162   2.757   2.693   0.333
 4421SOL    HW214163   2.920   2.702   0.343
 4422SOL     OW14164   0.781   3.107   6.698
 4422SOL    HW114165   0.850   3.156   6.646
 4422SOL    HW214166   0.799   3.116   6.796
 4423SOL     OW14167   5.509   4.532   4.524
 4423SOL    HW114168   5.439   4.462   4.539
 4423SOL    HW214169   5.491   4.578   4.437
 4424SOL     OW14170   4.113   5.645   2.584
 4424SOL    HW114171   4.142   5.736   2.613
 4424SOL    HW214172   4.193   5.590   2.561
 4425SOL     OW14173   0.507   6.172   1.009
 4425SOL    HW114174   0.547   6.091   1.051
 4425SOL    HW214175   0.412   6.152   0.983
 4426SOL     OW14176   0.796   0.810   4.459
 4426SOL    HW114177   0.709   0.860   4.465
 4426SOL    HW214178   0.871   0.875   4.453
 4427SOL     OW14179   3.264   6.170   1.337
 4427SOL    HW114180   3.309   6.082   1.331
 4427SOL    HW214181   3.173   6.158   1.378
 4428SOL     OW14182   6.417   6.584   3.370
 4428SOL    HW114183   6.441   6.502   3.422
 4428SOL    HW214184   6.392   6.658   3.433
 4429SOL     OW14185   2.415   5.822   2.834
 4429SOL    HW114186   2.359   5.903   2.856
 4429SOL    HW214187   2.404   5.799   2.737
 4430SOL     OW14188   5.916   4.543   4.441
 4430SOL    HW114189   5.929   4.458   4.492
 4430SOL    HW214190   5.825   4.544   4.400
 4431SOL     OW14191   4.350   6.833   4.672
 4431SOL    HW114192   4.291   6.820   4.592
 4431SOL    HW214193   4.304   6.796   4.753
 4432SOL     OW14194   1.855   3.348   6.181
 4432SOL    HW114195   1.848   3.406   6.262
 4432SOL    HW214196   1.918   3.390   6.116
 4433SOL     OW14197   0.441   0.393   4.662
 4433SOL    HW114198   0.395   0.403   4.574
 4433SOL    HW214199   0.530   0.438   4.658
 4434SOL     OW14200   6.316   1.109   2.575
 4434SOL    HW114201   6.328   1.158   2.662
 4434SOL    HW214202   6.401   1.110   2.524
 4435SOL     OW14203   1.921   4.606   1.561
 4435SOL    HW114204   1.844   4.590   1.623
 4435SOL    HW214205   1.944   4.521   1.514
 4436SOL     OW14206   4.989   2.198   1.545
 4436SOL    HW114207   5.033   2.279   1.506
 4436SOL    HW214208   4.906   2.225   1.593
 4437SOL     OW14209   6.544   5.372   6.406
 4437SOL    HW114210   6.637   5.397   6.379
 4437SOL    HW214211   6.495   5.336   6.327
 4438SOL     OW14212   3.856   1.468   4.994
 4438SOL    HW114213   3.931   1.497   4.934
 4438SOL    HW214214   3.782   1.535   4.991
 4439SOL     OW14215   2.765   4.799   1.802
 4439SOL    HW114216   2.772   4.730   1.874
 4439SOL    HW214217   2.829   4.777   1.729
 4440SOL     OW14218   1.693   5.341   5.283
 4440SOL    HW114219   1.641   5.358   5.200
 4440SOL    HW214220   1.692   5.243   5.303
 4441SOL     OW14221   6.449   1.273   0.708
 4441SOL    HW114222   6.386   1.316   0.643
 4441SOL    HW214223   6.401   1.203   0.760
 4442SOL     OW14224   1.695   4.655   1.061
 4442SOL    HW114225   1.616   4.658   1.123
 4442SOL    HW214226   1.672   4.600   0.981
 4443SOL     OW14227   1.393   6.099   4.916
 4443SOL    HW114228   1.441   6.080   5.001
 4443SOL    HW214229   1.323   6.030   4.900
 4444SOL     OW14230   4.662   5.989   6.883
 4444SOL    HW114231   4.582   5.997   6.824
 4444SOL    HW214232   4.699   6.080   6.901
 4445SOL     OW14233   2.268   3.381   0.524
 4445SOL    HW114234   2.340   3.323   0.563
 4445SOL    HW214235   2.180   3.360   0.567
 4446SOL     OW14236   5.373   2.435   1.789
 4446SOL    HW114237   5.401   2.339   1.781
 4446SOL    HW214238   5.326   2.448   1.876
 4447SOL     OW14239   5.310   5.804   5.407
 4447SOL    HW114240   5.386   5.779   5.347
 4447SOL    HW214241   5.271   5.722   5.448
 4448SOL     OW14242   2.984   6.193   2.710
 4448SOL    HW114243   2.940   6.104   2.728
 4448SOL    HW214244   3.082   6.185   2.725
 4449SOL     OW14245   3.992   1.934   5.294
 4449SOL    HW114246   3.961   1.882   5.214
 4449SOL    HW214247   3.917   1.992   5.327
 4450SOL     OW14248   1.987   6.029   0.672
 4450SOL    HW114249   1.982   6.104   0.738
 4450SOL    HW214250   1.965   5.943   0.718
 4451SOL     OW14251   5.091   5.814   3.657
 4451SOL    HW114252   5.089   5.883   3.585
 4451SOL    HW214253   5.070   5.725   3.618
 4452SOL     OW14254   5.063   4.621   3.046
 4452SOL    HW114255   5.095   4.551   2.981
 4452SOL    HW214256   4.996   4.581   3.108
 4453SOL     OW14257   0.251   5.876   1.412
 4453SOL    HW114258   0.313   5.948   1.382
 4453SOL    HW214259   0.186   5.855   1.339
 4454SOL     OW14260   0.030   0.993   0.251
 4454SOL    HW114261   7.005   1.004   0.339
 4454SOL    HW214262   6.984   0.996   0.177
 4455SOL     OW14263   0.891   0.400   4.000
 4455SOL    HW114264   0.872   0.337   4.075
 4455SOL    HW214265   0.805   0.425   3.955
 4456SOL     OW14266   1.616   5.599   3.880
 4456SOL    HW114267   1.518   5.588   3.864
 4456SOL    HW214268   1.634   5.688   3.922
 4457SOL     OW14269   1.366   2.037   4.573
 4457SOL    HW114270   1.318   2.024   4.486
 4457SOL    HW214271   1.320   2.109   4.625
 4458SOL     OW14272   2.336   2.222   5.977
 4458SOL    HW114273   2.322   2.316   5.947
 4458SOL    HW214274   2.377   2.169   5.903
 4459SOL     OW14275   0.834   3.878   3.094
 4459SOL    HW114276   0.792   3.809   3.153
 4459SOL    HW214277   0.898   3.932   3.148
 4460SOL     OW14278   0.128   3.114   5.032
 4460SOL    HW114279   0.218   3.100   4.992
 4460SOL    HW214280   0.137   3.128   5.131
 4461SOL     OW14281   2.127   0.423   0.719
 4461SOL    HW114282   2.198   0.397   0.784
 4461SOL    HW214283   2.067   0.345   0.701
 4462SOL     OW14284   0.514   4.589   2.381
 4462SOL    HW114285   0.472   4.543   2.302
 4462SOL    HW214286   0.607   4.554   2.394
 4463SOL     OW14287   5.800   1.949   0.016
 4463SOL    HW114288   5.710   1.974   0.051
 4463SOL    HW214289   5.842   2.028   6.994
 4464SOL     OW14290   0.439   3.763   1.009
 4464SOL    HW114291   0.378   3.696   1.050
 4464SOL    HW214292   0.391   3.851   0.999
 4465SOL     OW14293   4.345   4.746   1.370
 4465SOL    HW114294   4.339   4.799   1.455
 4465SOL    HW214295   4.439   4.715   1.356
 4466SOL     OW14296   1.080   2.865   2.815
 4466SOL    HW114297   0.994   2.828   2.849
 4466SOL    HW214298   1.068   2.960   2.787
 4467SOL     OW14299   5.273   4.928   1.504
 4467SOL    HW114300   5.180   4.941   1.540
 4467SOL    HW214301   5.339   4.935   1.579
 4468SOL     OW14302   1.984   3.494   0.127
 4468SOL    HW114303   1.988   3.570   0.193
 4468SOL    HW214304   1.905   3.505   0.068
 4469SOL     OW14305   1.748   5.992   2.058
 4469SOL    HW114306   1.710   5.933   1.986
 4469SOL    HW214307   1.848   5.997   2.049
 4470SOL     OW14308   0.921   6.918   3.421
 4470SOL    HW114309   0.985   6.853   3.380
 4470SOL    HW214310   0.971   6.987   3.473
 4471SOL     OW14311   1.303   0.673   6.821
 4471SOL    HW114312   1.250   0.715   6.748
 4471SOL    HW214313   1.370   0.609   6.782
 4472SOL     OW14314   1.652   2.944   0.538
 4472SOL    HW114315   1.613   3.028   0.500
 4472SOL    HW214316   1.751   2.957   0.550
 4473SOL     OW14317   0.514   2.903   4.884
 4473SOL    HW114318   0.522   2.945   4.975
 4473SOL    HW214319   0.506   2.975   4.815
 4474SOL     OW14320   2.103   6.607   1.109
 4474SOL    HW114321   2.036   6.674   1.077
 4474SOL    HW214322   2.188   6.653   1.134
 4475SOL     OW14323   0.686   3.379   0.635
 4475SOL    HW114324   0.668   3.473   0.605
 4475SOL    HW214325   0.601   3.339   0.670
 4476SOL     OW14326   5.025   0.686   3.806
 4476SOL    HW114327   4.988   0.658   3.718
 4476SOL    HW214328   5.110   0.637   3.824
 4477SOL     OW14329   6.787   1.531   4.678
 4477SOL    HW114330   6.803   1.498   4.585
 4477SOL    HW214331   6.804   1.457   4.743
 4478SOL     OW14332   1.041   0.201   2.613
 4478SOL    HW114333   1.076   0.208   2.519
 4478SOL    HW214334   1.117   0.208   2.677
 4479SOL     OW14335   2.696   3.220   0.083
 4479SOL    HW114336   2.705   3.164   0.165
 4479SOL    HW214337   2.700   3.317   0.109
 4480SOL     OW14338   6.497   0.524   3.259
 4480SOL    HW114339   6.562   0.562   3.193
 4480SOL    HW214340   6.541   0.515   3.348
 4481SOL     OW14341   2.346   3.808   5.978
 4481SOL    HW114342   2.363   3.804   5.879
 4481SOL    HW214343   2.324   3.902   6.004
 4482SOL     OW14344   2.820   6.943   1.197
 4482SOL    HW114345   2.894   6.915   1.258
 4482SOL    HW214346   2.752   6.870   1.192
 4483SOL     OW14347   0.821   3.174   0.534
 4483SOL    HW114348   0.781   3.249   0.585
 4483SOL    HW214349   0.917   3.162   0.561
 4484SOL     OW14350   4.002   6.863   1.233
 4484SOL    HW114351   4.060   6.909   1.300
 4484SOL    HW214352   4.041   6.773   1.211
 4485SOL     OW14353   0.407   2.883   5.218
 4485SOL    HW114354   0.506   2.889   5.225
 4485SOL    HW214355   0.366   2.905   5.307
 4486SOL     OW14356   5.183   4.713   3.560
 4486SOL    HW114357   5.206   4.734   3.465
 4486SOL    HW214358   5.085   4.695   3.566
 4487SOL     OW14359   0.359   2.899   6.273
 4487SOL    HW114360   0.267   2.864   6.254
 4487SOL    HW214361   0.393   2.947   6.192
 4488SOL     OW14362   5.602   4.745   3.450
 4488SOL    HW114363   5.646   4.799   3.521
 4488SOL    HW214364   5.649   4.658   3.439
 4489SOL     OW14365   3.531   6.195   6.141
 4489SOL    HW114366   3.456   6.135   6.112
 4489SOL    HW214367   3.516   6.223   6.236
 4490SOL     OW14368   5.383   1.998   2.194
 4490SOL    HW114369   5.398   1.919   2.253
 4490SOL    HW214370   5.440   1.990   2.112
 4491SOL     OW14371   0.323   3.588   2.910
 4491SOL    HW114372   0.252   3.630   2.966
 4491SOL    HW214373   0.397   3.555   2.969
 4492SOL     OW14374   6.573   1.352   2.030
 4492SOL    HW114375   6.621   1.280   1.981
 4492SOL    HW214376   6.556   1.323   2.124
 4493SOL     OW14377   5.355   1.499   6.230
 4493SOL    HW114378   5.290   1.424   6.215
 4493SOL    HW214379   5.397   1.523   6.142
 4494SOL     OW14380   1.551   1.535   2.486
 4494SOL    HW114381   1.608   1.592   2.546
 4494SOL    HW214382   1.456   1.562   2.494
 4495SOL     OW14383   3.833   6.320   1.667
 4495SOL    HW114384   3.874   6.369   1.590
 4495SOL    HW214385   3.892   6.245   1.695
 4496SOL     OW14386   2.023   4.896   5.118
 4496SOL    HW114387   1.989   4.810   5.156
 4496SOL    HW214388   1.949   4.940   5.067
 4497SOL     OW14389   5.217   6.400   5.328
 4497SOL    HW114390   5.311   6.374   5.305
 4497SOL    HW214391   5.197   6.370   5.421
 4498SOL     OW14392   1.574   4.852   4.086
 4498SOL    HW114393   1.599   4.870   4.181
 4498SOL    HW214394   1.618   4.767   4.056
 4499SOL     OW14395   5.170   1.643   2.002
 4499SOL    HW114396   5.092   1.608   2.055
 4499SOL    HW214397   5.163   1.742   1.994
 4500SOL     OW14398   3.080   6.644   0.188
 4500SOL    HW114399   3.003   6.686   0.235
 4500SOL    HW214400   3.150   6.712   0.171
 4501SOL     OW14401   5.441   0.721   3.215
 4501SOL    HW114402   5.413   0.670   3.133
 4501SOL    HW214403   5.477   0.810   3.188
 4502SOL     OW14404   1.002   4.322   6.933
 4502SOL    HW114405   0.903   4.312   6.939
 4502SOL    HW214406   1.036   4.267   6.857
 4503SOL     OW14407   3.554   1.539   2.979
 4503SOL    HW114408   3.526   1.503   2.890
 4503SOL    HW214409   3.480   1.595   3.017
 4504SOL     OW14410   1.012   2.923   3.820
 4504SOL    HW114411   1.058   3.011   3.808
 4504SOL    HW214412   0.935   2.934   3.884
 4505SOL     OW14413   6.654   3.676   3.515
 4505SOL    HW114414   6.631   3.647   3.608
 4505SOL    HW214415   6.753   3.678   3.504
 4506SOL     OW14416   4.278   3.907   6.722
 4506SOL    HW114417   4.322   3.861   6.798
 4506SOL    HW214418   4.278   3.848   6.642
 4507SOL     OW14419   6.070   2.244   3.098
 4507SOL    HW114420   6.059   2.343   3.097
 4507SOL    HW214421   6.003   2.202   3.036
 4508SOL     OW14422   6.172   4.509   0.326
 4508SOL    HW114423   6.134   4.513   0.234
 4508SOL    HW214424   6.229   4.426   0.335
 4509SOL     OW14425   4.648   1.456   2.909
 4509SOL    HW114426   4.645   1.405   2.996
 4509SOL    HW214427   4.668   1.393   2.834
 4510SOL     OW14428   4.925   1.492   3.571
 4510SOL    HW114429   4.965   1.456   3.655
 4510SOL    HW214430   4.932   1.423   3.499
 4511SOL     OW14431   1.073   4.370   6.558
 4511SOL    HW114432   1.132   4.300   6.597
 4511SOL    HW214433   1.112   4.460   6.575
 4512SOL     OW14434   2.800   4.042   6.050
 4512SOL    HW114435   2.880   4.071   5.998
 4512SOL    HW214436   2.826   3.973   6.117
 4513SOL     OW14437   0.466   1.691   1.231
 4513SOL    HW114438   0.444   1.593   1.233
 4513SOL    HW214439   0.444   1.728   1.140
 4514SOL     OW14440   4.106   5.123   6.656
 4514SOL    HW114441   4.058   5.078   6.731
 4514SOL    HW214442   4.189   5.166   6.691
 4515SOL     OW14443   4.425   6.951   5.605
 4515SOL    HW114444   4.367   6.921   5.680
 4515SOL    HW214445   4.421   6.884   5.530
 4516SOL     OW14446   3.188   1.613   5.118
 4516SOL    HW114447   3.105   1.636   5.067
 4516SOL    HW214448   3.248   1.693   5.123
 4517SOL     OW14449   3.620   0.129   4.265
 4517SOL    HW114450   3.714   0.123   4.297
 4517SOL    HW214451   3.566   0.055   4.306
 4518SOL     OW14452   6.498   6.385   0.724
 4518SOL    HW114453   6.498   6.409   0.627
 4518SOL    HW214454   6.416   6.424   0.768
 4519SOL     OW14455   5.294   6.745   6.334
 4519SOL    HW114456   5.331   6.783   6.249
 4519SOL    HW214457   5.291   6.817   6.404
 4520SOL     OW14458   4.471   5.477   4.752
 4520SOL    HW114459   4.397   5.464   4.818
 4520SOL    HW214460   4.508   5.388   4.726
 4521SOL     OW14461   4.590   2.402   4.173
 4521SOL    HW114462   4.564   2.455   4.092
 4521SOL    HW214463   4.647   2.458   4.233
 4522SOL     OW14464   5.401   4.226   3.576
 4522SOL    HW114465   5.443   4.267   3.657
 4522SOL    HW214466   5.414   4.287   3.498
 4523SOL     OW14467   0.666   2.870   6.944
 4523SOL    HW114468   0.573   2.835   6.941
 4523SOL    HW214469   0.718   2.835   6.866
 4524SOL     OW14470   2.026   3.502   1.828
 4524SOL    HW114471   1.931   3.508   1.858
 4524SOL    HW214472   2.084   3.474   1.905
 4525SOL     OW14473   3.362   1.774   5.895
 4525SOL    HW114474   3.386   1.705   5.826
 4525SOL    HW214475   3.441   1.789   5.955
 4526SOL     OW14476   0.812   6.871   5.411
 4526SOL    HW114477   0.853   6.959   5.389
 4526SOL    HW214478   0.796   6.820   5.327
 4527SOL     OW14479   0.827   2.581   2.372
 4527SOL    HW114480   0.789   2.573   2.464
 4527SOL    HW214481   0.923   2.609   2.378
 4528SOL     OW14482   5.304   2.147   4.275
 4528SOL    HW114483   5.232   2.094   4.321
 4528SOL    HW214484   5.298   2.242   4.303
 4529SOL     OW14485   1.669   2.795   3.414
 4529SOL    HW114486   1.633   2.733   3.344
 4529SOL    HW214487   1.601   2.866   3.433
 4530SOL     OW14488   4.048   4.520   6.004
 4530SOL    HW114489   3.966   4.477   6.043
 4530SOL    HW214490   4.089   4.581   6.071
 4531SOL     OW14491   1.511   6.522   5.233
 4531SOL    HW114492   1.486   6.526   5.136
 4531SOL    HW214493   1.477   6.603   5.280
 4532SOL     OW14494   5.787   0.996   2.268
 4532SOL    HW114495   5.872   0.944   2.272
 4532SOL    HW214496   5.748   1.003   2.360
 4533SOL     OW14497   2.797   5.500   1.133
 4533SOL    HW114498   2.816   5.405   1.111
 4533SOL    HW214499   2.718   5.505   1.195
 4534SOL     OW14500   5.698   1.496   4.907
 4534SOL    HW114501   5.776   1.436   4.929
 4534SOL    HW214502   5.732   1.587   4.883
 4535SOL     OW14503   2.178   6.969   0.242
 4535SOL    HW114504   2.102   0.009   0.223
 4535SOL    HW214505   2.146   6.874   0.240
 4536SOL     OW14506   3.734   0.401   6.045
 4536SOL    HW114507   3.647   0.366   6.009
 4536SOL    HW214508   3.809   0.351   6.002
 4537SOL     OW14509   3.251   3.658   3.466
 4537SOL    HW114510   3.168   3.691   3.420
 4537SOL    HW214511   3.322   3.728   3.460
 4538SOL     OW14512   1.270   2.651   0.027
 4538SOL    HW114513   1.196   2.613   6.993
 4538SOL    HW214514   1.282   2.596   0.110
 4539SOL     OW14515   1.150   4.676   5.180
 4539SOL    HW114516   1.127   4.747   5.246
 4539SOL    HW214517   1.167   4.590   5.228
 4540SOL     OW14518   1.745   1.514   0.436
 4540SOL    HW114519   1.697   1.542   0.353
 4540SOL    HW214520   1.837   1.484   0.413
 4541SOL     OW14521   4.610   3.049   0.233
 4541SOL    HW114522   4.539   3.060   0.303
 4541SOL    HW214523   4.580   2.981   0.166
 4542SOL     OW14524   6.920   1.916   0.280
 4542SOL    HW114525   6.944   1.938   0.185
 4542SOL    HW214526   6.855   1.840   0.281
 4543SOL     OW14527   4.098   1.092   1.182
 4543SOL    HW114528   4.067   1.014   1.236
 4543SOL    HW214529   4.034   1.169   1.194
 4544SOL     OW14530   4.987   6.035   0.426
 4544SOL    HW114531   4.985   6.115   0.485
 4544SOL    HW214532   4.940   6.056   0.340
 4545SOL     OW14533   2.881   3.380   5.670
 4545SOL    HW114534   2.895   3.372   5.572
 4545SOL    HW214535   2.935   3.310   5.718
 4546SOL     OW14536   5.217   6.051   5.699
 4546SOL    HW114537   5.312   6.075   5.721
 4546SOL    HW214538   5.204   6.054   5.600
 4547SOL     OW14539   6.882   0.718   0.806
 4547SOL    HW114540   6.898   0.723   0.707
 4547SOL    HW214541   6.885   0.810   0.845
 4548SOL     OW14542   3.204   1.502   1.957
 4548SOL    HW114543   3.200   1.588   2.007
 4548SOL    HW214544   3.255   1.514   1.871
 4549SOL     OW14545   6.912   4.992   3.538
 4549SOL    HW114546   6.851   5.010   3.460
 4549SOL    HW214547   6.996   4.949   3.505
 4550SOL     OW14548   2.263   5.548   6.673
 4550SOL    HW114549   2.352   5.575   6.711
 4550SOL    HW214550   2.268   5.546   6.573
 4551SOL     OW14551   3.493   3.075   5.991
 4551SOL    HW114552   3.430   3.068   6.068
 4551SOL    HW214553   3.587   3.084   6.025
 4552SOL     OW14554   5.308   0.187   6.719
 4552SOL    HW114555   5.214   0.202   6.689
 4552SOL    HW214556   5.337   0.262   6.778
 4553SOL     OW14557   0.064   6.901   0.802
 4553SOL    HW114558   0.067   6.996   0.772
 4553SOL    HW214559   7.003   6.886   0.856
 4554SOL     OW14560   5.794   6.579   3.104
 4554SOL    HW114561   5.759   6.642   3.173
 4554SOL    HW214562   5.795   6.486   3.140
 4555SOL     OW14563   0.412   6.966   3.479
 4555SOL    HW114564   0.327   7.009   3.448
 4555SOL    HW214565   0.475   6.958   3.402
 4556SOL     OW14566   4.853   4.732   4.892
 4556SOL    HW114567   4.952   4.729   4.882
 4556SOL    HW214568   4.810   4.688   4.813
 4557SOL     OW14569   0.181   5.455   4.903
 4557SOL    HW114570   0.153   5.361   4.882
 4557SOL    HW214571   0.102   5.515   4.898
 4558SOL     OW14572   0.650   4.389   3.570
 4558SOL    HW114573   0.594   4.420   3.647
 4558SOL    HW214574   0.601   4.319   3.519
 4559SOL     OW14575   6.784   3.323   4.367
 4559SOL    HW114576   6.867   3.380   4.365
 4559SOL    HW214577   6.810   3.227   4.355
 4560SOL     OW14578   6.497   3.620   4.211
 4560SOL    HW114579   6.489   3.700   4.269
 4560SOL    HW214580   6.593   3.597   4.198
 4561SOL     OW14581   5.116   3.347   4.463
 4561SOL    HW114582   5.137   3.370   4.368
 4561SOL    HW214583   5.162   3.411   4.525
 4562SOL     OW14584   4.876   1.428   1.245
 4562SOL    HW114585   4.806   1.439   1.175
 4562SOL    HW214586   4.903   1.518   1.279
 4563SOL     OW14587   0.990   3.867   2.290
 4563SOL    HW114588   0.950   3.876   2.381
 4563SOL    HW214589   1.074   3.812   2.296
 4564SOL     OW14590   2.103   3.515   2.221
 4564SOL    HW114591   2.125   3.458   2.300
 4564SOL    HW214592   2.138   3.471   2.138
 4565SOL     OW14593   2.049   6.360   5.003
 4565SOL    HW114594   2.120   6.424   5.031
 4565SOL    HW214595   2.086   6.297   4.935
 4566SOL     OW14596   0.124   5.039   2.836
 4566SOL    HW114597   0.189   5.063   2.908
 4566SOL    HW214598   0.042   5.096   2.845
 4567SOL     OW14599   1.147   0.441   0.047
 4567SOL    HW114600   1.151   0.540   0.054
 4567SOL    HW214601   1.209   0.400   0.114
 4568SOL     OW14602   0.019   4.388   3.718
 4568SOL    HW114603   0.060   4.383   3.810
 4568SOL    HW214604   6.985   4.470   3.711
 4569SOL     OW14605   0.070   2.354   3.349
 4569SOL    HW114606   0.013   2.406   3.412
 4569SOL    HW214607   0.020   2.274   3.317
 4570SOL     OW14608   4.923   5.981   1.707
 4570SOL    HW114609   4.892   5.931   1.788
 4570SOL    HW214610   4.909   5.924   1.626
 4571SOL     OW14611   2.256   2.456   5.087
 4571SOL    HW114612   2.191   2.520   5.128
 4571SOL    HW214613   2.209   2.394   5.025
 4572SOL     OW14614   4.846   3.337   1.848
 4572SOL    HW114615   4.896   3.340   1.762
 4572SOL    HW214616   4.801   3.248   1.858
 4573SOL     OW14617   2.215   5.067   0.956
 4573SOL    HW114618   2.247   4.978   0.988
 4573SOL    HW214619   2.214   5.132   1.033
 4574SOL     OW14620   4.812   0.508   2.066
 4574SOL    HW114621   4.854   0.512   2.157
 4574SOL    HW214622   4.713   0.511   2.075
 4575SOL     OW14623   0.194   1.827   5.202
 4575SOL    HW114624   0.161   1.736   5.175
 4575SOL    HW214625   0.273   1.817   5.263
 4576SOL     OW14626   2.920   3.575   6.847
 4576SOL    HW114627   2.862   3.494   6.837
 4576SOL    HW214628   2.901   3.639   6.771
 4577SOL     OW14629   0.518   1.663   1.884
 4577SOL    HW114630   0.438   1.700   1.837
 4577SOL    HW214631   0.530   1.567   1.861
 4578SOL     OW14632   1.957   0.655   2.740
 4578SOL    HW114633   1.875   0.632   2.688
 4578SOL    HW214634   1.958   0.605   2.826
 4579SOL     OW14635   3.905   0.810   2.762
 4579SOL    HW114636   3.990   0.816   2.814
 4579SOL    HW214637   3.837   0.760   2.815
 4580SOL     OW14638   1.101   0.241   1.446
 4580SOL    HW114639   1.056   0.299   1.514
 4580SOL    HW214640   1.177   0.192   1.489
 4581SOL     OW14641   3.257   0.706   1.609
 4581SOL    HW114642   3.213   0.720   1.698
 4581SOL    HW214643   3.261   0.792   1.560
 4582SOL     OW14644   5.721   1.215   4.718
 4582SOL    HW114645   5.681   1.135   4.762
 4582SOL    HW214646   5.810   1.235   4.759
 4583SOL     OW14647   2.057   5.855   6.629
 4583SOL    HW114648   2.047   5.955   6.627
 4583SOL    HW214649   2.083   5.826   6.721
 4584SOL     OW14650   6.650   0.809   4.495
 4584SOL    HW114651   6.727   0.816   4.431
 4584SOL    HW214652   6.637   0.713   4.520
 4585SOL     OW14653   1.023   2.986   2.443
 4585SOL    HW114654   1.038   3.001   2.541
 4585SOL    HW214655   1.008   3.074   2.398
 4586SOL     OW14656   0.019   4.619   5.993
 4586SOL    HW114657   0.076   4.569   6.058
 4586SOL    HW214658   7.021   4.562   5.913
 4587SOL     OW14659   4.273   3.064   6.519
 4587SOL    HW114660   4.265   2.998   6.594
 4587SOL    HW214661   4.290   3.155   6.556
 4588SOL     OW14662   1.975   4.887   6.354
 4588SOL    HW114663   1.959   4.819   6.282
 4588SOL    HW214664   2.006   4.973   6.313
 4589SOL     OW14665   4.860   5.847   1.942
 4589SOL    HW114666   4.883   5.771   2.003
 4589SOL    HW214667   4.762   5.845   1.922
 4590SOL     OW14668   2.404   4.931   1.992
 4590SOL    HW114669   2.429   5.020   1.953
 4590SOL    HW214670   2.341   4.884   1.931
 4591SOL     OW14671   2.567   1.627   5.127
 4591SOL    HW114672   2.654   1.579   5.133
 4591SOL    HW214673   2.560   1.693   5.202
 4592SOL     OW14674   2.678   2.337   2.920
 4592SOL    HW114675   2.744   2.341   2.845
 4592SOL    HW214676   2.680   2.246   2.961
 4593SOL     OW14677   1.508   5.790   4.574
 4593SOL    HW114678   1.538   5.770   4.480
 4593SOL    HW214679   1.417   5.753   4.589
 4594SOL     OW14680   0.842   6.349   3.737
 4594SOL    HW114681   0.852   6.435   3.788
 4594SOL    HW214682   0.781   6.364   3.660
 4595SOL     OW14683   5.362   1.541   6.799
 4595SOL    HW114684   5.283   1.544   6.860
 4595SOL    HW214685   5.443   1.515   6.852
 4596SOL     OW14686   0.376   1.490   2.464
 4596SOL    HW114687   0.404   1.468   2.557
 4596SOL    HW214688   0.454   1.483   2.403
 4597SOL     OW14689   1.686   5.235   0.481
 4597SOL    HW114690   1.600   5.249   0.531
 4597SOL    HW214691   1.683   5.284   0.394
 4598SOL     OW14692   0.589   2.426   0.101
 4598SOL    HW114693   0.583   2.327   0.110
 4598SOL    HW214694   0.546   2.469   0.180
 4599SOL     OW14695   2.757   6.535   3.423
 4599SOL    HW114696   2.853   6.523   3.451
 4599SOL    HW214697   2.732   6.631   3.430
 4600SOL     OW14698   0.289   0.066   5.595
 4600SOL    HW114699   0.356   7.013   5.602
 4600SOL    HW214700   0.336   0.154   5.600
 4601SOL     OW14701   1.707   1.119   5.221
 4601SOL    HW114702   1.797   1.076   5.222
 4601SOL    HW214703   1.636   1.049   5.230
 4602SOL     OW14704   4.613   0.223   5.994
 4602SOL    HW114705   4.585   0.275   5.913
 4602SOL    HW214706   4.535   0.174   6.031
 4603SOL     OW14707   4.635   6.705   0.661
 4603SOL    HW114708   4.626   6.802   0.684
 4603SOL    HW214709   4.721   6.690   0.613
 4604SOL     OW14710   0.622   6.457   3.614
 4604SOL    HW114711   0.526   6.463   3.585
 4604SOL    HW214712   0.679   6.507   3.548
 4605SOL     OW14713   4.249   1.516   2.093
 4605SOL    HW114714   4.253   1.480   2.000
 4605SOL    HW214715   4.157   1.550   2.112
 4606SOL     OW14716   0.125   0.141   4.508
 4606SOL    HW114717   0.091   0.194   4.586
 4606SOL    HW214718   0.148   0.048   4.538
 4607SOL     OW14719   2.548   1.866   0.980
 4607SOL    HW114720   2.526   1.802   1.053
 4607SOL    HW214721   2.648   1.877   0.974
 4608SOL     OW14722   0.696   2.241   5.818
 4608SOL    HW114723   0.691   2.151   5.776
 4608SOL    HW214724   0.660   2.238   5.911
 4609SOL     OW14725   5.808   5.116   5.982
 4609SOL    HW114726   5.857   5.051   5.925
 4609SOL    HW214727   5.872   5.177   6.027
 4610SOL     OW14728   4.976   4.122   6.529
 4610SOL    HW114729   4.954   4.049   6.594
 4610SOL    HW214730   5.048   4.180   6.568
 4611SOL     OW14731   0.148   0.635   6.470
 4611SOL    HW114732   0.226   0.659   6.412
 4611SOL    HW214733   0.067   0.684   6.439
 4612SOL     OW14734   1.370   0.275   2.225
 4612SOL    HW114735   1.388   0.199   2.163
 4612SOL    HW214736   1.358   0.360   2.173
 4613SOL     OW14737   1.583   5.060   3.461
 4613SOL    HW114738   1.670   5.107   3.444
 4613SOL    HW214739   1.548   5.086   3.551
 4614SOL     OW14740   6.558   4.863   2.672
 4614SOL    HW114741   6.617   4.787   2.700
 4614SOL    HW214742   6.614   4.940   2.642
 4615SOL     OW14743   0.755   4.716   6.802
 4615SOL    HW114744   0.822   4.724   6.876
 4615SOL    HW214745   0.781   4.777   6.727
 4616SOL     OW14746   1.980   4.484   6.038
 4616SOL    HW114747   1.905   4.549   6.051
 4616SOL    HW214748   2.054   4.507   6.101
 4617SOL     OW14749   1.140   4.351   4.316
 4617SOL    HW114750   1.107   4.283   4.251
 4617SOL    HW214751   1.114   4.324   4.409
 4618SOL     OW14752   2.131   4.183   5.117
 4618SOL    HW114753   2.046   4.202   5.067
 4618SOL    HW214754   2.172   4.099   5.082
 4619SOL     OW14755   4.882   5.794   6.916
 4619SOL    HW114756   4.960   5.843   6.877
 4619SOL    HW214757   4.798   5.844   6.897
 4620SOL     OW14758   1.107   4.467   1.937
 4620SOL    HW114759   1.050   4.385   1.939
 4620SOL    HW214760   1.050   4.548   1.930
 4621SOL     OW14761   2.826   0.389   2.869
 4621SOL    HW114762   2.846   0.402   2.772
 4621SOL    HW214763   2.831   0.477   2.916
 4622SOL     OW14764   6.166   6.908   0.729
 4622SOL    HW114765   6.232   6.982   0.722
 4622SOL    HW214766   6.183   6.840   0.658
 4623SOL     OW14767   2.744   4.751   2.835
 4623SOL    HW114768   2.656   4.702   2.833
 4623SOL    HW214769   2.743   4.824   2.767
 4624SOL     OW14770   5.732   1.966   0.900
 4624SOL    HW114771   5.799   1.959   0.826
 4624SOL    HW214772   5.657   1.902   0.884
 4625SOL     OW14773   0.776   6.490   1.989
 4625SOL    HW114774   0.702   6.477   1.923
 4625SOL    HW214775   0.863   6.465   1.946
 4626SOL     OW14776   4.008   3.946   1.786
 4626SOL    HW114777   4.005   4.029   1.732
 4626SOL    HW214778   4.016   3.970   1.883
 4627SOL     OW14779   5.349   6.674   4.764
 4627SOL    HW114780   5.420   6.628   4.818
 4627SOL    HW214781   5.273   6.610   4.748
 4628SOL     OW14782   6.935   3.603   2.685
 4628SOL    HW114783   7.005   3.660   2.641
 4628SOL    HW214784   6.888   3.549   2.615
 4629SOL     OW14785   1.232   5.247   1.257
 4629SOL    HW114786   1.184   5.258   1.344
 4629SOL    HW214787   1.229   5.150   1.230
 4630SOL     OW14788   1.974   3.553   1.390
 4630SOL    HW114789   2.028   3.518   1.467
 4630SOL    HW214790   1.877   3.548   1.412
 4631SOL     OW14791   5.804   1.578   1.861
 4631SOL    HW114792   5.745   1.499   1.844
 4631SOL    HW214793   5.900   1.549   1.860
 4632SOL     OW14794   2.815   4.777   3.718
 4632SOL    HW114795   2.890   4.775   3.652
 4632SOL    HW214796   2.852   4.771   3.811
 4633SOL     OW14797   5.357   3.220   3.799
 4633SOL    HW114798   5.365   3.158   3.721
 4633SOL    HW214799   5.296   3.295   3.775
 4634SOL     OW14800   3.880   2.918   5.100
 4634SOL    HW114801   3.860   3.008   5.138
 4634SOL    HW214802   3.838   2.911   5.009
 4635SOL     OW14803   4.451   0.203   2.362
 4635SOL    HW114804   4.403   0.171   2.444
 4635SOL    HW214805   4.542   0.235   2.387
 4636SOL     OW14806   1.459   5.766   6.821
 4636SOL    HW114807   1.501   5.676   6.837
 4636SOL    HW214808   1.416   5.767   6.730
 4637SOL     OW14809   1.919   2.640   3.217
 4637SOL    HW114810   1.906   2.729   3.174
 4637SOL    HW214811   1.935   2.651   3.315
 4638SOL     OW14812   4.242   4.159   6.695
 4638SOL    HW114813   4.270   4.064   6.705
 4638SOL    HW214814   4.145   4.163   6.671
 4639SOL     OW14815   3.867   2.779   1.818
 4639SOL    HW114816   3.782   2.742   1.855
 4639SOL    HW214817   3.912   2.709   1.762
 4640SOL     OW14818   0.348   1.888   0.755
 4640SOL    HW114819   0.295   1.930   0.829
 4640SOL    HW214820   0.339   1.944   0.672
 4641SOL     OW14821   1.215   5.898   4.845
 4641SOL    HW114822   1.123   5.933   4.829
 4641SOL    HW214823   1.236   5.827   4.778
 4642SOL     OW14824   5.694   1.162   6.411
 4642SOL    HW114825   5.604   1.183   6.372
 4642SOL    HW214826   5.688   1.164   6.510
 4643SOL     OW14827   0.776   1.916   7.012
 4643SOL    HW114828   0.781   1.826   6.969
 4643SOL    HW214829   0.868   1.947   0.014
 4644SOL     OW14830   1.244   1.877   1.206
 4644SOL    HW114831   1.206   1.969   1.191
 4644SOL    HW214832   1.287   1.845   1.122
 4645SOL     OW14833   5.332   2.539   5.874
 4645SOL    HW114834   5.330   2.618   5.936
 4645SOL    HW214835   5.417   2.541   5.822
 4646SOL     OW14836   1.222   3.722   2.263
 4646SOL    HW114837   1.283   3.762   2.195
 4646SOL    HW214838   1.230   3.623   2.262
 4647SOL     OW14839   1.859   6.090   2.606
 4647SOL    HW114840   1.801   6.120   2.682
 4647SOL    HW214841   1.822   6.126   2.520
 4648SOL     OW14842   2.586   0.939   4.496
 4648SOL    HW114843   2.681   0.909   4.505
 4648SOL    HW214844   2.526   0.860   4.492
 4649SOL     OW14845   4.610   3.106   1.346
 4649SOL    HW114846   4.648   3.150   1.427
 4649SOL    HW214847   4.522   3.064   1.369
 4650SOL     OW14848   3.863   5.002   0.861
 4650SOL    HW114849   3.858   4.946   0.944
 4650SOL    HW214850   3.902   4.948   0.787
 4651SOL     OW14851   1.253   3.296   0.020
 4651SOL    HW114852   1.247   3.235   0.100
 4651SOL    HW214853   1.199   3.378   0.038
 4652SOL     OW14854   0.048   0.325   5.497
 4652SOL    HW114855   0.047   0.305   5.595
 4652SOL    HW214856   7.019   0.254   5.449
 4653SOL     OW14857   0.861   6.499   0.776
 4653SOL    HW114858   0.890   6.422   0.719
 4653SOL    HW214859   0.893   6.584   0.736
 4654SOL     OW14860   1.203   1.262   5.033
 4654SOL    HW114861   1.286   1.302   4.995
 4654SOL    HW214862   1.142   1.335   5.064
 4655SOL     OW14863   5.967   4.952   2.919
 4655SOL    HW114864   5.873   4.935   2.889
 4655SOL    HW214865   6.026   4.964   2.839
 4656SOL     OW14866   6.310   0.868   1.431
 4656SOL    HW114867   6.284   0.804   1.504
 4656SOL    HW214868   6.382   0.826   1.375
 4657SOL     OW14869   3.505   2.045   2.536
 4657SOL    HW114870   3.553   2.095   2.465
 4657SOL    HW214871   3.419   2.008   2.499
 4658SOL     OW14872   1.575   1.507   0.658
 4658SOL    HW114873   1.480   1.534   0.670
 4658SOL    HW214874   1.610   1.543   0.572
 4659SOL     OW14875   2.107   4.856   1.209
 4659SOL    HW114876   2.165   4.828   1.286
 4659SOL    HW214877   2.071   4.947   1.226
 4660SOL     OW14878   0.258   4.748   4.476
 4660SOL    HW114879   0.235   4.658   4.438
 4660SOL    HW214880   0.353   4.771   4.453
 4661SOL     OW14881   0.763   0.952   5.662
 4661SOL    HW114882   0.826   0.875   5.657
 4661SOL    HW214883   0.811   1.031   5.701
 4662SOL     OW14884   2.850   0.282   6.277
 4662SOL    HW114885   2.901   0.338   6.342
 4662SOL    HW214886   2.755   0.276   6.305
 4663SOL     OW14887   0.510   0.560   1.114
 4663SOL    HW114888   0.533   0.464   1.129
 4663SOL    HW214889   0.460   0.595   1.194
 4664SOL     OW14890   6.213   6.662   4.914
 4664SOL    HW114891   6.116   6.644   4.901
 4664SOL    HW214892   6.264   6.576   4.917
 4665SOL     OW14893   0.551   1.223   2.815
 4665SOL    HW114894   0.528   1.139   2.864
 4665SOL    HW214895   0.468   1.263   2.776
 4666SOL     OW14896   1.542   2.381   5.865
 4666SOL    HW114897   1.538   2.461   5.925
 4666SOL    HW214898   1.600   2.311   5.906
 4667SOL     OW14899   6.871   2.201   0.825
 4667SOL    HW114900   6.821   2.222   0.909
 4667SOL    HW214901   6.968   2.223   0.838
 4668SOL     OW14902   4.546   1.794   5.133
 4668SOL    HW114903   4.526   1.857   5.058
 4668SOL    HW214904   4.466   1.738   5.152
 4669SOL     OW14905   5.505   6.353   6.428
 4669SOL    HW114906   5.467   6.274   6.476
 4669SOL    HW214907   5.572   6.399   6.485
 4670SOL     OW14908   0.458   3.124   0.430
 4670SOL    HW114909   0.392   3.050   0.418
 4670SOL    HW214910   0.547   3.096   0.394
 4671SOL     OW14911   6.839   1.885   1.600
 4671SOL    HW114912   6.810   1.968   1.647
 4671SOL    HW214913   6.939   1.881   1.597
 4672SOL     OW14914   4.090   3.281   0.969
 4672SOL    HW114915   4.174   3.254   0.922
 4672SOL    HW214916   4.065   3.210   1.035
 4673SOL     OW14917   4.662   1.303   0.901
 4673SOL    HW114918   4.681   1.387   0.952
 4673SOL    HW214919   4.719   1.229   0.937
 4674SOL     OW14920   0.708   3.379   0.218
 4674SOL    HW114921   0.682   3.299   0.271
 4674SOL    HW214922   0.652   3.457   0.246
 4675SOL     OW14923   1.991   6.232   0.489
 4675SOL    HW114924   1.951   6.148   0.527
 4675SOL    HW214925   2.089   6.234   0.508
 4676SOL     OW14926   0.932   5.555   4.859
 4676SOL    HW114927   0.915   5.542   4.761
 4676SOL    HW214928   1.030   5.544   4.877
 4677SOL     OW14929   4.605   0.261   6.526
 4677SOL    HW114930   4.630   0.339   6.583
 4677SOL    HW214931   4.666   0.185   6.545
 4678SOL     OW14932   2.630   4.526   0.365
 4678SOL    HW114933   2.556   4.493   0.307
 4678SOL    HW214934   2.592   4.552   0.454
 4679SOL     OW14935   2.256   6.821   5.273
 4679SOL    HW114936   2.172   6.866   5.303
 4679SOL    HW214937   2.293   6.870   5.194
 4680SOL     OW14938   1.067   5.365   6.145
 4680SOL    HW114939   1.034   5.334   6.056
 4680SOL    HW214940   1.135   5.300   6.180
 4681SOL     OW14941   6.604   6.418   5.054
 4681SOL    HW114942   6.622   6.490   5.120
 4681SOL    HW214943   6.657   6.337   5.078
 4682SOL     OW14944   3.349   0.201   0.890
 4682SOL    HW114945   3.296   0.162   0.815
 4682SOL    HW214946   3.292   0.267   0.939
 4683SOL     OW14947   0.839   4.888   3.848
 4683SOL    HW114948   0.797   4.966   3.895
 4683SOL    HW214949   0.780   4.808   3.857
 4684SOL     OW14950   2.403   1.321   5.025
 4684SOL    HW114951   2.317   1.275   5.043
 4684SOL    HW214952   2.456   1.328   5.110
 4685SOL     OW14953   5.295   4.696   3.965
 4685SOL    HW114954   5.289   4.636   3.885
 4685SOL    HW214955   5.223   4.765   3.961
 4686SOL     OW14956   4.885   5.458   6.079
 4686SOL    HW114957   4.919   5.463   5.985
 4686SOL    HW214958   4.794   5.498   6.084
 4687SOL     OW14959   4.607   0.620   5.055
 4687SOL    HW114960   4.609   0.627   5.155
 4687SOL    HW214961   4.699   0.600   5.021
 4688SOL     OW14962   6.879   0.992   0.828
 4688SOL    HW114963   6.792   0.986   0.779
 4688SOL    HW214964   6.872   1.061   0.900
 4689SOL     OW14965   2.222   5.470   3.967
 4689SOL    HW114966   2.195   5.562   3.997
 4689SOL    HW214967   2.316   5.471   3.935
 4690SOL     OW14968   2.499   1.733   0.492
 4690SOL    HW114969   2.423   1.687   0.445
 4690SOL    HW214970   2.489   1.722   0.591
 4691SOL     OW14971   3.548   4.791   6.885
 4691SOL    HW114972   3.510   4.704   6.915
 4691SOL    HW214973   3.535   4.859   6.957
 4692SOL     OW14974   1.132   4.988   3.113
 4692SOL    HW114975   1.074   4.972   3.034
 4692SOL    HW214976   1.076   5.001   3.195
 4693SOL     OW14977   0.692   1.725   2.147
 4693SOL    HW114978   0.775   1.779   2.131
 4693SOL    HW214979   0.619   1.759   2.087
 4694SOL     OW14980   1.467   0.971   5.267
 4694SOL    HW114981   1.390   1.022   5.304
 4694SOL    HW214982   1.468   0.978   5.167
 4695SOL     OW14983   2.993   3.560   3.113
 4695SOL    HW114984   2.947   3.472   3.104
 4695SOL    HW214985   2.962   3.606   3.197
 4696SOL     OW14986   6.840   2.918   0.339
 4696SOL    HW114987   6.895   2.967   0.272
 4696SOL    HW214988   6.839   2.821   0.317
 4697SOL     OW14989   0.484   5.533   6.554
 4697SOL    HW114990   0.511   5.439   6.572
 4697SOL    HW214991   0.397   5.552   6.600
 4698SOL     OW14992   5.553   3.230   2.617
 4698SOL    HW114993   5.575   3.196   2.526
 4698SOL    HW214994   5.536   3.329   2.612
 4699SOL     OW14995   6.975   0.534   3.442
 4699SOL    HW114996   7.004   0.615   3.492
 4699SOL    HW214997   6.956   0.460   3.506
 4700SOL     OW14998   4.917   0.060   5.729
 4700SOL    HW114999   4.849   7.007   5.728
 4700SOL    HW215000   4.947   0.078   5.635
 4701SOL     OW15001   2.188   1.013   6.454
 4701SOL    HW115002   2.207   0.933   6.397
 4701SOL    HW215003   2.090   1.018   6.473
 4702SOL     OW15004   3.419   2.716   1.419
 4702SOL    HW115005   3.388   2.805   1.384
 4702SOL    HW215006   3.369   2.643   1.373
 4703SOL     OW15007   0.665   6.378   2.239
 4703SOL    HW115008   0.570   6.406   2.229
 4703SOL    HW215009   0.715   6.398   2.154
 4704SOL     OW15010   4.390   6.573   6.374
 4704SOL    HW115011   4.462   6.580   6.442
 4704SOL    HW215012   4.344   6.484   6.385
 4705SOL     OW15013   3.564   3.006   5.000
 4705SOL    HW115014   3.608   2.975   4.916
 4705SOL    HW215015   3.531   2.926   5.051
 4706SOL     OW15016   5.723   3.472   6.965
 4706SOL    HW115017   5.763   3.563   6.950
 4706SOL    HW215018   5.766   3.406   6.903
 4707SOL     OW15019   2.934   4.568   0.356
 4707SOL    HW115020   2.848   4.529   0.322
 4707SOL    HW215021   2.920   4.602   0.449
 4708SOL     OW15022   1.924   2.895   2.390
 4708SOL    HW115023   1.837   2.902   2.340
 4708SOL    HW215024   1.913   2.934   2.481
 4709SOL     OW15025   3.076   4.033   0.293
 4709SOL    HW115026   3.141   4.055   0.366
 4709SOL    HW215027   3.124   3.984   0.220
 4710SOL     OW15028   4.889   2.982   1.310
 4710SOL    HW115029   4.886   3.009   1.406
 4710SOL    HW215030   4.981   2.951   1.286
 4711SOL     OW15031   2.754   0.031   3.393
 4711SOL    HW115032   2.745   6.965   3.346
 4711SOL    HW215033   2.843   0.036   3.438
 4712SOL     OW15034   1.580   3.992   6.963
 4712SOL    HW115035   1.490   3.971   6.927
 4712SOL    HW215036   1.616   4.074   6.918
 4713SOL     OW15037   0.606   5.941   1.091
 4713SOL    HW115038   0.589   5.878   1.014
 4713SOL    HW215039   0.687   5.910   1.141
 4714SOL     OW15040   4.128   2.133   1.084
 4714SOL    HW115041   4.119   2.231   1.104
 4714SOL    HW215042   4.224   2.107   1.087
 4715SOL     OW15043   4.938   3.568   4.713
 4715SOL    HW115044   5.019   3.627   4.720
 4715SOL    HW215045   4.875   3.589   4.787
 4716SOL     OW15046   2.101   5.726   6.159
 4716SOL    HW115047   2.138   5.745   6.251
 4716SOL    HW215048   2.146   5.787   6.093
 4717SOL     OW15049   2.347   5.077   4.698
 4717SOL    HW115050   2.434   5.124   4.710
 4717SOL    HW215051   2.340   5.002   4.764
 4718SOL     OW15052   4.877   0.134   0.297
 4718SOL    HW115053   4.916   0.122   0.388
 4718SOL    HW215054   4.935   0.196   0.244
 4719SOL     OW15055   4.368   3.392   1.578
 4719SOL    HW115056   4.353   3.299   1.545
 4719SOL    HW215057   4.428   3.441   1.514
 4720SOL     OW15058   2.143   1.885   2.987
 4720SOL    HW115059   2.171   1.822   3.059
 4720SOL    HW215060   2.124   1.834   2.904
 4721SOL     OW15061   1.862   1.329   1.646
 4721SOL    HW115062   1.810   1.363   1.567
 4721SOL    HW215063   1.844   1.388   1.725
 4722SOL     OW15064   2.828   1.094   2.899
 4722SOL    HW115065   2.758   1.024   2.912
 4722SOL    HW215066   2.916   1.061   2.933
 4723SOL     OW15067   3.054   0.383   5.624
 4723SOL    HW115068   3.123   0.379   5.697
 4723SOL    HW215069   2.964   0.361   5.662
 4724SOL     OW15070   5.045   5.657   0.962
 4724SOL    HW115071   4.980   5.628   1.032
 4724SOL    HW215072   5.094   5.739   0.994
 4725SOL     OW15073   5.981   5.080   2.622
 4725SOL    HW115074   5.936   5.023   2.554
 4725SOL    HW215075   5.915   5.146   2.660
 4726SOL     OW15076   0.086   6.471   4.307
 4726SOL    HW115077   0.123   6.429   4.225
 4726SOL    HW215078   0.138   6.554   4.328
 4727SOL     OW15079   5.445   6.518   1.963
 4727SOL    HW115080   5.499   6.599   1.984
 4727SOL    HW215081   5.465   6.446   2.029
 4728SOL     OW15082   6.765   6.871   6.838
 4728SOL    HW115083   6.680   6.818   6.829
 4728SOL    HW215084   6.831   6.839   6.770
 4729SOL     OW15085   3.166   0.667   1.163
 4729SOL    HW115086   3.243   0.721   1.129
 4729SOL    HW215087   3.134   0.704   1.250
 4730SOL     OW15088   1.827   0.197   6.363
 4730SOL    HW115089   1.837   0.108   6.317
 4730SOL    HW215090   1.823   0.183   6.462
 4731SOL     OW15091   4.210   1.140   5.963
 4731SOL    HW115092   4.207   1.231   6.004
 4731SOL    HW215093   4.260   1.145   5.876
 4732SOL     OW15094   0.600   6.581   6.741
 4732SOL    HW115095   0.658   6.512   6.785
 4732SOL    HW215096   0.583   6.554   6.646
 4733SOL     OW15097   5.849   3.966   3.220
 4733SOL    HW115098   5.872   4.047   3.274
 4733SOL    HW215099   5.915   3.893   3.242
 4734SOL     OW15100   6.288   3.490   5.867
 4734SOL    HW115101   6.290   3.584   5.835
 4734SOL    HW215102   6.197   3.451   5.851
 4735SOL     OW15103   0.379   3.950   3.396
 4735SOL    HW115104   0.398   3.859   3.433
 4735SOL    HW215105   0.342   3.942   3.304
 4736SOL     OW15106   1.824   6.797   2.303
 4736SOL    HW115107   1.782   6.825   2.217
 4736SOL    HW215108   1.923   6.810   2.297
 4737SOL     OW15109   3.330   5.062   2.129
 4737SOL    HW115110   3.349   5.021   2.040
 4737SOL    HW215111   3.255   5.127   2.121
 4738SOL     OW15112   1.142   6.982   2.983
 4738SOL    HW115113   1.077   7.011   2.913
 4738SOL    HW215114   1.225   0.017   2.976
 4739SOL     OW15115   4.041   0.275   1.541
 4739SOL    HW115116   4.016   0.363   1.582
 4739SOL    HW215117   4.003   0.270   1.448
 4740SOL     OW15118   0.801   1.791   4.570
 4740SOL    HW115119   0.849   1.812   4.655
 4740SOL    HW215120   0.708   1.761   4.590
 4741SOL     OW15121   3.772   3.956   3.299
 4741SOL    HW115122   3.705   4.021   3.337
 4741SOL    HW215123   3.854   3.956   3.357
 4742SOL     OW15124   5.127   1.104   2.579
 4742SOL    HW115125   5.143   1.201   2.562
 4742SOL    HW215126   5.187   1.073   2.653
 4743SOL     OW15127   0.743   5.387   0.752
 4743SOL    HW115128   0.661   5.380   0.808
 4743SOL    HW215129   0.787   5.297   0.744
 4744SOL     OW15130   1.680   5.076   1.745
 4744SOL    HW115131   1.610   5.102   1.810
 4744SOL    HW215132   1.649   5.097   1.652
 4745SOL     OW15133   1.511   3.311   0.274
 4745SOL    HW115134   1.427   3.264   0.249
 4745SOL    HW215135   1.495   3.410   0.274
 4746SOL     OW15136   5.755   5.603   4.282
 4746SOL    HW115137   5.728   5.695   4.309
 4746SOL    HW215138   5.772   5.548   4.363
 4747SOL     OW15139   3.934   0.756   1.074
 4747SOL    HW115140   4.019   0.780   1.027
 4747SOL    HW215141   3.867   0.723   1.008
 4748SOL     OW15142   1.863   6.611   3.251
 4748SOL    HW115143   1.801   6.556   3.308
 4748SOL    HW215144   1.819   6.630   3.163
 4749SOL     OW15145   2.474   1.177   1.132
 4749SOL    HW115146   2.375   1.172   1.120
 4749SOL    HW215147   2.515   1.217   1.050
 4750SOL     OW15148   5.218   3.618   6.764
 4750SOL    HW115149   5.240   3.549   6.695
 4750SOL    HW215150   5.121   3.643   6.757
 4751SOL     OW15151   4.156   1.469   2.670
 4751SOL    HW115152   4.096   1.549   2.671
 4751SOL    HW215153   4.103   1.387   2.652
 4752SOL     OW15154   5.709   0.241   6.973
 4752SOL    HW115155   5.786   0.200   6.923
 4752SOL    HW215156   5.650   0.291   6.910
 4753SOL     OW15157   2.964   5.394   4.966
 4753SOL    HW115158   2.868   5.406   4.992
 4753SOL    HW215159   2.986   5.296   4.965
 4754SOL     OW15160   5.668   4.697   0.533
 4754SOL    HW115161   5.605   4.773   0.549
 4754SOL    HW215162   5.714   4.673   0.619
 4755SOL     OW15163   0.201   1.129   1.369
 4755SOL    HW115164   0.234   1.208   1.420
 4755SOL    HW215165   0.135   1.158   1.300
 4756SOL     OW15166   6.948   3.928   5.195
 4756SOL    HW115167   6.925   3.980   5.113
 4756SOL    HW215168   6.871   3.930   5.259
 4757SOL     OW15169   2.302   3.379   0.896
 4757SOL    HW115170   2.209   3.367   0.931
 4757SOL    HW215171   2.367   3.380   0.973
 4758SOL     OW15172   2.000   5.137   2.212
 4758SOL    HW115173   2.045   5.225   2.227
 4758SOL    HW215174   2.023   5.074   2.286
 4759SOL     OW15175   0.642   6.813   2.928
 4759SOL    HW115176   0.647   6.714   2.916
 4759SOL    HW215177   0.557   6.847   2.886
 4760SOL     OW15178   1.010   6.812   2.099
 4760SOL    HW115179   0.984   6.853   2.012
 4760SOL    HW215180   1.062   6.878   2.154
 4761SOL     OW15181   4.209   6.506   2.250
 4761SOL    HW115182   4.306   6.484   2.245
 4761SOL    HW215183   4.181   6.511   2.346
 4762SOL     OW15184   0.905   0.960   2.387
 4762SOL    HW115185   0.984   1.008   2.427
 4762SOL    HW215186   0.823   0.982   2.440
 4763SOL     OW15187   5.328   5.395   1.556
 4763SOL    HW115188   5.407   5.336   1.573
 4763SOL    HW215189   5.304   5.391   1.459
 4764SOL     OW15190   4.943   2.861   6.812
 4764SOL    HW115191   4.882   2.783   6.822
 4764SOL    HW215192   4.967   2.872   6.715
 4765SOL     OW15193   3.595   1.493   5.490
 4765SOL    HW115194   3.571   1.537   5.403
 4765SOL    HW215195   3.530   1.521   5.560
 4766SOL     OW15196   1.240   0.435   3.473
 4766SOL    HW115197   1.151   0.447   3.429
 4766SOL    HW215198   1.305   0.499   3.434
 4767SOL     OW15199   2.526   4.514   3.452
 4767SOL    HW115200   2.600   4.540   3.389
 4767SOL    HW215201   2.454   4.467   3.401
 4768SOL     OW15202   4.520   2.229   6.378
 4768SOL    HW115203   4.422   2.207   6.383
 4768SOL    HW215204   4.551   2.260   6.468
 4769SOL     OW15205   3.172   3.424   0.877
 4769SOL    HW115206   3.179   3.473   0.790
 4769SOL    HW215207   3.130   3.482   0.946
 4770SOL     OW15208   0.203   1.697   3.950
 4770SOL    HW115209   0.280   1.760   3.940
 4770SOL    HW215210   0.177   1.661   3.860
 4771SOL     OW15211   3.059   0.975   4.440
 4771SOL    HW115212   3.066   0.928   4.352
 4771SOL    HW215213   3.056   1.073   4.426
 4772SOL     OW15214   2.466   4.956   2.895
 4772SOL    HW115215   2.535   4.994   2.957
 4772SOL    HW215216   2.467   5.008   2.810
 4773SOL     OW15217   2.840   5.778   4.195
 4773SOL    HW115218   2.833   5.861   4.251
 4773SOL    HW215219   2.931   5.771   4.155
 4774SOL     OW15220   1.064   4.776   0.257
 4774SOL    HW115221   1.150   4.797   0.303
 4774SOL    HW215222   0.991   4.832   0.296
 4775SOL     OW15223   5.579   4.912   4.157
 4775SOL    HW115224   5.547   4.970   4.232
 4775SOL    HW215225   5.606   4.823   4.193
 4776SOL     OW15226   6.695   1.802   4.680
 4776SOL    HW115227   6.696   1.709   4.716
 4776SOL    HW215228   6.773   1.815   4.619
 4777SOL     OW15229   1.288   6.441   3.571
 4777SOL    HW115230   1.375   6.435   3.522
 4777SOL    HW215231   1.215   6.460   3.505
 4778SOL     OW15232   1.865   7.007   0.453
 4778SOL    HW115233   1.945   0.044   0.447
 4778SOL    HW215234   1.786   0.033   0.416
 4779SOL     OW15235   4.778   1.695   4.410
 4779SOL    HW115236   4.699   1.664   4.358
 4779SOL    HW215237   4.796   1.631   4.485
 4780SOL     OW15238   4.867   2.884   4.988
 4780SOL    HW115239   4.819   2.841   4.911
 4780SOL    HW215240   4.901   2.973   4.960
 4781SOL     OW15241   2.682   5.175   2.149
 4781SOL    HW115242   2.695   5.118   2.068
 4781SOL    HW215243   2.603   5.141   2.201
 4782SOL     OW15244   1.321   6.714   3.462
 4782SOL    HW115245   1.407   6.684   3.503
 4782SOL    HW215246   1.261   6.750   3.534
 4783SOL     OW15247   0.801   4.285   6.514
 4783SOL    HW115248   0.754   4.329   6.591
 4783SOL    HW215249   0.899   4.301   6.521
 4784SOL     OW15250   5.997   2.820   6.829
 4784SOL    HW115251   5.922   2.771   6.874
 4784SOL    HW215252   6.070   2.836   6.894
 4785SOL     OW15253   6.966   1.303   4.090
 4785SOL    HW115254   6.980   1.216   4.138
 4785SOL    HW215255   6.920   1.367   4.151
 4786SOL     OW15256   1.892   6.139   0.232
 4786SOL    HW115257   1.794   6.121   0.240
 4786SOL    HW215258   1.927   6.175   0.319
 4787SOL     OW15259   4.705   0.906   4.902
 4787SOL    HW115260   4.707   0.881   4.805
 4787SOL    HW215261   4.718   1.005   4.911
 4788SOL     OW15262   6.563   6.207   1.028
 4788SOL    HW115263   6.651   6.194   0.983
 4788SOL    HW215264   6.489   6.192   0.962
 4789SOL     OW15265   6.232   1.160   2.131
 4789SOL    HW115266   6.331   1.147   2.124
 4789SOL    HW215267   6.190   1.136   2.044
 4790SOL     OW15268   0.588   2.726   5.980
 4790SOL    HW115269   0.602   2.765   6.071
 4790SOL    HW215270   0.671   2.741   5.925
 4791SOL     OW15271   0.911   0.457   6.513
 4791SOL    HW115272   0.866   0.530   6.461
 4791SOL    HW215273   0.857   0.437   6.595
 4792SOL     OW15274   0.274   3.794   1.507
 4792SOL    HW115275   0.347   3.860   1.490
 4792SOL    HW215276   0.311   3.716   1.558
 4793SOL     OW15277   0.817   3.299   5.226
 4793SOL    HW115278   0.842   3.373   5.289
 4793SOL    HW215279   0.890   3.231   5.224
 4794SOL     OW15280   5.478   1.295   6.373
 4794SOL    HW115281   5.454   1.280   6.469
 4794SOL    HW215282   5.483   1.393   6.355
 4795SOL     OW15283   6.841   6.830   0.090
 4795SOL    HW115284   6.827   6.873   0.000
 4795SOL    HW215285   6.889   6.743   0.077
 4796SOL     OW15286   5.825   0.950   5.990
 4796SOL    HW115287   5.838   1.007   5.908
 4796SOL    HW215288   5.814   0.855   5.962
 4797SOL     OW15289   3.077   5.072   5.475
 4797SOL    HW115290   3.038   4.999   5.530
 4797SOL    HW215291   3.175   5.055   5.462
 4798SOL     OW15292   3.222   5.758   0.286
 4798SOL    HW115293   3.248   5.733   0.379
 4798SOL    HW215294   3.161   5.837   0.289
 4799SOL     OW15295   4.385   3.944   1.212
 4799SOL    HW115296   4.427   3.862   1.171
 4799SOL    HW215297   4.453   4.017   1.217
 4800SOL     OW15298   0.890   5.002   0.372
 4800SOL    HW115299   0.884   4.985   0.470
 4800SOL    HW215300   0.965   5.066   0.354
 4801SOL     OW15301   4.883   3.454   3.532
 4801SOL    HW115302   4.872   3.492   3.624
 4801SOL    HW215303   4.870   3.526   3.464
 4802SOL     OW15304   6.877   0.742   5.207
 4802SOL    HW115305   6.977   0.748   5.206
 4802SOL    HW215306   6.849   0.648   5.228
 4803SOL     OW15307   5.467   3.309   5.468
 4803SOL    HW115308   5.460   3.361   5.383
 4803SOL    HW215309   5.521   3.227   5.452
 4804SOL     OW15310   5.332   2.911   1.078
 4804SOL    HW115311   5.299   3.004   1.092
 4804SOL    HW215312   5.417   2.913   1.025
 4805SOL     OW15313   6.020   0.806   6.464
 4805SOL    HW115314   6.111   0.830   6.430
 4805SOL    HW215315   5.952   0.860   6.414
 4806SOL     OW15316   1.583   3.102   3.692
 4806SOL    HW115317   1.551   3.066   3.604
 4806SOL    HW215318   1.680   3.079   3.704
 4807SOL     OW15319   1.126   3.663   0.686
 4807SOL    HW115320   1.201   3.718   0.649
 4807SOL    HW215321   1.049   3.723   0.709
 4808SOL     OW15322   3.238   6.692   3.064
 4808SOL    HW115323   3.158   6.742   3.031
 4808SOL    HW215324   3.261   6.724   3.156
 4809SOL     OW15325   2.567   4.037   0.217
 4809SOL    HW115326   2.577   4.086   0.303
 4809SOL    HW215327   2.656   4.003   0.187
 4810SOL     OW15328   1.921   5.410   4.729
 4810SOL    HW115329   1.922   5.385   4.825
 4810SOL    HW215330   1.839   5.463   4.709
 4811SOL     OW15331   3.208   3.160   4.797
 4811SOL    HW115332   3.161   3.203   4.721
 4811SOL    HW215333   3.281   3.220   4.830
 4812SOL     OW15334   2.317   6.555   1.477
 4812SOL    HW115335   2.395   6.551   1.415
 4812SOL    HW215336   2.338   6.505   1.561
 4813SOL     OW15337   1.242   2.664   4.855
 4813SOL    HW115338   1.311   2.709   4.911
 4813SOL    HW215339   1.288   2.599   4.793
 4814SOL     OW15340   4.566   1.024   0.477
 4814SOL    HW115341   4.644   1.017   0.415
 4814SOL    HW215342   4.523   0.934   0.485
 4815SOL     OW15343   6.653   4.162   2.975
 4815SOL    HW115344   6.723   4.101   2.937
 4815SOL    HW215345   6.580   4.175   2.908
 4816SOL     OW15346   2.376   0.638   2.813
 4816SOL    HW115347   2.475   0.648   2.813
 4816SOL    HW215348   2.340   0.652   2.721
 4817SOL     OW15349   4.223   2.982   0.470
 4817SOL    HW115350   4.321   2.986   0.488
 4817SOL    HW215351   4.182   3.072   0.488
 4818SOL     OW15352   4.906   6.424   5.376
 4818SOL    HW115353   4.832   6.358   5.383
 4818SOL    HW215354   4.981   6.398   5.437
 4819SOL     OW15355   3.088   0.879   0.470
 4819SOL    HW115356   3.026   0.825   0.414
 4819SOL    HW215357   3.102   0.834   0.558
 4820SOL     OW15358   0.617   4.870   1.570
 4820SOL    HW115359   0.645   4.776   1.590
 4820SOL    HW215360   0.521   4.882   1.594
 4821SOL     OW15361   6.763   5.923   1.343
 4821SOL    HW115362   6.709   5.903   1.424
 4821SOL    HW215363   6.822   6.002   1.360
 4822SOL     OW15364   0.249   3.774   1.863
 4822SOL    HW115365   0.309   3.771   1.783
 4822SOL    HW215366   0.214   3.682   1.882
 4823SOL     OW15367   0.107   1.880   2.662
 4823SOL    HW115368   0.125   1.871   2.760
 4823SOL    HW215369   0.142   1.799   2.614
 4824SOL     OW15370   4.902   1.914   2.663
 4824SOL    HW115371   4.817   1.864   2.647
 4824SOL    HW215372   4.907   1.943   2.758
 4825SOL     OW15373   1.912   3.643   4.453
 4825SOL    HW115374   1.857   3.726   4.440
 4825SOL    HW215375   1.932   3.602   4.364
 4826SOL     OW15376   0.640   6.265   0.428
 4826SOL    HW115377   0.589   6.283   0.344
 4826SOL    HW215378   0.581   6.215   0.492
 4827SOL     OW15379   5.048   0.885   0.069
 4827SOL    HW115380   4.949   0.880   0.079
 4827SOL    HW215381   5.071   0.949   7.017
 4828SOL     OW15382   6.404   2.747   6.756
 4828SOL    HW115383   6.363   2.837   6.743
 4828SOL    HW215384   6.397   2.694   6.672
 4829SOL     OW15385   2.420   0.518   5.800
 4829SOL    HW115386   2.395   0.608   5.764
 4829SOL    HW215387   2.343   0.481   5.852
 4830SOL     OW15388   4.751   4.617   4.258
 4830SOL    HW115389   4.817   4.688   4.286
 4830SOL    HW215390   4.675   4.660   4.209
 4831SOL     OW15391   6.639   1.989   6.381
 4831SOL    HW115392   6.621   2.017   6.287
 4831SOL    HW215393   6.569   1.924   6.411
 4832SOL     OW15394   1.379   2.651   6.401
 4832SOL    HW115395   1.477   2.633   6.409
 4832SOL    HW215396   1.342   2.669   6.492
 4833SOL     OW15397   6.538   2.945   2.459
 4833SOL    HW115398   6.582   3.023   2.415
 4833SOL    HW215399   6.578   2.860   2.424
 4834SOL     OW15400   5.654   0.498   2.683
 4834SOL    HW115401   5.706   0.581   2.702
 4834SOL    HW215402   5.563   0.505   2.724
 4835SOL     OW15403   2.284   1.645   6.059
 4835SOL    HW115404   2.204   1.641   5.999
 4835SOL    HW215405   2.345   1.718   6.028
 4836SOL     OW15406   5.834   4.634   3.716
 4836SOL    HW115407   5.843   4.594   3.806
 4836SOL    HW215408   5.787   4.570   3.655
 4837SOL     OW15409   0.298   4.906   1.518
 4837SOL    HW115410   0.262   4.902   1.611
 4837SOL    HW215411   0.346   4.992   1.504
 4838SOL     OW15412   2.652   6.107   2.437
 4838SOL    HW115413   2.558   6.120   2.467
 4838SOL    HW215414   2.658   6.123   2.339
 4839SOL     OW15415   0.722   6.838   6.293
 4839SOL    HW115416   0.767   6.795   6.371
 4839SOL    HW215417   0.695   6.931   6.317
 4840SOL     OW15418   6.622   5.403   5.653
 4840SOL    HW115419   6.552   5.332   5.667
 4840SOL    HW215420   6.709   5.360   5.630
 4841SOL     OW15421   1.774   5.457   1.718
 4841SOL    HW115422   1.711   5.485   1.789
 4841SOL    HW215423   1.807   5.364   1.737
 4842SOL     OW15424   3.343   6.719   0.596
 4842SOL    HW115425   3.288   6.662   0.536
 4842SOL    HW215426   3.350   6.676   0.686
 4843SOL     OW15427   1.744   4.117   0.709
 4843SOL    HW115428   1.706   4.035   0.664
 4843SOL    HW215429   1.827   4.145   0.662
 4844SOL     OW15430   0.142   1.115   5.189
 4844SOL    HW115431   0.154   1.078   5.097
 4844SOL    HW215432   0.097   1.204   5.183
 4845SOL     OW15433   5.797   6.997   3.424
 4845SOL    HW115434   5.837   6.980   3.334
 4845SOL    HW215435   5.702   0.004   3.413
 4846SOL     OW15436   6.698   4.377   5.755
 4846SOL    HW115437   6.678   4.453   5.693
 4846SOL    HW215438   6.748   4.306   5.705
 4847SOL     OW15439   5.025   3.137   4.600
 4847SOL    HW115440   5.113   3.090   4.589
 4847SOL    HW215441   5.035   3.232   4.572
 4848SOL     OW15442   3.061   3.863   1.078
 4848SOL    HW115443   3.108   3.919   1.146
 4848SOL    HW215444   3.128   3.820   1.018
 4849SOL     OW15445   2.273   6.365   6.542
 4849SOL    HW115446   2.201   6.326   6.599
 4849SOL    HW215447   2.362   6.350   6.584
 4850SOL     OW15448   3.424   6.691   2.825
 4850SOL    HW115449   3.338   6.640   2.830
 4850SOL    HW215450   3.477   6.675   2.908
 4851SOL     OW15451   4.814   1.377   5.572
 4851SOL    HW115452   4.764   1.399   5.656
 4851SOL    HW215453   4.910   1.402   5.582
 4852SOL     OW15454   1.082   2.004   1.880
 4852SOL    HW115455   1.160   1.941   1.879
 4852SOL    HW215456   1.098   2.078   1.815
 4853SOL     OW15457   3.509   1.066   1.708
 4853SOL    HW115458   3.608   1.054   1.700
 4853SOL    HW215459   3.475   1.012   1.785
 4854SOL     OW15460   4.071   6.900   5.861
 4854SOL    HW115461   4.148   6.840   5.841
 4854SOL    HW215462   4.023   6.867   5.942
 4855SOL     OW15463   0.677   2.916   2.412
 4855SOL    HW115464   0.664   2.844   2.345
 4855SOL    HW215465   0.588   2.945   2.448
 4856SOL     OW15466   0.309   4.750   2.852
 4856SOL    HW115467   0.335   4.769   2.946
 4856SOL    HW215468   0.209   4.746   2.845
 4857SOL     OW15469   0.008   1.032   5.747
 4857SOL    HW115470   0.106   1.021   5.762
 4857SOL    HW215471   6.996   0.958   5.689
 4858SOL     OW15472   1.421   0.344   3.651
 4858SOL    HW115473   1.352   0.363   3.582
 4858SOL    HW215474   1.388   0.273   3.713
 4859SOL     OW15475   3.382   6.440   6.119
 4859SOL    HW115476   3.397   6.370   6.049
 4859SOL    HW215477   3.429   6.412   6.203
 4860SOL     OW15478   3.351   5.149   0.521
 4860SOL    HW115479   3.274   5.213   0.524
 4860SOL    HW215480   3.317   5.055   0.527
 4861SOL     OW15481   4.127   4.181   6.133
 4861SOL    HW115482   4.174   4.259   6.174
 4861SOL    HW215483   4.142   4.100   6.189
 4862SOL     OW15484   2.262   0.065   0.460
 4862SOL    HW115485   2.302   0.154   0.436
 4862SOL    HW215486   2.227   0.021   0.378
 4863SOL     OW15487   5.571   3.877   6.066
 4863SOL    HW115488   5.529   3.906   6.152
 4863SOL    HW215489   5.668   3.859   6.081
 4864SOL     OW15490   3.392   1.060   4.113
 4864SOL    HW115491   3.336   1.134   4.077
 4864SOL    HW215492   3.453   1.095   4.184
 4865SOL     OW15493   1.383   6.267   5.218
 4865SOL    HW115494   1.431   6.354   5.234
 4865SOL    HW215495   1.449   6.198   5.188
 4866SOL     OW15496   6.976   4.054   5.758
 4866SOL    HW115497   6.928   3.969   5.780
 4866SOL    HW215498   6.998   4.103   5.842
 4867SOL     OW15499   3.644   0.823   3.244
 4867SOL    HW115500   3.700   0.891   3.290
 4867SOL    HW215501   3.690   0.734   3.245
 4868SOL     OW15502   0.330   5.608   1.436
 4868SOL    HW115503   0.303   5.703   1.423
 4868SOL    HW215504   0.402   5.602   1.505
 4869SOL     OW15505   0.080   1.286   0.659
 4869SOL    HW115506   0.104   1.214   0.724
 4869SOL    HW215507   0.156   1.300   0.595
 4870SOL     OW15508   0.907   0.424   1.153
 4870SOL    HW115509   0.873   0.339   1.192
 4870SOL    HW215510   0.851   0.450   1.074
 4871SOL     OW15511   0.475   2.183   4.257
 4871SOL    HW115512   0.530   2.217   4.333
 4871SOL    HW215513   0.473   2.083   4.258
 4872SOL     OW15514   5.758   0.403   3.240
 4872SOL    HW115515   5.664   0.435   3.253
 4872SOL    HW215516   5.808   0.411   3.326
 4873SOL     OW15517   0.127   5.904   3.903
 4873SOL    HW115518   0.077   5.824   3.869
 4873SOL    HW215519   0.070   5.953   3.969
 4874SOL     OW15520   6.184   4.485   2.332
 4874SOL    HW115521   6.086   4.497   2.344
 4874SOL    HW215522   6.228   4.479   2.422
 4875SOL     OW15523   6.700   6.703   4.198
 4875SOL    HW115524   6.779   6.692   4.257
 4875SOL    HW215525   6.627   6.749   4.248
 4876SOL     OW15526   6.306   1.583   2.259
 4876SOL    HW115527   6.206   1.582   2.267
 4876SOL    HW215528   6.335   1.662   2.205
 4877SOL     OW15529   0.419   1.713   0.305
 4877SOL    HW115530   0.446   1.640   0.368
 4877SOL    HW215531   0.450   1.690   0.212
 4878SOL     OW15532   5.369   4.574   3.691
 4878SOL    HW115533   5.291   4.622   3.651
 4878SOL    HW215534   5.439   4.641   3.717
 4879SOL     OW15535   6.083   0.653   3.084
 4879SOL    HW115536   6.068   0.596   3.003
 4879SOL    HW215537   6.123   0.741   3.057
 4880SOL     OW15538   0.013   3.056   6.065
 4880SOL    HW115539   7.009   3.052   6.161
 4880SOL    HW215540   0.096   3.109   6.054
 4881SOL     OW15541   6.837   3.741   1.886
 4881SOL    HW115542   6.900   3.818   1.891
 4881SOL    HW215543   6.828   3.712   1.791
 4882SOL     OW15544   5.095   2.200   4.583
 4882SOL    HW115545   5.134   2.210   4.675
 4882SOL    HW215546   5.058   2.108   4.573
 4883SOL     OW15547   0.034   4.128   6.100
 4883SOL    HW115548   0.092   4.120   6.181
 4883SOL    HW215549   7.013   4.040   6.081
 4884SOL     OW15550   1.446   2.259   1.871
 4884SOL    HW115551   1.504   2.262   1.790
 4884SOL    HW215552   1.489   2.202   1.941
 4885SOL     OW15553   1.041   5.763   6.653
 4885SOL    HW115554   1.030   5.694   6.725
 4885SOL    HW215555   1.041   5.854   6.693
 4886SOL     OW15556   3.304   1.028   2.203
 4886SOL    HW115557   3.342   1.051   2.113
 4886SOL    HW215558   3.371   1.049   2.274
 4887SOL     OW15559   4.865   5.373   0.600
 4887SOL    HW115560   4.879   5.409   0.693
 4887SOL    HW215561   4.788   5.309   0.602
 4888SOL     OW15562   4.465   0.046   2.861
 4888SOL    HW115563   4.532   0.108   2.820
 4888SOL    HW215564   4.511   7.006   2.924
 4889SOL     OW15565   5.182   3.384   3.691
 4889SOL    HW115566   5.117   3.427   3.754
 4889SOL    HW215567   5.133   3.348   3.612
 4890SOL     OW15568   6.386   2.221   4.563
 4890SOL    HW115569   6.302   2.187   4.520
 4890SOL    HW215570   6.411   2.309   4.522
 4891SOL     OW15571   2.678   5.541   6.982
 4891SOL    HW115572   2.748   5.609   6.957
 4891SOL    HW215573   2.659   5.548   0.059
 4892SOL     OW15574   5.069   4.740   1.710
 4892SOL    HW115575   4.981   4.753   1.664
 4892SOL    HW215576   5.097   4.644   1.702
 4893SOL     OW15577   2.379   2.611   1.187
 4893SOL    HW115578   2.420   2.577   1.102
 4893SOL    HW215579   2.393   2.544   1.260
 4894SOL     OW15580   5.004   6.289   0.141
 4894SOL    HW115581   5.098   6.255   0.136
 4894SOL    HW215582   4.941   6.212   0.130
 4895SOL     OW15583   6.341   3.416   4.924
 4895SOL    HW115584   6.436   3.402   4.898
 4895SOL    HW215585   6.327   3.383   5.017
 4896SOL     OW15586   2.745   5.074   4.928
 4896SOL    HW115587   2.700   5.064   5.017
 4896SOL    HW215588   2.693   5.138   4.872
 4897SOL     OW15589   2.470   2.003   5.836
 4897SOL    HW115590   2.431   2.034   5.750
 4897SOL    HW215591   2.564   2.035   5.844
 4898SOL     OW15592   4.307   2.282   3.606
 4898SOL    HW115593   4.287   2.188   3.634
 4898SOL    HW215594   4.278   2.345   3.678
 4899SOL     OW15595   6.376   6.145   1.490
 4899SOL    HW115596   6.280   6.153   1.462
 4899SOL    HW215597   6.431   6.112   1.413
 4900SOL     OW15598   3.546   5.468   6.324
 4900SOL    HW115599   3.492   5.430   6.248
 4900SOL    HW215600   3.568   5.394   6.388
 4901SOL     OW15601   1.842   0.520   6.575
 4901SOL    HW115602   1.830   0.532   6.674
 4901SOL    HW215603   1.792   0.439   6.545
 4902SOL     OW15604   2.058   0.239   5.775
 4902SOL    HW115605   2.043   0.257   5.678
 4902SOL    HW215606   1.972   0.247   5.824
 4903SOL     OW15607   4.832   3.861   2.387
 4903SOL    HW115608   4.858   3.939   2.330
 4903SOL    HW215609   4.740   3.831   2.363
 4904SOL     OW15610   2.366   0.598   2.156
 4904SOL    HW115611   2.381   0.697   2.163
 4904SOL    HW215612   2.455   0.551   2.153
 4905SOL     OW15613   2.677   1.718   1.873
 4905SOL    HW115614   2.640   1.802   1.913
 4905SOL    HW215615   2.625   1.694   1.791
 4906SOL     OW15616   5.016   3.112   4.970
 4906SOL    HW115617   4.983   3.179   4.903
 4906SOL    HW215618   5.114   3.096   4.955
 4907SOL     OW15619   4.068   2.852   0.983
 4907SOL    HW115620   4.139   2.915   0.952
 4907SOL    HW215621   4.099   2.757   0.970
 4908SOL     OW15622   2.696   6.418   6.293
 4908SOL    HW115623   2.759   6.416   6.371
 4908SOL    HW215624   2.651   6.329   6.285
 4909SOL     OW15625   4.838   6.347   4.909
 4909SOL    HW115626   4.787   6.269   4.873
 4909SOL    HW215627   4.913   6.315   4.966
 4910SOL     OW15628   4.774   2.213   6.808
 4910SOL    HW115629   4.747   2.257   6.723
 4910SOL    HW215630   4.706   2.144   6.834
 4911SOL     OW15631   6.774   4.108   3.342
 4911SOL    HW115632   6.825   4.144   3.263
 4911SOL    HW215633   6.727   4.183   3.388
 4912SOL     OW15634   5.906   2.907   4.300
 4912SOL    HW115635   5.989   2.880   4.349
 4912SOL    HW215636   5.924   2.991   4.249
 4913SOL     OW15637   1.157   3.785   5.805
 4913SOL    HW115638   1.142   3.728   5.725
 4913SOL    HW215639   1.244   3.832   5.797
 4914SOL     OW15640   2.898   6.782   3.949
 4914SOL    HW115641   2.891   6.691   3.989
 4914SOL    HW215642   2.916   6.849   4.021
 4915SOL     OW15643   4.462   6.216   5.261
 4915SOL    HW115644   4.449   6.137   5.320
 4915SOL    HW215645   4.399   6.212   5.184
 4916SOL     OW15646   5.582   2.747   3.657
 4916SOL    HW115647   5.514   2.786   3.718
 4916SOL    HW215648   5.654   2.703   3.711
 4917SOL     OW15649   5.010   6.659   6.731
 4917SOL    HW115650   5.060   6.744   6.713
 4917SOL    HW215651   4.927   6.680   6.784
 4918SOL     OW15652   5.171   6.067   3.855
 4918SOL    HW115653   5.119   6.137   3.903
 4918SOL    HW215654   5.117   5.983   3.850
 4919SOL     OW15655   4.414   3.895   1.738
 4919SOL    HW115656   4.432   3.882   1.641
 4919SOL    HW215657   4.417   3.993   1.760
 4920SOL     OW15658   6.184   0.872   5.472
 4920SOL    HW115659   6.216   0.779   5.456
 4920SOL    HW215660   6.084   0.875   5.461
 4921SOL     OW15661   6.396   0.299   2.292
 4921SOL    HW115662   6.480   0.259   2.256
 4921SOL    HW215663   6.355   0.236   2.358
 4922SOL     OW15664   3.777   0.372   6.301
 4922SOL    HW115665   3.841   0.430   6.351
 4922SOL    HW215666   3.774   0.400   6.206
 4923SOL     OW15667   3.951   1.453   2.044
 4923SOL    HW115668   3.883   1.514   2.004
 4923SOL    HW215669   3.962   1.475   2.141
 4924SOL     OW15670   2.796   1.420   5.386
 4924SOL    HW115671   2.827   1.442   5.294
 4924SOL    HW215672   2.726   1.349   5.382
 4925SOL     OW15673   5.308   0.209   4.017
 4925SOL    HW115674   5.246   0.136   3.987
 4925SOL    HW215675   5.261   0.297   4.014
 4926SOL     OW15676   4.792   2.703   2.274
 4926SOL    HW115677   4.753   2.706   2.181
 4926SOL    HW215678   4.785   2.794   2.315
 4927SOL     OW15679   2.245   1.584   0.471
 4927SOL    HW115680   2.159   1.571   0.521
 4927SOL    HW215681   2.281   1.495   0.443
 4928SOL     OW15682   0.873   1.727   0.880
 4928SOL    HW115683   0.922   1.643   0.858
 4928SOL    HW215684   0.912   1.768   0.962
 4929SOL     OW15685   6.257   0.285   4.892
 4929SOL    HW115686   6.317   0.366   4.888
 4929SOL    HW215687   6.226   0.272   4.986
 4930SOL     OW15688   5.017   5.898   2.576
 4930SOL    HW115689   5.014   5.970   2.645
 4930SOL    HW215690   4.997   5.810   2.620
 4931SOL     OW15691   4.592   0.244   1.506
 4931SOL    HW115692   4.560   0.228   1.412
 4931SOL    HW215693   4.691   0.238   1.509
 4932SOL     OW15694   3.137   3.999   3.244
 4932SOL    HW115695   3.046   3.960   3.231
 4932SOL    HW215696   3.172   4.032   3.156
 4933SOL     OW15697   1.614   0.571   5.330
 4933SOL    HW115698   1.678   0.644   5.356
 4933SOL    HW215699   1.640   0.486   5.375
 4934SOL     OW15700   2.365   0.078   3.280
 4934SOL    HW115701   2.398   0.164   3.240
 4934SOL    HW215702   2.336   0.095   3.374
 4935SOL     OW15703   5.914   0.552   4.805
 4935SOL    HW115704   5.975   0.518   4.877
 4935SOL    HW215705   5.968   0.587   4.729
 4936SOL     OW15706   4.983   3.202   0.505
 4936SOL    HW115707   4.951   3.229   0.414
 4936SOL    HW215708   5.009   3.106   0.504
 4937SOL     OW15709   3.779   2.624   5.410
 4937SOL    HW115710   3.862   2.659   5.367
 4937SOL    HW215711   3.761   2.675   5.495
 4938SOL     OW15712   2.972   4.599   6.922
 4938SOL    HW115713   3.029   4.528   6.963
 4938SOL    HW215714   3.003   4.617   6.828
 4939SOL     OW15715   4.885   3.516   6.498
 4939SOL    HW115716   4.898   3.456   6.420
 4939SOL    HW215717   4.970   3.565   6.517
 4940SOL     OW15718   1.363   5.732   3.672
 4940SOL    HW115719   1.361   5.646   3.723
 4940SOL    HW215720   1.450   5.740   3.624
 4941SOL     OW15721   6.355   0.492   0.597
 4941SOL    HW115722   6.455   0.488   0.588
 4941SOL    HW215723   6.326   0.424   0.664
 4942SOL     OW15724   5.475   2.891   5.559
 4942SOL    HW115725   5.426   2.804   5.552
 4942SOL    HW215726   5.567   2.875   5.595
 4943SOL     OW15727   5.879   3.468   1.451
 4943SOL    HW115728   5.953   3.532   1.430
 4943SOL    HW215729   5.793   3.501   1.411
 4944SOL     OW15730   1.737   3.051   1.638
 4944SOL    HW115731   1.722   3.121   1.707
 4944SOL    HW215732   1.810   3.080   1.576
 4945SOL     OW15733   0.131   5.426   3.917
 4945SOL    HW115734   0.230   5.416   3.910
 4945SOL    HW215735   0.105   5.429   4.014
 4946SOL     OW15736   0.269   4.777   1.984
 4946SOL    HW115737   0.280   4.788   2.083
 4946SOL    HW215738   0.202   4.706   1.965
 4947SOL     OW15739   5.523   0.722   0.485
 4947SOL    HW115740   5.495   0.669   0.405
 4947SOL    HW215741   5.559   0.810   0.455
 4948SOL     OW15742   2.919   1.502   1.865
 4948SOL    HW115743   2.959   1.591   1.888
 4948SOL    HW215744   2.922   1.443   1.946
 4949SOL     OW15745   5.279   2.265   5.895
 4949SOL    HW115746   5.359   2.241   5.840
 4949SOL    HW215747   5.283   2.362   5.918
 4950SOL     OW15748   3.227   5.384   4.161
 4950SOL    HW115749   3.214   5.349   4.069
 4950SOL    HW215750   3.272   5.315   4.218
 4951SOL     OW15751   4.542   2.567   3.955
 4951SOL    HW115752   4.587   2.526   3.876
 4951SOL    HW215753   4.592   2.649   3.983
 4952SOL     OW15754   6.595   5.004   3.955
 4952SOL    HW115755   6.520   5.047   3.905
 4952SOL    HW215756   6.574   5.003   4.052
 4953SOL     OW15757   0.900   4.705   1.859
 4953SOL    HW115758   0.966   4.780   1.863
 4953SOL    HW215759   0.816   4.732   1.905
 4954SOL     OW15760   0.117   6.652   6.238
 4954SOL    HW115761   0.054   6.624   6.166
 4954SOL    HW215762   0.208   6.615   6.218
 4955SOL     OW15763   1.412   0.488   2.023
 4955SOL    HW115764   1.456   0.577   2.023
 4955SOL    HW215765   1.480   0.417   1.999
 4956SOL     OW15766   6.018   6.738   3.348
 4956SOL    HW115767   5.957   6.679   3.402
 4956SOL    HW215768   5.983   6.831   3.349
 4957SOL     OW15769   1.117   5.184   4.504
 4957SOL    HW115770   1.094   5.260   4.444
 4957SOL    HW215771   1.076   5.100   4.469
 4958SOL     OW15772   6.997   6.597   0.070
 4958SOL    HW115773   0.063   6.644   0.080
 4958SOL    HW215774   6.982   6.537   0.149
 4959SOL     OW15775   1.645   1.788   0.376
 4959SOL    HW115776   1.602   1.731   0.306
 4959SOL    HW215777   1.742   1.764   0.384
 4960SOL     OW15778   3.284   6.780   5.511
 4960SOL    HW115779   3.201   6.836   5.511
 4960SOL    HW215780   3.360   6.833   5.476
 4961SOL     OW15781   5.226   0.081   5.253
 4961SOL    HW115782   5.299   0.136   5.213
 4961SOL    HW215783   5.162   0.140   5.302
 4962SOL     OW15784   6.435   2.414   2.573
 4962SOL    HW115785   6.477   2.384   2.659
 4962SOL    HW215786   6.335   2.411   2.583
 4963SOL     OW15787   1.182   4.319   1.466
 4963SOL    HW115788   1.155   4.308   1.370
 4963SOL    HW215789   1.278   4.345   1.470
 4964SOL     OW15790   3.326   0.828   3.046
 4964SOL    HW115791   3.291   0.872   2.963
 4964SOL    HW215792   3.359   0.898   3.109
 4965SOL     OW15793   0.253   5.425   5.504
 4965SOL    HW115794   0.322   5.375   5.452
 4965SOL    HW215795   0.279   5.522   5.509
 4966SOL     OW15796   5.262   5.560   5.029
 4966SOL    HW115797   5.170   5.596   5.043
 4966SOL    HW215798   5.318   5.630   4.983
 4967SOL     OW15799   5.413   0.835   0.130
 4967SOL    HW115800   5.488   0.894   0.098
 4967SOL    HW215801   5.344   0.826   0.059
 4968SOL     OW15802   5.415   3.979   6.480
 4968SOL    HW115803   5.338   3.916   6.468
 4968SOL    HW215804   5.451   4.004   6.390
 4969SOL     OW15805   0.967   1.115   1.220
 4969SOL    HW115806   1.026   1.194   1.239
 4969SOL    HW215807   0.877   1.130   1.261
 4970SOL     OW15808   2.065   2.091   6.550
 4970SOL    HW115809   2.076   1.992   6.544
 4970SOL    HW215810   2.153   2.136   6.530
 4971SOL     OW15811   6.580   5.338   3.692
 4971SOL    HW115812   6.562   5.405   3.620
 4971SOL    HW215813   6.660   5.283   3.666
 4972SOL     OW15814   1.838   2.566   4.344
 4972SOL    HW115815   1.837   2.499   4.419
 4972SOL    HW215816   1.805   2.654   4.378
 4973SOL     OW15817   4.955   5.545   3.163
 4973SOL    HW115818   4.951   5.631   3.111
 4973SOL    HW215819   4.904   5.556   3.249
 4974SOL     OW15820   3.932   6.609   6.397
 4974SOL    HW115821   4.014   6.656   6.431
 4974SOL    HW215822   3.860   6.677   6.381
 4975SOL     OW15823   3.939   6.018   0.026
 4975SOL    HW115824   3.920   5.930   0.068
 4975SOL    HW215825   4.037   6.023   0.003
 4976SOL     OW15826   2.542   1.099   4.901
 4976SOL    HW115827   2.522   1.084   4.804
 4976SOL    HW215828   2.499   1.184   4.932
 4977SOL     OW15829   4.125   3.621   2.083
 4977SOL    HW115830   4.148   3.665   1.997
 4977SOL    HW215831   4.048   3.669   2.126
 4978SOL     OW15832   6.015   3.792   6.297
 4978SOL    HW115833   6.112   3.804   6.273
 4978SOL    HW215834   5.962   3.781   6.213
 4979SOL     OW15835   1.502   1.943   3.701
 4979SOL    HW115836   1.498   1.845   3.719
 4979SOL    HW215837   1.472   1.961   3.608
 4980SOL     OW15838   2.341   4.774   2.697
 4980SOL    HW115839   2.280   4.718   2.752
 4980SOL    HW215840   2.371   4.853   2.749
 4981SOL     OW15841   5.659   5.810   4.951
 4981SOL    HW115842   5.618   5.755   4.878
 4981SOL    HW215843   5.673   5.904   4.917
 4982SOL     OW15844   2.815   1.285   6.803
 4982SOL    HW115845   2.723   1.270   6.840
 4982SOL    HW215846   2.823   1.238   6.715
 4983SOL     OW15847   6.767   1.828   4.085
 4983SOL    HW115848   6.692   1.825   4.020
 4983SOL    HW215849   6.733   1.859   4.174
 4984SOL     OW15850   4.930   5.000   3.652
 4984SOL    HW115851   4.991   5.079   3.654
 4984SOL    HW215852   4.837   5.031   3.632
 4985SOL     OW15853   6.009   3.724   1.313
 4985SOL    HW115854   6.062   3.802   1.280
 4985SOL    HW215855   5.913   3.751   1.324
 4986SOL     OW15856   3.952   4.819   3.659
 4986SOL    HW115857   3.999   4.907   3.647
 4986SOL    HW215858   3.880   4.810   3.591
 4987SOL     OW15859   1.031   2.555   6.922
 4987SOL    HW115860   0.984   2.471   6.894
 4987SOL    HW215861   0.975   2.603   6.990
 4988SOL     OW15862   2.457   1.937   4.953
 4988SOL    HW115863   2.516   2.002   5.001
 4988SOL    HW215864   2.447   1.854   5.009
 4989SOL     OW15865   0.295   0.674   1.253
 4989SOL    HW115866   0.323   0.761   1.212
 4989SOL    HW215867   0.199   0.679   1.279
 4990SOL     OW15868   2.026   2.312   6.856
 4990SOL    HW115869   1.947   2.370   6.873
 4990SOL    HW215870   1.997   2.229   6.808
 4991SOL     OW15871   2.657   1.559   5.834
 4991SOL    HW115872   2.592   1.632   5.856
 4991SOL    HW215873   2.750   1.596   5.839
 4992SOL     OW15874   3.871   0.032   4.523
 4992SOL    HW115875   3.863   7.000   4.439
 4992SOL    HW215876   3.965   0.065   4.533
 4993SOL     OW15877   1.436   6.623   4.982
 4993SOL    HW115878   1.470   6.622   4.888
 4993SOL    HW215879   1.362   6.689   4.990
 4994SOL     OW15880   0.055   5.594   3.447
 4994SOL    HW115881   0.131   5.529   3.445
 4994SOL    HW215882   6.990   5.545   3.436
 4995SOL     OW15883   5.439   2.571   5.301
 4995SOL    HW115884   5.452   2.513   5.221
 4995SOL    HW215885   5.346   2.607   5.302
 4996SOL     OW15886   0.583   2.264   4.000
 4996SOL    HW115887   0.612   2.358   3.985
 4996SOL    HW215888   0.536   2.257   4.089
 4997SOL     OW15889   0.332   2.249   3.666
 4997SOL    HW115890   0.238   2.230   3.697
 4997SOL    HW215891   0.330   2.323   3.599
 4998SOL     OW15892   1.112   5.769   5.783
 4998SOL    HW115893   1.031   5.721   5.749
 4998SOL    HW215894   1.150   5.825   5.710
 4999SOL     OW15895   6.008   5.353   0.924
 4999SOL    HW115896   5.922   5.303   0.914
 4999SOL    HW215897   5.999   5.444   0.884
 5000SOL     OW15898   6.271   5.460   3.762
 5000SOL    HW115899   6.363   5.421   3.774
 5000SOL    HW215900   6.249   5.517   3.841
 5001SOL     OW15901   4.683   3.621   5.552
 5001SOL    HW115902   4.667   3.543   5.492
 5001SOL    HW215903   4.772   3.609   5.598
 5002SOL     OW15904   1.212   2.164   1.705
 5002SOL    HW115905   1.295   2.196   1.752
 5002SOL    HW215906   1.237   2.127   1.615
 5003SOL     OW15907   6.271   5.749   4.721
 5003SOL    HW115908   6.241   5.710   4.808
 5003SOL    HW215909   6.371   5.762   4.723
 5004SOL     OW15910   2.203   4.752   5.778
 5004SOL    HW115911   2.239   4.660   5.791
 5004SOL    HW215912   2.166   4.760   5.685
 5005SOL     OW15913   5.201   2.373   7.006
 5005SOL    HW115914   5.215   2.318   0.067
 5005SOL    HW215915   5.122   2.337   6.956
 5006SOL     OW15916   4.205   5.311   1.751
 5006SOL    HW115917   4.222   5.271   1.661
 5006SOL    HW215918   4.283   5.366   1.779
 5007SOL     OW15919   3.628   0.771   4.606
 5007SOL    HW115920   3.632   0.842   4.536
 5007SOL    HW215921   3.671   0.806   4.690
 5008SOL     OW15922   6.214   1.931   3.986
 5008SOL    HW115923   6.116   1.944   3.998
 5008SOL    HW215924   6.240   1.957   3.893
 5009SOL     OW15925   2.510   6.830   2.087
 5009SOL    HW115926   2.479   6.865   1.999
 5009SOL    HW215927   2.565   6.747   2.073
 5010SOL     OW15928   3.390   3.910   5.995
 5010SOL    HW115929   3.396   3.999   6.038
 5010SOL    HW215930   3.396   3.920   5.895
 5011SOL     OW15931   1.280   1.663   4.768
 5011SOL    HW115932   1.301   1.587   4.707
 5011SOL    HW215933   1.363   1.693   4.814
 5012SOL     OW15934   6.438   2.462   6.975
 5012SOL    HW115935   6.377   2.515   6.916
 5012SOL    HW215936   6.529   2.503   6.974
 5013SOL     OW15937   4.682   1.555   5.351
 5013SOL    HW115938   4.712   1.464   5.379
 5013SOL    HW215939   4.691   1.564   5.252
 5014SOL     OW15940   0.522   4.698   6.276
 5014SOL    HW115941   0.488   4.760   6.206
 5014SOL    HW215942   0.515   4.741   6.366
 5015SOL     OW15943   4.631   2.007   4.142
 5015SOL    HW115944   4.657   1.981   4.235
 5015SOL    HW215945   4.697   2.073   4.105
 5016SOL     OW15946   2.435   5.760   1.938
 5016SOL    HW115947   2.518   5.785   1.889
 5016SOL    HW215948   2.424   5.660   1.937
 5017SOL     OW15949   0.059   2.132   1.353
 5017SOL    HW115950   0.094   2.150   1.261
 5017SOL    HW215951   6.987   2.166   1.360
 5018SOL     OW15952   6.485   5.451   4.209
 5018SOL    HW115953   6.437   5.538   4.211
 5018SOL    HW215954   6.518   5.433   4.116
 5019SOL     OW15955   2.627   5.356   4.896
 5019SOL    HW115956   2.666   5.416   4.966
 5019SOL    HW215957   2.548   5.308   4.934
 5020SOL     OW15958   4.376   5.465   0.141
 5020SOL    HW115959   4.368   5.512   0.053
 5020SOL    HW215960   4.389   5.532   0.214
 5021SOL     OW15961   2.603   4.760   5.563
 5021SOL    HW115962   2.670   4.817   5.517
 5021SOL    HW215963   2.649   4.680   5.603
 5022SOL     OW15964   1.754   2.811   6.414
 5022SOL    HW115965   1.668   2.857   6.394
 5022SOL    HW215966   1.822   2.836   6.346
 5023SOL     OW15967   6.214   3.355   3.990
 5023SOL    HW115968   6.150   3.330   3.917
 5023SOL    HW215969   6.293   3.295   3.987
 5024SOL     OW15970   4.907   3.895   4.935
 5024SOL    HW115971   4.858   3.808   4.936
 5024SOL    HW215972   4.889   3.942   4.849
 5025SOL     OW15973   5.625   0.129   5.090
 5025SOL    HW115974   5.698   0.196   5.076
 5025SOL    HW215975   5.543   0.176   5.121
 5026SOL     OW15976   0.924   5.563   2.436
 5026SOL    HW115977   0.901   5.622   2.514
 5026SOL    HW215978   1.014   5.589   2.400
 5027SOL     OW15979   1.099   5.504   3.533
 5027SOL    HW115980   1.061   5.524   3.623
 5027SOL    HW215981   1.180   5.445   3.543
 5028SOL     OW15982   0.945   6.453   2.500
 5028SOL    HW115983   0.988   6.472   2.412
 5028SOL    HW215984   0.953   6.533   2.559
 5029SOL     OW15985   5.515   0.422   4.578
 5029SOL    HW115986   5.539   0.469   4.494
 5029SOL    HW215987   5.565   0.335   4.584
 5030SOL     OW15988   1.139   5.845   0.579
 5030SOL    HW115989   1.151   5.764   0.635
 5030SOL    HW215990   1.176   5.925   0.626
 5031SOL     OW15991   5.208   0.682   6.926
 5031SOL    HW115992   5.156   0.605   6.888
 5031SOL    HW215993   5.164   0.713   7.011
 5032SOL     OW15994   1.886   5.574   2.465
 5032SOL    HW115995   1.883   5.673   2.481
 5032SOL    HW215996   1.867   5.555   2.369
 5033SOL     OW15997   0.997   4.379   4.704
 5033SOL    HW115998   1.007   4.314   4.629
 5033SOL    HW215999   0.903   4.375   4.739
 5034SOL     OW16000   0.856   2.694   5.911
 5034SOL    HW116001   0.916   2.756   5.961
 5034SOL    HW216002   0.895   2.673   5.821
 5035SOL     OW16003   6.667   5.318   0.803
 5035SOL    HW116004   6.700   5.355   0.717
 5035SOL    HW216005   6.577   5.358   0.825
 5036SOL     OW16006   1.322   1.634   2.761
 5036SOL    HW116007   1.412   1.665   2.792
 5036SOL    HW216008   1.252   1.666   2.825
 5037SOL     OW16009   5.222   3.791   1.168
 5037SOL    HW116010   5.312   3.799   1.126
 5037SOL    HW216011   5.221   3.840   1.256
 5038SOL     OW16012   3.063   5.883   5.604
 5038SOL    HW116013   3.153   5.841   5.596
 5038SOL    HW216014   3.004   5.850   5.530
 5039SOL     OW16015   0.817   3.090   3.630
 5039SOL    HW116016   0.752   3.016   3.647
 5039SOL    HW216017   0.803   3.162   3.698
 5040SOL     OW16018   2.305   3.175   6.762
 5040SOL    HW116019   2.354   3.195   6.677
 5040SOL    HW216020   2.221   3.229   6.765
 5041SOL     OW16021   0.488   5.842   0.065
 5041SOL    HW116022   0.587   5.839   0.070
 5041SOL    HW216023   0.451   5.749   0.073
 5042SOL     OW16024   5.956   1.190   6.495
 5042SOL    HW116025   5.878   1.211   6.435
 5042SOL    HW216026   5.945   1.238   6.582
 5043SOL     OW16027   5.572   6.413   4.057
 5043SOL    HW116028   5.480   6.414   4.095
 5043SOL    HW216029   5.622   6.494   4.089
 5044SOL     OW16030   6.533   4.356   2.228
 5044SOL    HW116031   6.507   4.441   2.182
 5044SOL    HW216032   6.472   4.341   2.306
 5045SOL     OW16033   4.724   2.842   5.490
 5045SOL    HW116034   4.754   2.791   5.570
 5045SOL    HW216035   4.646   2.795   5.448
 5046SOL     OW16036   3.872   2.692   5.901
 5046SOL    HW116037   3.900   2.607   5.946
 5046SOL    HW216038   3.809   2.742   5.960
 5047SOL     OW16039   0.271   1.927   1.810
 5047SOL    HW116040   0.228   1.977   1.885
 5047SOL    HW216041   0.232   1.835   1.804
 5048SOL     OW16042   5.571   4.422   0.553
 5048SOL    HW116043   5.587   4.384   0.644
 5048SOL    HW216044   5.568   4.522   0.558
 5049SOL     OW16045   0.938   0.825   1.176
 5049SOL    HW116046   0.957   0.915   1.217
 5049SOL    HW216047   1.010   0.761   1.203
 5050SOL     OW16048   1.765   3.688   0.790
 5050SOL    HW116049   1.821   3.736   0.857
 5050SOL    HW216050   1.672   3.677   0.825
 5051SOL     OW16051   2.293   4.110   6.006
 5051SOL    HW116052   2.273   4.107   5.908
 5051SOL    HW216053   2.390   4.132   6.019
 5052SOL     OW16054   6.300   3.050   1.491
 5052SOL    HW116055   6.374   3.111   1.520
 5052SOL    HW216056   6.215   3.101   1.483
 5053SOL     OW16057   0.837   3.706   1.360
 5053SOL    HW116058   0.914   3.677   1.303
 5053SOL    HW216059   0.773   3.759   1.305
 5054SOL     OW16060   3.917   5.883   4.956
 5054SOL    HW116061   4.013   5.892   4.983
 5054SOL    HW216062   3.882   5.794   4.985
 5055SOL     OW16063   0.660   0.710   4.110
 5055SOL    HW116064   0.647   0.681   4.206
 5055SOL    HW216065   0.695   0.803   4.108
 5056SOL     OW16066   2.967   1.354   6.279
 5056SOL    HW116067   3.040   1.319   6.338
 5056SOL    HW216068   2.982   1.323   6.185
 5057SOL     OW16069   0.370   3.494   2.118
 5057SOL    HW116070   0.357   3.593   2.113
 5057SOL    HW216071   0.314   3.449   2.047
 5058SOL     OW16072   3.894   2.275   0.260
 5058SOL    HW116073   3.852   2.185   0.256
 5058SOL    HW216074   3.928   2.292   0.353
 5059SOL     OW16075   5.931   2.601   2.766
 5059SOL    HW116076   5.958   2.572   2.675
 5059SOL    HW216077   5.836   2.574   2.783
 5060SOL     OW16078   6.889   2.537   5.542
 5060SOL    HW116079   6.816   2.471   5.525
 5060SOL    HW216080   6.855   2.610   5.601
 5061SOL     OW16081   4.166   2.839   5.995
 5061SOL    HW116082   4.163   2.928   5.949
 5061SOL    HW216083   4.092   2.781   5.961
 5062SOL     OW16084   6.087   1.382   3.364
 5062SOL    HW116085   6.130   1.362   3.452
 5062SOL    HW216086   6.005   1.437   3.379
 5063SOL     OW16087   0.632   0.967   0.366
 5063SOL    HW116088   0.582   0.884   0.391
 5063SOL    HW216089   0.729   0.953   0.384
 5064SOL     OW16090   6.459   5.095   0.344
 5064SOL    HW116091   6.396   5.017   0.348
 5064SOL    HW216092   6.527   5.086   0.416
 5065SOL     OW16093   1.022   2.104   2.517
 5065SOL    HW116094   1.074   2.178   2.474
 5065SOL    HW216095   0.930   2.102   2.479
 5066SOL     OW16096   1.115   4.961   4.155
 5066SOL    HW116097   1.095   4.980   4.059
 5066SOL    HW216098   1.210   4.987   4.175
 5067SOL     OW16099   4.371   2.939   1.125
 5067SOL    HW116100   4.354   2.959   1.028
 5067SOL    HW216101   4.469   2.945   1.143
 5068SOL     OW16102   1.743   6.785   1.329
 5068SOL    HW116103   1.791   6.846   1.267
 5068SOL    HW216104   1.717   6.701   1.281
 5069SOL     OW16105   4.144   4.613   6.289
 5069SOL    HW116106   4.175   4.519   6.274
 5069SOL    HW216107   4.051   4.612   6.324
 5070SOL     OW16108   0.833   3.526   6.630
 5070SOL    HW116109   0.799   3.611   6.588
 5070SOL    HW216110   0.770   3.451   6.610
 5071SOL     OW16111   1.711   6.468   2.708
 5071SOL    HW116112   1.662   6.514   2.782
 5071SOL    HW216113   1.650   6.404   2.662
 5072SOL     OW16114   0.393   2.185   2.552
 5072SOL    HW116115   0.454   2.259   2.524
 5072SOL    HW216116   0.298   2.216   2.544
 5073SOL     OW16117   2.017   1.714   4.254
 5073SOL    HW116118   2.084   1.647   4.224
 5073SOL    HW216119   1.929   1.696   4.209
 5074SOL     OW16120   3.920   2.031   1.280
 5074SOL    HW116121   3.964   2.114   1.245
 5074SOL    HW216122   3.885   2.049   1.372
 5075SOL     OW16123   6.315   2.136   6.499
 5075SOL    HW116124   6.325   2.047   6.455
 5075SOL    HW216125   6.325   2.126   6.598
 5076SOL     OW16126   0.164   1.462   6.002
 5076SOL    HW116127   0.121   1.474   5.913
 5076SOL    HW216128   0.107   1.403   6.059
 5077SOL     OW16129   0.822   4.453   4.338
 5077SOL    HW116130   0.873   4.371   4.313
 5077SOL    HW216131   0.886   4.523   4.370
 5078SOL     OW16132   6.083   1.735   2.959
 5078SOL    HW116133   6.130   1.693   3.036
 5078SOL    HW216134   6.150   1.780   2.899
 5079SOL     OW16135   1.828   3.589   5.663
 5079SOL    HW116136   1.762   3.543   5.722
 5079SOL    HW216137   1.873   3.522   5.604
 5080SOL     OW16138   6.343   6.181   6.662
 5080SOL    HW116139   6.393   6.215   6.741
 5080SOL    HW216140   6.288   6.102   6.688
 5081SOL     OW16141   3.212   4.704   5.575
 5081SOL    HW116142   3.276   4.772   5.539
 5081SOL    HW216143   3.239   4.676   5.667
 5082SOL     OW16144   5.678   0.048   2.478
 5082SOL    HW116145   5.579   0.056   2.473
 5082SOL    HW216146   5.721   0.131   2.444
 5083SOL     OW16147   0.281   0.311   3.384
 5083SOL    HW116148   0.264   0.398   3.337
 5083SOL    HW216149   0.363   0.319   3.440
 5084SOL     OW16150   3.721   5.496   6.104
 5084SOL    HW116151   3.699   5.576   6.049
 5084SOL    HW216152   3.653   5.485   6.176
 5085SOL     OW16153   1.024   3.925   6.660
 5085SOL    HW116154   0.945   3.929   6.599
 5085SOL    HW216155   1.028   4.009   6.714
 5086SOL     OW16156   1.183   4.462   2.257
 5086SOL    HW116157   1.153   4.475   2.351
 5086SOL    HW216158   1.110   4.417   2.204
 5087SOL     OW16159   6.659   5.327   1.482
 5087SOL    HW116160   6.750   5.356   1.512
 5087SOL    HW216161   6.627   5.253   1.542
 5088SOL     OW16162   4.084   4.765   2.213
 5088SOL    HW116163   3.996   4.783   2.169
 5088SOL    HW216164   4.145   4.720   2.148
 5089SOL     OW16165   5.229   5.891   6.190
 5089SOL    HW116166   5.162   5.864   6.121
 5089SOL    HW216167   5.234   5.821   6.261
 5090SOL     OW16168   2.080   6.731   4.360
 5090SOL    HW116169   2.096   6.829   4.355
 5090SOL    HW216170   2.168   6.683   4.367
 5091SOL     OW16171   6.511   5.778   5.147
 5091SOL    HW116172   6.580   5.713   5.114
 5091SOL    HW216173   6.502   5.772   5.246
 5092SOL     OW16174   3.975   3.090   4.762
 5092SOL    HW116175   4.050   3.027   4.782
 5092SOL    HW216176   3.888   3.044   4.778
 5093SOL     OW16177   3.201   2.092   3.500
 5093SOL    HW116178   3.130   2.148   3.457
 5093SOL    HW216179   3.253   2.044   3.430
 5094SOL     OW16180   2.352   4.806   4.820
 5094SOL    HW116181   2.432   4.767   4.865
 5094SOL    HW216182   2.274   4.746   4.833
 5095SOL     OW16183   6.207   2.013   3.128
 5095SOL    HW116184   6.172   1.956   3.203
 5095SOL    HW216185   6.161   2.102   3.130
 5096SOL     OW16186   5.815   2.763   5.352
 5096SOL    HW116187   5.845   2.858   5.362
 5096SOL    HW216188   5.878   2.704   5.402
 5097SOL     OW16189   0.857   0.166   6.007
 5097SOL    HW116190   0.827   0.107   5.932
 5097SOL    HW216191   0.944   0.132   6.043
 5098SOL     OW16192   3.125   2.086   1.159
 5098SOL    HW116193   3.213   2.062   1.118
 5098SOL    HW216194   3.104   2.182   1.141
 5099SOL     OW16195   1.898   5.743   1.902
 5099SOL    HW116196   1.853   5.699   1.823
 5099SOL    HW216197   1.960   5.677   1.945
 5100SOL     OW16198   6.682   3.698   1.126
 5100SOL    HW116199   6.741   3.683   1.046
 5100SOL    HW216200   6.628   3.616   1.144
 5101SOL     OW16201   4.257   2.086   5.666
 5101SOL    HW116202   4.248   1.990   5.689
 5101SOL    HW216203   4.195   2.109   5.590
 5102SOL     OW16204   5.263   4.371   5.487
 5102SOL    HW116205   5.292   4.322   5.404
 5102SOL    HW216206   5.313   4.457   5.494
 5103SOL     OW16207   0.446   0.301   5.544
 5103SOL    HW116208   0.506   0.293   5.623
 5103SOL    HW216209   0.502   0.303   5.460
 5104SOL     OW16210   3.674   3.415   3.793
 5104SOL    HW116211   3.610   3.377   3.860
 5104SOL    HW216212   3.722   3.493   3.833
 5105SOL     OW16213   4.585   2.871   0.039
 5105SOL    HW116214   4.619   2.792   7.010
 5105SOL    HW216215   4.497   2.900   0.002
 5106SOL     OW16216   3.966   0.735   1.567
 5106SOL    HW116217   3.984   0.791   1.486
 5106SOL    HW216218   3.957   0.639   1.541
 5107SOL     OW16219   6.216   4.784   6.547
 5107SOL    HW116220   6.241   4.739   6.462
 5107SOL    HW216221   6.298   4.812   6.596
 5108SOL     OW16222   4.154   4.072   1.053
 5108SOL    HW116223   4.197   4.042   1.139
 5108SOL    HW216224   4.061   4.037   1.049
 5109SOL     OW16225   1.762   2.373   2.032
 5109SOL    HW116226   1.725   2.280   2.037
 5109SOL    HW216227   1.826   2.380   1.955
 5110SOL     OW16228   3.196   6.069   4.909
 5110SOL    HW116229   3.209   6.141   4.977
 5110SOL    HW216230   3.191   6.110   4.818
 5111SOL     OW16231   2.554   6.180   6.316
 5111SOL    HW116232   2.568   6.083   6.295
 5111SOL    HW216233   2.459   6.194   6.344
 5112SOL     OW16234   0.957   4.163   2.468
 5112SOL    HW116235   0.898   4.215   2.530
 5112SOL    HW216236   0.981   4.075   2.511
 5113SOL     OW16237   2.640   4.538   1.223
 5113SOL    HW116238   2.702   4.463   1.201
 5113SOL    HW216239   2.623   4.539   1.321
 5114SOL     OW16240   4.829   4.789   1.597
 5114SOL    HW116241   4.810   4.764   1.502
 5114SOL    HW216242   4.752   4.843   1.633
 5115SOL     OW16243   1.566   4.090   0.403
 5115SOL    HW116244   1.539   3.994   0.394
 5115SOL    HW216245   1.554   4.137   0.316
 5116SOL     OW16246   0.001   6.757   5.686
 5116SOL    HW116247   0.090   6.757   5.731
 5116SOL    HW216248   6.956   6.805   5.743
 5117SOL     OW16249   7.019   3.471   4.342
 5117SOL    HW116250   0.026   3.556   4.387
 5117SOL    HW216251   0.055   3.455   4.262
 5118SOL     OW16252   4.633   5.164   6.949
 5118SOL    HW116253   4.644   5.236   7.017
 5118SOL    HW216254   4.640   5.203   6.857
 5119SOL     OW16255   5.239   1.446   0.317
 5119SOL    HW116256   5.277   1.483   0.232
 5119SOL    HW216257   5.292   1.480   0.395
 5120SOL     OW16258   5.780   6.459   6.391
 5120SOL    HW116259   5.706   6.523   6.412
 5120SOL    HW216260   5.857   6.510   6.351
 5121SOL     OW16261   2.269   3.719   0.068
 5121SOL    HW116262   2.345   3.740   0.130
 5121SOL    HW216263   2.277   3.624   0.037
 5122SOL     OW16264   5.238   5.646   3.257
 5122SOL    HW116265   5.166   5.708   3.289
 5122SOL    HW216266   5.203   5.587   3.184
 5123SOL     OW16267   4.251   2.085   1.447
 5123SOL    HW116268   4.262   2.004   1.505
 5123SOL    HW216269   4.228   2.164   1.505
 5124SOL     OW16270   0.767   5.854   4.687
 5124SOL    HW116271   0.699   5.784   4.709
 5124SOL    HW216272   0.726   5.945   4.699
 5125SOL     OW16273   4.981   2.404   3.894
 5125SOL    HW116274   4.925   2.482   3.921
 5125SOL    HW216275   4.962   2.327   3.955
 5126SOL     OW16276   2.721   0.828   2.195
 5126SOL    HW116277   2.737   0.903   2.260
 5126SOL    HW216278   2.657   0.859   2.124
 5127SOL     OW16279   2.167   6.351   0.973
 5127SOL    HW116280   2.194   6.307   1.058
 5127SOL    HW216281   2.146   6.447   0.991
 5128SOL     OW16282   4.362   0.369   2.144
 5128SOL    HW116283   4.382   0.282   2.188
 5128SOL    HW216284   4.263   0.380   2.137
 5129SOL     OW16285   6.170   5.730   0.075
 5129SOL    HW116286   6.135   5.647   0.031
 5129SOL    HW216287   6.270   5.732   0.066
 5130SOL     OW16288   6.122   4.984   2.266
 5130SOL    HW116289   6.108   5.078   2.235
 5130SOL    HW216290   6.218   4.970   2.289
 5131SOL     OW16291   2.556   1.965   1.987
 5131SOL    HW116292   2.620   2.023   2.037
 5131SOL    HW216293   2.473   2.017   1.967
 5132SOL     OW16294   2.555   5.994   5.592
 5132SOL    HW116295   2.485   6.056   5.556
 5132SOL    HW216296   2.632   5.991   5.529
 5133SOL     OW16297   3.792   6.049   4.759
 5133SOL    HW116298   3.865   6.004   4.810
 5133SOL    HW216299   3.730   5.980   4.722
 5134SOL     OW16300   0.979   2.697   6.698
 5134SOL    HW116301   1.022   2.666   6.783
 5134SOL    HW216302   0.880   2.690   6.706
 5135SOL     OW16303   6.486   1.644   3.677
 5135SOL    HW116304   6.509   1.716   3.742
 5135SOL    HW216305   6.388   1.645   3.659
 5136SOL     OW16306   3.486   2.131   6.631
 5136SOL    HW116307   3.479   2.072   6.712
 5136SOL    HW216308   3.503   2.225   6.660
 5137SOL     OW16309   4.362   3.256   0.112
 5137SOL    HW116310   4.380   3.353   0.101
 5137SOL    HW216311   4.268   3.242   0.145
 5138SOL     OW16312   2.593   2.708   5.904
 5138SOL    HW116313   2.618   2.614   5.879
 5138SOL    HW216314   2.528   2.706   5.980
 5139SOL     OW16315   0.551   6.603   4.345
 5139SOL    HW116316   0.590   6.677   4.399
 5139SOL    HW216317   0.619   6.572   4.278
 5140SOL     OW16318   3.667   3.262   2.309
 5140SOL    HW116319   3.748   3.213   2.276
 5140SOL    HW216320   3.585   3.211   2.285
 5141SOL     OW16321   1.338   3.232   5.295
 5141SOL    HW116322   1.313   3.187   5.209
 5141SOL    HW216323   1.262   3.224   5.360
 5142SOL     OW16324   5.273   3.421   1.893
 5142SOL    HW116325   5.316   3.379   1.813
 5142SOL    HW216326   5.230   3.507   1.866
 5143SOL     OW16327   0.059   5.165   6.007
 5143SOL    HW116328   0.082   5.172   5.910
 5143SOL    HW216329   0.143   5.169   6.062
 5144SOL     OW16330   2.143   1.327   5.149
 5144SOL    HW116331   2.146   1.315   5.248
 5144SOL    HW216332   2.145   1.425   5.128
 5145SOL     OW16333   3.423   5.356   6.633
 5145SOL    HW116334   3.370   5.299   6.571
 5145SOL    HW216335   3.368   5.434   6.663
 5146SOL     OW16336   3.550   5.299   1.341
 5146SOL    HW116337   3.495   5.378   1.315
 5146SOL    HW216338   3.645   5.327   1.351
 5147SOL     OW16339   0.974   5.283   5.890
 5147SOL    HW116340   0.930   5.194   5.883
 5147SOL    HW216341   1.071   5.274   5.867
 5148SOL     OW16342   0.230   0.453   1.509
 5148SOL    HW116343   0.221   0.477   1.605
 5148SOL    HW216344   0.171   0.512   1.454
 5149SOL     OW16345   6.591   0.547   5.585
 5149SOL    HW116346   6.664   0.600   5.542
 5149SOL    HW216347   6.596   0.452   5.555
 5150SOL     OW16348   2.687   5.397   5.646
 5150SOL    HW116349   2.675   5.469   5.578
 5150SOL    HW216350   2.768   5.343   5.624
 5151SOL     OW16351   4.503   0.644   5.834
 5151SOL    HW116352   4.591   0.690   5.833
 5151SOL    HW216353   4.484   0.605   5.743
 5152SOL     OW16354   6.825   4.540   6.657
 5152SOL    HW116355   6.854   4.508   6.567
 5152SOL    HW216356   6.905   4.561   6.713
 5153SOL     OW16357   3.076   3.266   1.204
 5153SOL    HW116358   3.173   3.242   1.213
 5153SOL    HW216359   3.054   3.341   1.266
 5154SOL     OW16360   0.709   4.417   5.479
 5154SOL    HW116361   0.640   4.453   5.542
 5154SOL    HW216362   0.770   4.354   5.528
 5155SOL     OW16363   4.032   0.611   2.050
 5155SOL    HW116364   4.118   0.660   2.035
 5155SOL    HW216365   3.963   0.674   2.084
 5156SOL     OW16366   5.451   3.439   5.219
 5156SOL    HW116367   5.493   3.383   5.148
 5156SOL    HW216368   5.452   3.535   5.192
 5157SOL     OW16369   6.566   2.417   3.564
 5157SOL    HW116370   6.480   2.456   3.530
 5157SOL    HW216371   6.576   2.441   3.661
 5158SOL     OW16372   3.510   0.456   1.976
 5158SOL    HW116373   3.602   0.476   2.010
 5158SOL    HW216374   3.494   0.507   1.891
 5159SOL     OW16375   1.829   3.699   4.925
 5159SOL    HW116376   1.813   3.793   4.957
 5159SOL    HW216377   1.925   3.689   4.898
 5160SOL     OW16378   2.714   2.382   3.640
 5160SOL    HW116379   2.669   2.453   3.694
 5160SOL    HW216380   2.768   2.323   3.700
 5161SOL     OW16381   1.573   3.153   6.985
 5161SOL    HW116382   1.670   3.175   6.990
 5161SOL    HW216383   1.522   3.211   0.026
 5162SOL     OW16384   6.519   5.718   4.834
 5162SOL    HW116385   6.578   5.638   4.823
 5162SOL    HW216386   6.447   5.698   4.900
 5163SOL     OW16387   6.128   4.128   0.817
 5163SOL    HW116388   6.061   4.139   0.744
 5163SOL    HW216389   6.099   4.183   0.896
 5164SOL     OW16390   6.938   6.495   4.683
 5164SOL    HW116391   0.009   6.517   4.714
 5164SOL    HW216392   6.943   6.442   4.598
 5165SOL     OW16393   5.335   4.392   5.771
 5165SOL    HW116394   5.282   4.360   5.693
 5165SOL    HW216395   5.339   4.321   5.841
 5166SOL     OW16396   0.287   6.853   3.219
 5166SOL    HW116397   0.333   6.781   3.271
 5166SOL    HW216398   0.271   6.821   3.125
 5167SOL     OW16399   2.011   0.433   5.536
 5167SOL    HW116400   1.982   0.369   5.466
 5167SOL    HW216401   2.042   0.518   5.493
 5168SOL     OW16402   3.250   2.026   2.070
 5168SOL    HW116403   3.243   2.051   1.973
 5168SOL    HW216404   3.201   2.093   2.125
 5169SOL     OW16405   3.941   5.335   6.572
 5169SOL    HW116406   3.991   5.253   6.600
 5169SOL    HW216407   3.845   5.312   6.556
 5170SOL     OW16408   4.339   5.275   4.088
 5170SOL    HW116409   4.398   5.290   4.009
 5170SOL    HW216410   4.253   5.325   4.075
 5171SOL     OW16411   2.666   4.481   5.308
 5171SOL    HW116412   2.758   4.515   5.288
 5171SOL    HW216413   2.616   4.468   5.222
 5172SOL     OW16414   1.778   3.824   6.155
 5172SOL    HW116415   1.789   3.914   6.113
 5172SOL    HW216416   1.706   3.828   6.224
 5173SOL     OW16417   0.380   2.106   4.634
 5173SOL    HW116418   0.306   2.160   4.674
 5173SOL    HW216419   0.416   2.154   4.554
 5174SOL     OW16420   3.108   5.521   6.821
 5174SOL    HW116421   3.173   5.496   6.893
 5174SOL    HW216422   3.044   5.446   6.805
 5175SOL     OW16423   0.918   5.337   6.999
 5175SOL    HW116424   0.853   5.326   6.924
 5175SOL    HW216425   0.894   5.418   0.031
 5176SOL     OW16426   5.842   3.262   6.788
 5176SOL    HW116427   5.765   3.256   6.725
 5176SOL    HW216428   5.889   3.349   6.775
 5177SOL     OW16429   4.408   4.829   6.622
 5177SOL    HW116430   4.346   4.757   6.656
 5177SOL    HW216431   4.354   4.908   6.594
 5178SOL     OW16432   3.649   4.411   0.206
 5178SOL    HW116433   3.650   4.372   0.114
 5178SOL    HW216434   3.741   4.440   0.232
 5179SOL     OW16435   2.788   6.285   5.502
 5179SOL    HW116436   2.714   6.293   5.436
 5179SOL    HW216437   2.865   6.342   5.473
 5180SOL     OW16438   4.725   1.527   6.839
 5180SOL    HW116439   4.627   1.519   6.858
 5180SOL    HW216440   4.740   1.529   6.740
 5181SOL     OW16441   3.578   6.308   2.754
 5181SOL    HW116442   3.613   6.227   2.708
 5181SOL    HW216443   3.519   6.359   2.691
 5182SOL     OW16444   4.808   4.104   0.790
 5182SOL    HW116445   4.737   4.082   0.856
 5182SOL    HW216446   4.887   4.045   0.806
 5183SOL     OW16447   3.533   0.929   3.911
 5183SOL    HW116448   3.617   0.980   3.894
 5183SOL    HW216449   3.482   0.972   3.985
 5184SOL     OW16450   1.106   1.715   2.917
 5184SOL    HW116451   1.046   1.695   2.995
 5184SOL    HW216452   1.052   1.717   2.833
 5185SOL     OW16453   3.734   0.466   2.115
 5185SOL    HW116454   3.792   0.538   2.155
 5185SOL    HW216455   3.757   0.378   2.155
 5186SOL     OW16456   5.768   4.048   6.928
 5186SOL    HW116457   5.751   3.954   6.899
 5186SOL    HW216458   5.798   4.049   0.002
 5187SOL     OW16459   5.186   3.981   4.213
 5187SOL    HW116460   5.133   4.035   4.279
 5187SOL    HW216461   5.132   3.969   4.129
 5188SOL     OW16462   0.490   1.025   3.455
 5188SOL    HW116463   0.499   1.114   3.501
 5188SOL    HW216464   0.556   1.020   3.380
 5189SOL     OW16465   4.980   4.937   5.773
 5189SOL    HW116466   4.888   4.973   5.758
 5189SOL    HW216467   5.030   4.999   5.834
 5190SOL     OW16468   2.064   2.097   2.690
 5190SOL    HW116469   1.997   2.027   2.667
 5190SOL    HW216470   2.156   2.061   2.674
 5191SOL     OW16471   5.102   1.055   2.167
 5191SOL    HW116472   5.169   1.116   2.210
 5191SOL    HW216473   5.053   1.104   2.095
 5192SOL     OW16474   6.896   4.279   1.332
 5192SOL    HW116475   6.849   4.272   1.420
 5192SOL    HW216476   6.981   4.226   1.335
 5193SOL     OW16477   3.599   5.298   2.842
 5193SOL    HW116478   3.679   5.240   2.830
 5193SOL    HW216479   3.531   5.251   2.898
 5194SOL     OW16480   5.046   0.770   0.343
 5194SOL    HW116481   5.075   0.812   0.257
 5194SOL    HW216482   5.126   0.749   0.399
 5195SOL     OW16483   0.390   5.174   5.150
 5195SOL    HW116484   0.473   5.166   5.095
 5195SOL    HW216485   0.318   5.116   5.110
 5196SOL     OW16486   1.246   3.069   3.355
 5196SOL    HW116487   1.270   3.163   3.330
 5196SOL    HW216488   1.163   3.070   3.410
 5197SOL     OW16489   3.941   6.204   5.128
 5197SOL    HW116490   4.034   6.168   5.141
 5197SOL    HW216491   3.910   6.249   5.212
 5198SOL     OW16492   4.370   0.941   5.776
 5198SOL    HW116493   4.274   0.920   5.794
 5198SOL    HW216494   4.423   0.930   5.860
 5199SOL     OW16495   0.410   6.225   2.705
 5199SOL    HW116496   0.316   6.214   2.736
 5199SOL    HW216497   0.440   6.319   2.719
 5200SOL     OW16498   5.971   6.617   5.270
 5200SOL    HW116499   5.952   6.551   5.197
 5200SOL    HW216500   5.910   6.695   5.262
 5201SOL     OW16501   6.849   3.610   5.357
 5201SOL    HW116502   6.759   3.606   5.400
 5201SOL    HW216503   6.878   3.706   5.348
 5202SOL     OW16504   3.844   2.320   5.983
 5202SOL    HW116505   3.796   2.330   5.896
 5202SOL    HW216506   3.857   2.223   6.002
 5203SOL     OW16507   0.753   0.443   5.733
 5203SOL    HW116508   0.717   0.350   5.744
 5203SOL    HW216509   0.853   0.439   5.724
 5204SOL     OW16510   2.204   0.440   2.322
 5204SOL    HW116511   2.271   0.484   2.263
 5204SOL    HW216512   2.115   0.440   2.277
 5205SOL     OW16513   6.458   6.987   1.833
 5205SOL    HW116514   6.400   6.957   1.909
 5205SOL    HW216515   6.524   6.915   1.811
 5206SOL     OW16516   1.111   5.370   5.223
 5206SOL    HW116517   1.035   5.361   5.288
 5206SOL    HW216518   1.156   5.282   5.210
 5207SOL     OW16519   5.021   1.435   4.700
 5207SOL    HW116520   4.924   1.410   4.708
 5207SOL    HW216521   5.060   1.444   4.792
 5208SOL     OW16522   6.829   1.535   0.073
 5208SOL    HW116523   6.765   1.528   0.149
 5208SOL    HW216524   6.922   1.520   0.107
 5209SOL     OW16525   5.425   5.923   2.353
 5209SOL    HW116526   5.326   5.929   2.367
 5209SOL    HW216527   5.463   6.015   2.347
 5210SOL     OW16528   6.457   4.435   1.560
 5210SOL    HW116529   6.511   4.421   1.643
 5210SOL    HW216530   6.514   4.415   1.480
 5211SOL     OW16531   4.806   2.972   4.558
 5211SOL    HW116532   4.861   2.913   4.499
 5211SOL    HW216533   4.859   3.053   4.583
 5212SOL     OW16534   6.570   3.666   6.829
 5212SOL    HW116535   6.552   3.726   6.907
 5212SOL    HW216536   6.631   3.712   6.765
 5213SOL     OW16537   3.556   3.224   4.284
 5213SOL    HW116538   3.590   3.283   4.357
 5213SOL    HW216539   3.470   3.181   4.313
 5214SOL     OW16540   6.016   2.646   5.477
 5214SOL    HW116541   6.070   2.704   5.538
 5214SOL    HW216542   6.013   2.553   5.513
 5215SOL     OW16543   0.583   4.728   4.910
 5215SOL    HW116544   0.636   4.806   4.876
 5215SOL    HW216545   0.613   4.706   5.002
 5216SOL     OW16546   6.811   4.401   0.306
 5216SOL    HW116547   6.795   4.314   0.260
 5216SOL    HW216548   6.793   4.391   0.404
 5217SOL     OW16549   3.258   0.602   2.500
 5217SOL    HW116550   3.334   0.637   2.444
 5217SOL    HW216551   3.291   0.531   2.561
 5218SOL     OW16552   5.887   0.211   0.874
 5218SOL    HW116553   5.852   0.120   0.851
 5218SOL    HW216554   5.961   0.203   0.941
 5219SOL     OW16555   4.146   1.896   4.826
 5219SOL    HW116556   4.058   1.942   4.809
 5219SOL    HW216557   4.220   1.952   4.789
 5220SOL     OW16558   1.856   4.364   4.646
 5220SOL    HW116559   1.771   4.321   4.678
 5220SOL    HW216560   1.880   4.327   4.556
 5221SOL     OW16561   3.887   6.365   0.656
 5221SOL    HW116562   3.953   6.329   0.723
 5221SOL    HW216563   3.811   6.407   0.705
 5222SOL     OW16564   5.613   3.118   2.362
 5222SOL    HW116565   5.562   3.172   2.296
 5222SOL    HW216566   5.635   3.029   2.323
 5223SOL     OW16567   6.758   2.101   0.496
 5223SOL    HW116568   6.851   2.133   0.477
 5223SOL    HW216569   6.701   2.112   0.415
 5224SOL     OW16570   1.685   1.620   4.562
 5224SOL    HW116571   1.682   1.612   4.662
 5224SOL    HW216572   1.735   1.703   4.537
 5225SOL     OW16573   6.632   2.269   5.828
 5225SOL    HW116574   6.663   2.208   5.755
 5225SOL    HW216575   6.532   2.277   5.824
 5226SOL     OW16576   0.135   0.155   4.221
 5226SOL    HW116577   0.115   0.152   4.319
 5226SOL    HW216578   0.050   0.155   4.169
 5227SOL     OW16579   2.546   2.497   6.556
 5227SOL    HW116580   2.574   2.574   6.614
 5227SOL    HW216581   2.540   2.529   6.461
 5228SOL     OW16582   0.858   2.211   5.469
 5228SOL    HW116583   0.875   2.310   5.461
 5228SOL    HW216584   0.759   2.195   5.472
 5229SOL     OW16585   3.779   1.242   0.736
 5229SOL    HW116586   3.782   1.169   0.804
 5229SOL    HW216587   3.689   1.286   0.738
 5230SOL     OW16588   6.503   0.796   1.758
 5230SOL    HW116589   6.544   0.774   1.847
 5230SOL    HW216590   6.458   0.885   1.763
 5231SOL     OW16591   6.630   4.050   1.625
 5231SOL    HW116592   6.676   3.961   1.628
 5231SOL    HW216593   6.603   4.076   1.718
 5232SOL     OW16594   1.790   1.668   6.282
 5232SOL    HW116595   1.733   1.749   6.267
 5232SOL    HW216596   1.731   1.588   6.298
 5233SOL     OW16597   2.124   6.661   3.489
 5233SOL    HW116598   2.199   6.693   3.547
 5233SOL    HW216599   2.045   6.720   3.502
 5234SOL     OW16600   3.772   2.319   6.398
 5234SOL    HW116601   3.701   2.274   6.343
 5234SOL    HW216602   3.733   2.397   6.446
 5235SOL     OW16603   2.427   3.019   1.444
 5235SOL    HW116604   2.449   3.011   1.347
 5235SOL    HW216605   2.510   3.003   1.498
 5236SOL     OW16606   3.001   5.057   1.926
 5236SOL    HW116607   3.036   5.110   2.003
 5236SOL    HW216608   2.964   4.971   1.959
 5237SOL     OW16609   1.513   1.262   1.490
 5237SOL    HW116610   1.557   1.351   1.501
 5237SOL    HW216611   1.449   1.266   1.412
 5238SOL     OW16612   6.532   0.941   3.205
 5238SOL    HW116613   6.456   0.893   3.251
 5238SOL    HW216614   6.495   1.012   3.145
 5239SOL     OW16615   2.885   3.783   6.655
 5239SOL    HW116616   2.786   3.772   6.657
 5239SOL    HW216617   2.920   3.756   6.565
 5240SOL     OW16618   1.541   3.971   5.478
 5240SOL    HW116619   1.589   4.048   5.521
 5240SOL    HW216620   1.604   3.895   5.467
 5241SOL     OW16621   2.313   5.203   3.264
 5241SOL    HW116622   2.337   5.120   3.315
 5241SOL    HW216623   2.223   5.191   3.222
 5242SOL     OW16624   4.074   6.211   5.763
 5242SOL    HW116625   4.158   6.262   5.748
 5242SOL    HW216626   4.090   6.114   5.744
 5243SOL     OW16627   1.914   5.323   3.954
 5243SOL    HW116628   2.007   5.358   3.941
 5243SOL    HW216629   1.913   5.257   4.029
 5244SOL     OW16630   5.053   0.436   6.874
 5244SOL    HW116631   4.990   0.412   6.948
 5244SOL    HW216632   5.002   0.474   6.797
 5245SOL     OW16633   3.420   3.514   1.351
 5245SOL    HW116634   3.396   3.498   1.447
 5245SOL    HW216635   3.497   3.578   1.346
 5246SOL     OW16636   6.343   2.256   5.834
 5246SOL    HW116637   6.353   2.227   5.929
 5246SOL    HW216638   6.300   2.346   5.831
 5247SOL     OW16639   4.985   0.919   5.351
 5247SOL    HW116640   4.985   0.840   5.413
 5247SOL    HW216641   4.991   1.003   5.405
 5248SOL     OW16642   4.112   0.801   2.377
 5248SOL    HW116643   4.046   0.728   2.394
 5248SOL    HW216644   4.205   0.763   2.383
 5249SOL     OW16645   0.279   5.906   1.935
 5249SOL    HW116646   0.374   5.913   1.904
 5249SOL    HW216647   0.234   5.831   1.886
 5250SOL     OW16648   1.362   5.120   6.979
 5250SOL    HW116649   1.441   5.082   6.932
 5250SOL    HW216650   1.382   5.213   7.010
 5251SOL     OW16651   1.502   3.959   6.127
 5251SOL    HW116652   1.456   4.047   6.139
 5251SOL    HW216653   1.588   3.973   6.079
 5252SOL     OW16654   3.995   5.996   3.329
 5252SOL    HW116655   3.905   5.987   3.286
 5252SOL    HW216656   4.056   6.046   3.268
 5253SOL     OW16657   0.463   6.252   4.923
 5253SOL    HW116658   0.531   6.321   4.898
 5253SOL    HW216659   0.506   6.183   4.982
 5254SOL     OW16660   4.315   6.192   1.874
 5254SOL    HW116661   4.295   6.256   1.948
 5254SOL    HW216662   4.350   6.107   1.912
 5255SOL     OW16663   0.393   1.363   6.098
 5255SOL    HW116664   0.299   1.383   6.073
 5255SOL    HW216665   0.445   1.448   6.106
 5256SOL     OW16666   4.417   1.512   2.728
 5256SOL    HW116667   4.423   1.528   2.826
 5256SOL    HW216668   4.322   1.491   2.704
 5257SOL     OW16669   5.835   0.978   0.187
 5257SOL    HW116670   5.840   0.942   0.094
 5257SOL    HW216671   5.754   1.035   0.197
 5258SOL     OW16672   5.945   1.841   5.363
 5258SOL    HW116673   5.884   1.763   5.375
 5258SOL    HW216674   5.896   1.915   5.316
 5259SOL     OW16675   4.477   6.194   4.466
 5259SOL    HW116676   4.515   6.150   4.547
 5259SOL    HW216677   4.385   6.228   4.486
 5260SOL     OW16678   1.063   6.329   2.077
 5260SOL    HW116679   1.061   6.394   2.001
 5260SOL    HW216680   1.007   6.250   2.054
 5261SOL     OW16681   6.258   4.214   6.809
 5261SOL    HW116682   6.332   4.279   6.789
 5261SOL    HW216683   6.192   4.215   6.734
 5262SOL     OW16684   2.011   2.166   2.030
 5262SOL    HW116685   2.106   2.173   2.002
 5262SOL    HW216686   2.003   2.103   2.107
 5263SOL     OW16687   0.346   6.291   2.220
 5263SOL    HW116688   0.422   6.226   2.222
 5263SOL    HW216689   0.348   6.347   2.302
 5264SOL     OW16690   6.178   2.756   2.354
 5264SOL    HW116691   6.246   2.789   2.288
 5264SOL    HW216692   6.204   2.788   2.446
 5265SOL     OW16693   1.109   5.979   6.027
 5265SOL    HW116694   1.159   5.898   5.997
 5265SOL    HW216695   1.063   6.021   5.948
 5266SOL     OW16696   0.623   0.090   6.286
 5266SOL    HW116697   0.669   0.178   6.271
 5266SOL    HW216698   0.553   0.078   6.217
 5267SOL     OW16699   6.166   1.561   4.855
 5267SOL    HW116700   6.207   1.600   4.773
 5267SOL    HW216701   6.082   1.512   4.831
 5268SOL     OW16702   5.153   0.484   5.980
 5268SOL    HW116703   5.243   0.495   5.936
 5268SOL    HW216704   5.084   0.466   5.910
 5269SOL     OW16705   1.232   0.356   4.061
 5269SOL    HW116706   1.180   0.334   3.978
 5269SOL    HW216707   1.317   0.403   4.035
 5270SOL     OW16708   1.651   1.825   7.010
 5270SOL    HW116709   1.622   1.760   6.940
 5270SOL    HW216710   1.750   1.822   7.019
 5271SOL     OW16711   1.682   5.909   6.748
 5271SOL    HW116712   1.593   5.868   6.767
 5271SOL    HW216713   1.740   5.900   6.829
 5272SOL     OW16714   4.129   0.149   5.763
 5272SOL    HW116715   4.132   0.161   5.664
 5272SOL    HW216716   4.121   0.052   5.785
 5273SOL     OW16717   1.994   1.713   3.656
 5273SOL    HW116718   1.919   1.776   3.635
 5273SOL    HW216719   2.074   1.766   3.685
 5274SOL     OW16720   6.405   5.064   0.775
 5274SOL    HW116721   6.340   5.086   0.703
 5274SOL    HW216722   6.396   5.131   0.849
 5275SOL     OW16723   5.385   0.770   6.731
 5275SOL    HW116724   5.400   0.681   6.687
 5275SOL    HW216725   5.328   0.758   6.812
 5276SOL     OW16726   2.996   6.245   1.432
 5276SOL    HW116727   2.943   6.168   1.397
 5276SOL    HW216728   2.980   6.325   1.374
 5277SOL     OW16729   1.507   3.360   1.263
 5277SOL    HW116730   1.578   3.404   1.318
 5277SOL    HW216731   1.445   3.308   1.323
 5278SOL     OW16732   3.698   4.141   4.461
 5278SOL    HW116733   3.601   4.161   4.475
 5278SOL    HW216734   3.737   4.207   4.397
 5279SOL     OW16735   1.425   0.067   2.935
 5279SOL    HW116736   1.502   0.111   2.890
 5279SOL    HW216737   1.351   0.133   2.946
 5280SOL     OW16738   3.879   0.156   3.792
 5280SOL    HW116739   3.868   0.235   3.852
 5280SOL    HW216740   3.976   0.129   3.789
 5281SOL     OW16741   6.933   2.955   3.468
 5281SOL    HW116742   6.890   3.002   3.391
 5281SOL    HW216743   7.012   2.904   3.435
 5282SOL     OW16744   5.186   2.629   1.078
 5282SOL    HW116745   5.264   2.615   1.139
 5282SOL    HW216746   5.106   2.581   1.116
 5283SOL     OW16747   4.739   5.071   4.733
 5283SOL    HW116748   4.748   5.076   4.634
 5283SOL    HW216749   4.761   5.160   4.773
 5284SOL     OW16750   5.652   2.454   4.195
 5284SOL    HW116751   5.742   2.465   4.152
 5284SOL    HW216752   5.587   2.517   4.152
 5285SOL     OW16753   4.349   5.440   2.612
 5285SOL    HW116754   4.298   5.356   2.598
 5285SOL    HW216755   4.341   5.468   2.708
 5286SOL     OW16756   1.824   4.691   2.145
 5286SOL    HW116757   1.820   4.595   2.118
 5286SOL    HW216758   1.867   4.698   2.235
 5287SOL     OW16759   0.379   0.640   2.995
 5287SOL    HW116760   0.431   0.723   2.974
 5287SOL    HW216761   0.420   0.562   2.946
 5288SOL     OW16762   3.757   0.671   0.885
 5288SOL    HW116763   3.739   0.583   0.842
 5288SOL    HW216764   3.672   0.706   0.925
 5289SOL     OW16765   1.585   6.958   1.706
 5289SOL    HW116766   1.599   0.034   1.690
 5289SOL    HW216767   1.500   6.930   1.661
 5290SOL     OW16768   5.589   6.840   6.651
 5290SOL    HW116769   5.616   6.879   6.738
 5290SOL    HW216770   5.515   6.894   6.611
 5291SOL     OW16771   1.432   5.374   7.017
 5291SOL    HW116772   1.389   5.420   0.073
 5291SOL    HW216773   1.503   5.432   6.979
 5292SOL     OW16774   5.536   1.504   1.718
 5292SOL    HW116775   5.559   1.412   1.686
 5292SOL    HW216776   5.492   1.555   1.644
 5293SOL     OW16777   2.162   1.450   4.226
 5293SOL    HW116778   2.208   1.496   4.150
 5293SOL    HW216779   2.230   1.399   4.280
 5294SOL     OW16780   3.520   1.939   6.831
 5294SOL    HW116781   3.474   1.854   6.855
 5294SOL    HW216782   3.614   1.937   6.865
 5295SOL     OW16783   0.345   1.922   3.396
 5295SOL    HW116784   0.256   1.909   3.438
 5295SOL    HW216785   0.417   1.899   3.462
 5296SOL     OW16786   0.228   3.351   6.097
 5296SOL    HW116787   0.243   3.350   5.998
 5296SOL    HW216788   0.289   3.286   6.141
 5297SOL     OW16789   0.865   1.989   2.171
 5297SOL    HW116790   0.838   1.948   2.083
 5297SOL    HW216791   0.809   2.070   2.188
 5298SOL     OW16792   0.668   3.473   1.998
 5298SOL    HW116793   0.609   3.415   2.054
 5298SOL    HW216794   0.663   3.443   1.903
 5299SOL     OW16795   3.790   0.489   0.144
 5299SOL    HW116796   3.809   0.407   0.199
 5299SOL    HW216797   3.746   0.558   0.201
 5300SOL     OW16798   6.406   4.999   4.623
 5300SOL    HW116799   6.358   5.038   4.702
 5300SOL    HW216800   6.502   4.984   4.646
 5301SOL     OW16801   5.405   0.006   6.553
 5301SOL    HW116802   5.436   0.047   6.467
 5301SOL    HW216803   5.380   0.079   6.617
 5302SOL     OW16804   0.272   3.433   2.626
 5302SOL    HW116805   0.369   3.454   2.623
 5302SOL    HW216806   0.239   3.441   2.720
 5303SOL     OW16807   2.091   4.501   2.264
 5303SOL    HW116808   2.163   4.438   2.294
 5303SOL    HW216809   2.129   4.567   2.199
 5304SOL     OW16810   4.849   1.877   5.798
 5304SOL    HW116811   4.798   1.800   5.760
 5304SOL    HW216812   4.796   1.961   5.786
 5305SOL     OW16813   4.109   1.601   4.839
 5305SOL    HW116814   4.051   1.589   4.759
 5305SOL    HW216815   4.138   1.697   4.844
 5306SOL     OW16816   2.631   6.748   3.518
 5306SOL    HW116817   2.563   6.771   3.449
 5306SOL    HW216818   2.614   6.801   3.601
 5307SOL     OW16819   5.026   6.383   6.722
 5307SOL    HW116820   5.083   6.361   6.643
 5307SOL    HW216821   5.003   6.480   6.720
 5308SOL     OW16822   6.600   1.411   1.322
 5308SOL    HW116823   6.558   1.323   1.346
 5308SOL    HW216824   6.604   1.468   1.404
 5309SOL     OW16825   3.474   4.157   6.109
 5309SOL    HW116826   3.554   4.143   6.167
 5309SOL    HW216827   3.493   4.228   6.042
 5310SOL     OW16828   5.226   2.462   0.421
 5310SOL    HW116829   5.267   2.406   0.349
 5310SOL    HW216830   5.240   2.418   0.510
 5311SOL     OW16831   7.008   5.308   6.926
 5311SOL    HW116832   6.914   5.316   6.893
 5311SOL    HW216833   7.007   5.285   0.002
 5312SOL     OW16834   0.604   3.732   1.930
 5312SOL    HW116835   0.685   3.761   1.879
 5312SOL    HW216836   0.615   3.636   1.957
 5313SOL     OW16837   0.321   6.128   6.396
 5313SOL    HW116838   0.266   6.190   6.341
 5313SOL    HW216839   0.289   6.130   6.491
 5314SOL     OW16840   4.145   4.298   0.861
 5314SOL    HW116841   4.144   4.247   0.947
 5314SOL    HW216842   4.209   4.255   0.798
 5315SOL     OW16843   5.697   1.051   2.544
 5315SOL    HW116844   5.712   1.146   2.573
 5315SOL    HW216845   5.631   1.008   2.605
 5316SOL     OW16846   5.062   5.402   4.369
 5316SOL    HW116847   5.161   5.409   4.375
 5316SOL    HW216848   5.020   5.486   4.403
 5317SOL     OW16849   0.379   4.954   1.218
 5317SOL    HW116850   0.407   5.010   1.295
 5317SOL    HW216851   0.295   4.905   1.241
 5318SOL     OW16852   6.305   2.775   3.905
 5318SOL    HW116853   6.369   2.791   3.830
 5318SOL    HW216854   6.228   2.839   3.897
 5319SOL     OW16855   2.688   6.308   2.704
 5319SOL    HW116856   2.655   6.216   2.685
 5319SOL    HW216857   2.725   6.349   2.621
 5320SOL     OW16858   6.502   2.176   6.894
 5320SOL    HW116859   6.484   2.255   6.953
 5320SOL    HW216860   6.537   2.207   6.806
 5321SOL     OW16861   3.249   5.189   0.044
 5321SOL    HW116862   3.223   5.094   0.028
 5321SOL    HW216863   3.168   5.242   0.071
 5322SOL     OW16864   3.230   6.544   0.420
 5322SOL    HW116865   3.186   6.587   0.342
 5322SOL    HW216866   3.186   6.456   0.439
 5323SOL     OW16867   6.539   3.264   0.432
 5323SOL    HW116868   6.549   3.198   0.357
 5323SOL    HW216869   6.623   3.264   0.487
 5324SOL     OW16870   3.755   3.698   2.510
 5324SOL    HW116871   3.676   3.745   2.471
 5324SOL    HW216872   3.781   3.622   2.450
 5325SOL     OW16873   2.985   6.855   5.789
 5325SOL    HW116874   3.062   6.797   5.815
 5325SOL    HW216875   2.901   6.820   5.830
 5326SOL     OW16876   6.278   1.150   4.285
 5326SOL    HW116877   6.185   1.168   4.316
 5326SOL    HW216878   6.309   1.062   4.321
 5327SOL     OW16879   6.498   6.851   4.030
 5327SOL    HW116880   6.445   6.783   3.979
 5327SOL    HW216881   6.492   6.831   4.128
 5328SOL     OW16882   2.487   5.192   6.088
 5328SOL    HW116883   2.550   5.240   6.149
 5328SOL    HW216884   2.540   5.149   6.014
 5329SOL     OW16885   0.112   0.040   6.200
 5329SOL    HW116886   0.081   0.135   6.196
 5329SOL    HW216887   0.117   0.011   6.296
 5330SOL     OW16888   4.749   4.062   0.385
 5330SOL    HW116889   4.771   4.084   0.290
 5330SOL    HW216890   4.831   4.030   0.432
 5331SOL     OW16891   5.994   0.637   0.144
 5331SOL    HW116892   5.941   0.580   0.080
 5331SOL    HW216893   5.979   0.733   0.124
 5332SOL     OW16894   0.046   3.260   0.034
 5332SOL    HW116895   0.114   3.193   0.004
 5332SOL    HW216896   0.048   3.340   6.994
 5333SOL     OW16897   0.098   6.841   4.404
 5333SOL    HW116898   0.176   6.799   4.357
 5333SOL    HW216899   0.122   6.861   4.498
 5334SOL     OW16900   3.088   5.783   0.945
 5334SOL    HW116901   3.068   5.747   0.853
 5334SOL    HW216902   3.157   5.726   0.989
 5335SOL     OW16903   6.823   5.445   1.914
 5335SOL    HW116904   6.773   5.434   2.000
 5335SOL    HW216905   6.921   5.459   1.934
 5336SOL     OW16906   1.299   3.038   5.558
 5336SOL    HW116907   1.258   3.128   5.540
 5336SOL    HW216908   1.380   3.049   5.615
 5337SOL     OW16909   6.473   2.374   0.939
 5337SOL    HW116910   6.541   2.300   0.946
 5337SOL    HW216911   6.513   2.459   0.972
 5338SOL     OW16912   6.812   2.764   1.884
 5338SOL    HW116913   6.899   2.757   1.835
 5338SOL    HW216914   6.748   2.819   1.830
 5339SOL     OW16915   4.851   3.749   2.840
 5339SOL    HW116916   4.834   3.724   2.935
 5339SOL    HW216917   4.851   3.848   2.831
 5340SOL     OW16918   5.469   4.059   1.099
 5340SOL    HW116919   5.382   4.081   1.055
 5340SOL    HW216920   5.480   3.960   1.104
 5341SOL     OW16921   4.846   5.373   3.421
 5341SOL    HW116922   4.834   5.336   3.513
 5341SOL    HW216923   4.893   5.306   3.364
 5342SOL     OW16924   5.854   5.207   4.573
 5342SOL    HW116925   5.895   5.203   4.482
 5342SOL    HW216926   5.816   5.298   4.588
 5343SOL     OW16927   3.416   3.753   0.147
 5343SOL    HW116928   3.400   3.691   0.070
 5343SOL    HW216929   3.353   3.831   0.142
 5344SOL     OW16930   6.486   1.636   0.007
 5344SOL    HW116931   6.441   1.547   0.011
 5344SOL    HW216932   6.463   1.681   6.942
 5345SOL     OW16933   3.570   0.810   6.686
 5345SOL    HW116934   3.576   0.766   6.596
 5345SOL    HW216935   3.593   0.744   6.757
 5346SOL     OW16936   2.593   5.541   3.242
 5346SOL    HW116937   2.516   5.572   3.298
 5346SOL    HW216938   2.617   5.447   3.268
 5347SOL     OW16939   5.737   2.408   5.328
 5347SOL    HW116940   5.786   2.495   5.339
 5347SOL    HW216941   5.697   2.382   5.416
 5348SOL     OW16942   5.195   2.646   5.319
 5348SOL    HW116943   5.139   2.716   5.365
 5348SOL    HW216944   5.138   2.566   5.299
 5349SOL     OW16945   1.221   4.172   0.457
 5349SOL    HW116946   1.267   4.254   0.425
 5349SOL    HW216947   1.154   4.142   0.389
 5350SOL     OW16948   1.288   0.202   6.556
 5350SOL    HW116949   1.313   0.256   6.636
 5350SOL    HW216950   1.196   0.227   6.525
 5351SOL     OW16951   0.605   5.823   3.391
 5351SOL    HW116952   0.606   5.828   3.491
 5351SOL    HW216953   0.696   5.843   3.356
 5352SOL     OW16954   0.662   2.386   6.101
 5352SOL    HW116955   0.683   2.292   6.128
 5352SOL    HW216956   0.721   2.449   6.151
 5353SOL     OW16957   2.221   6.372   2.809
 5353SOL    HW116958   2.140   6.347   2.861
 5353SOL    HW216959   2.193   6.407   2.719
 5354SOL     OW16960   2.876   5.863   1.479
 5354SOL    HW116961   2.844   5.953   1.449
 5354SOL    HW216962   2.904   5.810   1.399
 5355SOL     OW16963   4.934   3.973   5.867
 5355SOL    HW116964   4.984   4.008   5.788
 5355SOL    HW216965   4.996   3.968   5.946
 5356SOL     OW16966   0.021   6.792   1.684
 5356SOL    HW116967   7.009   6.730   1.614
 5356SOL    HW216968   0.112   6.764   1.713
 5357SOL     OW16969   6.372   3.296   2.306
 5357SOL    HW116970   6.360   3.341   2.218
 5357SOL    HW216971   6.352   3.360   2.380
 5358SOL     OW16972   5.437   6.858   6.132
 5358SOL    HW116973   5.478   6.946   6.110
 5358SOL    HW216974   5.483   6.785   6.081
 5359SOL     OW16975   3.337   1.724   6.912
 5359SOL    HW116976   3.261   1.785   6.888
 5359SOL    HW216977   3.305   1.655   6.977
 5360SOL     OW16978   5.450   5.848   3.219
 5360SOL    HW116979   5.389   5.777   3.253
 5360SOL    HW216980   5.412   5.938   3.239
 5361SOL     OW16981   1.304   4.153   2.527
 5361SOL    HW116982   1.378   4.218   2.509
 5361SOL    HW216983   1.225   4.176   2.471
 5362SOL     OW16984   5.866   1.669   4.056
 5362SOL    HW116985   5.887   1.765   4.039
 5362SOL    HW216986   5.949   1.614   4.050
 5363SOL     OW16987   6.270   4.627   6.333
 5363SOL    HW116988   6.216   4.552   6.293
 5363SOL    HW216989   6.352   4.641   6.278
 5364SOL     OW16990   5.096   2.421   1.417
 5364SOL    HW116991   5.049   2.503   1.448
 5364SOL    HW216992   5.107   2.423   1.318
 5365SOL     OW16993   3.288   3.567   6.232
 5365SOL    HW116994   3.367   3.627   6.249
 5365SOL    HW216995   3.219   3.617   6.180
 5366SOL     OW16996   6.868   4.168   3.859
 5366SOL    HW116997   6.855   4.238   3.929
 5366SOL    HW216998   6.937   4.198   3.793
 5367SOL     OW16999   6.018   5.606   0.834
 5367SOL    HW117000   5.998   5.623   0.930
 5367SOL    HW217001   6.117   5.609   0.820
 5368SOL     OW17002   0.376   5.540   5.106
 5368SOL    HW117003   0.374   5.640   5.106
 5368SOL    HW217004   0.314   5.505   5.036
 5369SOL     OW17005   3.315   0.388   2.641
 5369SOL    HW117006   3.259   0.337   2.707
 5369SOL    HW217007   3.332   0.330   2.561
 5370SOL     OW17008   2.436   2.385   0.228
 5370SOL    HW117009   2.449   2.307   0.167
 5370SOL    HW217010   2.415   2.353   0.320
 5371SOL     OW17011   6.370   5.021   3.327
 5371SOL    HW117012   6.406   5.030   3.420
 5371SOL    HW217013   6.276   5.057   3.325
 5372SOL     OW17014   0.660   1.388   4.447
 5372SOL    HW117015   0.564   1.408   4.464
 5372SOL    HW217016   0.673   1.362   4.352
 5373SOL     OW17017   3.795   0.026   0.669
 5373SOL    HW117018   3.731   6.989   0.619
 5373SOL    HW217019   3.886   0.017   0.630
 5374SOL     OW17020   1.676   3.622   1.138
 5374SOL    HW117021   1.608   3.559   1.101
 5374SOL    HW217022   1.766   3.599   1.102
 5375SOL     OW17023   3.004   5.126   5.004
 5375SOL    HW117024   3.028   5.033   5.034
 5375SOL    HW217025   2.912   5.125   4.964
 5376SOL     OW17026   6.854   6.721   2.513
 5376SOL    HW117027   6.820   6.669   2.434
 5376SOL    HW217028   6.805   6.691   2.595
 5377SOL     OW17029   0.698   2.732   1.123
 5377SOL    HW117030   0.734   2.818   1.088
 5377SOL    HW217031   0.688   2.739   1.223
 5378SOL     OW17032   4.278   0.353   4.288
 5378SOL    HW117033   4.355   0.289   4.283
 5378SOL    HW217034   4.194   0.306   4.261
 5379SOL     OW17035   3.414   2.145   4.459
 5379SOL    HW117036   3.379   2.237   4.444
 5379SOL    HW217037   3.424   2.128   4.557
 5380SOL     OW17038   4.463   6.945   1.389
 5380SOL    HW117039   4.444   0.012   1.346
 5380SOL    HW217040   4.504   6.883   1.321
 5381SOL     OW17041   2.511   1.928   2.798
 5381SOL    HW117042   2.602   1.944   2.835
 5381SOL    HW217043   2.517   1.905   2.701
 5382SOL     OW17044   4.650   0.423   2.964
 5382SOL    HW117045   4.640   0.325   2.977
 5382SOL    HW217046   4.581   0.472   3.017
 5383SOL     OW17047   2.367   4.376   5.306
 5383SOL    HW117048   2.322   4.291   5.277
 5383SOL    HW217049   2.422   4.411   5.230
 5384SOL     OW17050   5.708   6.246   5.822
 5384SOL    HW117051   5.779   6.178   5.805
 5384SOL    HW217052   5.707   6.270   5.919
 5385SOL     OW17053   3.535   3.923   0.960
 5385SOL    HW117054   3.477   4.000   0.989
 5385SOL    HW217055   3.564   3.872   1.041
 5386SOL     OW17056   4.038   5.029   2.455
 5386SOL    HW117057   4.128   4.992   2.433
 5386SOL    HW217058   4.008   4.993   2.543
 5387SOL     OW17059   0.703   2.813   5.227
 5387SOL    HW117060   0.683   2.864   5.143
 5387SOL    HW217061   0.783   2.852   5.272
 5388SOL     OW17062   6.820   6.591   3.317
 5388SOL    HW117063   6.908   6.624   3.283
 5388SOL    HW217064   6.811   6.493   3.298
 5389SOL     OW17065   6.426   1.754   4.607
 5389SOL    HW117066   6.432   1.657   4.582
 5389SOL    HW217067   6.519   1.792   4.615
 5390SOL     OW17068   5.425   2.715   3.213
 5390SOL    HW117069   5.349   2.727   3.149
 5390SOL    HW217070   5.482   2.639   3.183
 5391SOL     OW17071   4.564   3.416   1.320
 5391SOL    HW117072   4.596   3.324   1.343
 5391SOL    HW217073   4.617   3.484   1.372
 5392SOL     OW17074   5.294   0.947   3.909
 5392SOL    HW117075   5.198   0.920   3.917
 5392SOL    HW217076   5.328   0.979   3.997
 5393SOL     OW17077   4.871   3.082   2.719
 5393SOL    HW117078   4.853   3.126   2.807
 5393SOL    HW217079   4.896   3.151   2.651
 5394SOL     OW17080   0.662   2.822   3.402
 5394SOL    HW117081   0.679   2.860   3.493
 5394SOL    HW217082   0.748   2.790   3.363
 5395SOL     OW17083   0.931   0.667   1.498
 5395SOL    HW117084   0.893   0.575   1.486
 5395SOL    HW217085   0.989   0.690   1.420
 5396SOL     OW17086   4.038   2.284   0.484
 5396SOL    HW117087   4.093   2.367   0.479
 5396SOL    HW217088   4.058   2.236   0.570
 5397SOL     OW17089   0.909   6.625   3.063
 5397SOL    HW117090   0.932   6.547   3.122
 5397SOL    HW217091   0.952   6.707   3.099
 5398SOL     OW17092   5.508   2.052   3.466
 5398SOL    HW117093   5.481   2.055   3.370
 5398SOL    HW217094   5.481   2.137   3.511
 5399SOL     OW17095   2.840   2.371   0.110
 5399SOL    HW117096   2.801   2.298   0.165
 5399SOL    HW217097   2.767   2.433   0.079
 5400SOL     OW17098   4.668   3.064   1.077
 5400SOL    HW117099   4.722   2.980   1.075
 5400SOL    HW217100   4.645   3.086   1.172
 5401SOL     OW17101   4.847   4.397   1.351
 5401SOL    HW117102   4.818   4.377   1.444
 5401SOL    HW217103   4.939   4.361   1.336
 5402SOL     OW17104   2.103   5.472   1.774
 5402SOL    HW117105   2.049   5.389   1.764
 5402SOL    HW217106   2.071   5.522   1.855
 5403SOL     OW17107   6.255   2.753   4.930
 5403SOL    HW117108   6.299   2.730   4.843
 5403SOL    HW217109   6.167   2.797   4.912
 5404SOL     OW17110   4.642   6.330   0.178
 5404SOL    HW117111   4.711   6.359   0.111
 5404SOL    HW217112   4.640   6.395   0.254
 5405SOL     OW17113   6.000   5.395   6.010
 5405SOL    HW117114   6.056   5.463   5.964
 5405SOL    HW217115   6.039   5.375   6.100
 5406SOL     OW17116   2.179   1.317   5.434
 5406SOL    HW117117   2.202   1.414   5.443
 5406SOL    HW217118   2.215   1.267   5.513
 5407SOL     OW17119   1.839   1.944   2.571
 5407SOL    HW117120   1.776   1.976   2.642
 5407SOL    HW217121   1.792   1.941   2.483
 5408SOL     OW17122   2.357   2.761   4.364
 5408SOL    HW117123   2.388   2.667   4.350
 5408SOL    HW217124   2.283   2.763   4.431
 5409SOL     OW17125   0.083   4.805   3.583
 5409SOL    HW117126   0.016   4.751   3.635
 5409SOL    HW217127   0.172   4.798   3.627
 5410SOL     OW17128   6.175   1.462   0.058
 5410SOL    HW117129   6.126   1.508   0.132
 5410SOL    HW217130   6.239   1.396   0.098
 5411SOL     OW17131   2.879   6.178   2.063
 5411SOL    HW117132   2.970   6.214   2.044
 5411SOL    HW217133   2.885   6.081   2.083
 5412SOL     OW17134   2.373   2.507   5.630
 5412SOL    HW117135   2.456   2.453   5.619
 5412SOL    HW217136   2.353   2.517   5.727
 5413SOL     OW17137   6.871   5.296   5.570
 5413SOL    HW117138   6.936   5.260   5.637
 5413SOL    HW217139   6.912   5.291   5.479
 5414SOL     OW17140   6.178   5.654   5.456
 5414SOL    HW117141   6.274   5.680   5.438
 5414SOL    HW217142   6.171   5.554   5.460
 5415SOL     OW17143   2.090   0.415   0.322
 5415SOL    HW117144   2.122   0.472   0.397
 5415SOL    HW217145   1.995   0.437   0.300
 5416SOL     OW17146   4.073   4.817   6.130
 5416SOL    HW117147   4.082   4.741   6.194
 5416SOL    HW217148   4.147   4.813   6.063
 5417SOL     OW17149   5.205   0.390   1.966
 5417SOL    HW117150   5.231   0.344   1.882
 5417SOL    HW217151   5.127   0.451   1.947
 5418SOL     OW17152   0.319   2.605   5.992
 5418SOL    HW117153   0.306   2.664   6.071
 5418SOL    HW217154   0.347   2.514   6.022
 5419SOL     OW17155   4.268   2.434   5.734
 5419SOL    HW117156   4.326   2.484   5.798
 5419SOL    HW217157   4.217   2.364   5.783
 5420SOL     OW17158   1.579   2.083   1.420
 5420SOL    HW117159   1.532   2.132   1.347
 5420SOL    HW217160   1.526   2.002   1.446
 5421SOL     OW17161   3.873   5.561   0.892
 5421SOL    HW117162   3.781   5.522   0.899
 5421SOL    HW217163   3.873   5.653   0.930
 5422SOL     OW17164   2.407   6.382   3.203
 5422SOL    HW117165   2.448   6.406   3.291
 5422SOL    HW217166   2.332   6.445   3.183
 5423SOL     OW17167   4.275   6.503   2.728
 5423SOL    HW117168   4.368   6.497   2.691
 5423SOL    HW217169   4.278   6.550   2.816
 5424SOL     OW17170   4.153   3.232   6.057
 5424SOL    HW117171   4.117   3.190   6.140
 5424SOL    HW217172   4.120   3.183   5.977
 5425SOL     OW17173   1.956   5.600   4.524
 5425SOL    HW117174   2.035   5.540   4.513
 5425SOL    HW217175   1.971   5.660   4.603
 5426SOL     OW17176   2.037   4.006   6.962
 5426SOL    HW117177   2.069   4.016   0.035
 5426SOL    HW217178   2.029   4.096   6.920
 5427SOL     OW17179   4.757   0.985   0.251
 5427SOL    HW117180   4.819   1.062   0.267
 5427SOL    HW217181   4.764   0.956   0.156
 5428SOL     OW17182   4.930   5.623   2.373
 5428SOL    HW117183   4.941   5.665   2.463
 5428SOL    HW217184   4.910   5.694   2.305
 5429SOL     OW17185   2.644   6.205   3.338
 5429SOL    HW117186   2.664   6.235   3.245
 5429SOL    HW217187   2.601   6.279   3.389
 5430SOL     OW17188   0.846   3.733   5.331
 5430SOL    HW117189   0.777   3.801   5.304
 5430SOL    HW217190   0.920   3.778   5.381
 5431SOL     OW17191   5.336   4.476   0.892
 5431SOL    HW117192   5.367   4.541   0.822
 5431SOL    HW217193   5.268   4.415   0.852
 5432SOL     OW17194   2.050   5.027   5.614
 5432SOL    HW117195   2.012   5.029   5.706
 5432SOL    HW217196   2.076   4.934   5.590
 5433SOL     OW17197   3.023   0.029   1.619
 5433SOL    HW117198   3.048   0.041   1.523
 5433SOL    HW217199   3.063   6.966   1.654
 5434SOL     OW17200   5.486   5.814   4.237
 5434SOL    HW117201   5.429   5.767   4.304
 5434SOL    HW217202   5.566   5.853   4.282
 5435SOL     OW17203   0.657   3.093   0.074
 5435SOL    HW117204   0.688   3.072   0.167
 5435SOL    HW217205   0.663   3.010   0.018
 5436SOL     OW17206   1.217   4.575   0.782
 5436SOL    HW117207   1.191   4.538   0.872
 5436SOL    HW217208   1.157   4.537   0.712
 5437SOL     OW17209   2.952   6.537   6.053
 5437SOL    HW117210   2.868   6.574   6.013
 5437SOL    HW217211   2.929   6.473   6.127
 5438SOL     OW17212   4.616   6.576   3.464
 5438SOL    HW117213   4.635   6.562   3.367
 5438SOL    HW217214   4.568   6.496   3.500
 5439SOL     OW17215   1.471   3.343   2.140
 5439SOL    HW117216   1.422   3.255   2.132
 5439SOL    HW217217   1.488   3.380   2.049
 5440SOL     OW17218   5.137   6.390   3.180
 5440SOL    HW117219   5.222   6.442   3.170
 5440SOL    HW217220   5.062   6.452   3.205
 5441SOL     OW17221   5.793   0.303   4.970
 5441SOL    HW117222   5.872   0.356   4.999
 5441SOL    HW217223   5.736   0.358   4.909
 5442SOL     OW17224   2.888   6.169   6.902
 5442SOL    HW117225   2.962   6.139   6.961
 5442SOL    HW217226   2.838   6.090   6.867
 5443SOL     OW17227   6.237   1.323   3.127
 5443SOL    HW117228   6.176   1.347   3.051
 5443SOL    HW217229   6.190   1.341   3.214
 5444SOL     OW17230   2.126   1.753   6.599
 5444SOL    HW117231   2.224   1.736   6.589
 5444SOL    HW217232   2.079   1.721   6.517
 5445SOL     OW17233   6.228   6.711   5.284
 5445SOL    HW117234   6.133   6.687   5.267
 5445SOL    HW217235   6.287   6.662   5.220
 5446SOL     OW17236   2.554   4.054   6.912
 5446SOL    HW117237   2.599   3.976   6.956
 5446SOL    HW217238   2.455   4.036   6.906
 5447SOL     OW17239   5.501   2.810   2.043
 5447SOL    HW117240   5.426   2.867   2.076
 5447SOL    HW217241   5.484   2.787   1.947
 5448SOL     OW17242   6.005   5.600   1.124
 5448SOL    HW117243   6.059   5.525   1.161
 5448SOL    HW217244   5.961   5.651   1.198
 5449SOL     OW17245   1.854   6.906   2.586
 5449SOL    HW117246   1.929   6.885   2.523
 5449SOL    HW217247   1.862   7.000   2.618
 5450SOL     OW17248   4.295   4.602   1.802
 5450SOL    HW117249   4.203   4.604   1.763
 5450SOL    HW217250   4.349   4.531   1.756
 5451SOL     OW17251   0.596   5.551   3.400
 5451SOL    HW117252   0.688   5.513   3.387
 5451SOL    HW217253   0.595   5.647   3.372
 5452SOL     OW17254   2.130   3.784   3.425
 5452SOL    HW117255   2.087   3.694   3.416
 5452SOL    HW217256   2.160   3.815   3.335
 5453SOL     OW17257   6.062   5.639   4.295
 5453SOL    HW117258   6.075   5.602   4.203
 5453SOL    HW217259   6.036   5.735   4.289
 5454SOL     OW17260   6.611   4.139   1.874
 5454SOL    HW117261   6.659   4.144   1.961
 5454SOL    HW217262   6.520   4.100   1.888
 5455SOL     OW17263   2.004   2.345   2.830
 5455SOL    HW117264   2.078   2.381   2.888
 5455SOL    HW217265   2.030   2.255   2.796
 5456SOL     OW17266   5.639   2.976   0.222
 5456SOL    HW117267   5.597   2.902   0.170
 5456SOL    HW217268   5.589   2.989   0.307
 5457SOL     OW17269   5.683   1.115   0.730
 5457SOL    HW117270   5.726   1.205   0.721
 5457SOL    HW217271   5.619   1.101   0.655
 5458SOL     OW17272   6.082   4.605   6.082
 5458SOL    HW117273   6.163   4.635   6.032
 5458SOL    HW217274   6.000   4.627   6.030
 5459SOL     OW17275   1.970   3.564   5.371
 5459SOL    HW117276   2.004   3.471   5.383
 5459SOL    HW217277   2.038   3.629   5.405
 5460SOL     OW17278   6.812   1.197   1.297
 5460SOL    HW117279   6.816   1.175   1.395
 5460SOL    HW217280   6.809   1.296   1.286
 5461SOL     OW17281   5.731   0.700   6.264
 5461SOL    HW117282   5.763   0.788   6.300
 5461SOL    HW217283   5.729   0.703   6.164
 5462SOL     OW17284   5.590   4.721   0.271
 5462SOL    HW117285   5.637   4.700   0.357
 5462SOL    HW217286   5.614   4.814   0.242
 5463SOL     OW17287   3.413   4.612   0.018
 5463SOL    HW117288   3.318   4.580   0.019
 5463SOL    HW217289   3.463   4.571   0.095
 5464SOL     OW17290   2.410   5.781   4.182
 5464SOL    HW117291   2.488   5.758   4.124
 5464SOL    HW217292   2.396   5.880   4.182
 5465SOL     OW17293   0.633   1.384   4.756
 5465SOL    HW117294   0.713   1.376   4.698
 5465SOL    HW217295   0.605   1.293   4.787
 5466SOL     OW17296   5.056   2.123   4.883
 5466SOL    HW117297   4.972   2.177   4.877
 5466SOL    HW217298   5.046   2.053   4.953
 5467SOL     OW17299   4.899   4.596   3.269
 5467SOL    HW117300   4.900   4.600   3.369
 5467SOL    HW217301   4.863   4.682   3.233
 5468SOL     OW17302   0.286   2.410   1.183
 5468SOL    HW117303   0.333   2.497   1.164
 5468SOL    HW217304   0.353   2.340   1.204
 5469SOL     OW17305   4.670   1.023   3.069
 5469SOL    HW117306   4.615   1.001   2.988
 5469SOL    HW217307   4.624   0.988   3.150
 5470SOL     OW17308   2.597   4.589   3.719
 5470SOL    HW117309   2.592   4.556   3.624
 5470SOL    HW217310   2.676   4.649   3.729
 5471SOL     OW17311   5.321   0.477   3.907
 5471SOL    HW117312   5.315   0.506   3.811
 5471SOL    HW217313   5.291   0.552   3.966
 5472SOL     OW17314   2.886   4.274   0.187
 5472SOL    HW117315   2.802   4.319   0.157
 5472SOL    HW217316   2.872   4.234   0.278
 5473SOL     OW17317   2.967   4.807   2.023
 5473SOL    HW117318   2.889   4.744   2.027
 5473SOL    HW217319   3.020   4.788   1.940
 5474SOL     OW17320   0.767   5.468   1.933
 5474SOL    HW117321   0.782   5.384   1.985
 5474SOL    HW217322   0.680   5.510   1.960
 5475SOL     OW17323   0.508   0.937   5.591
 5475SOL    HW117324   0.497   0.844   5.556
 5475SOL    HW217325   0.605   0.954   5.607
 5476SOL     OW17326   3.115   1.238   4.418
 5476SOL    HW117327   3.025   1.282   4.417
 5476SOL    HW217328   3.161   1.256   4.505
 5477SOL     OW17329   2.155   3.860   3.161
 5477SOL    HW117330   2.156   3.790   3.090
 5477SOL    HW217331   2.093   3.934   3.135
 5478SOL     OW17332   6.347   2.981   5.611
 5478SOL    HW117333   6.353   3.077   5.585
 5478SOL    HW217334   6.434   2.953   5.653
 5479SOL     OW17335   5.322   4.099   4.578
 5479SOL    HW117336   5.377   4.017   4.559
 5479SOL    HW217337   5.229   4.071   4.602
 5480SOL     OW17338   2.078   2.664   6.187
 5480SOL    HW117339   2.054   2.741   6.246
 5480SOL    HW217340   2.058   2.688   6.092
 5481SOL     OW17341   3.393   0.924   0.788
 5481SOL    HW117342   3.441   0.964   0.710
 5481SOL    HW217343   3.432   0.959   0.873
 5482SOL     OW17344   5.178   4.392   1.948
 5482SOL    HW117345   5.264   4.413   1.995
 5482SOL    HW217346   5.172   4.445   1.864
 5483SOL     OW17347   5.806   1.612   0.837
 5483SOL    HW117348   5.888   1.670   0.835
 5483SOL    HW217349   5.730   1.660   0.793
 5484SOL     OW17350   5.964   0.300   6.068
 5484SOL    HW117351   6.010   0.212   6.051
 5484SOL    HW217352   6.022   0.374   6.032
 5485SOL     OW17353   3.063   1.289   3.724
 5485SOL    HW117354   3.152   1.243   3.720
 5485SOL    HW217355   3.065   1.369   3.665
 5486SOL     OW17356   7.007   0.625   3.775
 5486SOL    HW117357   0.055   0.561   3.742
 5486SOL    HW217358   0.029   0.695   3.832
 5487SOL     OW17359   4.237   5.618   1.262
 5487SOL    HW117360   4.321   5.565   1.277
 5487SOL    HW217361   4.220   5.677   1.340
 5488SOL     OW17362   4.869   0.246   6.425
 5488SOL    HW117363   4.885   0.303   6.506
 5488SOL    HW217364   4.898   0.152   6.444
 5489SOL     OW17365   6.682   3.768   2.518
 5489SOL    HW117366   6.718   3.847   2.567
 5489SOL    HW217367   6.618   3.719   2.578
 5490SOL     OW17368   3.084   1.182   6.798
 5490SOL    HW117369   3.035   1.104   6.760
 5490SOL    HW217370   3.022   1.261   6.802
 5491SOL     OW17371   6.132   6.853   1.587
 5491SOL    HW117372   6.147   6.763   1.545
 5491SOL    HW217373   6.217   6.885   1.629
 5492SOL     OW17374   1.774   1.460   5.221
 5492SOL    HW117375   1.824   1.526   5.165
 5492SOL    HW217376   1.782   1.369   5.180
 5493SOL     OW17377   3.850   0.933   7.014
 5493SOL    HW117378   3.925   0.992   6.985
 5493SOL    HW217379   3.828   0.952   0.088
 5494SOL     OW17380   5.291   3.253   2.348
 5494SOL    HW117381   5.338   3.305   2.277
 5494SOL    HW217382   5.304   3.298   2.437
 5495SOL     OW17383   3.553   3.288   4.932
 5495SOL    HW117384   3.457   3.314   4.936
 5495SOL    HW217385   3.562   3.191   4.954
 5496SOL     OW17386   4.488   5.038   1.988
 5496SOL    HW117387   4.403   5.091   1.988
 5496SOL    HW217388   4.548   5.072   2.061
 5497SOL     OW17389   5.458   0.092   0.071
 5497SOL    HW117390   5.542   0.103   0.016
 5497SOL    HW217391   5.437   0.179   0.115
 5498SOL     OW17392   3.866   1.006   4.152
 5498SOL    HW117393   3.907   1.021   4.242
 5498SOL    HW217394   3.841   1.095   4.113
 5499SOL     OW17395   0.334   0.689   4.909
 5499SOL    HW117396   0.350   0.609   4.967
 5499SOL    HW217397   0.421   0.733   4.888
 5500SOL     OW17398   2.137   6.648   0.588
 5500SOL    HW117399   2.177   6.718   0.647
 5500SOL    HW217400   2.207   6.581   0.563
 5501SOL     OW17401   2.248   1.199   2.180
 5501SOL    HW117402   2.295   1.287   2.170
 5501SOL    HW217403   2.149   1.214   2.185
 5502SOL     OW17404   5.385   4.657   0.711
 5502SOL    HW117405   5.343   4.590   0.650
 5502SOL    HW217406   5.395   4.744   0.662
 5503SOL     OW17407   6.696   0.777   3.867
 5503SOL    HW117408   6.781   0.758   3.818
 5503SOL    HW217409   6.687   0.876   3.880
 5504SOL     OW17410   2.543   2.167   5.098
 5504SOL    HW117411   2.523   2.148   5.194
 5504SOL    HW217412   2.590   2.255   5.090
 5505SOL     OW17413   3.703   4.832   0.471
 5505SOL    HW117414   3.682   4.866   0.563
 5505SOL    HW217415   3.670   4.738   0.461
 5506SOL     OW17416   1.259   6.851   5.045
 5506SOL    HW117417   1.190   6.783   5.067
 5506SOL    HW217418   1.226   6.910   4.971
 5507SOL     OW17419   2.405   5.203   5.011
 5507SOL    HW117420   2.482   5.149   5.044
 5507SOL    HW217421   2.320   5.162   5.042
 5508SOL     OW17422   2.453   1.037   5.784
 5508SOL    HW117423   2.397   1.102   5.730
 5508SOL    HW217424   2.497   1.086   5.859
 5509SOL     OW17425   6.902   0.256   5.894
 5509SOL    HW117426   6.912   0.356   5.894
 5509SOL    HW217427   6.990   0.214   5.872
 5510SOL     OW17428   1.113   0.226   5.418
 5510SOL    HW117429   1.061   0.307   5.442
 5510SOL    HW217430   1.067   0.145   5.453
 5511SOL     OW17431   0.105   2.428   0.855
 5511SOL    HW117432   0.203   2.423   0.834
 5511SOL    HW217433   0.061   2.492   0.792
 5512SOL     OW17434   6.359   6.507   0.217
 5512SOL    HW117435   6.289   6.441   0.242
 5512SOL    HW217436   6.354   6.526   0.119
 5513SOL     OW17437   2.642   6.087   4.268
 5513SOL    HW117438   2.601   6.038   4.345
 5513SOL    HW217439   2.582   6.161   4.239
 5514SOL     OW17440   5.556   5.867   3.476
 5514SOL    HW117441   5.546   5.824   3.386
 5514SOL    HW217442   5.488   5.828   3.539
 5515SOL     OW17443   0.585   4.026   3.651
 5515SOL    HW117444   0.532   4.111   3.648
 5515SOL    HW217445   0.659   4.030   3.583
 5516SOL     OW17446   2.106   3.055   0.141
 5516SOL    HW117447   2.108   3.143   0.189
 5516SOL    HW217448   2.046   2.992   0.190
 5517SOL     OW17449   3.005   0.737   2.512
 5517SOL    HW117450   2.935   0.678   2.472
 5517SOL    HW217451   3.095   0.693   2.504
 5518SOL     OW17452   5.722   3.478   5.573
 5518SOL    HW117453   5.711   3.576   5.590
 5518SOL    HW217454   5.636   3.439   5.539
 5519SOL     OW17455   5.674   4.136   2.252
 5519SOL    HW117456   5.670   4.193   2.170
 5519SOL    HW217457   5.581   4.112   2.280
 5520SOL     OW17458   1.401   3.029   0.915
 5520SOL    HW117459   1.449   2.975   0.984
 5520SOL    HW217460   1.348   2.968   0.856
 5521SOL     OW17461   5.375   4.486   6.534
 5521SOL    HW117462   5.441   4.527   6.597
 5521SOL    HW217463   5.423   4.455   6.452
 5522SOL     OW17464   1.576   2.909   1.472
 5522SOL    HW117465   1.646   2.842   1.447
 5522SOL    HW217466   1.612   2.969   1.544
 5523SOL     OW17467   2.299   6.341   1.654
 5523SOL    HW117468   2.266   6.312   1.744
 5523SOL    HW217469   2.394   6.371   1.662
 5524SOL     OW17470   6.229   6.697   5.615
 5524SOL    HW117471   6.158   6.662   5.553
 5524SOL    HW217472   6.189   6.760   5.681
 5525SOL     OW17473   6.565   6.451   3.127
 5525SOL    HW117474   6.478   6.408   3.153
 5525SOL    HW217475   6.641   6.404   3.172
 5526SOL     OW17476   5.761   3.619   4.595
 5526SOL    HW117477   5.771   3.606   4.496
 5526SOL    HW217478   5.851   3.618   4.638
 5527SOL     OW17479   2.867   3.063   0.322
 5527SOL    HW117480   2.848   2.967   0.300
 5527SOL    HW217481   2.815   3.089   0.403
 5528SOL     OW17482   6.406   2.946   2.877
 5528SOL    HW117483   6.485   2.902   2.835
 5528SOL    HW217484   6.373   3.019   2.817
 5529SOL     OW17485   1.409   0.755   4.079
 5529SOL    HW117486   1.473   0.775   4.153
 5529SOL    HW217487   1.397   0.836   4.022
 5530SOL     OW17488   6.820   3.327   6.717
 5530SOL    HW117489   6.816   3.413   6.767
 5530SOL    HW217490   6.745   3.268   6.747
 5531SOL     OW17491   2.922   3.336   0.670
 5531SOL    HW117492   2.830   3.373   0.683
 5531SOL    HW217493   2.932   3.252   0.723
 5532SOL     OW17494   2.593   2.400   2.003
 5532SOL    HW117495   2.535   2.377   2.082
 5532SOL    HW217496   2.674   2.342   2.003
 5533SOL     OW17497   3.065   0.444   1.007
 5533SOL    HW117498   2.991   0.480   0.951
 5533SOL    HW217499   3.092   0.513   1.074
 5534SOL     OW17500   0.553   3.366   5.202
 5534SOL    HW117501   0.651   3.346   5.200
 5534SOL    HW217502   0.518   3.350   5.294
 5535SOL     OW17503   4.750   4.494   3.533
 5535SOL    HW117504   4.788   4.442   3.610
 5535SOL    HW217505   4.805   4.575   3.518
 5536SOL     OW17506   2.218   1.264   4.710
 5536SOL    HW117507   2.301   1.278   4.657
 5536SOL    HW217508   2.143   1.239   4.649
 5537SOL     OW17509   3.618   1.320   3.601
 5537SOL    HW117510   3.550   1.257   3.562
 5537SOL    HW217511   3.574   1.406   3.624
 5538SOL     OW17512   4.897   2.505   2.632
 5538SOL    HW117513   4.934   2.415   2.609
 5538SOL    HW217514   4.819   2.525   2.574
 5539SOL     OW17515   1.500   0.679   6.499
 5539SOL    HW117516   1.408   0.714   6.511
 5539SOL    HW217517   1.496   0.581   6.475
 5540SOL     OW17518   5.047   6.987   4.984
 5540SOL    HW117519   5.040   0.012   5.072
 5540SOL    HW217520   5.140   6.952   4.972
 5541SOL     OW17521   4.325   3.087   5.722
 5541SOL    HW117522   4.363   3.002   5.683
 5541SOL    HW217523   4.273   3.135   5.651
 5542SOL     OW17524   4.624   4.426   6.764
 5542SOL    HW117525   4.557   4.372   6.816
 5542SOL    HW217526   4.586   4.448   6.674
 5543SOL     OW17527   0.616   0.556   6.206
 5543SOL    HW117528   0.693   0.493   6.220
 5543SOL    HW217529   0.583   0.548   6.113
 5544SOL     OW17530   3.893   5.031   0.409
 5544SOL    HW117531   3.892   5.097   0.484
 5544SOL    HW217532   3.827   4.958   0.428
 5545SOL     OW17533   5.636   1.842   3.034
 5545SOL    HW117534   5.690   1.879   3.110
 5545SOL    HW217535   5.553   1.798   3.071
 5546SOL     OW17536   0.958   6.572   4.360
 5546SOL    HW117537   0.922   6.661   4.332
 5546SOL    HW217538   0.883   6.506   4.370
 5547SOL     OW17539   5.156   1.600   4.511
 5547SOL    HW117540   5.098   1.539   4.565
 5547SOL    HW217541   5.153   1.692   4.551
 5548SOL     OW17542   1.217   3.831   5.182
 5548SOL    HW117543   1.170   3.843   5.095
 5548SOL    HW217544   1.163   3.874   5.255
 5549SOL     OW17545   4.048   2.848   0.663
 5549SOL    HW117546   4.119   2.791   0.704
 5549SOL    HW217547   4.087   2.900   0.587
 5550SOL     OW17548   3.128   3.583   1.656
 5550SOL    HW117549   3.056   3.651   1.673
 5550SOL    HW217550   3.197   3.590   1.728
 5551SOL     OW17551   1.497   4.342   2.500
 5551SOL    HW117552   1.548   4.384   2.576
 5551SOL    HW217553   1.537   4.370   2.413
 5552SOL     OW17554   0.541   0.702   0.365
 5552SOL    HW117555   0.618   0.639   0.351
 5552SOL    HW217556   0.458   0.663   0.325
 5553SOL     OW17557   5.815   5.888   0.762
 5553SOL    HW117558   5.880   5.813   0.771
 5553SOL    HW217559   5.863   5.976   0.769
 5554SOL     OW17560   6.814   2.506   1.441
 5554SOL    HW117561   6.822   2.606   1.439
 5554SOL    HW217562   6.905   2.466   1.432
 5555SOL     OW17563   1.347   4.626   1.998
 5555SOL    HW117564   1.386   4.597   2.085
 5555SOL    HW217565   1.255   4.590   1.988
 5556SOL     OW17566   6.737   1.761   5.088
 5556SOL    HW117567   6.704   1.671   5.062
 5556SOL    HW217568   6.686   1.831   5.038
 5557SOL     OW17569   3.611   6.982   3.071
 5557SOL    HW117570   3.588   6.886   3.087
 5557SOL    HW217571   3.694   6.987   3.015
 5558SOL     OW17572   3.686   3.467   6.147
 5558SOL    HW117573   3.768   3.515   6.178
 5558SOL    HW217574   3.669   3.489   6.051
 5559SOL     OW17575   3.676   0.508   2.657
 5559SOL    HW117576   3.714   0.534   2.746
 5559SOL    HW217577   3.614   0.430   2.669
 5560SOL     OW17578   6.835   5.508   3.512
 5560SOL    HW117579   6.754   5.566   3.517
 5560SOL    HW217580   6.850   5.463   3.600
 5561SOL     OW17581   3.520   0.841   3.649
 5561SOL    HW117582   3.468   0.853   3.564
 5561SOL    HW217583   3.492   0.910   3.715
 5562SOL     OW17584   5.049   3.101   0.912
 5562SOL    HW117585   5.013   3.165   0.843
 5562SOL    HW217586   5.140   3.071   0.885
 5563SOL     OW17587   1.948   4.110   2.318
 5563SOL    HW117588   2.043   4.125   2.346
 5563SOL    HW217589   1.913   4.027   2.361
 5564SOL     OW17590   4.412   6.817   6.571
 5564SOL    HW117591   4.424   6.874   6.652
 5564SOL    HW217592   4.409   6.874   6.489
 5565SOL     OW17593   3.232   2.022   6.025
 5565SOL    HW117594   3.289   2.103   6.013
 5565SOL    HW217595   3.290   1.941   6.029
 5566SOL     OW17596   1.286   5.241   5.521
 5566SOL    HW117597   1.338   5.246   5.436
 5566SOL    HW217598   1.204   5.297   5.512
 5567SOL     OW17599   1.181   5.119   6.795
 5567SOL    HW117600   1.175   5.210   6.754
 5567SOL    HW217601   1.237   5.124   6.878
 5568SOL     OW17602   5.584   5.076   1.877
 5568SOL    HW117603   5.499   5.025   1.892
 5568SOL    HW217604   5.577   5.166   1.920
 5569SOL     OW17605   1.546   2.334   2.843
 5569SOL    HW117606   1.479   2.398   2.809
 5569SOL    HW217607   1.622   2.384   2.885
 5570SOL     OW17608   6.649   3.754   1.388
 5570SOL    HW117609   6.604   3.842   1.379
 5570SOL    HW217610   6.689   3.728   1.301
 5571SOL     OW17611   0.158   4.612   6.548
 5571SOL    HW117612   0.085   4.596   6.482
 5571SOL    HW217613   0.212   4.691   6.519
 5572SOL     OW17614   1.080   4.487   5.356
 5572SOL    HW117615   1.022   4.558   5.397
 5572SOL    HW217616   1.113   4.426   5.428
 5573SOL     OW17617   3.202   4.873   3.319
 5573SOL    HW117618   3.287   4.882   3.370
 5573SOL    HW217619   3.220   4.891   3.222
 5574SOL     OW17620   1.127   1.176   6.126
 5574SOL    HW117621   1.059   1.143   6.061
 5574SOL    HW217622   1.207   1.116   6.124
 5575SOL     OW17623   0.183   0.494   1.784
 5575SOL    HW117624   0.239   0.577   1.785
 5575SOL    HW217625   0.219   0.429   1.851
 5576SOL     OW17626   1.835   4.619   3.653
 5576SOL    HW117627   1.841   4.527   3.692
 5576SOL    HW217628   1.896   4.680   3.703
 5577SOL     OW17629   3.172   2.172   6.249
 5577SOL    HW117630   3.085   2.136   6.281
 5577SOL    HW217631   3.207   2.114   6.176
 5578SOL     OW17632   3.588   3.946   3.842
 5578SOL    HW117633   3.630   3.872   3.790
 5578SOL    HW217634   3.583   3.920   3.939
 5579SOL     OW17635   5.914   3.143   1.729
 5579SOL    HW117636   5.825   3.097   1.726
 5579SOL    HW217637   5.975   3.093   1.791
 5580SOL     OW17638   5.345   2.366   6.279
 5580SOL    HW117639   5.313   2.300   6.212
 5580SOL    HW217640   5.356   2.320   6.368
 5581SOL     OW17641   1.397   1.125   6.073
 5581SOL    HW117642   1.420   1.117   6.170
 5581SOL    HW217643   1.410   1.219   6.042
 5582SOL     OW17644   2.910   2.564   6.071
 5582SOL    HW117645   2.883   2.468   6.082
 5582SOL    HW217646   2.888   2.615   6.153
 5583SOL     OW17647   5.846   6.567   0.997
 5583SOL    HW117648   5.887   6.647   0.953
 5583SOL    HW217649   5.748   6.582   1.011
 5584SOL     OW17650   0.856   3.572   4.704
 5584SOL    HW117651   0.895   3.592   4.614
 5584SOL    HW217652   0.928   3.538   4.765
 5585SOL     OW17653   6.425   5.071   1.381
 5585SOL    HW117654   6.500   5.136   1.393
 5585SOL    HW217655   6.413   5.018   1.465
 5586SOL     OW17656   1.081   6.498   1.861
 5586SOL    HW117657   1.124   6.562   1.797
 5586SOL    HW217658   1.027   6.431   1.810
 5587SOL     OW17659   5.621   0.772   5.480
 5587SOL    HW117660   5.582   0.683   5.505
 5587SOL    HW217661   5.642   0.773   5.382
 5588SOL     OW17662   3.151   6.983   0.944
 5588SOL    HW117663   3.147   0.028   1.019
 5588SOL    HW217664   3.233   6.927   0.954
 5589SOL     OW17665   0.395   4.491   5.441
 5589SOL    HW117666   0.435   4.470   5.351
 5589SOL    HW217667   0.397   4.590   5.456
 5590SOL     OW17668   6.078   5.032   3.382
 5590SOL    HW117669   6.041   4.972   3.311
 5590SOL    HW217670   6.078   5.126   3.349
 5591SOL     OW17671   5.319   1.570   2.847
 5591SOL    HW117672   5.256   1.615   2.782
 5591SOL    HW217673   5.413   1.580   2.814
 5592SOL     OW17674   7.001   5.150   4.185
 5592SOL    HW117675   6.951   5.160   4.271
 5592SOL    HW217676   0.046   5.076   4.194
 5593SOL     OW17677   1.906   3.820   0.995
 5593SOL    HW117678   1.941   3.781   1.080
 5593SOL    HW217679   1.981   3.831   0.930
 5594SOL     OW17680   6.133   0.702   5.882
 5594SOL    HW117681   6.195   0.744   5.949
 5594SOL    HW217682   6.186   0.667   5.805
 5595SOL     OW17683   0.166   1.647   0.695
 5595SOL    HW117684   0.224   1.727   0.714
 5595SOL    HW217685   0.112   1.625   0.776
 5596SOL     OW17686   4.109   6.176   3.148
 5596SOL    HW117687   4.207   6.162   3.134
 5596SOL    HW217688   4.064   6.193   3.060
 5597SOL     OW17689   5.046   3.345   2.017
 5597SOL    HW117690   5.123   3.378   1.963
 5597SOL    HW217691   4.963   3.347   1.962
 5598SOL     OW17692   3.426   0.419   4.080
 5598SOL    HW117693   3.494   0.392   4.148
 5598SOL    HW217694   3.456   0.504   4.036
 5599SOL     OW17695   1.154   1.406   3.632
 5599SOL    HW117696   1.172   1.379   3.727
 5599SOL    HW217697   1.142   1.506   3.629
 5600SOL     OW17698   2.587   2.813   5.359
 5600SOL    HW117699   2.594   2.890   5.295
 5600SOL    HW217700   2.496   2.814   5.402
 5601SOL     OW17701   2.226   0.736   6.340
 5601SOL    HW117702   2.214   0.645   6.379
 5601SOL    HW217703   2.322   0.749   6.316
 5602SOL     OW17704   1.937   1.077   7.005
 5602SOL    HW117705   1.959   1.040   0.074
 5602SOL    HW217706   2.010   1.136   6.974
 5603SOL     OW17707   6.664   3.506   5.127
 5603SOL    HW117708   6.693   3.599   5.150
 5603SOL    HW217709   6.724   3.468   5.057
 5604SOL     OW17710   5.170   0.918   6.604
 5604SOL    HW117711   5.243   0.853   6.623
 5604SOL    HW217712   5.156   0.925   6.505
 5605SOL     OW17713   1.113   1.441   6.691
 5605SOL    HW117714   1.085   1.446   6.787
 5605SOL    HW217715   1.121   1.345   6.664
 5606SOL     OW17716   5.937   7.012   2.873
 5606SOL    HW117717   6.031   7.016   2.839
 5606SOL    HW217718   5.929   6.937   2.939
 5607SOL     OW17719   5.005   0.885   1.267
 5607SOL    HW117720   4.955   0.971   1.257
 5607SOL    HW217721   4.967   0.818   1.203
 5608SOL     OW17722   3.413   6.659   5.105
 5608SOL    HW117723   3.347   6.651   5.179
 5608SOL    HW217724   3.408   6.578   5.046
 5609SOL     OW17725   1.342   6.214   4.662
 5609SOL    HW117726   1.373   6.188   4.754
 5609SOL    HW217727   1.375   6.307   4.641
 5610SOL     OW17728   4.907   0.481   6.625
 5610SOL    HW117729   4.946   0.560   6.578
 5610SOL    HW217730   4.807   0.488   6.622
 5611SOL     OW17731   1.901   3.935   4.099
 5611SOL    HW117732   1.900   4.029   4.133
 5611SOL    HW217733   1.970   3.882   4.149
 5612SOL     OW17734   3.630   6.485   4.400
 5612SOL    HW117735   3.641   6.554   4.471
 5612SOL    HW217736   3.535   6.453   4.398
 5613SOL     OW17737   2.814   5.048   2.386
 5613SOL    HW117738   2.812   4.960   2.340
 5613SOL    HW217739   2.788   5.120   2.321
 5614SOL     OW17740   4.858   2.056   4.648
 5614SOL    HW117741   4.876   1.993   4.724
 5614SOL    HW217742   4.806   2.134   4.681
 5615SOL     OW17743   0.739   1.539   1.685
 5615SOL    HW117744   0.690   1.608   1.738
 5615SOL    HW217745   0.822   1.579   1.646
 5616SOL     OW17746   2.328   6.739   4.808
 5616SOL    HW117747   2.343   6.795   4.727
 5616SOL    HW217748   2.326   6.643   4.783
 5617SOL     OW17749   0.542   1.299   5.858
 5617SOL    HW117750   0.515   1.225   5.796
 5617SOL    HW217751   0.463   1.328   5.912
 5618SOL     OW17752   6.318   4.747   3.546
 5618SOL    HW117753   6.243   4.804   3.513
 5618SOL    HW217754   6.383   4.730   3.472
 5619SOL     OW17755   2.141   3.575   5.127
 5619SOL    HW117756   2.096   3.581   5.216
 5619SOL    HW217757   2.144   3.479   5.098
 5620SOL     OW17758   4.822   1.994   6.606
 5620SOL    HW117759   4.801   2.046   6.689
 5620SOL    HW217760   4.809   2.052   6.526
 5621SOL     OW17761   2.587   1.305   6.457
 5621SOL    HW117762   2.594   1.294   6.357
 5621SOL    HW217763   2.518   1.242   6.492
 5622SOL     OW17764   5.544   0.523   5.614
 5622SOL    HW117765   5.570   0.484   5.526
 5622SOL    HW217766   5.616   0.503   5.681
 5623SOL     OW17767   6.887   6.083   6.729
 5623SOL    HW117768   6.866   6.138   6.648
 5623SOL    HW217769   6.843   5.994   6.720
 5624SOL     OW17770   1.073   4.390   2.719
 5624SOL    HW117771   1.131   4.432   2.650
 5624SOL    HW217772   1.128   4.333   2.779
 5625SOL     OW17773   6.930   1.696   5.456
 5625SOL    HW117774   6.955   1.755   5.532
 5625SOL    HW217775   7.012   1.649   5.422
 5626SOL     OW17776   5.612   6.956   5.340
 5626SOL    HW117777   5.567   6.868   5.327
 5626SOL    HW217778   5.617   7.005   5.253
 5627SOL     OW17779   1.435   0.589   1.495
 5627SOL    HW117780   1.424   0.550   1.403
 5627SOL    HW217781   1.348   0.586   1.543
 5628SOL     OW17782   1.607   1.334   4.582
 5628SOL    HW117783   1.648   1.424   4.566
 5628SOL    HW217784   1.515   1.345   4.618
 5629SOL     OW17785   3.607   3.376   3.513
 5629SOL    HW117786   3.647   3.427   3.589
 5629SOL    HW217787   3.534   3.316   3.547
 5630SOL     OW17788   6.504   3.850   0.607
 5630SOL    HW117789   6.480   3.926   0.668
 5630SOL    HW217790   6.584   3.875   0.552
 5631SOL     OW17791   5.826   1.437   6.138
 5631SOL    HW117792   5.846   1.339   6.129
 5631SOL    HW217793   5.875   1.473   6.217
 5632SOL     OW17794   3.159   2.219   0.826
 5632SOL    HW117795   3.132   2.277   0.749
 5632SOL    HW217796   3.220   2.146   0.792
 5633SOL     OW17797   0.194   2.679   5.736
 5633SOL    HW117798   0.245   2.659   5.652
 5633SOL    HW217799   0.240   2.637   5.814
 5634SOL     OW17800   5.108   5.952   5.251
 5634SOL    HW117801   5.140   5.904   5.333
 5634SOL    HW217802   5.185   5.970   5.191
 5635SOL     OW17803   3.175   1.697   6.331
 5635SOL    HW117804   3.240   1.717   6.404
 5635SOL    HW217805   3.143   1.603   6.339
 5636SOL     OW17806   4.609   0.397   4.481
 5636SOL    HW117807   4.664   0.474   4.515
 5636SOL    HW217808   4.628   0.384   4.383
 5637SOL     OW17809   6.006   6.700   2.968
 5637SOL    HW117810   5.956   6.652   3.040
 5637SOL    HW217811   6.062   6.772   3.008
 5638SOL     OW17812   0.253   3.767   7.008
 5638SOL    HW117813   0.204   3.827   6.944
 5638SOL    HW217814   0.307   3.700   6.957
 5639SOL     OW17815   4.230   6.761   6.937
 5639SOL    HW117816   4.137   6.727   6.953
 5639SOL    HW217817   4.289   6.684   6.910
 5640SOL     OW17818   1.698   6.828   3.637
 5640SOL    HW117819   1.653   6.905   3.591
 5640SOL    HW217820   1.731   6.858   3.726
 5641SOL     OW17821   6.956   5.685   4.824
 5641SOL    HW117822   6.967   5.723   4.916
 5641SOL    HW217823   6.952   5.759   4.757
 5642SOL     OW17824   1.641   1.216   0.496
 5642SOL    HW117825   1.607   1.215   0.401
 5642SOL    HW217826   1.677   1.307   0.517
 5643SOL     OW17827   5.306   2.033   6.380
 5643SOL    HW117828   5.328   1.938   6.362
 5643SOL    HW217829   5.273   2.077   6.296
 5644SOL     OW17830   2.682   0.235   5.821
 5644SOL    HW117831   2.691   0.262   5.725
 5644SOL    HW217832   2.683   0.135   5.827
 5645SOL     OW17833   5.409   3.753   4.276
 5645SOL    HW117834   5.371   3.845   4.282
 5645SOL    HW217835   5.439   3.723   4.367
 5646SOL     OW17836   0.461   4.127   2.653
 5646SOL    HW117837   0.510   4.101   2.570
 5646SOL    HW217838   0.525   4.167   2.718
 5647SOL     OW17839   4.649   5.821   2.754
 5647SOL    HW117840   4.716   5.837   2.826
 5647SOL    HW217841   4.657   5.727   2.721
 5648SOL     OW17842   5.668   6.398   3.295
 5648SOL    HW117843   5.693   6.302   3.278
 5648SOL    HW217844   5.569   6.409   3.286
 5649SOL     OW17845   0.188   0.272   4.814
 5649SOL    HW117846   0.258   0.301   4.750
 5649SOL    HW217847   0.227   0.261   4.905
 5650SOL     OW17848   0.340   3.804   6.116
 5650SOL    HW117849   0.274   3.820   6.189
 5650SOL    HW217850   0.293   3.770   6.035
 5651SOL     OW17851   2.632   1.415   1.431
 5651SOL    HW117852   2.600   1.346   1.496
 5651SOL    HW217853   2.563   1.430   1.361
 5652SOL     OW17854   0.546   6.098   2.913
 5652SOL    HW117855   0.640   6.132   2.917
 5652SOL    HW217856   0.498   6.141   2.836
 5653SOL     OW17857   6.606   0.468   2.856
 5653SOL    HW117858   6.515   0.509   2.862
 5653SOL    HW217859   6.599   0.379   2.811
 5654SOL     OW17860   3.264   6.187   5.806
 5654SOL    HW117861   3.200   6.202   5.882
 5654SOL    HW217862   3.353   6.159   5.843
 5655SOL     OW17863   6.204   3.611   4.487
 5655SOL    HW117864   6.205   3.565   4.398
 5655SOL    HW217865   6.284   3.582   4.539
 5656SOL     OW17866   0.355   4.301   1.336
 5656SOL    HW117867   0.330   4.263   1.425
 5656SOL    HW217868   0.324   4.396   1.331
 5657SOL     OW17869   6.214   6.349   5.150
 5657SOL    HW117870   6.273   6.363   5.071
 5657SOL    HW217871   6.268   6.310   5.225
 5658SOL     OW17872   2.976   2.556   5.763
 5658SOL    HW117873   2.916   2.618   5.713
 5658SOL    HW217874   2.924   2.511   5.835
 5659SOL     OW17875   2.341   4.269   6.274
 5659SOL    HW117876   2.353   4.170   6.261
 5659SOL    HW217877   2.312   4.309   6.187
 5660SOL     OW17878   3.992   0.320   4.292
 5660SOL    HW117879   3.925   0.392   4.272
 5660SOL    HW217880   4.033   0.337   4.382
 5661SOL     OW17881   0.414   5.918   5.919
 5661SOL    HW117882   0.471   5.923   6.002
 5661SOL    HW217883   0.447   5.985   5.852
 5662SOL     OW17884   2.510   6.112   0.999
 5662SOL    HW117885   2.466   6.160   0.923
 5662SOL    HW217886   2.589   6.165   1.030
 5663SOL     OW17887   3.121   2.050   6.616
 5663SOL    HW117888   3.163   2.141   6.628
 5663SOL    HW217889   3.056   2.053   6.540
 5664SOL     OW17890   5.053   5.375   4.631
 5664SOL    HW117891   5.030   5.472   4.636
 5664SOL    HW217892   5.030   5.340   4.540
 5665SOL     OW17893   1.981   0.666   0.780
 5665SOL    HW117894   1.942   0.655   0.872
 5665SOL    HW217895   2.017   0.579   0.749
 5666SOL     OW17896   5.749   3.202   4.686
 5666SOL    HW117897   5.770   3.214   4.589
 5666SOL    HW217898   5.834   3.201   4.739
 5667SOL     OW17899   2.597   4.653   3.975
 5667SOL    HW117900   2.569   4.582   4.040
 5667SOL    HW217901   2.567   4.628   3.883
 5668SOL     OW17902   4.336   4.683   3.998
 5668SOL    HW117903   4.396   4.617   3.953
 5668SOL    HW217904   4.272   4.721   3.931
 5669SOL     OW17905   6.024   3.719   5.504
 5669SOL    HW117906   6.055   3.762   5.588
 5669SOL    HW217907   6.028   3.786   5.429
 5670SOL     OW17908   1.202   3.236   3.958
 5670SOL    HW117909   1.174   3.214   3.864
 5670SOL    HW217910   1.301   3.237   3.964
 5671SOL     OW17911   6.249   5.798   2.727
 5671SOL    HW117912   6.192   5.863   2.678
 5671SOL    HW217913   6.259   5.827   2.822
 5672SOL     OW17914   5.328   3.256   4.698
 5672SOL    HW117915   5.351   3.242   4.602
 5672SOL    HW217916   5.368   3.182   4.752
 5673SOL     OW17917   0.594   1.879   0.550
 5673SOL    HW117918   0.624   1.960   0.600
 5673SOL    HW217919   0.494   1.872   0.555
 5674SOL     OW17920   2.824   5.761   5.103
 5674SOL    HW117921   2.770   5.840   5.134
 5674SOL    HW217922   2.876   5.787   5.022
 5675SOL     OW17923   3.461   2.367   0.819
 5675SOL    HW117924   3.363   2.362   0.799
 5675SOL    HW217925   3.475   2.359   0.918
 5676SOL     OW17926   3.606   1.011   2.043
 5676SOL    HW117927   3.526   0.985   1.989
 5676SOL    HW217928   3.605   0.963   2.130
 5677SOL     OW17929   1.163   1.450   6.203
 5677SOL    HW117930   1.134   1.354   6.193
 5677SOL    HW217931   1.082   1.509   6.207
 5678SOL     OW17932   4.004   1.883   2.034
 5678SOL    HW117933   4.069   1.835   1.974
 5678SOL    HW217934   3.913   1.845   2.022
 5679SOL     OW17935   0.644   3.791   5.955
 5679SOL    HW117936   0.626   3.827   5.864
 5679SOL    HW217937   0.604   3.699   5.964
 5680SOL     OW17938   0.456   5.381   4.866
 5680SOL    HW117939   0.510   5.464   4.879
 5680SOL    HW217940   0.361   5.399   4.888
 5681SOL     OW17941   1.439   3.341   3.078
 5681SOL    HW117942   1.349   3.313   3.042
 5681SOL    HW217943   1.470   3.423   3.030
 5682SOL     OW17944   2.124   4.680   0.789
 5682SOL    HW117945   2.097   4.719   0.877
 5682SOL    HW217946   2.221   4.699   0.772
 5683SOL     OW17947   6.814   6.854   5.854
 5683SOL    HW117948   6.779   6.946   5.836
 5683SOL    HW217949   6.747   6.804   5.909
 5684SOL     OW17950   1.517   3.191   4.958
 5684SOL    HW117951   1.487   3.278   4.996
 5684SOL    HW217952   1.565   3.206   4.872
 5685SOL     OW17953   1.593   2.125   2.058
 5685SOL    HW117954   1.591   2.026   2.041
 5685SOL    HW217955   1.542   2.145   2.142
 5686SOL     OW17956   5.879   5.410   5.265
 5686SOL    HW117957   5.874   5.464   5.349
 5686SOL    HW217958   5.790   5.412   5.219
 5687SOL     OW17959   1.156   0.373   6.783
 5687SOL    HW117960   1.215   0.415   6.714
 5687SOL    HW217961   1.166   0.421   6.870
 5688SOL     OW17962   1.594   2.548   2.401
 5688SOL    HW117963   1.646   2.463   2.408
 5688SOL    HW217964   1.635   2.616   2.462
 5689SOL     OW17965   6.783   1.700   0.838
 5689SOL    HW117966   6.780   1.784   0.785
 5689SOL    HW217967   6.783   1.621   0.776
 5690SOL     OW17968   2.876   5.164   0.143
 5690SOL    HW117969   2.924   5.093   0.092
 5690SOL    HW217970   2.837   5.124   0.227
 5691SOL     OW17971   4.853   2.908   3.878
 5691SOL    HW117972   4.756   2.907   3.852
 5691SOL    HW217973   4.910   2.898   3.797
 5692SOL     OW17974   6.869   5.063   1.597
 5692SOL    HW117975   6.865   5.147   1.650
 5692SOL    HW217976   6.778   5.042   1.561
 5693SOL     OW17977   3.067   1.155   2.221
 5693SOL    HW117978   3.164   1.134   2.205
 5693SOL    HW217979   3.046   1.139   2.318
 5694SOL     OW17980   0.448   6.861   1.073
 5694SOL    HW117981   0.385   6.795   1.034
 5694SOL    HW217982   0.506   6.898   1.000
 5695SOL     OW17983   1.994   1.265   2.135
 5695SOL    HW117984   1.944   1.280   2.221
 5695SOL    HW217985   1.930   1.237   2.064
 5696SOL     OW17986   0.294   0.630   3.493
 5696SOL    HW117987   0.267   0.726   3.485
 5696SOL    HW217988   0.307   0.591   3.402
 5697SOL     OW17989   5.893   1.996   0.647
 5697SOL    HW117990   5.850   2.030   0.563
 5697SOL    HW217991   5.945   1.914   0.627
 5698SOL     OW17992   2.938   2.267   3.087
 5698SOL    HW117993   2.908   2.267   2.991
 5698SOL    HW217994   2.947   2.361   3.119
 5699SOL     OW17995   2.502   2.418   2.620
 5699SOL    HW117996   2.413   2.389   2.585
 5699SOL    HW217997   2.492   2.447   2.715
 5700SOL     OW17998   5.712   0.088   2.130
 5700SOL    HW117999   5.744   0.005   2.176
 5700SOL    HW218000   5.617   0.076   2.101
 5701SOL     OW18001   1.703   0.255   0.517
 5701SOL    HW118002   1.649   0.189   0.464
 5701SOL    HW218003   1.658   0.344   0.516
 5702SOL     OW18004   1.213   6.404   4.971
 5702SOL    HW118005   1.299   6.356   4.983
 5702SOL    HW218006   1.217   6.460   4.888
 5703SOL     OW18007   1.263   2.774   6.150
 5703SOL    HW118008   1.353   2.773   6.104
 5703SOL    HW218009   1.273   2.738   6.242
 5704SOL     OW18010   3.873   5.681   4.594
 5704SOL    HW118011   3.932   5.721   4.524
 5704SOL    HW218012   3.930   5.653   4.672
 5705SOL     OW18013   5.493   1.301   4.892
 5705SOL    HW118014   5.479   1.290   4.793
 5705SOL    HW218015   5.566   1.368   4.907
 5706SOL     OW18016   5.316   1.057   1.079
 5706SOL    HW118017   5.310   0.989   1.153
 5706SOL    HW218018   5.305   1.149   1.118
 5707SOL     OW18019   5.681   5.934   1.489
 5707SOL    HW118020   5.654   5.853   1.540
 5707SOL    HW218021   5.623   6.011   1.516
 5708SOL     OW18022   5.559   6.527   2.339
 5708SOL    HW118023   5.556   6.584   2.257
 5708SOL    HW218024   5.637   6.553   2.396
 5709SOL     OW18025   0.227   2.350   2.011
 5709SOL    HW118026   0.147   2.411   2.001
 5709SOL    HW218027   0.226   2.309   2.101
 5710SOL     OW18028   5.496   1.411   0.860
 5710SOL    HW118029   5.539   1.439   0.946
 5710SOL    HW218030   5.488   1.311   0.858
 5711SOL     OW18031   4.211   1.322   2.387
 5711SOL    HW118032   4.278   1.272   2.332
 5711SOL    HW218033   4.259   1.376   2.456
 5712SOL     OW18034   6.758   6.264   6.557
 5712SOL    HW118035   6.734   6.324   6.634
 5712SOL    HW218036   6.675   6.238   6.508
 5713SOL     OW18037   1.161   1.665   0.386
 5713SOL    HW118038   1.068   1.637   0.363
 5713SOL    HW218039   1.161   1.710   0.475
 5714SOL     OW18040   5.749   0.124   1.323
 5714SOL    HW118041   5.820   0.096   1.387
 5714SOL    HW218042   5.718   0.045   1.270
 5715SOL     OW18043   0.216   6.184   0.976
 5715SOL    HW118044   0.151   6.108   0.980
 5715SOL    HW218045   0.203   6.244   1.054
 5716SOL     OW18046   6.765   4.712   6.029
 5716SOL    HW118047   6.816   4.796   6.049
 5716SOL    HW218048   6.830   4.638   6.008
 5717SOL     OW18049   0.147   6.062   3.384
 5717SOL    HW118050   0.092   6.090   3.463
 5717SOL    HW218051   0.176   5.967   3.396
 5718SOL     OW18052   1.327   4.361   0.300
 5718SOL    HW118053   1.383   4.295   0.250
 5718SOL    HW218054   1.277   4.418   0.234
 5719SOL     OW18055   3.497   3.422   1.020
 5719SOL    HW118056   3.416   3.416   1.077
 5719SOL    HW218057   3.572   3.373   1.064
 5720SOL     OW18058   2.890   4.353   6.493
 5720SOL    HW118059   2.885   4.266   6.444
 5720SOL    HW218060   2.949   4.343   6.573
 5721SOL     OW18061   0.692   3.031   0.355
 5721SOL    HW118062   0.720   2.937   0.374
 5721SOL    HW218063   0.743   3.093   0.415
 5722SOL     OW18064   1.583   0.296   6.202
 5722SOL    HW118065   1.675   0.284   6.240
 5722SOL    HW218066   1.584   0.275   6.105
 5723SOL     OW18067   4.157   3.499   0.404
 5723SOL    HW118068   4.216   3.485   0.325
 5723SOL    HW218069   4.073   3.545   0.375
 5724SOL     OW18070   6.388   1.605   6.212
 5724SOL    HW118071   6.436   1.601   6.300
 5724SOL    HW218072   6.318   1.534   6.209
 5725SOL     OW18073   6.957   4.129   4.273
 5725SOL    HW118074   6.965   4.170   4.364
 5725SOL    HW218075   6.880   4.170   4.225
 5726SOL     OW18076   3.865   4.868   2.088
 5726SOL    HW118077   3.774   4.835   2.063
 5726SOL    HW218078   3.856   4.951   2.144
 5727SOL     OW18079   1.117   3.016   6.407
 5727SOL    HW118080   1.059   2.934   6.407
 5727SOL    HW218081   1.076   3.085   6.467
 5728SOL     OW18082   2.497   6.321   4.244
 5728SOL    HW118083   2.561   6.339   4.319
 5728SOL    HW218084   2.481   6.405   4.193
 5729SOL     OW18085   2.811   1.929   4.937
 5729SOL    HW118086   2.828   2.027   4.924
 5729SOL    HW218087   2.748   1.897   4.867
 5730SOL     OW18088   6.319   4.613   4.836
 5730SOL    HW118089   6.350   4.553   4.910
 5730SOL    HW218090   6.280   4.696   4.874
 5731SOL     OW18091   0.180   6.559   2.696
 5731SOL    HW118092   0.157   6.646   2.652
 5731SOL    HW218093   0.152   6.483   2.637
 5732SOL     OW18094   5.246   0.692   3.452
 5732SOL    HW118095   5.314   0.705   3.380
 5732SOL    HW218096   5.282   0.725   3.539
 5733SOL     OW18097   2.898   1.045   5.035
 5733SOL    HW118098   2.844   0.995   5.102
 5733SOL    HW218099   2.990   1.060   5.072
 5734SOL     OW18100   1.865   6.685   4.504
 5734SOL    HW118101   1.844   6.600   4.456
 5734SOL    HW218102   1.946   6.728   4.464
 5735SOL     OW18103   2.490   0.969   1.646
 5735SOL    HW118104   2.496   0.961   1.547
 5735SOL    HW218105   2.400   1.002   1.673
 5736SOL     OW18106   1.679   5.023   0.893
 5736SOL    HW118107   1.579   5.030   0.894
 5736SOL    HW218108   1.716   5.060   0.978
 5737SOL     OW18109   6.061   3.931   6.687
 5737SOL    HW118110   6.090   3.952   6.781
 5737SOL    HW218111   5.964   3.952   6.676
 5738SOL     OW18112   0.569   5.513   4.502
 5738SOL    HW118113   0.537   5.524   4.408
 5738SOL    HW218114   0.547   5.595   4.555
 5739SOL     OW18115   0.716   2.469   0.688
 5739SOL    HW118116   0.704   2.539   0.619
 5739SOL    HW218117   0.752   2.511   0.772
 5740SOL     OW18118   4.579   5.005   0.702
 5740SOL    HW118119   4.519   4.959   0.769
 5740SOL    HW218120   4.670   4.965   0.707
 5741SOL     OW18121   0.031   2.542   1.967
 5741SOL    HW118122   0.080   2.629   1.968
 5741SOL    HW218123   6.967   2.551   2.018
 5742SOL     OW18124   0.658   5.060   3.149
 5742SOL    HW118125   0.687   5.154   3.127
 5742SOL    HW218126   0.725   5.019   3.210
 5743SOL     OW18127   0.459   0.173   4.997
 5743SOL    HW118128   0.540   0.160   4.939
 5743SOL    HW218129   0.449   0.095   5.059
 5744SOL     OW18130   6.263   0.150   1.808
 5744SOL    HW118131   6.344   0.091   1.806
 5744SOL    HW218132   6.284   0.235   1.855
 5745SOL     OW18133   0.001   3.520   2.177
 5745SOL    HW118134   0.030   3.512   2.273
 5745SOL    HW218135   6.934   3.474   2.165
 5746SOL     OW18136   0.179   3.769   5.872
 5746SOL    HW118137   0.091   3.722   5.874
 5746SOL    HW218138   0.215   3.769   5.779
 5747SOL     OW18139   6.977   6.025   4.086
 5747SOL    HW118140   6.915   6.002   4.161
 5747SOL    HW218141   6.989   6.124   4.082
 5748SOL     OW18142   1.644   1.295   3.953
 5748SOL    HW118143   1.545   1.300   3.947
 5748SOL    HW218144   1.683   1.295   3.861
 5749SOL     OW18145   0.573   0.988   3.001
 5749SOL    HW118146   0.613   0.994   3.092
 5749SOL    HW218147   0.584   0.895   2.966
 5750SOL     OW18148   4.857   6.407   2.548
 5750SOL    HW118149   4.808   6.385   2.464
 5750SOL    HW218150   4.890   6.502   2.543
 5751SOL     OW18151   1.320   2.202   6.892
 5751SOL    HW118152   1.381   2.133   6.933
 5751SOL    HW218153   1.368   2.290   6.888
 5752SOL     OW18154   1.938   1.011   6.552
 5752SOL    HW118155   1.867   1.077   6.527
 5752SOL    HW218156   1.896   0.933   6.598
 5753SOL     OW18157   4.036   1.550   6.737
 5753SOL    HW118158   3.949   1.596   6.757
 5753SOL    HW218159   4.022   1.486   6.661
 5754SOL     OW18160   6.290   5.789   0.474
 5754SOL    HW118161   6.326   5.727   0.404
 5754SOL    HW218162   6.303   5.883   0.444
 5755SOL     OW18163   3.115   3.564   2.374
 5755SOL    HW118164   3.207   3.582   2.408
 5755SOL    HW218165   3.116   3.483   2.316
 5756SOL     OW18166   6.540   0.063   3.856
 5756SOL    HW118167   6.514   0.003   3.933
 5756SOL    HW218168   6.544   0.009   3.772
 5757SOL     OW18169   6.255   6.563   1.804
 5757SOL    HW118170   6.345   6.561   1.848
 5757SOL    HW218171   6.259   6.511   1.719
 5758SOL     OW18172   3.438   0.805   5.756
 5758SOL    HW118173   3.376   0.728   5.774
 5758SOL    HW218174   3.471   0.842   5.843
 5759SOL     OW18175   0.879   1.150   5.794
 5759SOL    HW118176   0.840   1.234   5.757
 5759SOL    HW218177   0.979   1.155   5.788
 5760SOL     OW18178   6.591   5.800   1.511
 5760SOL    HW118179   6.498   5.767   1.525
 5760SOL    HW218180   6.653   5.750   1.570
 5761SOL     OW18181   3.735   0.550   4.505
 5761SOL    HW118182   3.682   0.627   4.539
 5761SOL    HW218183   3.827   0.580   4.481
 5762SOL     OW18184   4.833   6.835   1.300
 5762SOL    HW118185   4.750   6.803   1.254
 5762SOL    HW218186   4.908   6.770   1.283
 5763SOL     OW18187   3.612   0.823   0.536
 5763SOL    HW118188   3.684   0.892   0.543
 5763SOL    HW218189   3.524   0.868   0.524
 5764SOL     OW18190   3.574   2.879   6.503
 5764SOL    HW118191   3.517   2.938   6.446
 5764SOL    HW218192   3.516   2.822   6.561
 5765SOL     OW18193   6.276   5.049   6.163
 5765SOL    HW118194   6.375   5.056   6.148
 5765SOL    HW218195   6.231   5.032   6.075
 5766SOL     OW18196   2.159   1.697   3.174
 5766SOL    HW118197   2.192   1.712   3.267
 5766SOL    HW218198   2.176   1.602   3.148
 5767SOL     OW18199   5.256   6.613   0.394
 5767SOL    HW118200   5.160   6.601   0.372
 5767SOL    HW218201   5.300   6.670   0.324
 5768SOL     OW18202   5.802   6.804   1.976
 5768SOL    HW118203   5.828   6.773   1.884
 5768SOL    HW218204   5.884   6.823   2.029
 5769SOL     OW18205   0.034   4.500   3.027
 5769SOL    HW118206   0.095   4.471   3.101
 5769SOL    HW218207   6.972   4.538   3.066
 5770SOL     OW18208   4.765   2.093   1.399
 5770SOL    HW118209   4.800   2.086   1.305
 5770SOL    HW218210   4.839   2.121   1.460
 5771SOL     OW18211   0.986   0.363   1.666
 5771SOL    HW118212   0.909   0.378   1.729
 5771SOL    HW218213   1.072   0.370   1.717
 5772SOL     OW18214   5.975   5.008   5.349
 5772SOL    HW118215   6.008   5.096   5.313
 5772SOL    HW218216   5.935   4.955   5.274
 5773SOL     OW18217   5.067   6.365   5.109
 5773SOL    HW118218   5.127   6.364   5.189
 5773SOL    HW218219   5.002   6.440   5.117
 5774SOL     OW18220   1.910   4.834   1.827
 5774SOL    HW118221   1.825   4.865   1.870
 5774SOL    HW218222   1.902   4.844   1.728
 5775SOL     OW18223   0.891   0.921   0.924
 5775SOL    HW118224   0.861   0.866   0.846
 5775SOL    HW218225   0.881   0.868   1.008
 5776SOL     OW18226   4.913   0.879   5.667
 5776SOL    HW118227   4.946   0.792   5.631
 5776SOL    HW218228   4.892   0.941   5.590
 5777SOL     OW18229   5.181   6.451   4.761
 5777SOL    HW118230   5.223   6.397   4.834
 5777SOL    HW218231   5.081   6.452   4.774
 5778SOL     OW18232   2.500   6.337   3.730
 5778SOL    HW118233   2.478   6.242   3.708
 5778SOL    HW218234   2.440   6.369   3.803
 5779SOL     OW18235   3.644   6.938   2.104
 5779SOL    HW118236   3.643   6.981   2.194
 5779SOL    HW218237   3.730   6.889   2.091
 5780SOL     OW18238   6.626   4.624   6.825
 5780SOL    HW118239   6.694   4.625   6.752
 5780SOL    HW218240   6.642   4.546   6.885
 5781SOL     OW18241   4.516   4.467   5.738
 5781SOL    HW118242   4.553   4.534   5.673
 5781SOL    HW218243   4.451   4.408   5.690
 5782SOL     OW18244   4.883   1.612   2.877
 5782SOL    HW118245   4.862   1.702   2.917
 5782SOL    HW218246   4.809   1.549   2.896
 5783SOL     OW18247   3.013   6.444   3.471
 5783SOL    HW118248   3.005   6.356   3.425
 5783SOL    HW218249   2.990   6.433   3.568
 5784SOL     OW18250   0.535   6.809   2.288
 5784SOL    HW118251   0.494   6.879   2.229
 5784SOL    HW218252   0.624   6.781   2.251
 5785SOL     OW18253   2.678   0.999   6.311
 5785SOL    HW118254   2.665   0.979   6.214
 5785SOL    HW218255   2.775   1.017   6.329
 5786SOL     OW18256   2.385   1.702   6.585
 5786SOL    HW118257   2.410   1.697   6.489
 5786SOL    HW218258   2.390   1.610   6.626
 5787SOL     OW18259   0.650   1.969   6.002
 5787SOL    HW118260   0.741   1.946   5.966
 5787SOL    HW218261   0.593   1.888   6.004
 5788SOL     OW18262   0.293   2.699   1.505
 5788SOL    HW118263   0.348   2.618   1.525
 5788SOL    HW218264   0.213   2.673   1.452
 5789SOL     OW18265   3.003   1.184   0.055
 5789SOL    HW118266   3.026   1.156   6.983
 5789SOL    HW218267   2.955   1.110   0.101
 5790SOL     OW18268   6.424   6.054   2.156
 5790SOL    HW118269   6.441   6.095   2.246
 5790SOL    HW218270   6.414   6.127   2.088
 5791SOL     OW18271   3.777   0.987   1.349
 5791SOL    HW118272   3.708   0.927   1.309
 5791SOL    HW218273   3.743   1.081   1.350
 5792SOL     OW18274   4.585   2.000   2.694
 5792SOL    HW118275   4.605   1.902   2.683
 5792SOL    HW218276   4.505   2.024   2.640
 5793SOL     OW18277   4.765   2.211   0.697
 5793SOL    HW118278   4.712   2.276   0.643
 5793SOL    HW218279   4.860   2.243   0.705
 5794SOL     OW18280   3.433   6.132   0.033
 5794SOL    HW118281   3.457   6.040   0.064
 5794SOL    HW218282   3.516   6.186   0.022
 5795SOL     OW18283   1.187   0.675   1.660
 5795SOL    HW118284   1.088   0.665   1.652
 5795SOL    HW218285   1.215   0.760   1.617
 5796SOL     OW18286   4.775   0.742   5.867
 5796SOL    HW118287   4.848   0.729   5.934
 5796SOL    HW218288   4.800   0.814   5.803
 5797SOL     OW18289   5.923   1.550   0.292
 5797SOL    HW118290   5.968   1.548   0.381
 5797SOL    HW218291   5.957   1.628   0.239
 5798SOL     OW18292   2.316   2.799   4.864
 5798SOL    HW118293   2.246   2.838   4.805
 5798SOL    HW218294   2.359   2.871   4.918
 5799SOL     OW18295   2.944   0.873   3.823
 5799SOL    HW118296   2.868   0.842   3.880
 5799SOL    HW218297   3.017   0.804   3.824
 5800SOL     OW18298   1.414   6.164   1.456
 5800SOL    HW118299   1.441   6.193   1.548
 5800SOL    HW218300   1.374   6.072   1.461
 5801SOL     OW18301   1.578   2.301   3.300
 5801SOL    HW118302   1.649   2.252   3.351
 5801SOL    HW218303   1.546   2.244   3.224
 5802SOL     OW18304   6.952   6.953   2.808
 5802SOL    HW118305   6.965   6.882   2.877
 5802SOL    HW218306   6.856   6.982   2.808
 5803SOL     OW18307   0.187   6.510   4.701
 5803SOL    HW118308   0.228   6.601   4.691
 5803SOL    HW218309   0.201   6.477   4.795
 5804SOL     OW18310   5.790   2.227   3.236
 5804SOL    HW118311   5.691   2.220   3.229
 5804SOL    HW218312   5.828   2.257   3.148
 5805SOL     OW18313   0.699   2.258   1.403
 5805SOL    HW118314   0.603   2.249   1.375
 5805SOL    HW218315   0.728   2.175   1.450
 5806SOL     OW18316   6.600   4.358   1.351
 5806SOL    HW118317   6.642   4.272   1.323
 5806SOL    HW218318   6.545   4.394   1.275
 5807SOL     OW18319   0.919   0.667   2.971
 5807SOL    HW118320   0.895   0.649   2.875
 5807SOL    HW218321   0.861   0.612   3.031
 5808SOL     OW18322   6.187   5.563   5.878
 5808SOL    HW118323   6.282   5.532   5.866
 5808SOL    HW218324   6.185   5.663   5.883
 5809SOL     OW18325   6.636   3.471   4.791
 5809SOL    HW118326   6.631   3.458   4.692
 5809SOL    HW218327   6.658   3.384   4.836
 5810SOL     OW18328   0.597   6.111   5.109
 5810SOL    HW118329   0.526   6.112   5.179
 5810SOL    HW218330   0.668   6.177   5.133
 5811SOL     OW18331   3.190   4.942   0.587
 5811SOL    HW118332   3.125   4.992   0.530
 5811SOL    HW218333   3.160   4.847   0.596
 5812SOL     OW18334   6.393   1.853   6.077
 5812SOL    HW118335   6.479   1.887   6.039
 5812SOL    HW218336   6.410   1.768   6.127
 5813SOL     OW18337   6.501   5.936   0.649
 5813SOL    HW118338   6.573   5.871   0.673
 5813SOL    HW218339   6.416   5.888   0.632
 5814SOL     OW18340   4.681   1.756   2.687
 5814SOL    HW118341   4.695   1.709   2.600
 5814SOL    HW218342   4.661   1.689   2.758
 5815SOL     OW18343   0.007   4.412   4.973
 5815SOL    HW118344   0.006   4.463   5.059
 5815SOL    HW218345   6.940   4.421   4.927
 5816SOL     OW18346   6.612   4.060   1.097
 5816SOL    HW118347   6.609   4.022   1.190
 5816SOL    HW218348   6.545   4.014   1.040
 5817SOL     OW18349   6.516   2.820   3.729
 5817SOL    HW118350   6.607   2.783   3.750
 5817SOL    HW218351   6.517   2.920   3.741
 5818SOL     OW18352   2.544   1.057   3.962
 5818SOL    HW118353   2.561   1.091   3.869
 5818SOL    HW218354   2.629   1.022   4.000
 5819SOL     OW18355   3.834   4.357   1.541
 5819SOL    HW118356   3.915   4.314   1.580
 5819SOL    HW218357   3.818   4.445   1.588
 5820SOL     OW18358   0.369   6.425   2.470
 5820SOL    HW118359   0.334   6.518   2.452
 5820SOL    HW218360   0.440   6.430   2.539
 5821SOL     OW18361   4.769   6.190   1.900
 5821SOL    HW118362   4.847   6.180   1.961
 5821SOL    HW218363   4.792   6.151   1.810
 5822SOL     OW18364   1.245   3.847   3.275
 5822SOL    HW118365   1.212   3.818   3.186
 5822SOL    HW218366   1.261   3.946   3.275
 5823SOL     OW18367   2.301   6.505   4.677
 5823SOL    HW118368   2.390   6.468   4.704
 5823SOL    HW218369   2.232   6.432   4.682
 5824SOL     OW18370   2.176   5.734   2.362
 5824SOL    HW118371   2.098   5.785   2.398
 5824SOL    HW218372   2.191   5.759   2.267
 5825SOL     OW18373   3.385   2.112   4.731
 5825SOL    HW118374   3.432   2.103   4.818
 5825SOL    HW218375   3.287   2.122   4.747
 5826SOL     OW18376   1.114   6.136   5.744
 5826SOL    HW118377   1.160   6.055   5.708
 5826SOL    HW218378   1.182   6.205   5.768
 5827SOL     OW18379   2.076   4.434   4.161
 5827SOL    HW118380   2.117   4.493   4.230
 5827SOL    HW218381   2.021   4.489   4.097
 5828SOL     OW18382   4.484   0.086   5.296
 5828SOL    HW118383   4.445   0.160   5.352
 5828SOL    HW218384   4.443   7.021   5.322
 5829SOL     OW18385   1.921   1.322   2.780
 5829SOL    HW118386   1.822   1.305   2.788
 5829SOL    HW218387   1.970   1.235   2.776
 5830SOL     OW18388   5.003   5.384   4.107
 5830SOL    HW118389   5.059   5.464   4.086
 5830SOL    HW218390   5.007   5.364   4.205
 5831SOL     OW18391   2.579   1.904   3.835
 5831SOL    HW118392   2.587   1.814   3.878
 5831SOL    HW218393   2.629   1.971   3.890
 5832SOL     OW18394   3.014   5.303   3.070
 5832SOL    HW118395   3.073   5.383   3.055
 5832SOL    HW218396   3.025   5.271   3.164
 5833SOL     OW18397   2.299   4.795   1.753
 5833SOL    HW118398   2.373   4.828   1.695
 5833SOL    HW218399   2.213   4.835   1.722
 5834SOL     OW18400   5.844   1.719   6.645
 5834SOL    HW118401   5.796   1.780   6.581
 5834SOL    HW218402   5.805   1.627   6.639
 5835SOL     OW18403   3.590   0.583   3.659
 5835SOL    HW118404   3.582   0.682   3.649
 5835SOL    HW218405   3.619   0.543   3.572
 5836SOL     OW18406   5.889   4.961   1.440
 5836SOL    HW118407   5.956   4.905   1.488
 5836SOL    HW218408   5.801   4.956   1.488
 5837SOL     OW18409   2.306   3.929   6.933
 5837SOL    HW118410   2.213   3.960   6.954
 5837SOL    HW218411   2.323   3.841   6.977
 5838SOL     OW18412   2.723   3.109   0.900
 5838SOL    HW118413   2.748   3.186   0.959
 5838SOL    HW218414   2.806   3.071   0.860
 5839SOL     OW18415   2.522   1.740   1.235
 5839SOL    HW118416   2.465   1.822   1.247
 5839SOL    HW218417   2.470   1.660   1.265
 5840SOL     OW18418   6.352   3.522   2.449
 5840SOL    HW118419   6.264   3.562   2.476
 5840SOL    HW218420   6.408   3.592   2.405
 5841SOL     OW18421   4.974   1.454   0.377
 5841SOL    HW118422   4.917   1.513   0.320
 5841SOL    HW218423   5.070   1.473   0.359
 5842SOL     OW18424   3.651   2.064   2.277
 5842SOL    HW118425   3.584   1.995   2.251
 5842SOL    HW218426   3.657   2.133   2.205
 5843SOL     OW18427   3.320   2.457   1.424
 5843SOL    HW118428   3.323   2.498   1.515
 5843SOL    HW218429   3.239   2.398   1.417
 5844SOL     OW18430   6.601   5.317   5.313
 5844SOL    HW118431   6.630   5.334   5.407
 5844SOL    HW218432   6.564   5.224   5.306
 5845SOL     OW18433   2.183   5.903   3.368
 5845SOL    HW118434   2.206   5.851   3.287
 5845SOL    HW218435   2.214   5.998   3.357
 5846SOL     OW18436   0.480   4.038   5.532
 5846SOL    HW118437   0.512   4.132   5.546
 5846SOL    HW218438   0.405   4.019   5.596
 5847SOL     OW18439   2.181   3.711   5.484
 5847SOL    HW118440   2.249   3.643   5.455
 5847SOL    HW218441   2.174   3.710   5.584
 5848SOL     OW18442   2.971   6.573   1.759
 5848SOL    HW118443   3.018   6.653   1.722
 5848SOL    HW218444   3.012   6.490   1.722
 5849SOL     OW18445   2.840   6.090   6.459
 5849SOL    HW118446   2.918   6.072   6.400
 5849SOL    HW218447   2.758   6.102   6.403
 5850SOL     OW18448   5.440   2.475   1.474
 5850SOL    HW118449   5.356   2.421   1.465
 5850SOL    HW218450   5.424   2.551   1.537
 5851SOL     OW18451   1.218   2.581   5.966
 5851SOL    HW118452   1.307   2.548   5.996
 5851SOL    HW218453   1.197   2.666   6.014
 5852SOL     OW18454   4.397   5.220   2.854
 5852SOL    HW118455   4.486   5.210   2.809
 5852SOL    HW218456   4.348   5.133   2.851
 5853SOL     OW18457   4.173   4.675   6.572
 5853SOL    HW118458   4.095   4.672   6.634
 5853SOL    HW218459   4.144   4.650   6.480
 5854SOL     OW18460   2.646   4.248   5.441
 5854SOL    HW118461   2.692   4.186   5.376
 5854SOL    HW218462   2.636   4.338   5.399
 5855SOL     OW18463   1.610   2.292   4.558
 5855SOL    HW118464   1.704   2.289   4.522
 5855SOL    HW218465   1.547   2.318   4.485
 5856SOL     OW18466   0.464   0.800   2.094
 5856SOL    HW118467   0.379   0.830   2.136
 5856SOL    HW218468   0.541   0.828   2.151
 5857SOL     OW18469   6.441   5.823   6.635
 5857SOL    HW118470   6.385   5.834   6.552
 5857SOL    HW218471   6.515   5.759   6.616
 5858SOL     OW18472   2.770   1.685   1.341
 5858SOL    HW118473   2.679   1.703   1.306
 5858SOL    HW218474   2.768   1.605   1.400
 5859SOL     OW18475   6.217   5.135   1.215
 5859SOL    HW118476   6.155   5.060   1.239
 5859SOL    HW218477   6.294   5.135   1.279
 5860SOL     OW18478   1.598   2.550   1.548
 5860SOL    HW118479   1.505   2.584   1.557
 5860SOL    HW218480   1.663   2.625   1.561
 5861SOL     OW18481   4.922   6.756   4.799
 5861SOL    HW118482   4.952   6.728   4.890
 5861SOL    HW218483   4.925   6.856   4.792
 5862SOL     OW18484   0.451   5.131   1.431
 5862SOL    HW118485   0.530   5.147   1.490
 5862SOL    HW218486   0.407   5.218   1.409
 5863SOL     OW18487   4.147   6.523   6.205
 5863SOL    HW118488   4.070   6.540   6.266
 5863SOL    HW218489   4.229   6.565   6.243
 5864SOL     OW18490   3.807   3.556   3.406
 5864SOL    HW118491   3.801   3.554   3.306
 5864SOL    HW218492   3.728   3.509   3.445
 5865SOL     OW18493   6.860   6.468   1.277
 5865SOL    HW118494   6.870   6.522   1.192
 5865SOL    HW218495   6.860   6.530   1.355
 5866SOL     OW18496   3.008   3.652   4.087
 5866SOL    HW118497   2.977   3.694   4.172
 5866SOL    HW218498   3.104   3.675   4.071
 5867SOL     OW18499   4.373   0.964   0.846
 5867SOL    HW118500   4.331   1.054   0.838
 5867SOL    HW218501   4.434   0.962   0.926
 5868SOL     OW18502   1.516   1.089   0.685
 5868SOL    HW118503   1.491   1.166   0.744
 5868SOL    HW218504   1.552   1.123   0.599
 5869SOL     OW18505   2.248   5.333   3.615
 5869SOL    HW118506   2.325   5.388   3.645
 5869SOL    HW218507   2.248   5.246   3.664
 5870SOL     OW18508   3.968   6.531   3.515
 5870SOL    HW118509   3.870   6.516   3.530
 5870SOL    HW218510   3.989   6.517   3.418
 5871SOL     OW18511   4.149   3.367   3.163
 5871SOL    HW118512   4.158   3.268   3.174
 5871SOL    HW218513   4.136   3.409   3.252
 5872SOL     OW18514   3.765   5.220   1.521
 5872SOL    HW118515   3.785   5.317   1.538
 5872SOL    HW218516   3.666   5.206   1.523
 5873SOL     OW18517   4.364   0.071   2.588
 5873SOL    HW118518   4.360   7.012   2.528
 5873SOL    HW218519   4.391   0.043   2.680
 5874SOL     OW18520   0.257   3.363   4.363
 5874SOL    HW118521   0.162   3.349   4.389
 5874SOL    HW218522   0.264   3.444   4.305
 5875SOL     OW18523   4.743   2.729   1.338
 5875SOL    HW118524   4.716   2.689   1.250
 5875SOL    HW218525   4.795   2.813   1.322
 5876SOL     OW18526   3.672   3.668   2.789
 5876SOL    HW118527   3.689   3.665   2.690
 5876SOL    HW218528   3.657   3.762   2.818
 5877SOL     OW18529   4.550   4.440   1.494
 5877SOL    HW118530   4.552   4.479   1.586
 5877SOL    HW218531   4.567   4.512   1.427
 5878SOL     OW18532   7.004   3.524   1.675
 5878SOL    HW118533   0.006   3.604   1.619
 5878SOL    HW218534   0.012   3.441   1.628
 5879SOL     OW18535   1.959   4.208   4.867
 5879SOL    HW118536   1.945   4.244   4.775
 5879SOL    HW218537   1.908   4.264   4.932
 5880SOL     OW18538   2.698   5.060   6.920
 5880SOL    HW118539   2.789   5.102   6.918
 5880SOL    HW218540   2.705   4.968   6.956
 5881SOL     OW18541   1.454   6.451   4.561
 5881SOL    HW118542   1.475   6.530   4.503
 5881SOL    HW218543   1.514   6.452   4.641
 5882SOL     OW18544   4.964   0.499   3.344
 5882SOL    HW118545   4.924   0.408   3.341
 5882SOL    HW218546   5.060   0.494   3.316
 5883SOL     OW18547   0.513   3.424   5.643
 5883SOL    HW118548   0.586   3.361   5.670
 5883SOL    HW218549   0.550   3.494   5.582
 5884SOL     OW18550   0.243   0.922   3.420
 5884SOL    HW118551   0.340   0.945   3.427
 5884SOL    HW218552   0.196   0.951   3.503
 5885SOL     OW18553   6.095   5.939   0.245
 5885SOL    HW118554   6.126   5.864   0.187
 5885SOL    HW218555   6.174   5.995   0.271
 5886SOL     OW18556   5.585   1.774   5.618
 5886SOL    HW118557   5.514   1.809   5.679
 5886SOL    HW218558   5.644   1.849   5.589
 5887SOL     OW18559   3.142   0.054   2.363
 5887SOL    HW118560   3.107   0.069   2.271
 5887SOL    HW218561   3.077   0.091   2.430
 5888SOL     OW18562   6.477   6.137   1.733
 5888SOL    HW118563   6.516   6.045   1.734
 5888SOL    HW218564   6.441   6.157   1.642
 5889SOL     OW18565   3.182   0.061   0.696
 5889SOL    HW118566   3.161   7.018   0.769
 5889SOL    HW218567   3.097   0.100   0.660
 5890SOL     OW18568   4.287   5.284   6.022
 5890SOL    HW118569   4.348   5.209   6.048
 5890SOL    HW218570   4.284   5.352   6.096
 5891SOL     OW18571   2.164   2.944   6.934
 5891SOL    HW118572   2.147   2.984   0.003
 5891SOL    HW218573   2.251   2.978   6.898
 5892SOL     OW18574   2.763   5.557   1.577
 5892SOL    HW118575   2.832   5.518   1.516
 5892SOL    HW218576   2.711   5.483   1.619
 5893SOL     OW18577   0.804   2.834   1.797
 5893SOL    HW118578   0.816   2.769   1.722
 5893SOL    HW218579   0.827   2.791   1.884
 5894SOL     OW18580   1.917   3.868   3.562
 5894SOL    HW118581   2.000   3.863   3.506
 5894SOL    HW218582   1.939   3.914   3.648
 5895SOL     OW18583   5.164   5.302   2.624
 5895SOL    HW118584   5.146   5.253   2.710
 5895SOL    HW218585   5.185   5.398   2.644
 5896SOL     OW18586   5.953   1.806   5.780
 5896SOL    HW118587   6.046   1.788   5.814
 5896SOL    HW218588   5.946   1.775   5.685
 5897SOL     OW18589   4.379   4.305   0.565
 5897SOL    HW118590   4.305   4.259   0.516
 5897SOL    HW218591   4.455   4.324   0.503
 5898SOL     OW18592   1.471   5.649   2.642
 5898SOL    HW118593   1.376   5.673   2.662
 5898SOL    HW218594   1.530   5.725   2.669
 5899SOL     OW18595   5.354   0.839   3.661
 5899SOL    HW118596   5.325   0.873   3.750
 5899SOL    HW218597   5.336   0.909   3.592
 5900SOL     OW18598   3.604   5.129   1.928
 5900SOL    HW118599   3.694   5.172   1.922
 5900SOL    HW218600   3.533   5.200   1.928
 5901SOL     OW18601   3.132   6.699   3.522
 5901SOL    HW118602   3.096   6.609   3.499
 5901SOL    HW218603   3.078   6.739   3.596
 5902SOL     OW18604   6.133   2.245   7.016
 5902SOL    HW118605   6.150   2.280   6.925
 5902SOL    HW218606   6.070   2.306   0.043
 5903SOL     OW18607   0.683   1.719   6.280
 5903SOL    HW118608   0.746   1.787   6.242
 5903SOL    HW218609   0.631   1.761   6.355
 5904SOL     OW18610   0.507   2.871   1.468
 5904SOL    HW118611   0.419   2.838   1.503
 5904SOL    HW218612   0.553   2.797   1.419
 5905SOL     OW18613   6.681   3.789   2.143
 5905SOL    HW118614   6.729   3.763   2.059
 5905SOL    HW218615   6.745   3.831   2.207
 5906SOL     OW18616   6.644   1.363   3.297
 5906SOL    HW118617   6.658   1.461   3.314
 5906SOL    HW218618   6.697   1.309   3.361
 5907SOL     OW18619   1.735   1.022   2.366
 5907SOL    HW118620   1.713   1.107   2.414
 5907SOL    HW218621   1.669   1.007   2.293
 5908SOL     OW18622   0.641   3.064   5.382
 5908SOL    HW118623   0.563   3.126   5.387
 5908SOL    HW218624   0.686   3.075   5.294
 5909SOL     OW18625   6.750   4.285   6.729
 5909SOL    HW118626   6.763   4.384   6.724
 5909SOL    HW218627   6.832   4.242   6.768
 5910SOL     OW18628   1.395   1.659   3.317
 5910SOL    HW118629   1.312   1.612   3.349
 5910SOL    HW218630   1.375   1.708   3.232
 5911SOL     OW18631   5.853   5.231   6.692
 5911SOL    HW118632   5.884   5.287   6.615
 5911SOL    HW218633   5.800   5.154   6.657
 5912SOL     OW18634   0.749   1.763   2.427
 5912SOL    HW118635   0.710   1.754   2.335
 5912SOL    HW218636   0.684   1.728   2.494
 5913SOL     OW18637   0.067   3.634   1.166
 5913SOL    HW118638   0.157   3.600   1.138
 5913SOL    HW218639   0.067   3.734   1.161
 5914SOL     OW18640   1.226   6.820   0.652
 5914SOL    HW118641   1.266   6.728   0.648
 5914SOL    HW218642   1.239   6.865   0.563
 5915SOL     OW18643   4.301   0.457   5.413
 5915SOL    HW118644   4.205   0.485   5.408
 5915SOL    HW218645   4.305   0.360   5.439
 5916SOL     OW18646   0.564   0.438   2.909
 5916SOL    HW118647   0.562   0.377   2.829
 5916SOL    HW218648   0.624   0.399   2.979
 5917SOL     OW18649   3.847   3.155   0.263
 5917SOL    HW118650   3.809   3.236   0.308
 5917SOL    HW218651   3.861   3.083   0.330
 5918SOL     OW18652   3.423   6.416   4.942
 5918SOL    HW118653   3.341   6.434   4.888
 5918SOL    HW218654   3.501   6.399   4.880
 5919SOL     OW18655   2.926   3.296   4.701
 5919SOL    HW118656   2.915   3.214   4.645
 5919SOL    HW218657   2.931   3.270   4.798
 5920SOL     OW18658   1.324   0.209   5.594
 5920SOL    HW118659   1.246   0.238   5.539
 5920SOL    HW218660   1.403   0.266   5.572
 5921SOL     OW18661   2.453   4.211   1.101
 5921SOL    HW118662   2.395   4.206   1.182
 5921SOL    HW218663   2.399   4.186   1.020
 5922SOL     OW18664   5.091   2.911   2.646
 5922SOL    HW118665   5.173   2.953   2.608
 5922SOL    HW218666   5.035   2.981   2.691
 5923SOL     OW18667   5.917   0.924   2.651
 5923SOL    HW118668   5.873   0.913   2.741
 5923SOL    HW218669   5.855   0.972   2.589
 5924SOL     OW18670   0.325   6.189   3.261
 5924SOL    HW118671   0.265   6.145   3.328
 5924SOL    HW218672   0.290   6.171   3.169
 5925SOL     OW18673   4.429   0.741   1.179
 5925SOL    HW118674   4.481   0.673   1.233
 5925SOL    HW218675   4.332   0.720   1.184
 5926SOL     OW18676   4.861   3.185   3.561
 5926SOL    HW118677   4.863   3.282   3.538
 5926SOL    HW218678   4.844   3.175   3.659
 5927SOL     OW18679   1.327   0.126   1.549
 5927SOL    HW118680   1.349   0.034   1.516
 5927SOL    HW218681   1.399   0.159   1.610
 5928SOL     OW18682   2.964   0.076   0.090
 5928SOL    HW118683   3.036   0.037   0.148
 5928SOL    HW218684   2.949   0.017   0.011
 5929SOL     OW18685   1.164   1.147   1.484
 5929SOL    HW118686   1.143   1.107   1.395
 5929SOL    HW218687   1.084   1.194   1.520
 5930SOL     OW18688   0.690   4.634   1.669
 5930SOL    HW118689   0.764   4.634   1.735
 5930SOL    HW218690   0.602   4.627   1.716
 5931SOL     OW18691   4.259   0.522   4.696
 5931SOL    HW118692   4.215   0.608   4.721
 5931SOL    HW218693   4.301   0.531   4.606
 5932SOL     OW18694   3.020   5.636   0.717
 5932SOL    HW118695   2.955   5.703   0.681
 5932SOL    HW218696   2.980   5.545   0.711
 5933SOL     OW18697   7.017   5.421   4.167
 5933SOL    HW118698   6.968   5.470   4.239
 5933SOL    HW218699   6.990   5.324   4.168
 5934SOL     OW18700   3.185   4.486   0.009
 5934SOL    HW118701   3.181   4.458   0.105
 5934SOL    HW218702   3.194   4.406   6.973
 5935SOL     OW18703   1.631   0.911   5.505
 5935SOL    HW118704   1.556   0.879   5.447
 5935SOL    HW218705   1.641   1.010   5.497
 5936SOL     OW18706   4.038   3.163   2.042
 5936SOL    HW118707   4.117   3.175   1.982
 5936SOL    HW218708   3.981   3.089   2.007
 5937SOL     OW18709   0.878   2.833   0.448
 5937SOL    HW118710   0.936   2.866   0.522
 5937SOL    HW218711   0.897   2.736   0.431
 5938SOL     OW18712   0.543   3.423   4.184
 5938SOL    HW118713   0.578   3.368   4.260
 5938SOL    HW218714   0.462   3.378   4.146
 5939SOL     OW18715   5.064   1.631   5.998
 5939SOL    HW118716   5.072   1.575   6.080
 5939SOL    HW218717   5.062   1.571   5.917
 5940SOL     OW18718   5.142   5.029   1.047
 5940SOL    HW118719   5.207   4.977   0.991
 5940SOL    HW218720   5.128   5.119   1.005
 5941SOL     OW18721   1.619   1.446   3.060
 5941SOL    HW118722   1.651   1.416   3.150
 5941SOL    HW218723   1.648   1.541   3.044
 5942SOL     OW18724   4.604   2.377   6.597
 5942SOL    HW118725   4.606   2.476   6.580
 5942SOL    HW218726   4.552   2.359   6.680
 5943SOL     OW18727   1.922   4.334   2.154
 5943SOL    HW118728   1.937   4.245   2.196
 5943SOL    HW218729   1.966   4.405   2.209
 5944SOL     OW18730   6.812   3.340   5.729
 5944SOL    HW118731   6.829   3.329   5.827
 5944SOL    HW218732   6.718   3.369   5.714
 5945SOL     OW18733   0.311   6.713   4.241
 5945SOL    HW118734   0.281   6.738   4.149
 5945SOL    HW218735   0.387   6.648   4.236
 5946SOL     OW18736   3.299   2.805   6.641
 5946SOL    HW118737   3.236   2.859   6.585
 5946SOL    HW218738   3.272   2.708   6.637
 5947SOL     OW18739   3.458   3.710   5.642
 5947SOL    HW118740   3.415   3.714   5.551
 5947SOL    HW218741   3.481   3.615   5.663
 5948SOL     OW18742   4.701   3.781   1.509
 5948SOL    HW118743   4.774   3.845   1.490
 5948SOL    HW218744   4.613   3.821   1.484
 5949SOL     OW18745   1.706   4.913   4.323
 5949SOL    HW118746   1.751   4.856   4.391
 5949SOL    HW218747   1.736   5.008   4.334
 5950SOL     OW18748   1.869   6.616   5.173
 5950SOL    HW118749   1.808   6.689   5.204
 5950SOL    HW218750   1.815   6.541   5.135
 5951SOL     OW18751   6.986   3.004   6.327
 5951SOL    HW118752   7.002   3.072   6.398
 5951SOL    HW218753   6.889   2.999   6.306
 5952SOL     OW18754   3.379   4.157   1.880
 5952SOL    HW118755   3.461   4.163   1.937
 5952SOL    HW218756   3.326   4.077   1.907
 5953SOL     OW18757   6.828   2.789   6.782
 5953SOL    HW118758   6.869   2.835   6.861
 5953SOL    HW218759   6.865   2.828   6.698
 5954SOL     OW18760   2.790   5.088   3.787
 5954SOL    HW118761   2.722   5.057   3.853
 5954SOL    HW218762   2.846   5.010   3.758
 5955SOL     OW18763   4.529   2.975   0.530
 5955SOL    HW118764   4.613   2.937   0.569
 5955SOL    HW218765   4.499   3.052   0.586
 5956SOL     OW18766   3.901   2.423   6.663
 5956SOL    HW118767   3.920   2.412   6.565
 5956SOL    HW218768   3.904   2.520   6.687
 5957SOL     OW18769   0.191   2.771   3.841
 5957SOL    HW118770   0.144   2.730   3.763
 5957SOL    HW218771   0.242   2.701   3.890
 5958SOL     OW18772   2.294   6.282   1.914
 5958SOL    HW118773   2.353   6.207   1.944
 5958SOL    HW218774   2.210   6.282   1.969
 5959SOL     OW18775   4.942   4.402   2.640
 5959SOL    HW118776   4.885   4.445   2.710
 5959SOL    HW218777   4.972   4.471   2.573
 5960SOL     OW18778   6.287   6.719   6.701
 5960SOL    HW118779   6.365   6.772   6.667
 5960SOL    HW218780   6.317   6.658   6.774
 5961SOL     OW18781   1.611   1.867   3.432
 5961SOL    HW118782   1.595   1.884   3.334
 5961SOL    HW218783   1.580   1.775   3.456
 5962SOL     OW18784   5.134   5.446   0.457
 5962SOL    HW118785   5.038   5.426   0.479
 5962SOL    HW218786   5.193   5.382   0.507
 5963SOL     OW18787   2.246   4.188   1.333
 5963SOL    HW118788   2.244   4.137   1.419
 5963SOL    HW218789   2.198   4.136   1.263
 5964SOL     OW18790   1.689   6.396   4.080
 5964SOL    HW118791   1.727   6.385   3.988
 5964SOL    HW218792   1.637   6.481   4.085
 5965SOL     OW18793   1.857   0.171   1.534
 5965SOL    HW118794   1.862   0.245   1.602
 5965SOL    HW218795   1.783   0.191   1.469
 5966SOL     OW18796   2.866   1.896   5.509
 5966SOL    HW118797   2.938   1.828   5.523
 5966SOL    HW218798   2.858   1.916   5.411
 5967SOL     OW18799   4.755   2.212   5.763
 5967SOL    HW118800   4.655   2.214   5.761
 5967SOL    HW218801   4.791   2.305   5.754
 5968SOL     OW18802   6.399   1.853   3.309
 5968SOL    HW118803   6.409   1.936   3.365
 5968SOL    HW218804   6.302   1.832   3.298
 5969SOL     OW18805   5.129   6.590   1.625
 5969SOL    HW118806   5.171   6.499   1.620
 5969SOL    HW218807   5.144   6.628   1.717
 5970SOL     OW18808   5.947   1.872   0.385
 5970SOL    HW118809   5.980   1.814   0.311
 5970SOL    HW218810   6.014   1.944   0.404
 5971SOL     OW18811   6.857   5.247   3.644
 5971SOL    HW118812   6.837   5.170   3.583
 5971SOL    HW218813   6.876   5.213   3.736
 5972SOL     OW18814   6.442   5.351   0.450
 5972SOL    HW118815   6.454   5.252   0.440
 5972SOL    HW218816   6.362   5.369   0.508
 5973SOL     OW18817   3.353   0.667   2.119
 5973SOL    HW118818   3.400   0.579   2.122
 5973SOL    HW218819   3.297   0.678   2.200
 5974SOL     OW18820   5.312   1.243   4.407
 5974SOL    HW118821   5.365   1.257   4.491
 5974SOL    HW218822   5.334   1.315   4.341
 5975SOL     OW18823   4.039   4.370   0.477
 5975SOL    HW118824   4.078   4.293   0.426
 5975SOL    HW218825   3.988   4.334   0.555
 5976SOL     OW18826   0.890   1.887   6.226
 5976SOL    HW118827   0.927   1.969   6.269
 5976SOL    HW218828   0.895   1.895   6.126
 5977SOL     OW18829   0.747   5.457   1.661
 5977SOL    HW118830   0.745   5.465   1.760
 5977SOL    HW218831   0.837   5.485   1.627
 5978SOL     OW18832   2.865   3.807   6.175
 5978SOL    HW118833   2.931   3.801   6.100
 5978SOL    HW218834   2.911   3.791   6.262
 5979SOL     OW18835   5.894   0.658   1.518
 5979SOL    HW118836   5.968   0.720   1.490
 5979SOL    HW218837   5.819   0.712   1.556
 5980SOL     OW18838   3.966   2.515   0.746
 5980SOL    HW118839   3.877   2.555   0.725
 5980SOL    HW218840   4.015   2.498   0.660
 5981SOL     OW18841   4.429   2.153   0.999
 5981SOL    HW118842   4.494   2.131   0.926
 5981SOL    HW218843   4.438   2.087   1.073
 5982SOL     OW18844   5.887   2.834   1.591
 5982SOL    HW118845   5.790   2.812   1.606
 5982SOL    HW218846   5.896   2.884   1.506
 5983SOL     OW18847   0.273   1.567   3.482
 5983SOL    HW118848   0.195   1.630   3.490
 5983SOL    HW218849   0.357   1.615   3.505
 5984SOL     OW18850   6.206   5.809   1.335
 5984SOL    HW118851   6.274   5.843   1.271
 5984SOL    HW218852   6.127   5.774   1.284
 5985SOL     OW18853   0.282   4.333   2.712
 5985SOL    HW118854   0.325   4.253   2.669
 5985SOL    HW218855   0.228   4.381   2.643
 5986SOL     OW18856   3.883   3.412   2.773
 5986SOL    HW118857   3.978   3.418   2.743
 5986SOL    HW218858   3.829   3.362   2.705
 5987SOL     OW18859   0.453   6.094   4.448
 5987SOL    HW118860   0.476   6.045   4.363
 5987SOL    HW218861   0.385   6.164   4.429
 5988SOL     OW18862   1.777   2.067   0.845
 5988SOL    HW118863   1.795   2.101   0.937
 5988SOL    HW218864   1.795   2.139   0.778
 5989SOL     OW18865   2.483   6.664   5.853
 5989SOL    HW118866   2.563   6.613   5.884
 5989SOL    HW218867   2.503   6.708   5.766
 5990SOL     OW18868   2.167   4.065   1.603
 5990SOL    HW118869   2.121   4.139   1.653
 5990SOL    HW218870   2.238   4.025   1.661
 5991SOL     OW18871   5.150   1.292   0.663
 5991SOL    HW118872   5.172   1.219   0.728
 5991SOL    HW218873   5.091   1.255   0.590
 5992SOL     OW18874   2.652   4.589   3.216
 5992SOL    HW118875   2.679   4.517   3.152
 5992SOL    HW218876   2.591   4.654   3.170
 5993SOL     OW18877   5.613   1.165   0.132
 5993SOL    HW118878   5.691   1.228   0.131
 5993SOL    HW218879   5.550   1.191   0.205
 5994SOL     OW18880   0.868   4.538   1.097
 5994SOL    HW118881   0.874   4.626   1.145
 5994SOL    HW218882   0.772   4.518   1.078
 5995SOL     OW18883   5.353   4.831   0.944
 5995SOL    HW118884   5.376   4.769   0.868
 5995SOL    HW218885   5.376   4.786   1.031
 5996SOL     OW18886   2.330   1.011   2.007
 5996SOL    HW118887   2.299   1.032   1.914
 5996SOL    HW218888   2.299   1.083   2.070
 5997SOL     OW18889   6.311   0.515   4.574
 5997SOL    HW118890   6.368   0.550   4.649
 5997SOL    HW218891   6.215   0.535   4.594
 5998SOL     OW18892   5.876   6.541   0.283
 5998SOL    HW118893   5.825   6.584   0.208
 5998SOL    HW218894   5.812   6.504   0.350
 5999SOL     OW18895   5.485   3.532   1.005
 5999SOL    HW118896   5.404   3.510   1.058
 5999SOL    HW218897   5.523   3.449   0.965
 6000SOL     OW18898   0.553   5.168   1.951
 6000SOL    HW118899   0.513   5.249   1.992
 6000SOL    HW218900   0.637   5.143   2.001
 6001SOL     OW18901   0.085   6.317   5.831
 6001SOL    HW118902   0.070   6.220   5.812
 6001SOL    HW218903   0.172   6.329   5.879
 6002SOL     OW18904   5.448   4.966   4.530
 6002SOL    HW118905   5.424   5.056   4.566
 6002SOL    HW218906   5.544   4.946   4.550
 6003SOL     OW18907   2.302   0.751   4.846
 6003SOL    HW118908   2.297   0.842   4.805
 6003SOL    HW218909   2.216   0.702   4.829
 6004SOL     OW18910   5.283   3.081   4.979
 6004SOL    HW118911   5.342   3.066   5.058
 6004SOL    HW218912   5.338   3.093   4.897
 6005SOL     OW18913   3.964   3.632   0.252
 6005SOL    HW118914   3.963   3.596   0.159
 6005SOL    HW218915   3.870   3.651   0.282
 6006SOL     OW18916   2.857   6.172   5.770
 6006SOL    HW118917   2.858   6.197   5.673
 6006SOL    HW218918   2.775   6.209   5.813
 6007SOL     OW18919   3.373   6.647   4.464
 6007SOL    HW118920   3.361   6.548   4.473
 6007SOL    HW218921   3.405   6.668   4.371
 6008SOL     OW18922   2.531   4.126   6.649
 6008SOL    HW118923   2.527   4.098   6.745
 6008SOL    HW218924   2.582   4.213   6.643
 6009SOL     OW18925   2.346   5.530   2.495
 6009SOL    HW118926   2.271   5.486   2.446
 6009SOL    HW218927   2.379   5.608   2.442
 6010SOL     OW18928   0.158   5.542   5.989
 6010SOL    HW118929   0.248   5.578   5.966
 6010SOL    HW218930   0.112   5.510   5.906
 6011SOL     OW18931   5.838   1.940   3.274
 6011SOL    HW118932   5.816   2.031   3.308
 6011SOL    HW218933   5.929   1.913   3.306
 6012SOL     OW18934   6.676   1.210   5.642
 6012SOL    HW118935   6.722   1.298   5.630
 6012SOL    HW218936   6.581   1.225   5.669
 6013SOL     OW18937   6.000   1.612   2.683
 6013SOL    HW118938   6.050   1.682   2.734
 6013SOL    HW218939   6.064   1.542   2.650
 6014SOL     OW18940   4.059   3.789   4.280
 6014SOL    HW118941   4.145   3.743   4.258
 6014SOL    HW218942   4.064   3.827   4.373
 6015SOL     OW18943   6.985   0.434   3.182
 6015SOL    HW118944   0.051   0.460   3.142
 6015SOL    HW218945   6.981   0.466   3.277
 6016SOL     OW18946   4.244   1.884   4.069
 6016SOL    HW118947   4.145   1.892   4.080
 6016SOL    HW218948   4.266   1.887   3.971
 6017SOL     OW18949   1.678   2.466   5.258
 6017SOL    HW118950   1.746   2.407   5.214
 6017SOL    HW218951   1.692   2.561   5.230
 6018SOL     OW18952   2.151   0.790   3.916
 6018SOL    HW118953   2.179   0.820   4.007
 6018SOL    HW218954   2.218   0.822   3.849
 6019SOL     OW18955   6.714   3.012   6.281
 6019SOL    HW118956   6.695   2.918   6.309
 6019SOL    HW218957   6.667   3.075   6.342
 6020SOL     OW18958   0.536   5.699   4.710
 6020SOL    HW118959   0.437   5.699   4.717
 6020SOL    HW218960   0.576   5.666   4.796
 6021SOL     OW18961   5.029   0.340   3.898
 6021SOL    HW118962   5.098   0.396   3.853
 6021SOL    HW218963   4.948   0.396   3.919
 6022SOL     OW18964   6.366   4.023   0.772
 6022SOL    HW118965   6.367   3.931   0.809
 6022SOL    HW218966   6.280   4.068   0.795
 6023SOL     OW18967   4.268   0.083   3.037
 6023SOL    HW118968   4.276   0.166   3.093
 6023SOL    HW218969   4.326   0.092   2.957
 6024SOL     OW18970   0.445   6.587   6.972
 6024SOL    HW118971   0.512   6.600   6.899
 6024SOL    HW218972   0.429   6.674   7.019
 6025SOL     OW18973   3.637   0.532   5.677
 6025SOL    HW118974   3.577   0.453   5.666
 6025SOL    HW218975   3.681   0.529   5.767
 6026SOL     OW18976   5.123   6.166   3.508
 6026SOL    HW118977   5.208   6.210   3.537
 6026SOL    HW218978   5.065   6.149   3.588
 6027SOL     OW18979   6.241   4.191   5.352
 6027SOL    HW118980   6.273   4.098   5.331
 6027SOL    HW218981   6.176   4.188   5.427
 6028SOL     OW18982   5.820   5.650   6.328
 6028SOL    HW118983   5.849   5.594   6.405
 6028SOL    HW218984   5.721   5.668   6.335
 6029SOL     OW18985   2.718   1.460   2.586
 6029SOL    HW118986   2.755   1.478   2.677
 6029SOL    HW218987   2.779   1.498   2.517
 6030SOL     OW18988   6.046   3.156   4.843
 6030SOL    HW118989   6.078   3.236   4.794
 6030SOL    HW218990   6.071   3.163   4.940
 6031SOL     OW18991   0.153   0.464   3.675
 6031SOL    HW118992   0.180   0.378   3.718
 6031SOL    HW218993   0.235   0.510   3.639
 6032SOL     OW18994   3.107   6.966   3.009
 6032SOL    HW118995   3.197   6.923   3.008
 6032SOL    HW218996   3.108   0.027   2.951
 6033SOL     OW18997   0.974   1.699   2.695
 6033SOL    HW118998   0.944   1.618   2.645
 6033SOL    HW218999   0.894   1.754   2.719
 6034SOL     OW19000   0.751   0.600   0.959
 6034SOL    HW119001   0.724   0.647   1.043
 6034SOL    HW219002   0.745   0.663   0.882
 6035SOL     OW19003   1.893   1.488   2.573
 6035SOL    HW119004   1.903   1.439   2.660
 6035SOL    HW219005   1.828   1.562   2.583
 6036SOL     OW19006   6.980   3.673   0.046
 6036SOL    HW119007   0.033   3.704   7.008
 6036SOL    HW219008   7.018   3.641   0.132
 6037SOL     OW19009   4.755   0.754   6.266
 6037SOL    HW119010   4.757   0.655   6.277
 6037SOL    HW219011   4.676   0.792   6.315
 6038SOL     OW19012   2.426   1.322   0.137
 6038SOL    HW119013   2.461   1.310   0.229
 6038SOL    HW219014   2.330   1.347   0.141
 6039SOL     OW19015   3.413   2.863   4.216
 6039SOL    HW119016   3.343   2.931   4.239
 6039SOL    HW219017   3.389   2.775   4.258
 6040SOL     OW19018   6.628   0.995   0.731
 6040SOL    HW119019   6.603   1.084   0.693
 6040SOL    HW219020   6.571   0.924   0.690
 6041SOL     OW19021   0.374   3.103   4.702
 6041SOL    HW119022   0.449   3.164   4.728
 6041SOL    HW219023   0.369   3.097   4.603
 6042SOL     OW19024   2.839   6.160   3.522
 6042SOL    HW119025   2.927   6.191   3.486
 6042SOL    HW219026   2.770   6.164   3.450
 6043SOL     OW19027   2.255   5.086   1.673
 6043SOL    HW119028   2.353   5.109   1.681
 6043SOL    HW219029   2.213   5.087   1.764
 6044SOL     OW19030   6.437   4.081   6.989
 6044SOL    HW119031   6.363   4.115   6.932
 6044SOL    HW219032   6.524   4.117   6.956
 6045SOL     OW19033   4.888   1.415   4.106
 6045SOL    HW119034   4.975   1.441   4.147
 6045SOL    HW219035   4.831   1.370   4.174
 6046SOL     OW19036   3.144   3.749   2.685
 6046SOL    HW119037   3.094   3.672   2.726
 6046SOL    HW219038   3.089   3.789   2.611
 6047SOL     OW19039   0.195   1.522   0.467
 6047SOL    HW119040   0.159   1.572   0.388
 6047SOL    HW219041   0.165   1.568   0.551
 6048SOL     OW19042   6.506   5.802   3.772
 6048SOL    HW119043   6.420   5.836   3.735
 6048SOL    HW219044   6.502   5.805   3.872
 6049SOL     OW19045   5.237   4.974   0.023
 6049SOL    HW119046   5.240   4.886   6.996
 6049SOL    HW219047   5.271   4.962   0.116
 6050SOL     OW19048   1.785   5.419   3.142
 6050SOL    HW119049   1.730   5.497   3.171
 6050SOL    HW219050   1.736   5.368   3.071
 6051SOL     OW19051   0.539   1.775   2.658
 6051SOL    HW119052   0.511   1.764   2.563
 6051SOL    HW219053   0.501   1.860   2.695
 6052SOL     OW19054   5.405   6.133   6.536
 6052SOL    HW119055   5.337   6.062   6.516
 6052SOL    HW219056   5.420   6.137   6.635
 6053SOL     OW19057   3.655   1.900   5.681
 6053SOL    HW119058   3.630   1.849   5.599
 6053SOL    HW219059   3.692   1.837   5.750
 6054SOL     OW19060   4.484   3.783   6.337
 6054SOL    HW119061   4.550   3.823   6.401
 6054SOL    HW219062   4.528   3.711   6.285
 6055SOL     OW19063   2.726   4.232   1.561
 6055SOL    HW119064   2.683   4.147   1.531
 6055SOL    HW219065   2.668   4.276   1.630
 6056SOL     OW19066   5.394   6.567   3.143
 6056SOL    HW119067   5.445   6.514   3.076
 6056SOL    HW219068   5.374   6.657   3.105
 6057SOL     OW19069   5.890   1.269   4.052
 6057SOL    HW119070   5.893   1.169   4.049
 6057SOL    HW219071   5.897   1.306   3.959
 6058SOL     OW19072   6.811   3.258   5.992
 6058SOL    HW119073   6.718   3.228   5.970
 6058SOL    HW219074   6.870   3.178   6.001
 6059SOL     OW19075   4.236   2.294   6.381
 6059SOL    HW119076   4.263   2.390   6.368
 6059SOL    HW219077   4.215   2.279   6.478
 6060SOL     OW19078   2.452   2.342   1.071
 6060SOL    HW119079   2.427   2.382   0.982
 6060SOL    HW219080   2.475   2.245   1.058
 6061SOL     OW19081   2.513   4.682   6.880
 6061SOL    HW119082   2.459   4.719   6.805
 6061SOL    HW219083   2.511   4.582   6.876
 6062SOL     OW19084   2.098   2.558   5.406
 6062SOL    HW119085   2.074   2.618   5.329
 6062SOL    HW219086   2.036   2.480   5.407
 6063SOL     OW19087   4.701   3.946   6.440
 6063SOL    HW119088   4.672   4.005   6.365
 6063SOL    HW219089   4.756   3.870   6.404
 6064SOL     OW19090   5.809   5.805   7.012
 6064SOL    HW119091   5.771   5.845   0.074
 6064SOL    HW219092   5.878   5.867   6.974
 6065SOL     OW19093   1.540   5.830   1.375
 6065SOL    HW119094   1.531   5.741   1.331
 6065SOL    HW219095   1.602   5.887   1.321
 6066SOL     OW19096   5.729   5.606   2.248
 6066SOL    HW119097   5.750   5.539   2.320
 6066SOL    HW219098   5.716   5.696   2.289
 6067SOL     OW19099   6.624   4.719   5.393
 6067SOL    HW119100   6.596   4.808   5.427
 6067SOL    HW219101   6.589   4.647   5.453
 6068SOL     OW19102   4.500   2.128   3.859
 6068SOL    HW119103   4.600   2.128   3.851
 6068SOL    HW219104   4.467   2.222   3.871
 6069SOL     OW19105   1.030   4.876   5.331
 6069SOL    HW119106   1.117   4.911   5.365
 6069SOL    HW219107   0.955   4.929   5.371
 6070SOL     OW19108   2.500   0.949   1.369
 6070SOL    HW119109   2.452   0.982   1.288
 6070SOL    HW219110   2.588   0.909   1.343
 6071SOL     OW19111   6.258   7.021   6.604
 6071SOL    HW119112   6.172   6.989   6.566
 6071SOL    HW219113   6.333   6.991   6.545
 6072SOL     OW19114   6.925   2.889   0.061
 6072SOL    HW119115   6.908   2.800   0.103
 6072SOL    HW219116   7.000   2.882   7.017
 6073SOL     OW19117   4.496   4.213   0.131
 6073SOL    HW119118   4.482   4.253   0.041
 6073SOL    HW219119   4.456   4.274   0.200
 6074SOL     OW19120   1.245   5.922   2.482
 6074SOL    HW119121   1.176   5.994   2.473
 6074SOL    HW219122   1.334   5.956   2.453
 6075SOL     OW19123   6.453   0.165   7.020
 6075SOL    HW119124   6.461   0.265   7.020
 6075SOL    HW219125   6.357   0.139   7.009
 6076SOL     OW19126   0.146   6.428   3.210
 6076SOL    HW119127   0.229   6.396   3.256
 6076SOL    HW219128   0.104   6.352   3.161
 6077SOL     OW19129   5.320   6.166   2.634
 6077SOL    HW119130   5.328   6.264   2.649
 6077SOL    HW219131   5.223   6.140   2.631
 6078SOL     OW19132   5.631   4.006   0.328
 6078SOL    HW119133   5.653   3.911   0.306
 6078SOL    HW219134   5.563   4.040   0.263
 6079SOL     OW19135   3.462   1.527   0.239
 6079SOL    HW119136   3.440   1.470   0.318
 6079SOL    HW219137   3.561   1.530   0.226
 6080SOL     OW19138   6.100   3.320   5.662
 6080SOL    HW119139   6.191   3.285   5.640
 6080SOL    HW219140   6.080   3.400   5.605
 6081SOL     OW19141   2.147   3.906   4.339
 6081SOL    HW119142   2.143   3.832   4.272
 6081SOL    HW219143   2.141   3.868   4.431
 6082SOL     OW19144   3.906   0.762   0.683
 6082SOL    HW119145   3.858   0.721   0.760
 6082SOL    HW219146   3.866   0.851   0.662
 6083SOL     OW19147   4.981   0.680   5.478
 6083SOL    HW119148   5.000   0.590   5.517
 6083SOL    HW219149   4.899   0.675   5.421
 6084SOL     OW19150   6.473   4.761   3.309
 6084SOL    HW119151   6.451   4.703   3.230
 6084SOL    HW219152   6.445   4.855   3.290
 6085SOL     OW19153   0.612   6.387   1.159
 6085SOL    HW119154   0.660   6.453   1.101
 6085SOL    HW219155   0.559   6.325   1.101
 6086SOL     OW19156   4.736   3.428   0.423
 6086SOL    HW119157   4.690   3.510   0.455
 6086SOL    HW219158   4.736   3.359   0.496
 6087SOL     OW19159   4.222   0.479   0.314
 6087SOL    HW119160   4.303   0.526   0.350
 6087SOL    HW219161   4.151   0.546   0.294
 6088SOL     OW19162   3.817   6.217   2.553
 6088SOL    HW119163   3.798   6.137   2.609
 6088SOL    HW219164   3.908   6.209   2.512
 6089SOL     OW19165   6.183   5.460   2.912
 6089SOL    HW119166   6.219   5.415   2.831
 6089SOL    HW219167   6.232   5.426   2.993
 6090SOL     OW19168   3.657   5.812   4.727
 6090SOL    HW119169   3.734   5.777   4.674
 6090SOL    HW219170   3.572   5.774   4.691
 6091SOL     OW19171   0.382   2.739   1.797
 6091SOL    HW119172   0.432   2.825   1.786
 6091SOL    HW219173   0.442   2.662   1.775
 6092SOL     OW19174   1.901   6.818   1.056
 6092SOL    HW119175   1.868   6.757   0.984
 6092SOL    HW219176   1.937   6.902   1.014
 6093SOL     OW19177   3.784   3.248   2.576
 6093SOL    HW119178   3.751   3.262   2.483
 6093SOL    HW219179   3.742   3.166   2.614
 6094SOL     OW19180   0.561   0.222   5.777
 6094SOL    HW119181   0.473   0.209   5.821
 6094SOL    HW219182   0.624   0.150   5.807
 6095SOL     OW19183   5.361   4.967   1.995
 6095SOL    HW119184   5.269   4.949   1.959
 6095SOL    HW219185   5.368   4.933   2.089
 6096SOL     OW19186   5.202   5.965   2.935
 6096SOL    HW119187   5.266   5.894   2.965
 6096SOL    HW219188   5.251   6.035   2.883
 6097SOL     OW19189   2.258   5.347   1.130
 6097SOL    HW119190   2.274   5.444   1.114
 6097SOL    HW219191   2.344   5.297   1.115
 6098SOL     OW19192   5.875   1.579   5.374
 6098SOL    HW119193   5.778   1.554   5.366
 6098SOL    HW219194   5.931   1.514   5.322
 6099SOL     OW19195   3.467   6.963   5.403
 6099SOL    HW119196   3.385   7.017   5.383
 6099SOL    HW219197   3.522   6.955   5.319
 6100SOL     OW19198   6.764   5.520   5.929
 6100SOL    HW119199   6.811   5.539   5.843
 6100SOL    HW219200   6.778   5.596   5.992
 6101SOL     OW19201   0.907   2.938   0.712
 6101SOL    HW119202   0.815   2.977   0.719
 6101SOL    HW219203   0.970   3.008   0.678
 6102SOL     OW19204   2.894   0.664   2.935
 6102SOL    HW119205   2.944   0.731   2.881
 6102SOL    HW219206   2.951   0.633   3.011
 6103SOL     OW19207   5.986   0.317   2.446
 6103SOL    HW119208   5.929   0.298   2.525
 6103SOL    HW219209   5.998   0.415   2.435
 6104SOL     OW19210   6.182   0.913   5.114
 6104SOL    HW119211   6.127   0.996   5.125
 6104SOL    HW219212   6.261   0.934   5.056
 6105SOL     OW19213   3.977   4.996   6.462
 6105SOL    HW119214   3.880   5.018   6.462
 6105SOL    HW219215   4.020   5.034   6.544
 6106SOL     OW19216   6.742   3.900   5.369
 6106SOL    HW119217   6.718   3.991   5.400
 6106SOL    HW219218   6.658   3.847   5.352
 6107SOL     OW19219   6.013   5.100   4.757
 6107SOL    HW119220   5.964   5.111   4.844
 6107SOL    HW219221   5.959   5.141   4.683
 6108SOL     OW19222   3.263   0.292   6.245
 6108SOL    HW119223   3.286   0.390   6.240
 6108SOL    HW219224   3.180   0.275   6.193
 6109SOL     OW19225   6.929   6.585   3.998
 6109SOL    HW119226   6.831   6.602   4.003
 6109SOL    HW219227   6.979   6.660   4.040
 6110SOL     OW19228   1.188   1.899   3.727
 6110SOL    HW119229   1.279   1.938   3.708
 6110SOL    HW219230   1.122   1.973   3.736
 6111SOL     OW19231   3.118   2.950   1.004
 6111SOL    HW119232   3.134   2.853   1.025
 6111SOL    HW219233   3.053   2.988   1.069
 6112SOL     OW19234   4.980   6.290   3.930
 6112SOL    HW119235   4.915   6.227   3.971
 6112SOL    HW219236   5.037   6.330   4.001
 6113SOL     OW19237   3.257   5.183   1.001
 6113SOL    HW119238   3.350   5.179   1.037
 6113SOL    HW219239   3.213   5.268   1.032
 6114SOL     OW19240   5.038   3.334   1.639
 6114SOL    HW119241   5.080   3.258   1.690
 6114SOL    HW219242   5.083   3.344   1.551
 6115SOL     OW19243   6.060   0.954   4.796
 6115SOL    HW119244   6.147   0.939   4.843
 6115SOL    HW219245   6.067   0.923   4.702
 6116SOL     OW19246   5.959   2.781   0.496
 6116SOL    HW119247   5.881   2.833   0.532
 6116SOL    HW219248   5.970   2.801   0.399
 6117SOL     OW19249   2.762   2.638   1.162
 6117SOL    HW119250   2.792   2.574   1.092
 6117SOL    HW219251   2.749   2.728   1.122
 6118SOL     OW19252   5.949   0.833   1.229
 6118SOL    HW119253   5.898   0.892   1.291
 6118SOL    HW219254   5.915   0.739   1.237
 6119SOL     OW19255   0.739   0.983   6.281
 6119SOL    HW119256   0.803   0.996   6.205
 6119SOL    HW219257   0.766   1.041   6.357
 6120SOL     OW19258   3.375   1.174   3.726
 6120SOL    HW119259   3.323   1.113   3.786
 6120SOL    HW219260   3.347   1.159   3.631
 6121SOL     OW19261   3.051   0.783   5.520
 6121SOL    HW119262   3.148   0.782   5.496
 6121SOL    HW219263   3.042   0.795   5.619
 6122SOL     OW19264   4.555   4.914   4.586
 6122SOL    HW119265   4.515   4.822   4.588
 6122SOL    HW219266   4.639   4.914   4.641
 6123SOL     OW19267   6.114   1.506   5.207
 6123SOL    HW119268   6.123   1.554   5.294
 6123SOL    HW219269   6.155   1.415   5.214
 6124SOL     OW19270   2.215   6.347   4.146
 6124SOL    HW119271   2.243   6.265   4.096
 6124SOL    HW219272   2.125   6.332   4.186
 6125SOL     OW19273   3.214   0.962   5.908
 6125SOL    HW119274   3.307   0.929   5.927
 6125SOL    HW219275   3.217   1.060   5.892
 6126SOL     OW19276   5.648   2.838   6.360
 6126SOL    HW119277   5.669   2.759   6.416
 6126SOL    HW219278   5.716   2.910   6.376
 6127SOL     OW19279   4.990   2.213   2.587
 6127SOL    HW119280   5.029   2.241   2.499
 6127SOL    HW219281   4.908   2.159   2.571
 6128SOL     OW19282   5.738   5.356   5.010
 6128SOL    HW119283   5.779   5.265   5.004
 6128SOL    HW219284   5.651   5.351   5.059
 6129SOL     OW19285   2.353   5.868   3.123
 6129SOL    HW119286   2.271   5.864   3.065
 6129SOL    HW219287   2.431   5.832   3.072
 6130SOL     OW19288   6.178   2.331   6.749
 6130SOL    HW119289   6.219   2.397   6.686
 6130SOL    HW219290   6.113   2.273   6.699
 6131SOL     OW19291   6.001   3.094   2.851
 6131SOL    HW119292   6.040   3.176   2.808
 6131SOL    HW219293   5.914   3.071   2.807
 6132SOL     OW19294   4.622   5.935   6.246
 6132SOL    HW119295   4.637   6.018   6.301
 6132SOL    HW219296   4.529   5.901   6.263
 6133SOL     OW19297   0.398   2.596   3.923
 6133SOL    HW119298   0.451   2.591   3.839
 6133SOL    HW219299   0.357   2.507   3.943
 6134SOL     OW19300   0.334   0.073   5.324
 6134SOL    HW119301   0.429   0.052   5.300
 6134SOL    HW219302   0.327   0.088   5.422
 6135SOL     OW19303   6.148   6.285   0.066
 6135SOL    HW119304   6.231   6.229   0.062
 6135SOL    HW219305   6.131   6.311   0.161
 6136SOL     OW19306   1.061   2.083   3.278
 6136SOL    HW119307   1.089   2.178   3.288
 6136SOL    HW219308   1.012   2.072   3.191
 6137SOL     OW19309   6.936   4.825   0.951
 6137SOL    HW119310   6.951   4.730   0.980
 6137SOL    HW219311   6.867   4.867   1.010
 6138SOL     OW19312   5.494   0.902   2.346
 6138SOL    HW119313   5.505   1.000   2.330
 6138SOL    HW219314   5.494   0.883   2.445
 6139SOL     OW19315   1.922   2.364   5.454
 6139SOL    HW119316   1.841   2.413   5.484
 6139SOL    HW219317   1.898   2.302   5.379
 6140SOL     OW19318   2.084   0.404   3.982
 6140SOL    HW119319   2.040   0.470   4.043
 6140SOL    HW219320   2.036   0.404   3.894
 6141SOL     OW19321   0.975   6.922   0.420
 6141SOL    HW119322   1.020   7.010   0.432
 6141SOL    HW219323   1.041   6.855   0.386
 6142SOL     OW19324   0.441   7.010   1.840
 6142SOL    HW119325   0.469   0.036   1.757
 6142SOL    HW219326   0.486   6.920   1.843
 6143SOL     OW19327   0.906   3.131   5.590
 6143SOL    HW119328   0.986   3.181   5.556
 6143SOL    HW219329   0.916   3.033   5.570
 6144SOL     OW19330   3.467   5.728   2.475
 6144SOL    HW119331   3.385   5.784   2.482
 6144SOL    HW219332   3.548   5.784   2.495
 6145SOL     OW19333   5.400   3.217   4.418
 6145SOL    HW119334   5.486   3.179   4.383
 6145SOL    HW219335   5.373   3.296   4.363
 6146SOL     OW19336   5.792   1.599   5.636
 6146SOL    HW119337   5.709   1.653   5.620
 6146SOL    HW219338   5.852   1.605   5.556
 6147SOL     OW19339   1.544   1.714   5.854
 6147SOL    HW119340   1.522   1.791   5.794
 6147SOL    HW219341   1.544   1.745   5.949
 6148SOL     OW19342   3.980   5.051   6.907
 6148SOL    HW119343   3.966   5.148   6.927
 6148SOL    HW219344   3.906   4.997   6.948
 6149SOL     OW19345   4.093   1.710   1.842
 6149SOL    HW119346   4.002   1.697   1.803
 6149SOL    HW219347   4.146   1.625   1.833
 6150SOL     OW19348   0.696   4.568   4.111
 6150SOL    HW119349   0.649   4.652   4.140
 6150SOL    HW219350   0.743   4.527   4.190
 6151SOL     OW19351   3.741   5.346   2.104
 6151SOL    HW119352   3.735   5.267   2.165
 6151SOL    HW219353   3.652   5.364   2.064
 6152SOL     OW19354   0.142   3.623   3.131
 6152SOL    HW119355   0.192   3.617   3.217
 6152SOL    HW219356   0.063   3.563   3.134
 6153SOL     OW19357   5.997   6.359   0.903
 6153SOL    HW119358   5.922   6.419   0.932
 6153SOL    HW219359   6.056   6.338   0.981
 6154SOL     OW19360   4.252   4.943   2.811
 6154SOL    HW119361   4.175   4.907   2.862
 6154SOL    HW219362   4.258   4.898   2.722
 6155SOL     OW19363   1.553   1.889   4.402
 6155SOL    HW119364   1.642   1.867   4.440
 6155SOL    HW219365   1.495   1.929   4.473
 6156SOL     OW19366   4.333   4.635   2.638
 6156SOL    HW119367   4.350   4.575   2.560
 6156SOL    HW219368   4.367   4.592   2.721
 6157SOL     OW19369   0.455   2.606   1.096
 6157SOL    HW119370   0.441   2.592   0.998
 6157SOL    HW219371   0.553   2.620   1.114
 6158SOL     OW19372   3.489   0.265   5.956
 6158SOL    HW119373   3.421   0.301   5.892
 6158SOL    HW219374   3.465   0.291   6.049
 6159SOL     OW19375   6.417   1.909   1.112
 6159SOL    HW119376   6.451   1.817   1.096
 6159SOL    HW219377   6.391   1.951   1.025
 6160SOL     OW19378   0.893   0.012   1.051
 6160SOL    HW119379   0.915   6.936   1.050
 6160SOL    HW219380   0.914   0.052   0.962
 6161SOL     OW19381   6.144   4.035   6.965
 6161SOL    HW119382   6.060   4.060   7.013
 6161SOL    HW219383   6.171   4.108   6.902
 6162SOL     OW19384   6.132   6.274   1.152
 6162SOL    HW119385   6.152   6.199   1.089
 6162SOL    HW219386   6.122   6.238   1.245
 6163SOL     OW19387   6.001   6.006   3.046
 6163SOL    HW119388   5.971   5.977   2.955
 6163SOL    HW219389   5.979   5.934   3.112
 6164SOL     OW19390   3.196   4.003   4.598
 6164SOL    HW119391   3.099   3.979   4.595
 6164SOL    HW219392   3.243   3.962   4.521
 6165SOL     OW19393   2.999   0.689   0.321
 6165SOL    HW119394   2.921   0.662   0.377
 6165SOL    HW219395   3.080   0.639   0.351
 6166SOL     OW19396   3.273   1.253   5.944
 6166SOL    HW119397   3.337   1.329   5.956
 6166SOL    HW219398   3.185   1.277   5.984
 6167SOL     OW19399   1.110   3.108   2.711
 6167SOL    HW119400   1.185   3.149   2.762
 6167SOL    HW219401   1.028   3.165   2.720
 6168SOL     OW19402   0.631   3.783   3.803
 6168SOL    HW119403   0.643   3.796   3.901
 6168SOL    HW219404   0.634   3.872   3.757
 6169SOL     OW19405   2.375   1.232   0.575
 6169SOL    HW119406   2.413   1.147   0.611
 6169SOL    HW219407   2.447   1.301   0.569
 6170SOL     OW19408   2.972   4.801   1.314
 6170SOL    HW119409   2.978   4.702   1.316
 6170SOL    HW219410   2.935   4.831   1.225
 6171SOL     OW19411   2.161   4.343   1.926
 6171SOL    HW119412   2.111   4.394   1.996
 6171SOL    HW219413   2.095   4.298   1.865
 6172SOL     OW19414   2.559   5.040   1.465
 6172SOL    HW119415   2.563   4.950   1.422
 6172SOL    HW219416   2.528   5.107   1.398
 6173SOL     OW19417   1.056   5.311   2.492
 6173SOL    HW119418   1.086   5.305   2.587
 6173SOL    HW219419   1.014   5.401   2.477
 6174SOL     OW19420   6.362   4.932   1.609
 6174SOL    HW119421   6.315   4.955   1.694
 6174SOL    HW219422   6.423   4.854   1.625
 6175SOL     OW19423   5.761   0.109   4.068
 6175SOL    HW119424   5.796   0.063   3.987
 6175SOL    HW219425   5.662   0.095   4.075
 6176SOL     OW19426   6.193   3.164   0.361
 6176SOL    HW119427   6.097   3.136   0.359
 6176SOL    HW219428   6.247   3.096   0.411
 6177SOL     OW19429   6.002   2.310   2.626
 6177SOL    HW119430   6.002   2.213   2.600
 6177SOL    HW219431   5.921   2.330   2.682
 6178SOL     OW19432   6.615   3.032   0.900
 6178SOL    HW119433   6.523   3.010   0.867
 6178SOL    HW219434   6.609   3.108   0.965
 6179SOL     OW19435   1.005   1.445   5.120
 6179SOL    HW119436   0.947   1.438   5.039
 6179SOL    HW219437   1.066   1.523   5.110
 6180SOL     OW19438   3.167   1.046   6.519
 6180SOL    HW119439   3.255   1.092   6.534
 6180SOL    HW219440   3.104   1.069   6.593
 6181SOL     OW19441   4.265   6.302   6.404
 6181SOL    HW119442   4.318   6.296   6.489
 6181SOL    HW219443   4.168   6.311   6.426
 6182SOL     OW19444   4.796   6.836   5.385
 6182SOL    HW119445   4.824   6.916   5.332
 6182SOL    HW219446   4.780   6.759   5.323
 6183SOL     OW19447   2.730   0.465   2.603
 6183SOL    HW119448   2.777   0.454   2.515
 6183SOL    HW219449   2.632   0.467   2.588
 6184SOL     OW19450   6.728   0.950   5.727
 6184SOL    HW119451   6.728   0.913   5.634
 6184SOL    HW219452   6.702   1.046   5.724
 6185SOL     OW19453   2.623   2.501   0.025
 6185SOL    HW119454   2.552   2.433   0.005
 6185SOL    HW219455   2.580   2.588   0.050
 6186SOL     OW19456   4.289   1.078   4.040
 6186SOL    HW119457   4.321   1.105   4.131
 6186SOL    HW219458   4.228   0.999   4.047
 6187SOL     OW19459   3.028   4.859   4.257
 6187SOL    HW119460   3.015   4.957   4.244
 6187SOL    HW219461   2.942   4.811   4.239
 6188SOL     OW19462   2.719   0.183   2.306
 6188SOL    HW119463   2.726   0.129   2.222
 6188SOL    HW219464   2.752   0.128   2.383
 6189SOL     OW19465   5.133   4.896   3.005
 6189SOL    HW119466   5.100   4.801   3.000
 6189SOL    HW219467   5.217   4.900   3.058
 6190SOL     OW19468   5.177   3.065   5.805
 6190SOL    HW119469   5.138   2.979   5.772
 6190SOL    HW219470   5.110   3.139   5.794
 6191SOL     OW19471   0.012   1.694   6.464
 6191SOL    HW119472   7.017   1.793   6.466
 6191SOL    HW219473   0.070   1.672   6.386
 6192SOL     OW19474   3.272   1.865   0.615
 6192SOL    HW119475   3.263   1.926   0.694
 6192SOL    HW219476   3.364   1.874   0.576
 6193SOL     OW19477   0.277   0.160   1.961
 6193SOL    HW119478   0.326   0.246   1.946
 6193SOL    HW219479   0.321   0.087   1.908
 6194SOL     OW19480   2.683   0.234   0.810
 6194SOL    HW119481   2.711   0.162   0.874
 6194SOL    HW219482   2.585   0.225   0.792
 6195SOL     OW19483   2.426   0.213   5.711
 6195SOL    HW119484   2.383   0.137   5.760
 6195SOL    HW219485   2.486   0.263   5.774
 6196SOL     OW19486   1.209   1.919   5.457
 6196SOL    HW119487   1.137   1.988   5.468
 6196SOL    HW219488   1.282   1.957   5.401
 6197SOL     OW19489   2.691   2.983   1.616
 6197SOL    HW119490   2.657   2.916   1.682
 6197SOL    HW219491   2.700   2.940   1.527
 6198SOL     OW19492   3.431   5.335   2.594
 6198SOL    HW119493   3.470   5.307   2.506
 6198SOL    HW219494   3.502   5.331   2.665
 6199SOL     OW19495   0.341   0.365   6.818
 6199SOL    HW119496   0.363   0.431   6.890
 6199SOL    HW219497   0.358   0.408   6.729
 6200SOL     OW19498   3.878   0.224   5.853
 6200SOL    HW119499   3.813   0.152   5.829
 6200SOL    HW219500   3.971   0.186   5.855
 6201SOL     OW19501   2.160   5.089   4.499
 6201SOL    HW119502   2.232   5.082   4.568
 6201SOL    HW219503   2.078   5.127   4.542
 6202SOL     OW19504   2.046   2.437   1.468
 6202SOL    HW119505   1.994   2.372   1.413
 6202SOL    HW219506   2.141   2.405   1.476
 6203SOL     OW19507   5.675   2.330   3.810
 6203SOL    HW119508   5.762   2.376   3.824
 6203SOL    HW219509   5.602   2.383   3.853
 6204SOL     OW19510   1.002   6.610   5.621
 6204SOL    HW119511   1.009   6.511   5.629
 6204SOL    HW219512   1.078   6.653   5.669
 6205SOL     OW19513   4.774   6.278   6.821
 6205SOL    HW119514   4.863   6.301   6.782
 6205SOL    HW219515   4.761   6.328   6.907
 6206SOL     OW19516   5.122   0.018   3.835
 6206SOL    HW119517   5.065   0.089   3.876
 6206SOL    HW219518   5.111   0.020   3.735
 6207SOL     OW19519   1.953   4.155   4.441
 6207SOL    HW119520   2.034   4.167   4.498
 6207SOL    HW219521   1.901   4.075   4.473
 6208SOL     OW19522   5.203   4.694   5.562
 6208SOL    HW119523   5.286   4.640   5.548
 6208SOL    HW219524   5.128   4.635   5.590
 6209SOL     OW19525   1.992   5.818   0.830
 6209SOL    HW119526   2.075   5.774   0.795
 6209SOL    HW219527   1.959   5.768   0.910
 6210SOL     OW19528   0.187   3.954   2.920
 6210SOL    HW119529   0.205   4.052   2.930
 6210SOL    HW219530   0.169   3.934   2.824
 6211SOL     OW19531   2.523   0.638   5.229
 6211SOL    HW119532   2.595   0.617   5.296
 6211SOL    HW219533   2.450   0.689   5.275
 6212SOL     OW19534   6.574   0.511   3.883
 6212SOL    HW119535   6.661   0.462   3.891
 6212SOL    HW219536   6.591   0.609   3.885
 6213SOL     OW19537   6.540   6.860   0.154
 6213SOL    HW119538   6.631   6.862   0.114
 6213SOL    HW219539   6.543   6.898   0.247
 6214SOL     OW19540   4.808   4.407   1.677
 6214SOL    HW119541   4.878   4.383   1.744
 6214SOL    HW219542   4.739   4.465   1.721
 6215SOL     OW19543   3.297   4.671   1.378
 6215SOL    HW119544   3.201   4.664   1.408
 6215SOL    HW219545   3.324   4.585   1.335
 6216SOL     OW19546   6.939   2.720   2.791
 6216SOL    HW119547   6.928   2.692   2.696
 6216SOL    HW219548   6.869   2.677   2.847
 6217SOL     OW19549   4.416   1.661   1.728
 6217SOL    HW119550   4.463   1.748   1.746
 6217SOL    HW219551   4.480   1.596   1.688
 6218SOL     OW19552   4.827   6.015   4.569
 6218SOL    HW119553   4.900   5.991   4.633
 6218SOL    HW219554   4.781   6.097   4.602
 6219SOL     OW19555   0.072   1.322   4.445
 6219SOL    HW119556   0.151   1.335   4.386
 6219SOL    HW219557   0.096   1.347   4.539
 6220SOL     OW19558   1.039   3.171   4.909
 6220SOL    HW119559   1.122   3.176   4.965
 6220SOL    HW219560   0.994   3.082   4.924
 6221SOL     OW19561   4.279   4.672   4.271
 6221SOL    HW119562   4.210   4.739   4.298
 6221SOL    HW219563   4.271   4.653   4.173
 6222SOL     OW19564   6.580   2.048   1.283
 6222SOL    HW119565   6.541   1.998   1.205
 6222SOL    HW219566   6.614   1.983   1.351
 6223SOL     OW19567   5.179   4.270   3.755
 6223SOL    HW119568   5.151   4.269   3.851
 6223SOL    HW219569   5.275   4.297   3.749
 6224SOL     OW19570   2.108   0.187   4.495
 6224SOL    HW119571   2.124   0.217   4.589
 6224SOL    HW219572   2.106   0.267   4.434
 6225SOL     OW19573   3.844   1.764   6.745
 6225SOL    HW119574   3.917   1.822   6.708
 6225SOL    HW219575   3.808   1.804   6.829
 6226SOL     OW19576   0.281   6.330   4.522
 6226SOL    HW119577   0.214   6.382   4.575
 6226SOL    HW219578   0.239   6.298   4.437
 6227SOL     OW19579   2.617   4.274   6.332
 6227SOL    HW119580   2.633   4.362   6.377
 6227SOL    HW219581   2.521   4.268   6.303
 6228SOL     OW19582   0.241   2.429   2.530
 6228SOL    HW119583   0.146   2.453   2.511
 6228SOL    HW219584   0.276   2.489   2.602
 6229SOL     OW19585   1.046   2.320   2.008
 6229SOL    HW119586   1.036   2.221   2.023
 6229SOL    HW219587   0.966   2.367   2.047
 6230SOL     OW19588   1.955   2.343   3.987
 6230SOL    HW119589   1.864   2.385   3.995
 6230SOL    HW219590   1.950   2.263   3.928
 6231SOL     OW19591   6.597   4.912   1.973
 6231SOL    HW119592   6.696   4.904   1.988
 6231SOL    HW219593   6.557   4.821   1.969
 6232SOL     OW19594   0.980   0.729   0.236
 6232SOL    HW119595   1.043   0.656   0.262
 6232SOL    HW219596   1.014   0.774   0.153
 6233SOL     OW19597   4.282   1.173   6.526
 6233SOL    HW119598   4.259   1.136   6.615
 6233SOL    HW219599   4.248   1.113   6.454
 6234SOL     OW19600   2.836   2.066   3.398
 6234SOL    HW119601   2.845   1.996   3.468
 6234SOL    HW219602   2.888   2.038   3.317
 6235SOL     OW19603   2.048   5.571   2.037
 6235SOL    HW119604   2.091   5.655   2.071
 6235SOL    HW219605   2.071   5.495   2.098
 6236SOL     OW19606   0.336   4.212   0.098
 6236SOL    HW119607   0.414   4.274   0.099
 6236SOL    HW219608   0.254   4.261   0.128
 6237SOL     OW19609   3.502   5.826   6.206
 6237SOL    HW119610   3.434   5.891   6.170
 6237SOL    HW219611   3.522   5.849   6.301
 6238SOL     OW19612   5.206   3.435   0.883
 6238SOL    HW119613   5.276   3.372   0.851
 6238SOL    HW219614   5.121   3.419   0.832
 6239SOL     OW19615   3.811   6.142   3.503
 6239SOL    HW119616   3.893   6.127   3.448
 6239SOL    HW219617   3.752   6.208   3.457
 6240SOL     OW19618   2.764   3.903   0.115
 6240SOL    HW119619   2.839   3.940   0.060
 6240SOL    HW219620   2.755   3.805   0.097
 6241SOL     OW19621   4.888   6.798   2.666
 6241SOL    HW119622   4.863   6.758   2.755
 6241SOL    HW219623   4.946   6.733   2.616
 6242SOL     OW19624   3.730   2.074   2.779
 6242SOL    HW119625   3.680   2.146   2.731
 6242SOL    HW219626   3.813   2.052   2.728
 6243SOL     OW19627   6.321   5.436   3.171
 6243SOL    HW119628   6.400   5.386   3.137
 6243SOL    HW219629   6.275   5.382   3.241
 6244SOL     OW19630   1.293   1.827   1.943
 6244SOL    HW119631   1.392   1.831   1.931
 6244SOL    HW219632   1.268   1.743   1.992
 6245SOL     OW19633   2.503   3.783   0.261
 6245SOL    HW119634   2.568   3.751   0.330
 6245SOL    HW219635   2.534   3.870   0.223
 6246SOL     OW19636   4.103   6.693   0.230
 6246SOL    HW119637   4.100   6.778   0.178
 6246SOL    HW219638   4.036   6.629   0.193
 6247SOL     OW19639   6.729   6.992   3.005
 6247SOL    HW119640   6.711   0.031   3.083
 6247SOL    HW219641   6.699   6.899   3.028
 6248SOL     OW19642   0.924   6.034   0.671
 6248SOL    HW119643   1.023   6.045   0.664
 6248SOL    HW219644   0.883   6.041   0.580
 6249SOL     OW19645   6.006   2.595   5.809
 6249SOL    HW119646   5.925   2.590   5.868
 6249SOL    HW219647   6.025   2.690   5.785
 6250SOL     OW19648   6.582   4.396   5.998
 6250SOL    HW119649   6.616   4.380   5.906
 6250SOL    HW219650   6.629   4.335   6.062
 6251SOL     OW19651   4.383   1.122   1.155
 6251SOL    HW119652   4.283   1.127   1.163
 6251SOL    HW219653   4.416   1.202   1.104
 6252SOL     OW19654   2.087   6.519   5.324
 6252SOL    HW119655   2.019   6.541   5.253
 6252SOL    HW219656   2.175   6.502   5.281
 6253SOL     OW19657   2.411   3.306   1.429
 6253SOL    HW119658   2.503   3.331   1.461
 6253SOL    HW219659   2.376   3.231   1.486
 6254SOL     OW19660   4.995   0.477   0.375
 6254SOL    HW119661   4.989   0.575   0.358
 6254SOL    HW219662   4.927   0.450   0.443
 6255SOL     OW19663   0.586   3.134   3.137
 6255SOL    HW119664   0.571   3.207   3.203
 6255SOL    HW219665   0.638   3.169   3.059
 6256SOL     OW19666   3.622   5.198   4.380
 6256SOL    HW119667   3.642   5.122   4.442
 6256SOL    HW219668   3.599   5.280   4.434
 6257SOL     OW19669   4.268   2.919   6.753
 6257SOL    HW119670   4.298   2.958   6.840
 6257SOL    HW219671   4.171   2.897   6.758
 6258SOL     OW19672   4.797   1.848   3.282
 6258SOL    HW119673   4.812   1.924   3.346
 6258SOL    HW219674   4.702   1.849   3.251
 6259SOL     OW19675   3.491   2.107   1.789
 6259SOL    HW119676   3.506   2.039   1.861
 6259SOL    HW219677   3.563   2.176   1.793
 6260SOL     OW19678   3.331   4.399   1.315
 6260SOL    HW119679   3.327   4.312   1.266
 6260SOL    HW219680   3.300   4.385   1.409
 6261SOL     OW19681   4.786   6.644   6.106
 6261SOL    HW119682   4.809   6.735   6.140
 6261SOL    HW219683   4.864   6.583   6.116
 6262SOL     OW19684   7.007   5.749   5.102
 6262SOL    HW119685   6.941   5.693   5.152
 6262SOL    HW219686   0.060   5.775   5.164
 6263SOL     OW19687   6.592   0.658   1.502
 6263SOL    HW119688   6.571   0.728   1.570
 6263SOL    HW219689   6.530   0.668   1.424
 6264SOL     OW19690   2.563   1.424   0.551
 6264SOL    HW119691   2.645   1.432   0.608
 6264SOL    HW219692   2.586   1.449   0.457
 6265SOL     OW19693   6.184   3.439   0.401
 6265SOL    HW119694   6.188   3.432   0.501
 6265SOL    HW219695   6.229   3.359   0.361
 6266SOL     OW19696   2.518   0.076   2.712
 6266SOL    HW119697   2.579   0.095   2.789
 6266SOL    HW219698   2.568   0.025   2.642
 6267SOL     OW19699   3.310   6.367   0.096
 6267SOL    HW119700   3.359   6.281   0.078
 6267SOL    HW219701   3.223   6.346   0.142
 6268SOL     OW19702   2.050   6.211   2.041
 6268SOL    HW119703   1.987   6.270   1.991
 6268SOL    HW219704   2.028   6.115   2.021
 6269SOL     OW19705   6.491   4.267   6.625
 6269SOL    HW119706   6.458   4.184   6.580
 6269SOL    HW219707   6.578   4.248   6.670
 6270SOL     OW19708   0.541   1.308   4.118
 6270SOL    HW119709   0.614   1.374   4.105
 6270SOL    HW219710   0.536   1.246   4.039
 6271SOL     OW19711   5.710   1.722   1.361
 6271SOL    HW119712   5.721   1.802   1.303
 6271SOL    HW219713   5.777   1.652   1.336
 6272SOL     OW19714   2.540   2.562   3.818
 6272SOL    HW119715   2.446   2.545   3.849
 6272SOL    HW219716   2.547   2.657   3.785
 6273SOL     OW19717   3.875   1.327   2.786
 6273SOL    HW119718   3.910   1.269   2.712
 6273SOL    HW219719   3.949   1.381   2.825
 6274SOL     OW19720   2.797   5.808   0.052
 6274SOL    HW119721   2.861   5.850   7.010
 6274SOL    HW219722   2.705   5.844   0.036
 6275SOL     OW19723   3.371   0.651   4.666
 6275SOL    HW119724   3.455   0.704   4.658
 6275SOL    HW219725   3.318   0.685   4.743
 6276SOL     OW19726   1.087   5.127   3.542
 6276SOL    HW119727   1.141   5.046   3.519
 6276SOL    HW219728   1.142   5.189   3.598
 6277SOL     OW19729   6.320   3.603   3.994
 6277SOL    HW119730   6.391   3.614   4.063
 6277SOL    HW219731   6.257   3.530   4.022
 6278SOL     OW19732   4.920   1.057   3.196
 6278SOL    HW119733   4.892   1.126   3.129
 6278SOL    HW219734   4.861   0.976   3.187
 6279SOL     OW19735   3.781   1.785   5.932
 6279SOL    HW119736   3.849   1.715   5.909
 6279SOL    HW219737   3.715   1.747   5.997
 6280SOL     OW19738   1.436   5.461   5.921
 6280SOL    HW119739   1.521   5.450   5.869
 6280SOL    HW219740   1.452   5.437   6.017
 6281SOL     OW19741   3.183   6.189   4.647
 6281SOL    HW119742   3.222   6.103   4.613
 6281SOL    HW219743   3.147   6.242   4.570
 6282SOL     OW19744   0.712   6.814   4.462
 6282SOL    HW119745   0.792   6.834   4.406
 6282SOL    HW219746   0.738   6.813   4.559
 6283SOL     OW19747   0.936   2.906   4.944
 6283SOL    HW119748   0.937   2.921   4.845
 6283SOL    HW219749   0.877   2.829   4.966
 6284SOL     OW19750   2.399   4.992   0.100
 6284SOL    HW119751   2.362   4.974   0.009
 6284SOL    HW219752   2.497   4.973   0.101
 6285SOL     OW19753   2.069   3.966   2.068
 6285SOL    HW119754   2.050   3.893   2.134
 6285SOL    HW219755   2.074   4.054   2.115
 6286SOL     OW19756   0.053   6.128   4.612
 6286SOL    HW119757   0.149   6.130   4.640
 6286SOL    HW219758   0.025   6.221   4.588
 6287SOL     OW19759   3.580   4.910   2.983
 6287SOL    HW119760   3.630   4.935   2.901
 6287SOL    HW219761   3.483   4.897   2.962
 6288SOL     OW19762   6.236   3.459   0.681
 6288SOL    HW119763   6.160   3.426   0.737
 6288SOL    HW219764   6.217   3.553   0.651
 6289SOL     OW19765   0.540   6.462   2.758
 6289SOL    HW119766   0.601   6.471   2.837
 6289SOL    HW219767   0.589   6.488   2.675
 6290SOL     OW19768   5.710   4.042   4.121
 6290SOL    HW119769   5.621   4.087   4.109
 6290SOL    HW219770   5.696   3.946   4.142
 6291SOL     OW19771   3.747   4.117   3.629
 6291SOL    HW119772   3.694   4.137   3.546
 6291SOL    HW219773   3.690   4.065   3.693
 6292SOL     OW19774   6.928   0.909   1.507
 6292SOL    HW119775   6.837   0.949   1.513
 6292SOL    HW219776   6.970   0.935   1.420
 6293SOL     OW19777   5.906   4.674   5.685
 6293SOL    HW119778   5.836   4.687   5.615
 6293SOL    HW219779   5.866   4.688   5.776
 6294SOL     OW19780   3.117   6.356   1.646
 6294SOL    HW119781   3.198   6.305   1.675
 6294SOL    HW219782   3.070   6.305   1.574
 6295SOL     OW19783   6.463   5.819   5.935
 6295SOL    HW119784   6.533   5.838   6.004
 6295SOL    HW219785   6.391   5.888   5.940
 6296SOL     OW19786   6.241   2.076   3.478
 6296SOL    HW119787   6.169   2.145   3.474
 6296SOL    HW219788   6.329   2.118   3.458
 6297SOL     OW19789   5.571   1.209   5.804
 6297SOL    HW119790   5.553   1.288   5.745
 6297SOL    HW219791   5.636   1.148   5.759
 6298SOL     OW19792   6.232   2.517   4.228
 6298SOL    HW119793   6.274   2.570   4.301
 6298SOL    HW219794   6.260   2.421   4.236
 6299SOL     OW19795   0.235   2.510   0.129
 6299SOL    HW119796   0.222   2.496   0.227
 6299SOL    HW219797   0.284   2.595   0.113
 6300SOL     OW19798   5.171   1.186   3.545
 6300SOL    HW119799   5.127   1.218   3.461
 6300SOL    HW219800   5.212   1.096   3.529
 6301SOL     OW19801   3.240   0.399   1.412
 6301SOL    HW119802   3.265   0.421   1.318
 6301SOL    HW219803   3.304   0.331   1.449
 6302SOL     OW19804   6.474   0.267   3.093
 6302SOL    HW119805   6.542   0.203   3.128
 6302SOL    HW219806   6.457   0.339   3.160
 6303SOL     OW19807   2.497   5.364   4.525
 6303SOL    HW119808   2.579   5.358   4.468
 6303SOL    HW219809   2.485   5.459   4.556
 6304SOL     OW19810   4.420   0.811   4.895
 6304SOL    HW119811   4.516   0.804   4.922
 6304SOL    HW219812   4.369   0.731   4.927
 6305SOL     OW19813   5.492   0.255   2.805
 6305SOL    HW119814   5.423   0.243   2.876
 6305SOL    HW219815   5.546   0.172   2.795
 6306SOL     OW19816   5.994   3.132   4.115
 6306SOL    HW119817   5.985   3.174   4.024
 6306SOL    HW219818   6.087   3.097   4.126
 6307SOL     OW19819   2.184   4.788   0.122
 6307SOL    HW119820   2.102   4.832   0.159
 6307SOL    HW219821   2.253   4.857   0.103
 6308SOL     OW19822   4.288   2.520   6.162
 6308SOL    HW119823   4.188   2.524   6.156
 6308SOL    HW219824   4.323   2.461   6.089
 6309SOL     OW19825   6.009   2.309   5.297
 6309SOL    HW119826   5.961   2.314   5.385
 6309SOL    HW219827   6.002   2.398   5.250
 6310SOL     OW19828   6.824   5.589   4.563
 6310SOL    HW119829   6.910   5.615   4.608
 6310SOL    HW219830   6.756   5.661   4.576
 6311SOL     OW19831   5.902   0.261   4.445
 6311SOL    HW119832   5.893   0.277   4.347
 6311SOL    HW219833   5.960   0.181   4.460
 6312SOL     OW19834   5.890   3.945   5.354
 6312SOL    HW119835   5.921   3.988   5.269
 6312SOL    HW219836   5.832   3.867   5.333
 6313SOL     OW19837   2.631   5.742   4.027
 6313SOL    HW119838   2.636   5.655   3.978
 6313SOL    HW219839   2.704   5.745   4.096
 6314SOL     OW19840   1.335   0.096   3.463
 6314SOL    HW119841   1.319   0.029   3.391
 6314SOL    HW219842   1.344   0.187   3.422
 6315SOL     OW19843   1.874   3.426   0.445
 6315SOL    HW119844   1.789   3.479   0.445
 6315SOL    HW219845   1.858   3.337   0.400
 6316SOL     OW19846   4.241   1.022   4.955
 6316SOL    HW119847   4.299   0.952   4.912
 6316SOL    HW219848   4.278   1.045   5.045
 6317SOL     OW19849   6.743   5.572   4.288
 6317SOL    HW119850   6.774   5.542   4.378
 6317SOL    HW219851   6.656   5.527   4.266
 6318SOL     OW19852   1.701   2.449   3.965
 6318SOL    HW119853   1.691   2.438   3.866
 6318SOL    HW219854   1.663   2.537   3.993
 6319SOL     OW19855   1.241   1.844   3.152
 6319SOL    HW119856   1.165   1.858   3.216
 6319SOL    HW219857   1.205   1.806   3.066
 6320SOL     OW19858   0.453   2.325   2.815
 6320SOL    HW119859   0.476   2.374   2.731
 6320SOL    HW219860   0.354   2.317   2.822
 6321SOL     OW19861   2.221   4.007   5.758
 6321SOL    HW119862   2.207   4.069   5.681
 6321SOL    HW219863   2.176   3.920   5.739
 6322SOL     OW19864   2.616   6.740   0.049
 6322SOL    HW119865   2.536   6.687   0.022
 6322SOL    HW219866   2.694   6.716   7.012
 6323SOL     OW19867   4.499   1.528   2.208
 6323SOL    HW119868   4.499   1.540   2.307
 6323SOL    HW219869   4.405   1.534   2.174
 6324SOL     OW19870   3.189   1.787   0.984
 6324SOL    HW119871   3.225   1.837   1.063
 6324SOL    HW219872   3.146   1.702   1.015
 6325SOL     OW19873   1.849   2.913   3.189
 6325SOL    HW119874   1.856   2.869   3.278
 6325SOL    HW219875   1.806   3.003   3.199
 6326SOL     OW19876   4.514   6.691   1.258
 6326SOL    HW119877   4.529   6.757   1.183
 6326SOL    HW219878   4.585   6.621   1.256
 6327SOL     OW19879   3.895   5.419   5.382
 6327SOL    HW119880   3.954   5.477   5.325
 6327SOL    HW219881   3.949   5.374   5.453
 6328SOL     OW19882   3.197   4.233   6.932
 6328SOL    HW119883   3.218   4.143   6.893
 6328SOL    HW219884   3.098   4.244   6.939
 6329SOL     OW19885   0.904   2.082   3.660
 6329SOL    HW119886   0.921   2.163   3.604
 6329SOL    HW219887   0.924   2.103   3.756
 6330SOL     OW19888   3.348   0.645   0.157
 6330SOL    HW119889   3.295   0.563   0.136
 6330SOL    HW219890   3.366   0.696   0.073
 6331SOL     OW19891   5.143   2.908   1.293
 6331SOL    HW119892   5.212   2.965   1.337
 6331SOL    HW219893   5.180   2.871   1.207
 6332SOL     OW19894   4.594   6.003   1.980
 6332SOL    HW119895   4.657   6.074   1.949
 6332SOL    HW219896   4.570   6.019   2.076
 6333SOL     OW19897   2.554   5.334   2.440
 6333SOL    HW119898   2.642   5.345   2.486
 6333SOL    HW219899   2.493   5.408   2.469
 6334SOL     OW19900   2.402   0.950   2.291
 6334SOL    HW119901   2.306   0.928   2.306
 6334SOL    HW219902   2.411   1.011   2.213
 6335SOL     OW19903   6.343   0.980   6.937
 6335SOL    HW119904   6.435   0.986   6.974
 6335SOL    HW219905   6.329   0.889   6.897
 6336SOL     OW19906   1.794   2.875   5.422
 6336SOL    HW119907   1.890   2.898   5.435
 6336SOL    HW219908   1.740   2.960   5.414
 6337SOL     OW19909   0.718   4.644   5.154
 6337SOL    HW119910   0.790   4.615   5.090
 6337SOL    HW219911   0.758   4.654   5.245
 6338SOL     OW19912   3.630   1.155   4.471
 6338SOL    HW119913   3.726   1.158   4.501
 6338SOL    HW219914   3.615   1.072   4.417
 6339SOL     OW19915   6.679   2.554   4.055
 6339SOL    HW119916   6.614   2.597   4.118
 6339SOL    HW219917   6.772   2.571   4.088
 6340SOL     OW19918   3.250   5.598   3.308
 6340SOL    HW119919   3.233   5.542   3.389
 6340SOL    HW219920   3.334   5.651   3.321
 6341SOL     OW19921   6.247   5.213   1.999
 6341SOL    HW119922   6.177   5.224   2.070
 6341SOL    HW219923   6.268   5.302   1.959
 6342SOL     OW19924   1.029   3.757   0.281
 6342SOL    HW119925   0.978   3.755   0.367
 6342SOL    HW219926   1.125   3.778   0.299
 6343SOL     OW19927   4.038   1.418   0.162
 6343SOL    HW119928   3.958   1.396   0.105
 6343SOL    HW219929   4.108   1.349   0.147
 6344SOL     OW19930   6.243   4.776   4.623
 6344SOL    HW119931   6.291   4.863   4.624
 6344SOL    HW219932   6.273   4.720   4.701
 6345SOL     OW19933   2.112   1.857   1.058
 6345SOL    HW119934   2.046   1.836   1.131
 6345SOL    HW219935   2.107   1.954   1.037
 6346SOL     OW19936   0.757   5.115   3.992
 6346SOL    HW119937   0.720   5.183   3.929
 6346SOL    HW219938   0.699   5.109   4.073
 6347SOL     OW19939   2.877   0.576   0.823
 6347SOL    HW119940   2.936   0.527   0.758
 6347SOL    HW219941   2.795   0.607   0.776
 6348SOL     OW19942   0.188   2.216   4.401
 6348SOL    HW119943   0.105   2.224   4.346
 6348SOL    HW219944   0.221   2.308   4.425
 6349SOL     OW19945   0.884   0.923   0.452
 6349SOL    HW119946   0.962   0.896   0.509
 6349SOL    HW219947   0.882   0.866   0.370
 6350SOL     OW19948   6.701   5.686   3.119
 6350SOL    HW119949   6.605   5.692   3.094
 6350SOL    HW219950   6.728   5.590   3.127
 6351SOL     OW19951   0.159   2.016   3.064
 6351SOL    HW119952   0.246   1.990   3.021
 6351SOL    HW219953   0.177   2.062   3.150
 6352SOL     OW19954   6.477   4.236   2.783
 6352SOL    HW119955   6.513   4.200   2.697
 6352SOL    HW219956   6.416   4.168   2.824
 6353SOL     OW19957   0.046   6.891   2.032
 6353SOL    HW119958   0.067   6.986   2.057
 6353SOL    HW219959   6.981   6.889   1.982
 6354SOL     OW19960   6.572   0.092   4.679
 6354SOL    HW119961   6.497   0.092   4.745
 6354SOL    HW219962   6.617   0.182   4.680
 6355SOL     OW19963   1.411   1.867   1.445
 6355SOL    HW119964   1.364   1.825   1.523
 6355SOL    HW219965   1.362   1.846   1.361
 6356SOL     OW19966   3.666   3.657   1.437
 6356SOL    HW119967   3.666   3.679   1.535
 6356SOL    HW219968   3.719   3.574   1.421
 6357SOL     OW19969   5.210   1.646   1.205
 6357SOL    HW119970   5.243   1.637   1.111
 6357SOL    HW219971   5.200   1.554   1.245
 6358SOL     OW19972   0.986   2.853   5.352
 6358SOL    HW119973   0.953   2.850   5.446
 6358SOL    HW219974   1.052   2.779   5.337
 6359SOL     OW19975   6.767   0.580   6.417
 6359SOL    HW119976   6.700   0.608   6.486
 6359SOL    HW219977   6.812   0.662   6.380
 6360SOL     OW19978   2.257   4.930   4.219
 6360SOL    HW119979   2.173   4.903   4.266
 6360SOL    HW219980   2.297   5.010   4.264
 6361SOL     OW19981   3.221   6.255   5.389
 6361SOL    HW119982   3.309   6.299   5.407
 6361SOL    HW219983   3.196   6.197   5.467
 6362SOL     OW19984   6.775   5.058   5.774
 6362SOL    HW119985   6.845   5.044   5.704
 6362SOL    HW219986   6.817   5.052   5.864
 6363SOL     OW19987   0.929   5.537   3.746
 6363SOL    HW119988   0.834   5.558   3.721
 6363SOL    HW219989   0.941   5.552   3.844
 6364SOL     OW19990   2.763   1.577   6.302
 6364SOL    HW119991   2.816   1.492   6.309
 6364SOL    HW219992   2.738   1.608   6.393
 6365SOL     OW19993   3.974   5.492   2.176
 6365SOL    HW119994   3.980   5.461   2.270
 6365SOL    HW219995   3.888   5.460   2.136
 6366SOL     OW19996   0.570   4.213   5.308
 6366SOL    HW119997   0.625   4.282   5.357
 6366SOL    HW219998   0.476   4.245   5.301
 6367SOL     OW19999   5.559   5.331   1.990
 6367SOL    HW120000   5.493   5.332   2.065
 6367SOL    HW220001   5.546   5.413   1.934
 6368SOL     OW20002   3.039   1.593   2.203
 6368SOL    HW120003   3.021   1.524   2.132
 6368SOL    HW220004   3.057   1.681   2.160
 6369SOL     OW20005   2.203   6.024   5.235
 6369SOL    HW120006   2.118   6.049   5.189
 6369SOL    HW220007   2.261   5.971   5.172
 6370SOL     OW20008   5.587   2.658   2.448
 6370SOL    HW120009   5.572   2.704   2.535
 6370SOL    HW220010   5.600   2.727   2.376
 6371SOL     OW20011   4.434   1.212   3.375
 6371SOL    HW120012   4.504   1.277   3.405
 6371SOL    HW220013   4.344   1.243   3.405
 6372SOL     OW20014   2.824   0.105   2.802
 6372SOL    HW120015   2.811   0.182   2.866
 6372SOL    HW220016   2.816   0.019   2.852
 6373SOL     OW20017   3.953   4.278   0.211
 6373SOL    HW120018   4.007   4.239   0.136
 6373SOL    HW220019   3.923   4.370   0.185
 6374SOL     OW20020   2.984   3.164   4.477
 6374SOL    HW120021   2.990   3.242   4.415
 6374SOL    HW220022   3.024   3.083   4.434
 6375SOL     OW20023   2.010   5.970   1.961
 6375SOL    HW120024   2.037   6.000   1.869
 6375SOL    HW220025   1.989   5.872   1.959
 6376SOL     OW20026   1.396   1.302   5.384
 6376SOL    HW120027   1.338   1.342   5.456
 6376SOL    HW220028   1.437   1.375   5.331
 6377SOL     OW20029   0.800   2.577   3.630
 6377SOL    HW120030   0.793   2.500   3.567
 6377SOL    HW220031   0.885   2.627   3.613
 6378SOL     OW20032   3.733   4.888   3.886
 6378SOL    HW120033   3.783   4.823   3.829
 6378SOL    HW220034   3.777   4.895   3.975
 6379SOL     OW20035   2.206   4.683   2.102
 6379SOL    HW120036   2.165   4.774   2.097
 6379SOL    HW220037   2.261   4.667   2.020
 6380SOL     OW20038   1.268   0.898   6.286
 6380SOL    HW120039   1.351   0.954   6.295
 6380SOL    HW220040   1.240   0.865   6.376
 6381SOL     OW20041   3.515   3.463   2.627
 6381SOL    HW120042   3.572   3.388   2.659
 6381SOL    HW220043   3.547   3.549   2.666
 6382SOL     OW20044   1.305   4.813   5.002
 6382SOL    HW120045   1.229   4.768   5.049
 6382SOL    HW220046   1.275   4.845   4.913
 6383SOL     OW20047   3.988   1.672   3.912
 6383SOL    HW120048   3.953   1.716   3.994
 6383SOL    HW220049   3.970   1.731   3.833
 6384SOL     OW20050   7.011   4.185   1.990
 6384SOL    HW120051   6.936   4.168   2.053
 6384SOL    HW220052   0.014   4.099   1.944
 6385SOL     OW20053   1.032   5.828   5.342
 6385SOL    HW120054   1.123   5.787   5.346
 6385SOL    HW220055   0.966   5.769   5.389
 6386SOL     OW20056   1.850   5.512   2.730
 6386SOL    HW120057   1.758   5.519   2.769
 6386SOL    HW220058   1.845   5.528   2.631
 6387SOL     OW20059   5.835   0.826   4.968
 6387SOL    HW120060   5.862   0.855   4.877
 6387SOL    HW220061   5.915   0.794   5.019
 6388SOL     OW20062   1.999   4.755   2.724
 6388SOL    HW120063   2.079   4.799   2.683
 6388SOL    HW220064   1.962   4.815   2.796
 6389SOL     OW20065   1.539   3.924   0.854
 6389SOL    HW120066   1.500   3.966   0.773
 6389SOL    HW220067   1.505   3.831   0.864
 6390SOL     OW20068   0.557   3.283   4.666
 6390SOL    HW120069   0.655   3.263   4.666
 6390SOL    HW220070   0.536   3.349   4.594
 6391SOL     OW20071   3.513   0.590   0.604
 6391SOL    HW120072   3.549   0.681   0.582
 6391SOL    HW220073   3.587   0.531   0.635
 6392SOL     OW20074   1.318   5.839   4.224
 6392SOL    HW120075   1.407   5.830   4.267
 6392SOL    HW220076   1.314   5.925   4.173
 6393SOL     OW20077   4.754   1.174   6.916
 6393SOL    HW120078   4.659   1.182   6.947
 6393SOL    HW220079   4.763   1.221   6.828
 6394SOL     OW20080   4.108   5.948   2.048
 6394SOL    HW120081   4.027   5.890   2.057
 6394SOL    HW220082   4.174   5.926   2.120
 6395SOL     OW20083   5.544   1.954   0.157
 6395SOL    HW120084   5.567   2.027   0.221
 6395SOL    HW220085   5.581   1.867   0.191
 6396SOL     OW20086   6.487   2.574   6.501
 6396SOL    HW120087   6.564   2.512   6.516
 6396SOL    HW220088   6.402   2.522   6.495
 6397SOL     OW20089   6.657   0.524   0.553
 6397SOL    HW120090   6.658   0.558   0.459
 6397SOL    HW220091   6.727   0.453   0.564
 6398SOL     OW20092   4.187   1.122   1.647
 6398SOL    HW120093   4.188   1.030   1.608
 6398SOL    HW220094   4.228   1.120   1.738
 6399SOL     OW20095   1.035   6.231   6.372
 6399SOL    HW120096   1.089   6.166   6.319
 6399SOL    HW220097   0.940   6.228   6.341
 6400SOL     OW20098   3.379   4.930   4.817
 6400SOL    HW120099   3.396   4.911   4.914
 6400SOL    HW220100   3.281   4.922   4.798
 6401SOL     OW20101   0.089   5.161   5.698
 6401SOL    HW120102   0.058   5.067   5.686
 6401SOL    HW220103   0.182   5.171   5.663
 6402SOL     OW20104   1.987   3.374   3.033
 6402SOL    HW120105   2.011   3.318   2.954
 6402SOL    HW220106   1.948   3.316   3.104
 6403SOL     OW20107   6.941   6.458   2.044
 6403SOL    HW120108   6.990   6.446   1.958
 6403SOL    HW220109   6.988   6.408   2.117
 6404SOL     OW20110   4.903   0.681   2.486
 6404SOL    HW120111   4.839   0.710   2.558
 6404SOL    HW220112   4.972   0.752   2.472
 6405SOL     OW20113   3.575   0.091   1.689
 6405SOL    HW120114   3.625   0.008   1.662
 6405SOL    HW220115   3.609   0.123   1.777
 6406SOL     OW20116   2.382   2.063   3.431
 6406SOL    HW120117   2.436   1.993   3.384
 6406SOL    HW220118   2.336   2.121   3.363
 6407SOL     OW20119   5.061   6.139   6.851
 6407SOL    HW120120   5.058   6.231   6.814
 6407SOL    HW220121   5.141   6.130   6.911
 6408SOL     OW20122   6.194   2.446   0.969
 6408SOL    HW120123   6.238   2.360   0.943
 6408SOL    HW220124   6.185   2.450   1.068
 6409SOL     OW20125   0.881   5.046   1.639
 6409SOL    HW120126   0.783   5.051   1.624
 6409SOL    HW220127   0.900   5.014   1.732
 6410SOL     OW20128   0.210   0.070   1.428
 6410SOL    HW120129   0.288   0.131   1.413
 6410SOL    HW220130   0.212   7.018   1.360
 6411SOL     OW20131   1.740   1.718   3.032
 6411SOL    HW120132   1.785   1.777   2.965
 6411SOL    HW220133   1.790   1.722   3.118
 6412SOL     OW20134   5.871   2.338   4.863
 6412SOL    HW120135   5.798   2.342   4.931
 6412SOL    HW220136   5.884   2.428   4.822
 6413SOL     OW20137   0.241   5.257   0.770
 6413SOL    HW120138   0.309   5.294   0.706
 6413SOL    HW220139   0.247   5.305   0.857
 6414SOL     OW20140   6.104   0.572   3.556
 6414SOL    HW120141   6.091   0.607   3.649
 6414SOL    HW220142   6.129   0.647   3.495
 6415SOL     OW20143   1.273   1.573   2.031
 6415SOL    HW120144   1.270   1.518   2.115
 6415SOL    HW220145   1.182   1.575   1.989
 6416SOL     OW20146   2.893   6.383   6.483
 6416SOL    HW120147   2.902   6.283   6.481
 6416SOL    HW220148   2.980   6.425   6.457
 6417SOL     OW20149   6.762   6.083   4.567
 6417SOL    HW120150   6.771   6.116   4.473
 6417SOL    HW220151   6.852   6.055   4.601
 6418SOL     OW20152   6.958   5.229   2.317
 6418SOL    HW120153   6.872   5.236   2.267
 6418SOL    HW220154   7.002   5.142   2.296
 6419SOL     OW20155   2.728   2.375   0.548
 6419SOL    HW120156   2.730   2.357   0.647
 6419SOL    HW220157   2.659   2.445   0.528
 6420SOL     OW20158   0.673   2.160   0.126
 6420SOL    HW120159   0.632   2.123   0.210
 6420SOL    HW220160   0.697   2.085   0.065
 6421SOL     OW20161   5.591   1.495   0.305
 6421SOL    HW120162   5.553   1.424   0.364
 6421SOL    HW220163   5.687   1.476   0.287
 6422SOL     OW20164   5.467   2.305   3.193
 6422SOL    HW120165   5.393   2.263   3.245
 6422SOL    HW220166   5.439   2.319   3.098
 6423SOL     OW20167   5.307   3.914   0.721
 6423SOL    HW120168   5.309   3.866   0.634
 6423SOL    HW220169   5.214   3.912   0.758
 6424SOL     OW20170   6.117   3.678   5.143
 6424SOL    HW120171   6.116   3.776   5.162
 6424SOL    HW220172   6.165   3.661   5.057
 6425SOL     OW20173   0.837   5.817   0.841
 6425SOL    HW120174   0.881   5.894   0.796
 6425SOL    HW220175   0.890   5.734   0.823
 6426SOL     OW20176   6.515   3.536   3.343
 6426SOL    HW120177   6.550   3.595   3.416
 6426SOL    HW220178   6.527   3.440   3.369
 6427SOL     OW20179   0.895   3.665   5.957
 6427SOL    HW120180   0.813   3.722   5.952
 6427SOL    HW220181   0.976   3.723   5.960
 6428SOL     OW20182   6.170   3.952   5.176
 6428SOL    HW120183   6.255   3.951   5.123
 6428SOL    HW220184   6.141   4.046   5.192
 6429SOL     OW20185   1.111   0.928   5.415
 6429SOL    HW120186   1.149   0.999   5.357
 6429SOL    HW220187   1.143   0.941   5.509
 6430SOL     OW20188   6.384   3.287   6.941
 6430SOL    HW120189   6.380   3.223   7.017
 6430SOL    HW220190   6.295   3.332   6.930
 6431SOL     OW20191   5.840   1.228   2.147
 6431SOL    HW120192   5.817   1.306   2.206
 6431SOL    HW220193   5.828   1.143   2.198
 6432SOL     OW20194   6.096   3.940   0.557
 6432SOL    HW120195   6.061   4.032   0.575
 6432SOL    HW220196   6.158   3.943   0.478
 6433SOL     OW20197   2.140   3.355   1.519
 6433SOL    HW120198   2.140   3.266   1.473
 6433SOL    HW220199   2.229   3.400   1.506
 6434SOL     OW20200   1.707   6.179   0.975
 6434SOL    HW120201   1.686   6.120   0.896
 6434SOL    HW220202   1.777   6.245   0.949
 6435SOL     OW20203   5.651   3.327   0.906
 6435SOL    HW120204   5.689   3.366   0.822
 6435SOL    HW220205   5.724   3.316   0.974
 6436SOL     OW20206   2.859   2.437   0.947
 6436SOL    HW120207   2.885   2.516   0.891
 6436SOL    HW220208   2.799   2.377   0.895
 6437SOL     OW20209   0.242   1.345   1.541
 6437SOL    HW120210   0.301   1.408   1.491
 6437SOL    HW220211   0.269   1.343   1.637
 6438SOL     OW20212   0.820   3.303   4.644
 6438SOL    HW120213   0.822   3.403   4.656
 6438SOL    HW220214   0.900   3.262   4.687
 6439SOL     OW20215   0.023   6.285   2.775
 6439SOL    HW120216   0.070   6.246   2.695
 6439SOL    HW220217   0.070   6.368   2.804
 6440SOL     OW20218   0.415   0.380   2.262
 6440SOL    HW120219   0.415   0.455   2.329
 6440SOL    HW220220   0.487   0.315   2.285
 6441SOL     OW20221   5.134   1.878   3.225
 6441SOL    HW120222   5.063   1.899   3.292
 6441SOL    HW220223   5.129   1.780   3.202
 6442SOL     OW20224   1.780   1.893   3.695
 6442SOL    HW120225   1.710   1.870   3.763
 6442SOL    HW220226   1.737   1.930   3.613
 6443SOL     OW20227   2.135   0.768   1.181
 6443SOL    HW120228   2.213   0.720   1.222
 6443SOL    HW220229   2.169   0.845   1.126
 6444SOL     OW20230   0.951   1.204   2.669
 6444SOL    HW120231   0.929   1.156   2.753
 6444SOL    HW220232   0.871   1.204   2.608
 6445SOL     OW20233   3.467   4.567   6.178
 6445SOL    HW120234   3.477   4.657   6.136
 6445SOL    HW220235   3.523   4.562   6.261
 6446SOL     OW20236   0.300   0.942   1.159
 6446SOL    HW120237   0.246   0.985   1.231
 6446SOL    HW220238   0.243   0.930   1.077
 6447SOL     OW20239   1.982   1.163   3.426
 6447SOL    HW120240   1.990   1.210   3.338
 6447SOL    HW220241   1.959   1.230   3.496
 6448SOL     OW20242   6.274   2.929   2.541
 6448SOL    HW120243   6.285   3.003   2.608
 6448SOL    HW220244   6.364   2.902   2.508
 6449SOL     OW20245   4.333   2.342   0.590
 6449SOL    HW120246   4.274   2.420   0.570
 6449SOL    HW220247   4.299   2.295   0.672
 6450SOL     OW20248   6.262   2.562   0.159
 6450SOL    HW120249   6.265   2.655   0.123
 6450SOL    HW220250   6.326   2.504   0.107
 6451SOL     OW20251   3.099   6.303   4.404
 6451SOL    HW120252   3.144   6.222   4.368
 6451SOL    HW220253   3.077   6.366   4.329
 6452SOL     OW20254   4.031   5.993   4.258
 6452SOL    HW120255   3.991   6.077   4.294
 6452SOL    HW220256   3.965   5.947   4.199
 6453SOL     OW20257   2.419   5.186   6.705
 6453SOL    HW120258   2.455   5.209   6.795
 6453SOL    HW220259   2.411   5.270   6.650
 6454SOL     OW20260   3.726   0.936   4.891
 6454SOL    HW120261   3.718   1.004   4.964
 6454SOL    HW220262   3.819   0.897   4.892
 6455SOL     OW20263   6.420   3.494   0.102
 6455SOL    HW120264   6.432   3.401   0.067
 6455SOL    HW220265   6.455   3.560   0.035
 6456SOL     OW20266   6.234   1.893   4.254
 6456SOL    HW120267   6.295   1.815   4.266
 6456SOL    HW220268   6.230   1.919   4.157
 6457SOL     OW20269   5.580   3.272   2.125
 6457SOL    HW120270   5.504   3.267   2.061
 6457SOL    HW220271   5.663   3.237   2.082
 6458SOL     OW20272   1.370   5.493   3.807
 6458SOL    HW120273   1.300   5.513   3.875
 6458SOL    HW220274   1.345   5.411   3.755
 6459SOL     OW20275   5.885   4.054   0.148
 6459SOL    HW120276   5.811   4.024   0.207
 6459SOL    HW220277   5.968   4.067   0.202
 6460SOL     OW20278   3.754   4.966   1.653
 6460SOL    HW120279   3.799   4.903   1.591
 6460SOL    HW220280   3.770   5.060   1.623
 6461SOL     OW20281   3.079   5.569   4.385
 6461SOL    HW120282   3.071   5.618   4.298
 6461SOL    HW220283   3.045   5.627   4.459
 6462SOL     OW20284   1.868   3.931   2.538
 6462SOL    HW120285   1.808   3.851   2.548
 6462SOL    HW220286   1.887   3.970   2.628
 6463SOL     OW20287   1.958   3.104   6.052
 6463SOL    HW120288   1.936   3.139   5.961
 6463SOL    HW220289   1.898   3.147   6.120
 6464SOL     OW20290   0.878   4.991   1.901
 6464SOL    HW120291   0.865   5.081   1.943
 6464SOL    HW220292   0.804   4.930   1.929
 6465SOL     OW20293   6.741   0.559   3.092
 6465SOL    HW120294   6.703   0.517   3.010
 6465SOL    HW220295   6.831   0.520   3.111
 6466SOL     OW20296   6.415   2.925   4.584
 6466SOL    HW120297   6.473   3.005   4.593
 6466SOL    HW220298   6.319   2.951   4.597
 6467SOL     OW20299   3.883   6.931   6.310
 6467SOL    HW120300   3.916   6.886   6.227
 6467SOL    HW220301   3.837   7.016   6.286
 6468SOL     OW20302   6.613   4.774   2.305
 6468SOL    HW120303   6.542   4.727   2.252
 6468SOL    HW220304   6.681   4.707   2.334
 6469SOL     OW20305   5.991   2.040   5.982
 6469SOL    HW120306   5.963   1.945   5.972
 6469SOL    HW220307   5.928   2.088   6.042
 6470SOL     OW20308   6.590   6.388   4.700
 6470SOL    HW120309   6.621   6.460   4.637
 6470SOL    HW220310   6.550   6.313   4.648
 6471SOL     OW20311   6.717   6.977   4.878
 6471SOL    HW120312   6.673   0.027   4.824
 6471SOL    HW220313   6.650   6.939   4.943
 6472SOL     OW20314   1.556   6.720   1.808
 6472SOL    HW120315   1.565   6.816   1.784
 6472SOL    HW220316   1.510   6.671   1.734
 6473SOL     OW20317   2.281   1.230   5.696
 6473SOL    HW120318   2.319   1.304   5.751
 6473SOL    HW220319   2.182   1.225   5.710
 6474SOL     OW20320   2.053   3.052   6.662
 6474SOL    HW120321   2.111   3.000   6.724
 6474SOL    HW220322   1.957   3.033   6.682
 6475SOL     OW20323   4.075   5.171   3.829
 6475SOL    HW120324   4.016   5.136   3.756
 6475SOL    HW220325   4.124   5.095   3.872
 6476SOL     OW20326   5.018   5.777   3.011
 6476SOL    HW120327   5.093   5.839   3.035
 6476SOL    HW220328   5.031   5.742   2.918
 6477SOL     OW20329   6.714   6.209   0.122
 6477SOL    HW120330   6.679   6.300   0.143
 6477SOL    HW220331   6.650   6.140   0.158
 6478SOL     OW20332   4.170   6.010   1.224
 6478SOL    HW120333   4.190   5.971   1.135
 6478SOL    HW220334   4.143   5.938   1.287
 6479SOL     OW20335   3.053   5.655   2.747
 6479SOL    HW120336   3.013   5.580   2.798
 6479SOL    HW220337   3.003   5.668   2.661
 6480SOL     OW20338   2.147   0.855   0.571
 6480SOL    HW120339   2.079   0.801   0.620
 6480SOL    HW220340   2.157   0.820   0.478
 6481SOL     OW20341   4.819   0.498   1.396
 6481SOL    HW120342   4.819   0.594   1.423
 6481SOL    HW220343   4.748   0.482   1.328
 6482SOL     OW20344   0.257   0.506   5.532
 6482SOL    HW120345   0.346   0.462   5.542
 6482SOL    HW220346   0.185   0.436   5.529
 6483SOL     OW20347   1.464   5.222   1.624
 6483SOL    HW120348   1.498   5.152   1.561
 6483SOL    HW220349   1.401   5.180   1.688
 6484SOL     OW20350   4.902   0.095   3.008
 6484SOL    HW120351   4.953   0.181   3.017
 6484SOL    HW220352   4.813   0.112   2.965
 6485SOL     OW20353   0.201   2.825   2.024
 6485SOL    HW120354   0.241   2.805   1.935
 6485SOL    HW220355   0.115   2.874   2.013
 6486SOL     OW20356   1.180   2.987   3.087
 6486SOL    HW120357   1.233   2.920   3.034
 6486SOL    HW220358   1.209   2.984   3.182
 6487SOL     OW20359   6.119   5.776   3.184
 6487SOL    HW120360   6.105   5.755   3.281
 6487SOL    HW220361   6.216   5.766   3.162
 6488SOL     OW20362   3.377   5.182   4.273
 6488SOL    HW120363   3.328   5.104   4.312
 6488SOL    HW220364   3.458   5.200   4.329
 6489SOL     OW20365   2.955   1.028   6.339
 6489SOL    HW120366   2.975   1.007   6.244
 6489SOL    HW220367   3.039   1.023   6.393
 6490SOL     OW20368   4.573   0.706   0.228
 6490SOL    HW120369   4.647   0.773   0.226
 6490SOL    HW220370   4.486   0.752   0.208
 6491SOL     OW20371   5.308   1.239   5.879
 6491SOL    HW120372   5.390   1.194   5.844
 6491SOL    HW220373   5.332   1.302   5.952
 6492SOL     OW20374   5.927   5.615   5.752
 6492SOL    HW120375   6.019   5.651   5.767
 6492SOL    HW220376   5.860   5.681   5.786
 6493SOL     OW20377   6.984   0.105   5.336
 6493SOL    HW120378   0.032   0.076   5.270
 6493SOL    HW220379   6.909   0.039   5.337
 6494SOL     OW20380   0.319   2.467   3.469
 6494SOL    HW120381   0.322   2.566   3.457
 6494SOL    HW220382   0.238   2.430   3.423
 6495SOL     OW20383   5.847   4.388   2.114
 6495SOL    HW120384   5.860   4.471   2.168
 6495SOL    HW220385   5.757   4.392   2.069
 6496SOL     OW20386   0.362   6.522   3.543
 6496SOL    HW120387   0.383   6.511   3.446
 6496SOL    HW220388   0.265   6.501   3.558
 6497SOL     OW20389   0.910   6.882   1.415
 6497SOL    HW120390   0.988   6.941   1.396
 6497SOL    HW220391   0.859   6.866   1.330
 6498SOL     OW20392   1.283   3.654   4.461
 6498SOL    HW120393   1.292   3.561   4.497
 6498SOL    HW220394   1.359   3.673   4.398
 6499SOL     OW20395   6.435   1.142   3.050
 6499SOL    HW120396   6.368   1.201   3.096
 6499SOL    HW220397   6.463   1.185   2.964
 6500SOL     OW20398   5.688   4.787   1.865
 6500SOL    HW120399   5.622   4.721   1.831
 6500SOL    HW220400   5.673   4.802   1.963
 6501SOL     OW20401   6.463   4.516   1.165
 6501SOL    HW120402   6.430   4.599   1.210
 6501SOL    HW220403   6.447   4.523   1.067
 6502SOL     OW20404   0.506   5.579   1.642
 6502SOL    HW120405   0.532   5.675   1.655
 6502SOL    HW220406   0.588   5.523   1.635
 6503SOL     OW20407   3.918   0.628   3.844
 6503SOL    HW120408   3.999   0.581   3.809
 6503SOL    HW220409   3.863   0.662   3.768
 6504SOL     OW20410   2.229   2.533   0.054
 6504SOL    HW120411   2.247   2.475   6.996
 6504SOL    HW220412   2.291   2.508   0.128
 6505SOL     OW20413   5.570   5.127   0.669
 6505SOL    HW120414   5.581   5.221   0.638
 6505SOL    HW220415   5.658   5.079   0.662
 6506SOL     OW20416   2.154   1.317   1.735
 6506SOL    HW120417   2.147   1.358   1.826
 6506SOL    HW220418   2.063   1.312   1.694
 6507SOL     OW20419   3.071   0.934   1.645
 6507SOL    HW120420   3.042   0.964   1.736
 6507SOL    HW220421   3.023   0.850   1.621
 6508SOL     OW20422   1.317   2.872   1.581
 6508SOL    HW120423   1.416   2.876   1.564
 6508SOL    HW220424   1.301   2.838   1.674
 6509SOL     OW20425   1.410   2.765   3.895
 6509SOL    HW120426   1.474   2.702   3.851
 6509SOL    HW220427   1.357   2.716   3.964
 6510SOL     OW20428   6.044   4.400   6.287
 6510SOL    HW120429   6.021   4.455   6.367
 6510SOL    HW220430   6.054   4.460   6.208
 6511SOL     OW20431   6.591   6.976   6.077
 6511SOL    HW120432   6.592   6.882   6.111
 6511SOL    HW220433   6.497   7.010   6.074
 6512SOL     OW20434   5.160   6.520   4.363
 6512SOL    HW120435   5.087   6.463   4.399
 6512SOL    HW220436   5.161   6.608   4.410
 6513SOL     OW20437   1.534   6.622   3.591
 6513SOL    HW120438   1.597   6.699   3.603
 6513SOL    HW220439   1.587   6.540   3.571
 6514SOL     OW20440   2.831   0.615   3.916
 6514SOL    HW120441   2.930   0.630   3.917
 6514SOL    HW220442   2.808   0.551   3.843
 6515SOL     OW20443   1.395   0.638   3.396
 6515SOL    HW120444   1.484   0.657   3.354
 6515SOL    HW220445   1.380   0.701   3.472
 6516SOL     OW20446   1.916   1.273   5.538
 6516SOL    HW120447   1.987   1.279   5.467
 6516SOL    HW220448   1.941   1.202   5.604
 6517SOL     OW20449   2.919   1.944   1.037
 6517SOL    HW120450   2.980   1.995   1.097
 6517SOL    HW220451   2.918   1.987   0.947
 6518SOL     OW20452   5.563   6.291   1.057
 6518SOL    HW120453   5.618   6.271   1.138
 6518SOL    HW220454   5.488   6.225   1.051
 6519SOL     OW20455   0.823   1.805   3.896
 6519SOL    HW120456   0.869   1.883   3.937
 6519SOL    HW220457   0.890   1.741   3.859
 6520SOL     OW20458   5.515   5.379   0.911
 6520SOL    HW120459   5.462   5.429   0.842
 6520SOL    HW220460   5.487   5.283   0.912
 6521SOL     OW20461   1.162   2.261   5.564
 6521SOL    HW120462   1.251   2.272   5.609
 6521SOL    HW220463   1.103   2.339   5.586
 6522SOL     OW20464   2.773   4.792   4.155
 6522SOL    HW120465   2.727   4.755   4.074
 6522SOL    HW220466   2.718   4.773   4.236
 6523SOL     OW20467   2.461   2.474   0.836
 6523SOL    HW120468   2.460   2.547   0.767
 6523SOL    HW220469   2.548   2.425   0.832
 6524SOL     OW20470   4.060   2.512   5.558
 6524SOL    HW120471   4.100   2.525   5.649
 6524SOL    HW220472   3.974   2.461   5.566
 6525SOL     OW20473   0.719   2.527   4.324
 6525SOL    HW120474   0.806   2.491   4.357
 6525SOL    HW220475   0.651   2.524   4.398
 6526SOL     OW20476   1.655   6.018   3.422
 6526SOL    HW120477   1.749   5.988   3.405
 6526SOL    HW220478   1.620   6.063   3.340
 6527SOL     OW20479   2.013   1.190   4.535
 6527SOL    HW120480   1.972   1.264   4.481
 6527SOL    HW220481   1.941   1.127   4.565
 6528SOL     OW20482   0.045   0.640   2.911
 6528SOL    HW120483   0.144   0.631   2.895
 6528SOL    HW220484   0.029   0.681   3.000
 6529SOL     OW20485   6.347   3.149   2.724
 6529SOL    HW120486   6.437   3.149   2.680
 6529SOL    HW220487   6.318   3.243   2.742
 6530SOL     OW20488   0.185   1.568   6.994
 6530SOL    HW120489   0.259   1.502   6.990
 6530SOL    HW220490   0.154   1.578   0.067
 6531SOL     OW20491   5.087   2.208   5.728
 6531SOL    HW120492   4.994   2.206   5.767
 6531SOL    HW220493   5.152   2.230   5.800
 6532SOL     OW20494   1.534   1.657   6.817
 6532SOL    HW120495   1.593   1.640   6.738
 6532SOL    HW220496   1.441   1.674   6.786
 6533SOL     OW20497   4.812   0.452   0.653
 6533SOL    HW120498   4.867   0.407   0.724
 6533SOL    HW220499   4.801   0.549   0.677
 6534SOL     OW20500   3.567   2.660   6.847
 6534SOL    HW120501   3.621   2.647   6.930
 6534SOL    HW220502   3.576   2.755   6.816
 6535SOL     OW20503   2.127   3.116   5.237
 6535SOL    HW120504   2.151   3.022   5.259
 6535SOL    HW220505   2.032   3.133   5.263
 6536SOL     OW20506   0.449   1.571   0.561
 6536SOL    HW120507   0.358   1.534   0.542
 6536SOL    HW220508   0.450   1.610   0.653
 6537SOL     OW20509   0.646   0.826   6.577
 6537SOL    HW120510   0.552   0.862   6.576
 6537SOL    HW220511   0.663   0.781   6.664
 6538SOL     OW20512   3.103   2.853   5.869
 6538SOL    HW120513   3.137   2.774   5.921
 6538SOL    HW220514   3.005   2.843   5.853
 6539SOL     OW20515   3.224   1.544   0.078
 6539SOL    HW120516   3.151   1.489   0.118
 6539SOL    HW220517   3.312   1.515   0.115
 6540SOL     OW20518   4.172   2.209   3.122
 6540SOL    HW120519   4.201   2.257   3.040
 6540SOL    HW220520   4.230   2.236   3.199
 6541SOL     OW20521   2.910   2.203   5.100
 6541SOL    HW120522   2.996   2.245   5.073
 6541SOL    HW220523   2.855   2.184   5.019
 6542SOL     OW20524   4.367   4.539   2.900
 6542SOL    HW120525   4.423   4.475   2.952
 6542SOL    HW220526   4.403   4.631   2.910
 6543SOL     OW20527   1.498   6.211   6.198
 6543SOL    HW120528   1.529   6.124   6.236
 6543SOL    HW220529   1.572   6.255   6.148
 6544SOL     OW20530   0.409   5.288   2.727
 6544SOL    HW120531   0.388   5.348   2.804
 6544SOL    HW220532   0.388   5.335   2.642
 6545SOL     OW20533   5.970   2.654   6.209
 6545SOL    HW120534   5.981   2.572   6.152
 6545SOL    HW220535   5.925   2.725   6.157
 6546SOL     OW20536   3.314   4.801   6.437
 6546SOL    HW120537   3.381   4.799   6.362
 6546SOL    HW220538   3.357   4.840   6.518
 6547SOL     OW20539   3.973   1.180   6.296
 6547SOL    HW120540   4.071   1.162   6.294
 6547SOL    HW220541   3.924   1.094   6.309
 6548SOL     OW20542   5.323   3.825   5.930
 6548SOL    HW120543   5.415   3.845   5.965
 6548SOL    HW220544   5.294   3.735   5.962
 6549SOL     OW20545   2.723   2.340   2.270
 6549SOL    HW120546   2.681   2.431   2.265
 6549SOL    HW220547   2.787   2.328   2.194
 6550SOL     OW20548   0.980   5.915   2.168
 6550SOL    HW120549   1.067   5.948   2.132
 6550SOL    HW220550   0.992   5.884   2.262
 6551SOL     OW20551   3.444   5.326   1.974
 6551SOL    HW120552   3.412   5.372   2.057
 6551SOL    HW220553   3.377   5.340   1.901
 6552SOL     OW20554   4.448   4.903   5.753
 6552SOL    HW120555   4.521   4.856   5.703
 6552SOL    HW220556   4.474   4.999   5.766
 6553SOL     OW20557   6.936   3.482   3.193
 6553SOL    HW120558   6.876   3.466   3.115
 6553SOL    HW220559   6.966   3.395   3.231
 6554SOL     OW20560   6.592   3.176   4.624
 6554SOL    HW120561   6.651   3.127   4.561
 6554SOL    HW220562   6.598   3.274   4.606
 6555SOL     OW20563   0.810   1.481   1.389
 6555SOL    HW120564   0.782   1.417   1.318
 6555SOL    HW220565   0.845   1.431   1.468
 6556SOL     OW20566   3.744   0.200   3.215
 6556SOL    HW120567   3.684   0.143   3.272
 6556SOL    HW220568   3.826   0.147   3.191
 6557SOL     OW20569   5.368   6.361   0.551
 6557SOL    HW120570   5.467   6.371   0.559
 6557SOL    HW220571   5.331   6.440   0.502
 6558SOL     OW20572   6.269   6.981   5.748
 6558SOL    HW120573   6.341   6.980   5.818
 6558SOL    HW220574   6.309   7.003   5.659
 6559SOL     OW20575   2.818   3.964   1.026
 6559SOL    HW120576   2.799   4.038   1.090
 6559SOL    HW220577   2.909   3.926   1.045
 6560SOL     OW20578   4.595   1.781   0.791
 6560SOL    HW120579   4.576   1.772   0.693
 6560SOL    HW220580   4.608   1.877   0.814
 6561SOL     OW20581   3.940   4.053   4.947
 6561SOL    HW120582   4.011   4.086   4.884
 6561SOL    HW220583   3.912   3.961   4.920
 6562SOL     OW20584   0.322   4.256   5.236
 6562SOL    HW120585   0.328   4.356   5.246
 6562SOL    HW220586   0.227   4.230   5.221
 6563SOL     OW20587   1.043   6.111   2.397
 6563SOL    HW120588   1.097   6.143   2.319
 6563SOL    HW220589   0.952   6.152   2.394
 6564SOL     OW20590   1.735   5.163   2.972
 6564SOL    HW120591   1.831   5.145   2.950
 6564SOL    HW220592   1.677   5.134   2.897
 6565SOL     OW20593   6.859   3.332   5.023
 6565SOL    HW120594   6.926   3.354   5.094
 6565SOL    HW220595   6.805   3.253   5.052
 6566SOL     OW20596   3.837   1.013   0.618
 6566SOL    HW120597   3.827   1.100   0.667
 6566SOL    HW220598   3.890   1.029   0.535
 6567SOL     OW20599   6.770   2.377   0.642
 6567SOL    HW120600   6.687   2.363   0.588
 6567SOL    HW220601   6.775   2.307   0.713
 6568SOL     OW20602   5.381   3.380   1.632
 6568SOL    HW120603   5.382   3.472   1.594
 6568SOL    HW220604   5.475   3.347   1.640
 6569SOL     OW20605   1.265   4.048   5.583
 6569SOL    HW120606   1.312   3.992   5.651
 6569SOL    HW220607   1.320   4.054   5.500
 6570SOL     OW20608   0.181   4.045   2.415
 6570SOL    HW120609   0.219   4.113   2.353
 6570SOL    HW220610   0.215   3.954   2.390
 6571SOL     OW20611   2.395   5.186   3.997
 6571SOL    HW120612   2.409   5.178   3.898
 6571SOL    HW220613   2.297   5.182   4.016
 6572SOL     OW20614   1.771   3.817   5.517
 6572SOL    HW120615   1.801   3.731   5.557
 6572SOL    HW220616   1.836   3.846   5.447
 6573SOL     OW20617   1.525   2.303   1.611
 6573SOL    HW120618   1.571   2.389   1.587
 6573SOL    HW220619   1.578   2.226   1.576
 6574SOL     OW20620   2.236   4.626   4.326
 6574SOL    HW120621   2.241   4.690   4.403
 6574SOL    HW220622   2.319   4.634   4.271
 6575SOL     OW20623   1.403   1.783   2.542
 6575SOL    HW120624   1.375   1.769   2.637
 6575SOL    HW220625   1.321   1.794   2.485
 6576SOL     OW20626   0.517   5.585   4.251
 6576SOL    HW120627   0.464   5.560   4.170
 6576SOL    HW220628   0.534   5.683   4.251
 6577SOL     OW20629   0.276   3.839   5.637
 6577SOL    HW120630   0.309   3.776   5.567
 6577SOL    HW220631   0.219   3.910   5.595
 6578SOL     OW20632   6.522   6.118   3.873
 6578SOL    HW120633   6.467   6.095   3.793
 6578SOL    HW220634   6.464   6.124   3.954
 6579SOL     OW20635   0.353   3.708   3.875
 6579SOL    HW120636   0.445   3.747   3.872
 6579SOL    HW220637   0.352   3.621   3.824
 6580SOL     OW20638   5.788   2.473   0.808
 6580SOL    HW120639   5.848   2.392   0.804
 6580SOL    HW220640   5.741   2.475   0.897
 6581SOL     OW20641   2.535   2.142   5.373
 6581SOL    HW120642   2.612   2.155   5.435
 6581SOL    HW220643   2.496   2.231   5.349
 6582SOL     OW20644   6.355   0.662   2.578
 6582SOL    HW120645   6.340   0.587   2.641
 6582SOL    HW220646   6.303   0.742   2.607
 6583SOL     OW20647   6.553   0.901   6.047
 6583SOL    HW120648   6.518   0.986   6.008
 6583SOL    HW220649   6.645   0.884   6.012
 6584SOL     OW20650   5.735   2.455   0.543
 6584SOL    HW120651   5.741   2.474   0.641
 6584SOL    HW220652   5.721   2.541   0.494
 6585SOL     OW20653   2.646   0.682   2.770
 6585SOL    HW120654   2.687   0.605   2.722
 6585SOL    HW220655   2.713   0.721   2.833
 6586SOL     OW20656   5.612   1.536   6.917
 6586SOL    HW120657   5.680   1.607   6.935
 6586SOL    HW220658   5.626   1.459   6.979
 6587SOL     OW20659   1.283   5.655   1.850
 6587SOL    HW120660   1.346   5.577   1.848
 6587SOL    HW220661   1.200   5.630   1.900
 6588SOL     OW20662   3.551   3.126   0.509
 6588SOL    HW120663   3.540   3.169   0.599
 6588SOL    HW220664   3.648   3.125   0.485
 6589SOL     OW20665   5.051   1.362   5.822
 6589SOL    HW120666   4.977   1.324   5.878
 6589SOL    HW220667   5.133   1.307   5.835
 6590SOL     OW20668   6.382   1.682   5.066
 6590SOL    HW120669   6.314   1.613   5.091
 6590SOL    HW220670   6.341   1.747   5.001
 6591SOL     OW20671   4.979   0.516   2.280
 6591SOL    HW120672   5.077   0.526   2.265
 6591SOL    HW220673   4.951   0.577   2.355
 6592SOL     OW20674   5.359   5.126   5.362
 6592SOL    HW120675   5.458   5.139   5.369
 6592SOL    HW220676   5.325   5.078   5.442
 6593SOL     OW20677   5.758   1.070   2.974
 6593SOL    HW120678   5.855   1.057   2.995
 6593SOL    HW220679   5.741   1.166   2.951
 6594SOL     OW20680   5.535   0.978   6.973
 6594SOL    HW120681   5.558   0.960   6.878
 6594SOL    HW220682   5.589   1.055   7.006
 6595SOL     OW20683   3.742   2.804   6.112
 6595SOL    HW120684   3.791   2.744   6.176
 6595SOL    HW220685   3.756   2.899   6.138
 6596SOL     OW20686   2.205   5.891   4.775
 6596SOL    HW120687   2.116   5.847   4.764
 6596SOL    HW220688   2.269   5.855   4.706
 6597SOL     OW20689   0.189   4.591   6.966
 6597SOL    HW120690   0.169   4.518   0.010
 6597SOL    HW220691   0.116   4.596   6.899
 6598SOL     OW20692   3.415   6.098   4.006
 6598SOL    HW120693   3.501   6.086   4.056
 6598SOL    HW220694   3.422   6.053   3.917
 6599SOL     OW20695   4.234   3.779   6.481
 6599SOL    HW120696   4.194   3.692   6.453
 6599SOL    HW220697   4.323   3.791   6.438
 6600SOL     OW20698   4.324   4.808   4.969
 6600SOL    HW120699   4.335   4.713   4.998
 6600SOL    HW220700   4.232   4.839   4.991
 6601SOL     OW20701   1.246   1.174   2.042
 6601SOL    HW120702   1.200   1.241   2.101
 6601SOL    HW220703   1.285   1.102   2.100
 6602SOL     OW20704   5.631   1.474   1.099
 6602SOL    HW120705   5.626   1.434   1.190
 6602SOL    HW220706   5.724   1.463   1.063
 6603SOL     OW20707   2.606   2.383   1.345
 6603SOL    HW120708   2.697   2.405   1.380
 6603SOL    HW220709   2.605   2.396   1.245
 6604SOL     OW20710   4.328   5.357   4.995
 6604SOL    HW120711   4.413   5.323   5.036
 6604SOL    HW220712   4.272   5.398   5.066
 6605SOL     OW20713   5.325   6.171   1.010
 6605SOL    HW120714   5.384   6.120   0.948
 6605SOL    HW220715   5.232   6.175   0.972
 6606SOL     OW20716   0.508   2.665   3.095
 6606SOL    HW120717   0.538   2.572   3.075
 6606SOL    HW220718   0.445   2.664   3.173
 6607SOL     OW20719   1.899   3.047   2.609
 6607SOL    HW120720   1.993   3.077   2.622
 6607SOL    HW220721   1.859   3.025   2.698
 6608SOL     OW20722   5.243   4.364   4.530
 6608SOL    HW120723   5.159   4.365   4.584
 6608SOL    HW220724   5.293   4.280   4.549
 6609SOL     OW20725   5.368   2.313   6.545
 6609SOL    HW120726   5.442   2.337   6.608
 6609SOL    HW220727   5.314   2.239   6.584
 6610SOL     OW20728   3.933   1.444   0.875
 6610SOL    HW120729   3.941   1.448   0.975
 6610SOL    HW220730   3.940   1.349   0.844
 6611SOL     OW20731   5.327   3.438   2.533
 6611SOL    HW120732   5.303   3.522   2.485
 6611SOL    HW220733   5.304   3.447   2.630
 6612SOL     OW20734   0.591   5.706   6.351
 6612SOL    HW120735   0.676   5.659   6.329
 6612SOL    HW220736   0.551   5.667   6.434
 6613SOL     OW20737   5.866   5.001   0.662
 6613SOL    HW120738   5.962   5.031   0.661
 6613SOL    HW220739   5.842   4.966   0.572
 6614SOL     OW20740   5.676   4.487   6.119
 6614SOL    HW120741   5.731   4.413   6.158
 6614SOL    HW220742   5.646   4.461   6.027
 6615SOL     OW20743   0.532   3.530   4.816
 6615SOL    HW120744   0.573   3.482   4.739
 6615SOL    HW220745   0.451   3.581   4.785
 6616SOL     OW20746   5.177   1.235   3.995
 6616SOL    HW120747   5.239   1.216   4.070
 6616SOL    HW220748   5.201   1.178   3.916
 6617SOL     OW20749   4.191   0.061   4.538
 6617SOL    HW120750   4.137   0.089   4.617
 6617SOL    HW220751   4.260   7.017   4.566
 6618SOL     OW20752   0.245   4.200   1.106
 6618SOL    HW120753   0.229   4.279   1.047
 6618SOL    HW220754   0.295   4.229   1.188
 6619SOL     OW20755   6.445   6.296   2.327
 6619SOL    HW120756   6.372   6.338   2.273
 6619SOL    HW220757   6.489   6.367   2.383
 6620SOL     OW20758   4.774   3.132   5.569
 6620SOL    HW120759   4.872   3.152   5.555
 6620SOL    HW220760   4.756   3.036   5.548
 6621SOL     OW20761   3.294   3.174   0.906
 6621SOL    HW120762   3.258   3.080   0.904
 6621SOL    HW220763   3.224   3.236   0.942
 6622SOL     OW20764   6.129   5.230   0.292
 6622SOL    HW120765   6.165   5.159   0.353
 6622SOL    HW220766   6.063   5.190   0.229
 6623SOL     OW20767   3.078   4.014   2.751
 6623SOL    HW120768   3.126   4.023   2.663
 6623SOL    HW220769   3.007   3.944   2.744
 6624SOL     OW20770   4.836   5.280   3.932
 6624SOL    HW120771   4.897   5.318   4.002
 6624SOL    HW220772   4.824   5.182   3.949
 6625SOL     OW20773   5.363   6.908   0.210
 6625SOL    HW120774   5.391   6.975   0.141
 6625SOL    HW220775   5.263   6.904   0.213
 6626SOL     OW20776   2.616   5.383   4.257
 6626SOL    HW120777   2.523   5.346   4.253
 6626SOL    HW220778   2.681   5.308   4.262
 6627SOL     OW20779   0.423   0.992   1.513
 6627SOL    HW120780   0.332   1.006   1.473
 6627SOL    HW220781   0.480   0.940   1.449
 6628SOL     OW20782   4.212   6.133   3.810
 6628SOL    HW120783   4.191   6.220   3.767
 6628SOL    HW220784   4.198   6.140   3.909
 6629SOL     OW20785   3.180   4.314   0.311
 6629SOL    HW120786   3.129   4.232   0.285
 6629SOL    HW220787   3.117   4.385   0.341
 6630SOL     OW20788   3.506   1.057   6.293
 6630SOL    HW120789   3.590   1.094   6.253
 6630SOL    HW220790   3.445   1.133   6.319
 6631SOL     OW20791   3.139   6.794   1.760
 6631SOL    HW120792   3.133   6.821   1.856
 6631SOL    HW220793   3.215   6.731   1.748
 6632SOL     OW20794   6.039   3.084   2.076
 6632SOL    HW120795   6.107   3.111   2.007
 6632SOL    HW220796   6.083   3.029   2.147
 6633SOL     OW20797   0.933   5.986   3.100
 6633SOL    HW120798   0.997   6.056   3.069
 6633SOL    HW220799   0.879   5.953   3.023
 6634SOL     OW20800   6.207   2.048   5.490
 6634SOL    HW120801   6.294   2.005   5.468
 6634SOL    HW220802   6.195   2.049   5.590
 6635SOL     OW20803   4.352   4.832   3.537
 6635SOL    HW120804   4.342   4.778   3.454
 6635SOL    HW220805   4.315   4.923   3.523
 6636SOL     OW20806   1.854   3.006   2.877
 6636SOL    HW120807   1.938   3.055   2.899
 6636SOL    HW220808   1.793   3.006   2.956
 6637SOL     OW20809   6.750   2.937   0.578
 6637SOL    HW120810   6.812   2.938   0.656
 6637SOL    HW220811   6.803   2.932   0.493
 6638SOL     OW20812   1.457   0.447   6.750
 6638SOL    HW120813   1.485   0.385   6.823
 6638SOL    HW220814   1.498   0.419   6.664
 6639SOL     OW20815   3.973   5.539   6.003
 6639SOL    HW120816   3.888   5.532   6.055
 6639SOL    HW220817   4.033   5.606   6.047
 6640SOL     OW20818   5.858   3.838   2.963
 6640SOL    HW120819   5.837   3.935   2.961
 6640SOL    HW220820   5.792   3.790   3.021
 6641SOL     OW20821   2.447   5.452   6.442
 6641SOL    HW120822   2.500   5.405   6.371
 6641SOL    HW220823   2.509   5.499   6.504
 6642SOL     OW20824   6.618   6.529   5.826
 6642SOL    HW120825   6.569   6.586   5.760
 6642SOL    HW220826   6.667   6.457   5.778
 6643SOL     OW20827   4.127   5.894   0.283
 6643SOL    HW120828   4.039   5.909   0.328
 6643SOL    HW220829   4.172   5.813   0.322
 6644SOL     OW20830   0.919   3.576   1.989
 6644SOL    HW120831   0.830   3.532   1.979
 6644SOL    HW220832   0.974   3.559   1.908
 6645SOL     OW20833   7.016   4.925   5.616
 6645SOL    HW120834   6.991   4.938   5.520
 6645SOL    HW220835   0.044   4.839   5.627
 6646SOL     OW20836   1.843   5.115   3.703
 6646SOL    HW120837   1.777   5.171   3.753
 6646SOL    HW220838   1.877   5.166   3.623
 6647SOL     OW20839   4.234   1.460   1.791
 6647SOL    HW120840   4.299   1.530   1.760
 6647SOL    HW220841   4.214   1.397   1.716
 6648SOL     OW20842   3.773   5.628   1.999
 6648SOL    HW120843   3.718   5.618   2.082
 6648SOL    HW220844   3.797   5.537   1.965
 6649SOL     OW20845   4.000   1.821   5.569
 6649SOL    HW120846   4.009   1.847   5.473
 6649SOL    HW220847   3.935   1.745   5.577
 6650SOL     OW20848   3.816   1.495   4.016
 6650SOL    HW120849   3.877   1.531   3.945
 6650SOL    HW220850   3.724   1.532   4.004
 6651SOL     OW20851   0.781   1.301   0.780
 6651SOL    HW120852   0.853   1.278   0.845
 6651SOL    HW220853   0.802   1.258   0.692
 6652SOL     OW20854   0.980   5.244   3.303
 6652SOL    HW120855   0.971   5.342   3.286
 6652SOL    HW220856   1.031   5.229   3.388
 6653SOL     OW20857   3.944   3.950   3.519
 6653SOL    HW120858   3.877   4.018   3.548
 6653SOL    HW220859   3.997   3.919   3.597
 6654SOL     OW20860   1.504   3.412   1.879
 6654SOL    HW120861   1.516   3.495   1.825
 6654SOL    HW220862   1.453   3.345   1.825
 6655SOL     OW20863   1.468   1.046   6.943
 6655SOL    HW120864   1.428   0.995   7.020
 6655SOL    HW220865   1.396   1.095   6.895
 6656SOL     OW20866   6.274   2.316   1.793
 6656SOL    HW120867   6.293   2.402   1.745
 6656SOL    HW220868   6.253   2.245   1.727
 6657SOL     OW20869   3.596   4.973   5.365
 6657SOL    HW120870   3.687   5.011   5.381
 6657SOL    HW220871   3.604   4.886   5.317
 6658SOL     OW20872   6.558   0.200   5.608
 6658SOL    HW120873   6.474   0.240   5.645
 6658SOL    HW220874   6.622   0.182   5.682
 6659SOL     OW20875   2.134   3.282   0.287
 6659SOL    HW120876   2.189   3.320   0.362
 6659SOL    HW220877   2.080   3.354   0.245
 6660SOL     OW20878   0.270   6.704   2.954
 6660SOL    HW120879   0.214   6.645   2.896
 6660SOL    HW220880   0.329   6.761   2.896
 6661SOL     OW20881   6.930   0.154   4.037
 6661SOL    HW120882   6.867   0.090   4.082
 6661SOL    HW220883   6.906   0.161   3.940
 6662SOL     OW20884   1.163   3.459   6.244
 6662SOL    HW120885   1.212   3.418   6.320
 6662SOL    HW220886   1.086   3.401   6.218
 6663SOL     OW20887   0.371   5.403   1.809
 6663SOL    HW120888   0.424   5.395   1.894
 6663SOL    HW220889   0.414   5.470   1.749
 6664SOL     OW20890   6.583   2.078   1.999
 6664SOL    HW120891   6.559   2.150   1.934
 6664SOL    HW220892   6.571   2.112   2.092
 6665SOL     OW20893   2.248   6.179   3.340
 6665SOL    HW120894   2.277   6.229   3.259
 6665SOL    HW220895   2.311   6.199   3.416
 6666SOL     OW20896   5.604   0.968   0.418
 6666SOL    HW120897   5.520   1.023   0.414
 6666SOL    HW220898   5.683   1.029   0.426
 6667SOL     OW20899   5.346   4.853   5.187
 6667SOL    HW120900   5.269   4.841   5.250
 6667SOL    HW220901   5.387   4.943   5.203
 6668SOL     OW20902   6.171   6.063   0.924
 6668SOL    HW120903   6.099   6.054   0.855
 6668SOL    HW220904   6.254   6.099   0.881
 6669SOL     OW20905   0.880   4.975   3.323
 6669SOL    HW120906   0.919   5.065   3.341
 6669SOL    HW220907   0.897   4.914   3.400
 6670SOL     OW20908   5.214   5.202   0.283
 6670SOL    HW120909   5.194   5.288   0.330
 6670SOL    HW220910   5.150   5.190   0.207
 6671SOL     OW20911   0.686   2.529   5.250
 6671SOL    HW120912   0.718   2.504   5.341
 6671SOL    HW220913   0.687   2.629   5.241
 6672SOL     OW20914   6.867   0.923   4.830
 6672SOL    HW120915   6.802   0.987   4.790
 6672SOL    HW220916   6.833   0.889   4.917
 6673SOL     OW20917   3.706   5.978   1.890
 6673SOL    HW120918   3.788   5.961   1.837
 6673SOL    HW220919   3.629   5.994   1.829
 6674SOL     OW20920   0.709   5.827   5.209
 6674SOL    HW120921   0.746   5.778   5.130
 6674SOL    HW220922   0.754   5.917   5.216
 6675SOL     OW20923   6.225   6.440   6.368
 6675SOL    HW120924   6.198   6.356   6.319
 6675SOL    HW220925   6.196   6.433   6.463
 6676SOL     OW20926   0.603   1.476   0.882
 6676SOL    HW120927   0.615   1.565   0.838
 6676SOL    HW220928   0.675   1.414   0.850
 6677SOL     OW20929   0.371   4.973   0.747
 6677SOL    HW120930   0.331   5.065   0.740
 6677SOL    HW220931   0.297   4.906   0.751
 6678SOL     OW20932   0.783   3.574   3.742
 6678SOL    HW120933   0.788   3.523   3.828
 6678SOL    HW220934   0.733   3.659   3.756
 6679SOL     OW20935   2.309   0.998   4.706
 6679SOL    HW120936   2.273   1.084   4.744
 6679SOL    HW220937   2.300   1.000   4.606
 6680SOL     OW20938   2.824   0.534   6.761
 6680SOL    HW120939   2.729   0.503   6.751
 6680SOL    HW220940   2.828   0.610   6.825
 6681SOL     OW20941   5.802   5.552   6.074
 6681SOL    HW120942   5.843   5.599   6.153
 6681SOL    HW220943   5.871   5.492   6.032
 6682SOL     OW20944   6.368   5.201   2.427
 6682SOL    HW120945   6.444   5.149   2.387
 6682SOL    HW220946   6.362   5.290   2.382
 6683SOL     OW20947   5.277   3.063   4.140
 6683SOL    HW120948   5.288   2.969   4.171
 6683SOL    HW220949   5.359   3.116   4.163
 6684SOL     OW20950   1.845   1.096   1.950
 6684SOL    HW120951   1.928   1.043   1.964
 6684SOL    HW220952   1.812   1.083   1.856
 6685SOL     OW20953   5.881   2.843   6.547
 6685SOL    HW120954   5.965   2.807   6.588
 6685SOL    HW220955   5.805   2.782   6.570
 6686SOL     OW20956   4.896   4.380   3.823
 6686SOL    HW120957   4.901   4.479   3.827
 6686SOL    HW220958   4.986   4.341   3.842
 6687SOL     OW20959   0.424   0.103   0.070
 6687SOL    HW120960   0.423   0.193   0.113
 6687SOL    HW220961   0.336   0.086   0.025
 6688SOL     OW20962   0.512   4.426   3.036
 6688SOL    HW120963   0.560   4.491   3.095
 6688SOL    HW220964   0.524   4.454   2.940
 6689SOL     OW20965   5.383   3.756   0.474
 6689SOL    HW120966   5.463   3.814   0.462
 6689SOL    HW220967   5.326   3.759   0.392
 6690SOL     OW20968   0.617   1.232   0.300
 6690SOL    HW120969   0.589   1.145   0.340
 6690SOL    HW220970   0.554   1.258   0.227
 6691SOL     OW20971   1.161   5.502   1.173
 6691SOL    HW120972   1.072   5.502   1.217
 6691SOL    HW220973   1.193   5.408   1.161
 6692SOL     OW20974   4.769   3.428   6.750
 6692SOL    HW120975   4.817   3.425   6.662
 6692SOL    HW220976   4.836   3.439   6.824
 6693SOL     OW20977   4.142   3.523   6.436
 6693SOL    HW120978   4.166   3.509   6.340
 6693SOL    HW220979   4.104   3.439   6.474
 6694SOL     OW20980   3.050   5.784   6.887
 6694SOL    HW120981   3.038   5.816   6.794
 6694SOL    HW220982   3.085   5.690   6.886
 6695SOL     OW20983   1.590   1.569   0.195
 6695SOL    HW120984   1.644   1.599   0.116
 6695SOL    HW220985   1.494   1.561   0.167
 6696SOL     OW20986   1.471   2.215   1.208
 6696SOL    HW120987   1.395   2.280   1.215
 6696SOL    HW220988   1.557   2.265   1.206
 6697SOL     OW20989   5.237   3.540   4.623
 6697SOL    HW120990   5.254   3.459   4.680
 6697SOL    HW220991   5.210   3.617   4.681
 6698SOL     OW20992   2.720   4.386   6.078
 6698SOL    HW120993   2.723   4.340   6.167
 6698SOL    HW220994   2.812   4.386   6.038
 6699SOL     OW20995   2.070   3.326   6.706
 6699SOL    HW120996   2.063   3.228   6.686
 6699SOL    HW220997   2.036   3.379   6.628
 6700SOL     OW20998   0.033   6.253   6.373
 6700SOL    HW120999   0.022   6.156   6.396
 6700SOL    HW221000   6.979   6.305   6.413
 6701SOL     OW21001   1.518   2.482   0.038
 6701SOL    HW121002   1.493   2.488   6.963
 6701SOL    HW221003   1.487   2.565   0.086
 6702SOL     OW21004   2.878   3.326   1.001
 6702SOL    HW121005   2.926   3.299   1.085
 6702SOL    HW221006   2.922   3.408   0.963
 6703SOL     OW21007   0.319   2.047   0.524
 6703SOL    HW121008   0.243   2.089   0.475
 6703SOL    HW221009   0.390   2.020   0.458
 6704SOL     OW21010   5.308   3.503   2.807
 6704SOL    HW121011   5.350   3.594   2.810
 6704SOL    HW221012   5.217   3.507   2.849
 6705SOL     OW21013   5.135   1.822   1.397
 6705SOL    HW121014   5.158   1.919   1.393
 6705SOL    HW221015   5.179   1.774   1.322
 6706SOL     OW21016   1.687   6.618   6.862
 6706SOL    HW121017   1.731   6.634   6.773
 6706SOL    HW221018   1.754   6.580   6.926
 6707SOL     OW21019   1.547   5.084   3.164
 6707SOL    HW121020   1.558   5.102   3.262
 6707SOL    HW221021   1.623   5.124   3.114
 6708SOL     OW21022   2.195   6.183   1.180
 6708SOL    HW121023   2.211   6.089   1.153
 6708SOL    HW221024   2.099   6.194   1.207
 6709SOL     OW21025   5.068   1.777   3.748
 6709SOL    HW121026   5.006   1.702   3.727
 6709SOL    HW221027   5.092   1.824   3.663
 6710SOL     OW21028   2.513   2.648   0.654
 6710SOL    HW121029   2.426   2.697   0.644
 6710SOL    HW221030   2.566   2.656   0.570
 6711SOL     OW21031   5.879   3.519   6.733
 6711SOL    HW121032   5.833   3.579   6.669
 6711SOL    HW221033   5.957   3.567   6.774
 6712SOL     OW21034   2.859   6.440   1.025
 6712SOL    HW121035   2.912   6.374   0.973
 6712SOL    HW221036   2.906   6.462   1.110
 6713SOL     OW21037   0.613   2.420   3.054
 6713SOL    HW121038   0.572   2.380   2.972
 6713SOL    HW221039   0.559   2.394   3.135
 6714SOL     OW21040   6.666   0.818   5.018
 6714SOL    HW121041   6.740   0.788   5.078
 6714SOL    HW221042   6.644   0.914   5.038
 6715SOL     OW21043   5.269   2.777   0.535
 6715SOL    HW121044   5.252   2.726   0.619
 6715SOL    HW221045   5.183   2.791   0.486
 6716SOL     OW21046   3.498   6.194   0.988
 6716SOL    HW121047   3.520   6.288   1.011
 6716SOL    HW221048   3.403   6.188   0.957
 6717SOL     OW21049   3.842   0.658   6.972
 6717SOL    HW121050   3.832   0.618   0.042
 6717SOL    HW221051   3.825   0.757   6.977
 6718SOL     OW21052   4.099   0.144   6.640
 6718SOL    HW121053   4.116   0.055   6.682
 6718SOL    HW221054   4.108   0.137   6.541
 6719SOL     OW21055   0.904   1.871   5.138
 6719SOL    HW121056   0.933   1.853   5.045
 6719SOL    HW221057   0.978   1.847   5.202
 6720SOL     OW21058   1.456   4.701   0.732
 6720SOL    HW121059   1.444   4.757   0.649
 6720SOL    HW221060   1.378   4.640   0.742
 6721SOL     OW21061   6.334   6.153   2.807
 6721SOL    HW121062   6.235   6.151   2.798
 6721SOL    HW221063   6.364   6.247   2.828
 6722SOL     OW21064   4.042   4.331   6.951
 6722SOL    HW121065   4.068   4.308   6.857
 6722SOL    HW221066   3.945   4.311   6.965
 6723SOL     OW21067   3.628   1.811   2.661
 6723SOL    HW121068   3.581   1.881   2.607
 6723SOL    HW221069   3.666   1.853   2.743
 6724SOL     OW21070   3.191   4.569   5.879
 6724SOL    HW121071   3.093   4.550   5.868
 6724SOL    HW221072   3.203   4.666   5.899
 6725SOL     OW21073   1.002   6.153   1.593
 6725SOL    HW121074   0.950   6.069   1.603
 6725SOL    HW221075   1.001   6.182   1.498
 6726SOL     OW21076   2.401   2.504   1.827
 6726SOL    HW121077   2.473   2.461   1.881
 6726SOL    HW221078   2.371   2.588   1.873
 6727SOL     OW21079   3.066   3.860   0.711
 6727SOL    HW121080   3.120   3.832   0.791
 6727SOL    HW221081   3.030   3.778   0.666
 6728SOL     OW21082   4.385   1.274   3.869
 6728SOL    HW121083   4.345   1.225   3.946
 6728SOL    HW221084   4.346   1.366   3.865
 6729SOL     OW21085   4.348   5.668   3.903
 6729SOL    HW121086   4.286   5.601   3.862
 6729SOL    HW221087   4.365   5.644   3.999
 6730SOL     OW21088   1.185   6.764   2.662
 6730SOL    HW121089   1.169   6.811   2.575
 6730SOL    HW221090   1.107   6.777   2.722
 6731SOL     OW21091   1.702   3.551   1.450
 6731SOL    HW121092   1.708   3.604   1.366
 6731SOL    HW221093   1.681   3.613   1.526
 6732SOL     OW21094   3.168   6.056   0.587
 6732SOL    HW121095   3.078   6.034   0.624
 6732SOL    HW221096   3.239   6.023   0.649
 6733SOL     OW21097   6.544   5.998   4.343
 6733SOL    HW121098   6.514   6.022   4.435
 6733SOL    HW221099   6.475   6.025   4.276
 6734SOL     OW21100   2.644   3.672   6.734
 6734SOL    HW121101   2.580   3.608   6.692
 6734SOL    HW221102   2.628   3.676   6.833
 6735SOL     OW21103   0.441   6.958   5.860
 6735SOL    HW121104   0.516   6.915   5.911
 6735SOL    HW221105   0.464   6.959   5.763
 6736SOL     OW21106   1.731   4.232   1.796
 6736SOL    HW121107   1.743   4.157   1.861
 6736SOL    HW221108   1.748   4.319   1.841
 6737SOL     OW21109   1.641   0.038   1.400
 6737SOL    HW121110   1.669   6.988   1.465
 6737SOL    HW221111   1.647   0.002   1.307
 6738SOL     OW21112   5.302   1.929   1.030
 6738SOL    HW121113   5.367   1.979   0.972
 6738SOL    HW221114   5.331   1.834   1.038
 6739SOL     OW21115   3.713   5.996   5.824
 6739SOL    HW121116   3.750   5.989   5.917
 6739SOL    HW221117   3.753   6.076   5.778
 6740SOL     OW21118   5.518   2.222   5.801
 6740SOL    HW121119   5.594   2.160   5.783
 6740SOL    HW221120   5.548   2.316   5.785
 6741SOL     OW21121   0.562   0.585   5.567
 6741SOL    HW121122   0.567   0.525   5.487
 6741SOL    HW221123   0.634   0.561   5.632
 6742SOL     OW21124   6.368   6.094   4.935
 6742SOL    HW121125   6.332   6.172   4.885
 6742SOL    HW221126   6.293   6.045   4.980
 6743SOL     OW21127   5.975   1.980   1.372
 6743SOL    HW121128   6.038   1.905   1.354
 6743SOL    HW221129   6.025   2.067   1.368
 6744SOL     OW21130   4.395   0.739   4.208
 6744SOL    HW121131   4.373   0.790   4.125
 6744SOL    HW221132   4.494   0.744   4.226
 6745SOL     OW21133   0.823   3.692   2.856
 6745SOL    HW121134   0.857   3.724   2.945
 6745SOL    HW221135   0.770   3.765   2.812
 6746SOL     OW21136   5.854   0.530   0.481
 6746SOL    HW121137   5.933   0.523   0.419
 6746SOL    HW221138   5.881   0.499   0.572
 6747SOL     OW21139   5.148   5.420   6.447
 6747SOL    HW121140   5.143   5.519   6.461
 6747SOL    HW221141   5.225   5.384   6.500
 6748SOL     OW21142   6.551   6.454   2.535
 6748SOL    HW121143   6.647   6.426   2.541
 6748SOL    HW221144   6.540   6.544   2.577
 6749SOL     OW21145   2.651   4.958   1.017
 6749SOL    HW121146   2.626   5.028   0.950
 6749SOL    HW221147   2.744   4.974   1.049
 6750SOL     OW21148   2.413   3.219   5.407
 6750SOL    HW121149   2.343   3.288   5.388
 6750SOL    HW221150   2.397   3.138   5.350
 6751SOL     OW21151   4.597   2.614   5.691
 6751SOL    HW121152   4.687   2.576   5.710
 6751SOL    HW221153   4.570   2.590   5.598
 6752SOL     OW21154   6.575   1.088   0.382
 6752SOL    HW121155   6.638   1.156   0.418
 6752SOL    HW221156   6.481   1.124   0.385
 6753SOL     OW21157   6.080   0.537   6.509
 6753SOL    HW121158   6.031   0.620   6.487
 6753SOL    HW221159   6.051   0.504   6.600
 6754SOL     OW21160   4.189   1.395   6.904
 6754SOL    HW121161   4.222   1.453   6.978
 6754SOL    HW221162   4.128   1.447   6.845
 6755SOL     OW21163   5.415   1.681   3.084
 6755SOL    HW121164   5.347   1.647   3.020
 6755SOL    HW221165   5.415   1.625   3.167
 6756SOL     OW21166   4.472   5.326   3.112
 6756SOL    HW121167   4.459   5.296   3.017
 6756SOL    HW221168   4.515   5.416   3.113
 6757SOL     OW21169   6.252   4.308   1.421
 6757SOL    HW121170   6.309   4.373   1.470
 6757SOL    HW221171   6.206   4.354   1.345
 6758SOL     OW21172   7.010   2.288   2.719
 6758SOL    HW121173   6.915   2.290   2.749
 6758SOL    HW221174   0.003   2.210   2.659
 6759SOL     OW21175   0.346   5.152   4.133
 6759SOL    HW121176   0.294   5.118   4.054
 6759SOL    HW221177   0.293   5.135   4.216
 6760SOL     OW21178   0.684   3.941   5.244
 6760SOL    HW121179   0.655   4.027   5.285
 6760SOL    HW221180   0.638   3.929   5.156
 6761SOL     OW21181   6.299   3.016   6.757
 6761SOL    HW121182   6.200   3.030   6.764
 6761SOL    HW221183   6.344   3.102   6.732
 6762SOL     OW21184   0.035   2.060   4.568
 6762SOL    HW121185   0.091   2.114   4.505
 6762SOL    HW221186   0.005   1.976   4.523
 6763SOL     OW21187   5.899   6.183   5.481
 6763SOL    HW121188   5.926   6.093   5.514
 6763SOL    HW221189   5.965   6.251   5.512
 6764SOL     OW21190   1.987   3.786   6.827
 6764SOL    HW121191   2.005   3.867   6.884
 6764SOL    HW221192   1.890   3.763   6.832
 6765SOL     OW21193   4.531   5.308   1.871
 6765SOL    HW121194   4.477   5.391   1.856
 6765SOL    HW221195   4.606   5.329   1.934
 6766SOL     OW21196   2.832   2.444   5.256
 6766SOL    HW121197   2.849   2.358   5.209
 6766SOL    HW221198   2.918   2.481   5.291
 6767SOL     OW21199   0.455   2.893   5.788
 6767SOL    HW121200   0.493   2.828   5.854
 6767SOL    HW221201   0.369   2.855   5.752
 6768SOL     OW21202   6.598   0.643   5.852
 6768SOL    HW121203   6.634   0.719   5.907
 6768SOL    HW221204   6.646   0.640   5.764
 6769SOL     OW21205   0.948   2.161   6.307
 6769SOL    HW121206   0.849   2.154   6.302
 6769SOL    HW221207   0.979   2.236   6.249
 6770SOL     OW21208   0.618   2.045   3.515
 6770SOL    HW121209   0.690   2.058   3.583
 6770SOL    HW221210   0.536   2.094   3.544
 6771SOL     OW21211   5.360   2.466   2.520
 6771SOL    HW121212   5.274   2.514   2.508
 6771SOL    HW221213   5.435   2.523   2.486
 6772SOL     OW21214   1.373   6.860   1.593
 6772SOL    HW121215   1.378   6.760   1.597
 6772SOL    HW221216   1.297   6.892   1.649
 6773SOL     OW21217   1.723   1.299   3.269
 6773SOL    HW121218   1.681   1.208   3.268
 6773SOL    HW221219   1.810   1.295   3.219
 6774SOL     OW21220   3.725   1.028   5.413
 6774SOL    HW121221   3.715   0.964   5.488
 6774SOL    HW221222   3.692   1.118   5.441
 6775SOL     OW21223   1.655   2.962   5.028
 6775SOL    HW121224   1.618   3.055   5.027
 6775SOL    HW221225   1.680   2.934   4.936
 6776SOL     OW21226   3.146   3.454   3.680
 6776SOL    HW121227   3.161   3.511   3.600
 6776SOL    HW221228   3.082   3.500   3.742
 6777SOL     OW21229   0.115   0.432   5.211
 6777SOL    HW121230   0.144   0.398   5.301
 6777SOL    HW221231   0.019   0.411   5.197
 6778SOL     OW21232   5.883   5.832   2.045
 6778SOL    HW121233   5.924   5.893   2.112
 6778SOL    HW221234   5.904   5.737   2.068
 6779SOL     OW21235   5.881   3.379   5.815
 6779SOL    HW121236   5.817   3.434   5.761
 6779SOL    HW221237   5.971   3.380   5.771
 6780SOL     OW21238   4.634   0.931   1.926
 6780SOL    HW121239   4.730   0.913   1.907
 6780SOL    HW221240   4.607   1.017   1.883
 6781SOL     OW21241   5.600   3.922   3.111
 6781SOL    HW121242   5.680   3.929   3.169
 6781SOL    HW221243   5.598   3.831   3.067
 6782SOL     OW21244   6.748   2.208   2.765
 6782SOL    HW121245   6.714   2.126   2.719
 6782SOL    HW221246   6.672   2.272   2.778
 6783SOL     OW21247   0.909   6.670   6.798
 6783SOL    HW121248   0.884   6.705   6.888
 6783SOL    HW221249   0.997   6.708   6.770
 6784SOL     OW21250   1.579   4.923   6.322
 6784SOL    HW121251   1.567   4.836   6.275
 6784SOL    HW221252   1.622   4.907   6.411
 6785SOL     OW21253   5.501   4.036   1.759
 6785SOL    HW121254   5.448   4.038   1.843
 6785SOL    HW221255   5.599   4.039   1.781
 6786SOL     OW21256   6.358   1.243   6.307
 6786SOL    HW121257   6.312   1.183   6.372
 6786SOL    HW221258   6.289   1.292   6.253
 6787SOL     OW21259   4.416   2.481   1.553
 6787SOL    HW121260   4.352   2.404   1.548
 6787SOL    HW221261   4.365   2.565   1.571
 6788SOL     OW21262   1.803   4.294   1.006
 6788SOL    HW121263   1.736   4.308   0.933
 6788SOL    HW221264   1.808   4.196   1.028
 6789SOL     OW21265   5.628   2.530   3.195
 6789SOL    HW121266   5.577   2.444   3.203
 6789SOL    HW221267   5.678   2.546   3.280
 6790SOL     OW21268   0.990   5.598   6.850
 6790SOL    HW121269   1.011   5.503   6.872
 6790SOL    HW221270   0.899   5.621   6.884
 6791SOL     OW21271   1.937   6.318   4.229
 6791SOL    HW121272   1.888   6.320   4.142
 6791SOL    HW221273   1.885   6.368   4.298
 6792SOL     OW21274   3.257   5.644   0.565
 6792SOL    HW121275   3.194   5.674   0.636
 6792SOL    HW221276   3.236   5.550   0.539
 6793SOL     OW21277   1.718   3.458   5.887
 6793SOL    HW121278   1.814   3.434   5.904
 6793SOL    HW221279   1.671   3.470   5.974
 6794SOL     OW21280   4.648   2.236   4.379
 6794SOL    HW121281   4.591   2.297   4.435
 6794SOL    HW221282   4.645   2.267   4.284
 6795SOL     OW21283   0.728   0.368   2.628
 6795SOL    HW121284   0.720   0.278   2.671
 6795SOL    HW221285   0.779   0.361   2.543
 6796SOL     OW21286   6.502   2.391   2.304
 6796SOL    HW121287   6.481   2.424   2.396
 6796SOL    HW221288   6.602   2.386   2.293
 6797SOL     OW21289   1.734   3.818   0.523
 6797SOL    HW121290   1.736   3.804   0.622
 6797SOL    HW221291   1.820   3.859   0.493
 6798SOL     OW21292   5.118   2.133   1.797
 6798SOL    HW121293   5.085   2.209   1.853
 6798SOL    HW221294   5.076   2.137   1.707
 6799SOL     OW21295   4.316   6.889   2.430
 6799SOL    HW121296   4.234   6.891   2.372
 6799SOL    HW221297   4.331   6.796   2.463
 6800SOL     OW21298   6.711   2.737   2.377
 6800SOL    HW121299   6.708   2.776   2.285
 6800SOL    HW221300   6.735   2.640   2.371
 6801SOL     OW21301   2.256   4.709   5.111
 6801SOL    HW121302   2.186   4.779   5.099
 6801SOL    HW221303   2.292   4.712   5.204
 6802SOL     OW21304   2.329   4.172   2.047
 6802SOL    HW121305   2.285   4.237   1.985
 6802SOL    HW221306   2.422   4.153   2.015
 6803SOL     OW21307   6.425   5.448   6.154
 6803SOL    HW121308   6.425   5.468   6.056
 6803SOL    HW221309   6.446   5.531   6.205
 6804SOL     OW21310   3.023   5.639   1.673
 6804SOL    HW121311   2.928   5.649   1.645
 6804SOL    HW221312   3.083   5.650   1.594
 6805SOL     OW21313   0.437   4.075   4.125
 6805SOL    HW121314   0.393   4.067   4.036
 6805SOL    HW221315   0.495   4.157   4.126
 6806SOL     OW21316   6.078   3.721   1.897
 6806SOL    HW121317   6.112   3.629   1.912
 6806SOL    HW221318   6.145   3.773   1.844
 6807SOL     OW21319   3.981   3.735   2.680
 6807SOL    HW121320   3.887   3.722   2.646
 6807SOL    HW221321   4.028   3.646   2.682
 6808SOL     OW21322   2.656   6.487   3.989
 6808SOL    HW121323   2.651   6.396   3.948
 6808SOL    HW221324   2.717   6.485   4.068
 6809SOL     OW21325   6.301   2.497   0.445
 6809SOL    HW121326   6.287   2.503   0.346
 6809SOL    HW221327   6.272   2.582   0.489
 6810SOL     OW21328   3.140   6.946   4.792
 6810SOL    HW121329   3.049   6.981   4.812
 6810SOL    HW221330   3.209   7.008   4.829
 6811SOL     OW21331   6.441   2.231   1.423
 6811SOL    HW121332   6.353   2.203   1.462
 6811SOL    HW221333   6.487   2.152   1.382
 6812SOL     OW21334   3.403   4.746   5.278
 6812SOL    HW121335   3.304   4.732   5.280
 6812SOL    HW221336   3.426   4.819   5.215
 6813SOL     OW21337   0.466   3.664   1.639
 6813SOL    HW121338   0.520   3.603   1.581
 6813SOL    HW221339   0.496   3.654   1.734
 6814SOL     OW21340   4.776   2.293   1.700
 6814SOL    HW121341   4.839   2.308   1.776
 6814SOL    HW221342   4.727   2.379   1.680
 6815SOL     OW21343   1.954   6.261   0.836
 6815SOL    HW121344   2.033   6.276   0.895
 6815SOL    HW221345   1.948   6.335   0.769
 6816SOL     OW21346   5.533   0.504   3.335
 6816SOL    HW121347   5.576   0.492   3.424
 6816SOL    HW221348   5.480   0.588   3.334
 6817SOL     OW21349   5.930   1.123   1.338
 6817SOL    HW121350   5.841   1.148   1.301
 6817SOL    HW221351   5.999   1.126   1.266
 6818SOL     OW21352   6.866   0.098   5.638
 6818SOL    HW121353   6.913   0.133   5.557
 6818SOL    HW221354   6.884   0.158   5.715
 6819SOL     OW21355   5.921   3.698   0.256
 6819SOL    HW121356   5.909   3.610   0.209
 6819SOL    HW221357   6.015   3.730   0.242
 6820SOL     OW21358   2.378   4.608   1.064
 6820SOL    HW121359   2.315   4.640   1.135
 6820SOL    HW221360   2.460   4.571   1.106
 6821SOL     OW21361   2.370   3.536   5.769
 6821SOL    HW121362   2.400   3.529   5.864
 6821SOL    HW221363   2.440   3.584   5.715
 6822SOL     OW21364   0.374   4.422   4.868
 6822SOL    HW121365   0.426   4.360   4.927
 6822SOL    HW221366   0.371   4.513   4.909
 6823SOL     OW21367   6.574   3.279   5.273
 6823SOL    HW121368   6.570   3.352   5.204
 6823SOL    HW221369   6.482   3.246   5.292
 6824SOL     OW21370   1.204   0.722   3.794
 6824SOL    HW121371   1.295   0.679   3.786
 6824SOL    HW221372   1.159   0.720   3.705
 6825SOL     OW21373   4.939   5.227   1.180
 6825SOL    HW121374   4.891   5.200   1.264
 6825SOL    HW221375   5.031   5.259   1.202
 6826SOL     OW21376   5.811   0.635   4.508
 6826SOL    HW121377   5.804   0.556   4.568
 6826SOL    HW221378   5.721   0.656   4.470
 6827SOL     OW21379   5.146   4.875   5.360
 6827SOL    HW121380   5.192   4.839   5.441
 6827SOL    HW221381   5.047   4.878   5.377
 6828SOL     OW21382   2.460   2.114   2.376
 6828SOL    HW121383   2.385   2.053   2.350
 6828SOL    HW221384   2.547   2.073   2.348
 6829SOL     OW21385   5.688   6.536   4.656
 6829SOL    HW121386   5.616   6.545   4.725
 6829SOL    HW221387   5.673   6.453   4.602
 6830SOL     OW21388   3.727   6.762   2.736
 6830SOL    HW121389   3.660   6.781   2.665
 6830SOL    HW221390   3.750   6.664   2.735
 6831SOL     OW21391   1.911   0.319   6.992
 6831SOL    HW121392   1.867   0.397   6.950
 6831SOL    HW221393   2.008   0.318   6.969
 6832SOL     OW21394   3.689   3.608   0.304
 6832SOL    HW121395   3.615   3.672   0.281
 6832SOL    HW221396   3.674   3.522   0.256
 6833SOL     OW21397   4.131   5.305   0.154
 6833SOL    HW121398   4.117   5.224   0.211
 6833SOL    HW221399   4.225   5.338   0.167
 6834SOL     OW21400   6.608   5.524   5.114
 6834SOL    HW121401   6.641   5.490   5.026
 6834SOL    HW221402   6.571   5.447   5.167
 6835SOL     OW21403   4.326   0.574   2.913
 6835SOL    HW121404   4.346   0.669   2.935
 6835SOL    HW221405   4.229   0.564   2.890
 6836SOL     OW21406   0.884   4.741   6.556
 6836SOL    HW121407   0.894   4.670   6.627
 6836SOL    HW221408   0.927   4.709   6.472
 6837SOL     OW21409   5.925   2.327   1.554
 6837SOL    HW121410   5.826   2.317   1.553
 6837SOL    HW221411   5.950   2.417   1.518
 6838SOL     OW21412   2.022   4.514   6.844
 6838SOL    HW121413   2.033   4.500   6.746
 6838SOL    HW221414   1.972   4.599   6.860
 6839SOL     OW21415   6.291   2.360   5.176
 6839SOL    HW121416   6.296   2.442   5.234
 6839SOL    HW221417   6.368   2.359   5.113
 6840SOL     OW21418   3.005   0.508   4.593
 6840SOL    HW121419   3.080   0.540   4.536
 6840SOL    HW221420   3.014   0.545   4.686
 6841SOL     OW21421   4.712   6.008   0.570
 6841SOL    HW121422   4.722   5.978   0.665
 6841SOL    HW221423   4.797   6.049   0.539
 6842SOL     OW21424   0.183   2.883   3.411
 6842SOL    HW121425   0.212   2.977   3.389
 6842SOL    HW221426   0.144   2.840   3.330
 6843SOL     OW21427   4.410   3.085   1.717
 6843SOL    HW121428   4.481   3.100   1.786
 6843SOL    HW221429   4.443   3.020   1.649
 6844SOL     OW21430   3.251   6.362   3.966
 6844SOL    HW121431   3.251   6.413   3.880
 6844SOL    HW221432   3.325   6.294   3.965
 6845SOL     OW21433   3.726   4.349   6.961
 6845SOL    HW121434   3.631   4.319   6.951
 6845SOL    HW221435   3.742   4.428   6.902
 6846SOL     OW21436   3.868   3.460   4.112
 6846SOL    HW121437   3.879   3.389   4.042
 6846SOL    HW221438   3.837   3.544   4.068
 6847SOL     OW21439   4.992   3.711   0.992
 6847SOL    HW121440   4.967   3.617   1.012
 6847SOL    HW221441   5.073   3.736   1.044
 6848SOL     OW21442   0.971   6.309   4.866
 6848SOL    HW121443   0.996   6.235   4.802
 6848SOL    HW221444   1.054   6.350   4.903
 6849SOL     OW21445   2.389   0.457   4.520
 6849SOL    HW121446   2.348   0.407   4.596
 6849SOL    HW221447   2.486   0.434   4.513
 6850SOL     OW21448   6.509   2.586   1.882
 6850SOL    HW121449   6.453   2.569   1.801
 6850SOL    HW221450   6.466   2.543   1.961
 6851SOL     OW21451   2.340   5.532   0.587
 6851SOL    HW121452   2.278   5.470   0.635
 6851SOL    HW221453   2.371   5.489   0.502
 6852SOL     OW21454   4.778   4.737   2.289
 6852SOL    HW121455   4.749   4.739   2.384
 6852SOL    HW221456   4.701   4.764   2.230
 6853SOL     OW21457   5.695   4.447   4.298
 6853SOL    HW121458   5.607   4.417   4.335
 6853SOL    HW221459   5.749   4.367   4.271
 6854SOL     OW21460   6.100   0.825   6.916
 6854SOL    HW121461   6.023   0.849   6.857
 6854SOL    HW221462   6.142   0.908   6.951
 6855SOL     OW21463   2.826   6.697   2.924
 6855SOL    HW121464   2.849   6.603   2.902
 6855SOL    HW221465   2.728   6.712   2.911
 6856SOL     OW21466   1.096   4.896   5.728
 6856SOL    HW121467   1.041   4.937   5.801
 6856SOL    HW221468   1.174   4.955   5.708
 6857SOL     OW21469   4.496   0.925   6.706
 6857SOL    HW121470   4.529   1.019   6.694
 6857SOL    HW221471   4.442   0.898   6.626
 6858SOL     OW21472   3.163   3.097   6.402
 6858SOL    HW121473   3.175   3.181   6.350
 6858SOL    HW221474   3.071   3.094   6.440
 6859SOL     OW21475   4.320   6.937   1.732
 6859SOL    HW121476   4.281   6.968   1.645
 6859SOL    HW221477   4.283   6.847   1.755
 6860SOL     OW21478   4.667   3.286   0.106
 6860SOL    HW121479   4.683   3.357   0.174
 6860SOL    HW221480   4.666   3.197   0.151
 6861SOL     OW21481   6.459   3.798   0.021
 6861SOL    HW121482   6.482   3.811   0.118
 6861SOL    HW221483   6.449   3.887   6.999
 6862SOL     OW21484   2.779   4.938   4.550
 6862SOL    HW121485   2.829   4.896   4.626
 6862SOL    HW221486   2.729   4.867   4.500
 6863SOL     OW21487   1.184   3.492   3.765
 6863SOL    HW121488   1.165   3.518   3.860
 6863SOL    HW221489   1.152   3.399   3.749
 6864SOL     OW21490   3.078   5.606   6.049
 6864SOL    HW121491   3.177   5.618   6.041
 6864SOL    HW221492   3.032   5.644   5.969
 6865SOL     OW21493   0.742   2.579   5.528
 6865SOL    HW121494   0.716   2.675   5.532
 6865SOL    HW221495   0.704   2.531   5.607
 6866SOL     OW21496   0.288   4.209   2.959
 6866SOL    HW121497   0.280   4.259   2.873
 6866SOL    HW221498   0.369   4.240   3.008
 6867SOL     OW21499   2.832   5.367   3.777
 6867SOL    HW121500   2.807   5.418   3.694
 6867SOL    HW221501   2.783   5.279   3.778
 6868SOL     OW21502   1.718   5.583   4.978
 6868SOL    HW121503   1.712   5.576   4.879
 6868SOL    HW221504   1.655   5.653   5.011
 6869SOL     OW21505   0.209   2.587   4.159
 6869SOL    HW121506   0.272   2.654   4.121
 6869SOL    HW221507   0.203   2.507   4.098
 6870SOL     OW21508   5.200   3.933   2.964
 6870SOL    HW121509   5.292   3.960   2.937
 6870SOL    HW221510   5.169   3.989   3.041
 6871SOL     OW21511   4.418   6.269   2.137
 6871SOL    HW121512   4.451   6.190   2.188
 6871SOL    HW221513   4.318   6.268   2.134
 6872SOL     OW21514   3.327   4.138   0.984
 6872SOL    HW121515   3.278   4.174   0.905
 6872SOL    HW221516   3.265   4.131   1.061
 6873SOL     OW21517   4.881   4.832   5.480
 6873SOL    HW121518   4.839   4.763   5.421
 6873SOL    HW221519   4.928   4.787   5.556
 6874SOL     OW21520   1.605   1.890   6.347
 6874SOL    HW121521   1.525   1.951   6.349
 6874SOL    HW221522   1.688   1.945   6.343
 6875SOL     OW21523   3.884   6.906   5.095
 6875SOL    HW121524   3.801   6.963   5.095
 6875SOL    HW221525   3.858   6.810   5.085
 6876SOL     OW21526   2.923   6.549   4.631
 6876SOL    HW121527   3.008   6.512   4.592
 6876SOL    HW221528   2.888   6.621   4.571
 6877SOL     OW21529   2.003   4.162   0.586
 6877SOL    HW121530   2.016   4.222   0.507
 6877SOL    HW221531   2.007   4.067   0.557
 6878SOL     OW21532   2.130   1.608   5.081
 6878SOL    HW121533   2.162   1.668   5.154
 6878SOL    HW221534   2.203   1.597   5.013
 6879SOL     OW21535   6.174   1.527   5.926
 6879SOL    HW121536   6.203   1.615   5.890
 6879SOL    HW221537   6.165   1.461   5.851
 6880SOL     OW21538   0.959   4.643   4.626
 6880SOL    HW121539   0.993   4.557   4.663
 6880SOL    HW221540   0.988   4.653   4.531
 6881SOL     OW21541   4.640   6.300   1.449
 6881SOL    HW121542   4.563   6.363   1.461
 6881SOL    HW221543   4.605   6.206   1.443
 6882SOL     OW21544   2.690   5.958   5.236
 6882SOL    HW121545   2.615   5.911   5.283
 6882SOL    HW221546   2.755   5.993   5.304
 6883SOL     OW21547   2.762   6.543   2.190
 6883SOL    HW121548   2.709   6.540   2.105
 6883SOL    HW221549   2.704   6.515   2.266
 6884SOL     OW21550   1.713   4.773   2.914
 6884SOL    HW121551   1.616   4.751   2.928
 6884SOL    HW221552   1.766   4.740   2.992
 6885SOL     OW21553   4.271   4.700   4.716
 6885SOL    HW121554   4.286   4.606   4.745
 6885SOL    HW221555   4.307   4.763   4.785
 6886SOL     OW21556   4.983   6.805   0.967
 6886SOL    HW121557   4.990   6.903   0.989
 6886SOL    HW221558   4.887   6.777   0.968
 6887SOL     OW21559   6.332   0.963   4.896
 6887SOL    HW121560   6.365   1.050   4.861
 6887SOL    HW221561   6.390   0.889   4.862
 6888SOL     OW21562   6.951   6.897   3.750
 6888SOL    HW121563   6.915   6.989   3.767
 6888SOL    HW221564   6.944   6.843   3.834
 6889SOL     OW21565   2.271   4.011   6.248
 6889SOL    HW121566   2.266   4.058   6.160
 6889SOL    HW221567   2.184   3.967   6.268
 6890SOL     OW21568   1.254   0.840   1.387
 6890SOL    HW121569   1.201   0.790   1.318
 6890SOL    HW221570   1.332   0.884   1.343
 6891SOL     OW21571   5.424   5.461   5.513
 6891SOL    HW121572   5.392   5.403   5.588
 6891SOL    HW221573   5.357   5.460   5.439
 6892SOL     OW21574   3.012   1.862   4.102
 6892SOL    HW121575   3.008   1.962   4.109
 6892SOL    HW221576   2.940   1.822   4.158
 6893SOL     OW21577   4.878   0.098   1.283
 6893SOL    HW121578   4.851   0.006   1.312
 6893SOL    HW221579   4.925   0.145   1.357
 6894SOL     OW21580   5.745   4.441   5.839
 6894SOL    HW121581   5.667   4.489   5.799
 6894SOL    HW221582   5.829   4.468   5.792
 6895SOL     OW21583   4.683   5.187   4.203
 6895SOL    HW121584   4.712   5.127   4.128
 6895SOL    HW221585   4.584   5.202   4.197
 6896SOL     OW21586   5.313   2.209   2.433
 6896SOL    HW121587   5.227   2.222   2.384
 6896SOL    HW221588   5.340   2.295   2.477
 6897SOL     OW21589   4.048   1.301   1.443
 6897SOL    HW121590   4.069   1.216   1.492
 6897SOL    HW221591   4.132   1.338   1.403
 6898SOL     OW21592   3.882   1.228   1.830
 6898SOL    HW121593   3.892   1.185   1.741
 6898SOL    HW221594   3.939   1.180   1.897
 6899SOL     OW21595   5.535   4.623   5.791
 6899SOL    HW121596   5.503   4.716   5.772
 6899SOL    HW221597   5.460   4.558   5.777
 6900SOL     OW21598   4.275   0.403   5.873
 6900SOL    HW121599   4.348   0.433   5.812
 6900SOL    HW221600   4.221   0.331   5.828
 6901SOL     OW21601   1.155   0.724   0.018
 6901SOL    HW121602   1.185   0.701   6.947
 6901SOL    HW221603   1.229   0.773   0.066
 6902SOL     OW21604   6.541   5.503   2.797
 6902SOL    HW121605   6.522   5.597   2.769
 6902SOL    HW221606   6.480   5.440   2.750
 6903SOL     OW21607   6.056   4.240   6.580
 6903SOL    HW121608   5.991   4.227   6.654
 6903SOL    HW221609   6.031   4.182   6.503
 6904SOL     OW21610   0.665   1.414   2.566
 6904SOL    HW121611   0.601   1.454   2.632
 6904SOL    HW221612   0.625   1.418   2.475
 6905SOL     OW21613   3.620   5.437   0.924
 6905SOL    HW121614   3.694   5.372   0.943
 6905SOL    HW221615   3.550   5.391   0.869
 6906SOL     OW21616   6.161   6.311   2.351
 6906SOL    HW121617   6.209   6.367   2.418
 6906SOL    HW221618   6.195   6.333   2.259
 6907SOL     OW21619   3.411   0.856   1.871
 6907SOL    HW121620   3.336   0.795   1.844
 6907SOL    HW221621   3.498   0.806   1.864
 6908SOL     OW21622   5.101   6.945   0.135
 6908SOL    HW121623   5.025   6.971   0.196
 6908SOL    HW221624   5.072   6.953   0.040
 6909SOL     OW21625   2.427   2.323   6.946
 6909SOL    HW121626   2.385   2.305   6.857
 6909SOL    HW221627   2.459   2.237   6.986
 6910SOL     OW21628   4.578   0.948   1.078
 6910SOL    HW121629   4.554   0.855   1.108
 6910SOL    HW221630   4.516   1.014   1.121
 6911SOL     OW21631   3.680   6.684   5.169
 6911SOL    HW121632   3.721   6.611   5.115
 6911SOL    HW221633   3.582   6.689   5.149
 6912SOL     OW21634   3.530   5.747   1.863
 6912SOL    HW121635   3.511   5.844   1.852
 6912SOL    HW221636   3.621   5.735   1.902
 6913SOL     OW21637   4.107   5.891   5.785
 6913SOL    HW121638   4.145   5.929   5.870
 6913SOL    HW221639   4.017   5.852   5.804
 6914SOL     OW21640   0.296   5.531   6.915
 6914SOL    HW121641   0.284   5.432   6.909
 6914SOL    HW221642   0.239   5.567   6.989
 6915SOL     OW21643   1.005   6.926   6.696
 6915SOL    HW121644   1.062   6.900   6.618
 6915SOL    HW221645   0.952   7.008   6.673
 6916SOL     OW21646   6.252   0.441   6.316
 6916SOL    HW121647   6.214   0.445   6.223
 6916SOL    HW221648   6.186   0.480   6.380
 6917SOL     OW21649   4.293   5.970   5.986
 6917SOL    HW121650   4.326   6.058   6.022
 6917SOL    HW221651   4.235   5.926   6.055
 6918SOL     OW21652   1.925   2.348   3.519
 6918SOL    HW121653   1.909   2.447   3.515
 6918SOL    HW221654   1.868   2.302   3.451
 6919SOL     OW21655   1.955   5.821   3.740
 6919SOL    HW121656   1.898   5.901   3.757
 6919SOL    HW221657   2.028   5.817   3.807
 6920SOL     OW21658   5.729   5.530   4.026
 6920SOL    HW121659   5.748   5.559   4.120
 6920SOL    HW221660   5.726   5.610   3.966
 6921SOL     OW21661   1.914   4.954   2.893
 6921SOL    HW121662   1.892   5.020   2.822
 6921SOL    HW221663   1.833   4.899   2.913
 6922SOL     OW21664   1.530   6.161   1.718
 6922SOL    HW121665   1.612   6.215   1.739
 6922SOL    HW221666   1.554   6.064   1.717
 6923SOL     OW21667   5.273   5.698   4.381
 6923SOL    HW121668   5.240   5.703   4.475
 6923SOL    HW221669   5.310   5.607   4.364
 6924SOL     OW21670   5.524   6.170   2.433
 6924SOL    HW121671   5.591   6.228   2.480
 6924SOL    HW221672   5.441   6.163   2.488
 6925SOL     OW21673   4.550   5.735   1.866
 6925SOL    HW121674   4.570   5.730   1.769
 6925SOL    HW221675   4.522   5.828   1.890
 6926SOL     OW21676   2.699   3.612   5.794
 6926SOL    HW121677   2.763   3.677   5.751
 6926SOL    HW221678   2.672   3.542   5.728
 6927SOL     OW21679   4.012   3.928   0.669
 6927SOL    HW121680   3.926   3.939   0.719
 6927SOL    HW221681   3.996   3.942   0.571
 6928SOL     OW21682   6.619   0.577   6.711
 6928SOL    HW121683   6.714   0.608   6.703
 6928SOL    HW221684   6.618   0.478   6.721
 6929SOL     OW21685   3.411   5.836   0.963
 6929SOL    HW121686   3.360   5.916   0.996
 6929SOL    HW221687   3.500   5.833   1.008
 6930SOL     OW21688   0.369   1.178   3.050
 6930SOL    HW121689   0.421   1.252   3.094
 6930SOL    HW221690   0.424   1.095   3.048
 6931SOL     OW21691   2.379   0.175   1.331
 6931SOL    HW121692   2.455   0.191   1.268
 6931SOL    HW221693   2.315   0.110   1.291
 6932SOL     OW21694   3.261   2.747   0.431
 6932SOL    HW121695   3.273   2.846   0.437
 6932SOL    HW221696   3.238   2.722   0.337
 6933SOL     OW21697   3.162   6.246   5.114
 6933SOL    HW121698   3.062   6.247   5.101
 6933SOL    HW221699   3.182   6.261   5.211
 6934SOL     OW21700   5.357   4.875   6.707
 6934SOL    HW121701   5.326   4.800   6.766
 6934SOL    HW221702   5.301   4.956   6.722
 6935SOL     OW21703   4.344   5.543   3.275
 6935SOL    HW121704   4.405   5.595   3.215
 6935SOL    HW221705   4.365   5.446   3.267
 6936SOL     OW21706   0.983   4.536   0.607
 6936SOL    HW121707   0.956   4.515   0.512
 6936SOL    HW221708   0.933   4.616   0.638
 6937SOL     OW21709   4.278   5.702   6.547
 6937SOL    HW121710   4.284   5.603   6.557
 6937SOL    HW221711   4.211   5.737   6.612
 6938SOL     OW21712   6.412   2.016   5.263
 6938SOL    HW121713   6.354   2.007   5.182
 6938SOL    HW221714   6.454   1.928   5.284
 6939SOL     OW21715   6.905   4.697   1.802
 6939SOL    HW121716   6.889   4.782   1.853
 6939SOL    HW221717   7.002   4.691   1.777
 6940SOL     OW21718   4.120   0.630   4.170
 6940SOL    HW121719   4.126   0.539   4.127
 6940SOL    HW221720   4.212   0.666   4.183
 6941SOL     OW21721   3.484   2.800   5.215
 6941SOL    HW121722   3.488   2.704   5.243
 6941SOL    HW221723   3.400   2.816   5.164
 6942SOL     OW21724   6.176   1.407   6.180
 6942SOL    HW121725   6.116   1.436   6.254
 6942SOL    HW221726   6.150   1.455   6.096
 6943SOL     OW21727   5.942   4.335   0.057
 6943SOL    HW121728   5.879   4.410   0.077
 6943SOL    HW221729   5.894   4.248   0.069
 6944SOL     OW21730   2.019   0.172   0.210
 6944SOL    HW121731   1.979   0.190   0.120
 6944SOL    HW221732   2.049   0.259   0.251
 6945SOL     OW21733   3.796   1.401   0.007
 6945SOL    HW121734   3.827   1.387   6.934
 6945SOL    HW221735   3.697   1.407   0.008
 6946SOL     OW21736   6.377   3.965   2.376
 6946SOL    HW121737   6.311   3.999   2.309
 6946SOL    HW221738   6.396   3.869   2.358
 6947SOL     OW21739   3.518   6.447   1.051
 6947SOL    HW121740   3.611   6.459   1.017
 6947SOL    HW221741   3.495   6.521   1.114
 6948SOL     OW21742   3.120   1.824   5.811
 6948SOL    HW121743   3.200   1.790   5.859
 6948SOL    HW221744   3.124   1.924   5.805
 6949SOL     OW21745   5.118   0.207   2.531
 6949SOL    HW121746   5.065   0.194   2.447
 6949SOL    HW221747   5.117   0.304   2.556
 6950SOL     OW21748   3.789   1.659   3.074
 6950SOL    HW121749   3.699   1.628   3.044
 6950SOL    HW221750   3.859   1.627   3.009
 6951SOL     OW21751   4.526   3.777   5.682
 6951SOL    HW121752   4.591   3.719   5.633
 6951SOL    HW221753   4.561   3.798   5.773
 6952SOL     OW21754   0.208   3.820   6.588
 6952SOL    HW121755   0.185   3.840   6.683
 6952SOL    HW221756   0.180   3.726   6.566
 6953SOL     OW21757   5.684   2.568   4.955
 6953SOL    HW121758   5.673   2.496   5.023
 6953SOL    HW221759   5.596   2.585   4.910
 6954SOL     OW21760   0.124   4.713   1.710
 6954SOL    HW121761   0.207   4.765   1.728
 6954SOL    HW221762   0.125   4.679   1.616
 6955SOL     OW21763   0.111   0.809   3.940
 6955SOL    HW121764   0.186   0.813   4.006
 6955SOL    HW221765   0.123   0.881   3.871
 6956SOL     OW21766   3.334   3.776   1.517
 6956SOL    HW121767   3.283   3.723   1.585
 6956SOL    HW221768   3.432   3.756   1.526
 6957SOL     OW21769   1.649   4.520   0.825
 6957SOL    HW121770   1.723   4.519   0.758
 6957SOL    HW221771   1.573   4.575   0.790
 6958SOL     OW21772   1.823   3.205   5.815
 6958SOL    HW121773   1.810   3.243   5.724
 6958SOL    HW221774   1.737   3.209   5.866
 6959SOL     OW21775   4.127   0.813   5.123
 6959SOL    HW121776   4.060   0.822   5.197
 6959SOL    HW221777   4.167   0.902   5.103
 6960SOL     OW21778   1.304   5.768   6.535
 6960SOL    HW121779   1.208   5.753   6.560
 6960SOL    HW221780   1.323   5.725   6.447
 6961SOL     OW21781   5.965   0.938   3.680
 6961SOL    HW121782   5.897   0.865   3.674
 6961SOL    HW221783   6.057   0.900   3.671
 6962SOL     OW21784   3.262   3.751   0.931
 6962SOL    HW121785   3.296   3.680   0.869
 6962SOL    HW221786   3.338   3.789   0.984
 6963SOL     OW21787   5.984   5.971   1.802
 6963SOL    HW121788   6.083   5.986   1.806
 6963SOL    HW221789   5.954   5.925   1.885
 6964SOL     OW21790   3.698   5.302   5.596
 6964SOL    HW121791   3.752   5.218   5.589
 6964SOL    HW221792   3.741   5.374   5.541
 6965SOL     OW21793   5.876   1.176   6.095
 6965SOL    HW121794   5.851   1.097   6.038
 6965SOL    HW221795   5.975   1.179   6.105
 6966SOL     OW21796   4.648   1.791   3.973
 6966SOL    HW121797   4.642   1.853   4.051
 6966SOL    HW221798   4.558   1.750   3.956
 6967SOL     OW21799   2.892   2.666   6.349
 6967SOL    HW121800   2.960   2.616   6.403
 6967SOL    HW221801   2.875   2.755   6.391
 6968SOL     OW21802   4.101   0.523   3.530
 6968SOL    HW121803   4.138   0.593   3.469
 6968SOL    HW221804   4.134   0.539   3.623
 6969SOL     OW21805   3.575   3.248   1.205
 6969SOL    HW121806   3.506   3.250   1.277
 6969SOL    HW221807   3.606   3.154   1.191
 6970SOL     OW21808   5.014   4.457   0.522
 6970SOL    HW121809   4.917   4.482   0.523
 6970SOL    HW221810   5.048   4.455   0.428
 6971SOL     OW21811   5.959   1.656   2.174
 6971SOL    HW121812   5.992   1.562   2.180
 6971SOL    HW221813   6.001   1.701   2.095
 6972SOL     OW21814   5.245   5.730   4.648
 6972SOL    HW121815   5.263   5.823   4.681
 6972SOL    HW221816   5.155   5.700   4.680
 6973SOL     OW21817   1.288   4.102   3.402
 6973SOL    HW121818   1.354   4.117   3.476
 6973SOL    HW221819   1.205   4.154   3.420
 6974SOL     OW21820   3.382   4.090   5.089
 6974SOL    HW121821   3.382   4.114   4.992
 6974SOL    HW221822   3.428   4.162   5.142
 6975SOL     OW21823   1.932   6.408   6.201
 6975SOL    HW121824   1.892   6.500   6.192
 6975SOL    HW221825   2.019   6.415   6.250
 6976SOL     OW21826   1.351   6.100   1.118
 6976SOL    HW121827   1.301   6.042   1.054
 6976SOL    HW221828   1.289   6.165   1.161
 6977SOL     OW21829   5.470   2.797   1.327
 6977SOL    HW121830   5.414   2.861   1.273
 6977SOL    HW221831   5.499   2.721   1.268
 6978SOL     OW21832   4.534   2.470   3.498
 6978SOL    HW121833   4.437   2.452   3.518
 6978SOL    HW221834   4.575   2.389   3.456
 6979SOL     OW21835   0.124   3.653   4.529
 6979SOL    HW121836   0.204   3.593   4.537
 6979SOL    HW221837   0.107   3.699   4.616
 6980SOL     OW21838   5.010   1.965   5.106
 6980SOL    HW121839   4.956   1.912   5.172
 6980SOL    HW221840   5.095   1.917   5.088
 6981SOL     OW21841   3.613   3.650   5.944
 6981SOL    HW121842   3.529   3.690   5.907
 6981SOL    HW221843   3.678   3.635   5.869
 6982SOL     OW21844   0.582   0.159   4.684
 6982SOL    HW121845   0.631   0.139   4.599
 6982SOL    HW221846   0.519   0.236   4.669
 6983SOL     OW21847   6.199   0.876   2.947
 6983SOL    HW121848   6.174   0.873   2.851
 6983SOL    HW221849   6.296   0.897   2.956
 6984SOL     OW21850   1.712   1.212   6.236
 6984SOL    HW121851   1.797   1.188   6.188
 6984SOL    HW221852   1.669   1.291   6.190
 6985SOL     OW21853   5.090   6.768   3.860
 6985SOL    HW121854   5.037   6.711   3.922
 6985SOL    HW221855   5.068   6.864   3.875
 6986SOL     OW21856   1.970   6.133   5.112
 6986SOL    HW121857   2.037   6.204   5.092
 6986SOL    HW221858   1.929   6.150   5.202
 6987SOL     OW21859   6.814   3.364   6.245
 6987SOL    HW121860   6.725   3.374   6.289
 6987SOL    HW221861   6.801   3.352   6.146
 6988SOL     OW21862   5.475   1.612   6.549
 6988SOL    HW121863   5.433   1.578   6.633
 6988SOL    HW221864   5.440   1.704   6.530
 6989SOL     OW21865   1.981   3.487   4.661
 6989SOL    HW121866   2.013   3.543   4.738
 6989SOL    HW221867   1.946   3.547   4.589
 6990SOL     OW21868   4.230   3.475   1.796
 6990SOL    HW121869   4.221   3.574   1.801
 6990SOL    HW221870   4.280   3.450   1.713
 6991SOL     OW21871   4.338   4.526   5.469
 6991SOL    HW121872   4.346   4.431   5.500
 6991SOL    HW221873   4.306   4.584   5.543
 6992SOL     OW21874   6.639   6.710   4.812
 6992SOL    HW121875   6.699   6.785   4.841
 6992SOL    HW221876   6.545   6.744   4.802
 6993SOL     OW21877   0.663   0.007   3.364
 6993SOL    HW121878   0.760   7.009   3.380
 6993SOL    HW221879   0.638   0.091   3.413
 6994SOL     OW21880   1.822   2.263   0.456
 6994SOL    HW121881   1.767   2.180   0.460
 6994SOL    HW221882   1.799   2.314   0.374
 6995SOL     OW21883   1.307   5.158   3.968
 6995SOL    HW121884   1.235   5.115   3.915
 6995SOL    HW221885   1.391   5.161   3.915
 6996SOL     OW21886   1.723   6.810   5.294
 6996SOL    HW121887   1.741   6.894   5.345
 6996SOL    HW221888   1.624   6.801   5.280
 6997SOL     OW21889   4.314   5.103   4.300
 6997SOL    HW121890   4.312   5.155   4.215
 6997SOL    HW221891   4.264   5.152   4.371
 6998SOL     OW21892   2.693   2.075   2.238
 6998SOL    HW121893   2.752   2.048   2.162
 6998SOL    HW221894   2.701   2.174   2.252
 6999SOL     OW21895   5.161   2.121   6.586
 6999SOL    HW121896   5.221   2.090   6.513
 6999SOL    HW221897   5.087   2.055   6.599
 7000SOL     OW21898   7.021   0.026   1.573
 7000SOL    HW121899   0.081   0.026   1.514
 7000SOL    HW221900   0.004   6.971   1.636
 7001SOL     OW21901   2.681   1.855   6.782
 7001SOL    HW121902   2.727   1.826   6.698
 7001SOL    HW221903   2.595   1.899   6.760
 7002SOL     OW21904   2.718   5.074   1.884
 7002SOL    HW121905   2.806   5.120   1.889
 7002SOL    HW221906   2.731   4.979   1.855
 7003SOL     OW21907   1.594   6.329   5.782
 7003SOL    HW121908   1.647   6.351   5.700
 7003SOL    HW221909   1.625   6.386   5.858
 7004SOL     OW21910   2.039   3.880   6.296
 7004SOL    HW121911   1.939   3.875   6.304
 7004SOL    HW221912   2.080   3.870   6.387
 7005SOL     OW21913   6.186   0.483   6.032
 7005SOL    HW121914   6.275   0.467   5.990
 7005SOL    HW221915   6.156   0.576   6.014
 7006SOL     OW21916   5.173   5.576   4.038
 7006SOL    HW121917   5.270   5.562   4.058
 7006SOL    HW221918   5.164   5.625   3.951
 7007SOL     OW21919   5.466   5.055   1.647
 7007SOL    HW121920   5.497   5.139   1.601
 7007SOL    HW221921   5.509   5.049   1.737
 7008SOL     OW21922   0.723   6.364   4.427
 7008SOL    HW121923   0.641   6.398   4.472
 7008SOL    HW221924   0.707   6.357   4.329
 7009SOL     OW21925   6.984   4.471   1.557
 7009SOL    HW121926   6.960   4.383   1.598
 7009SOL    HW221927   6.924   4.542   1.592
 7010SOL     OW21928   5.210   4.307   6.036
 7010SOL    HW121929   5.221   4.388   6.094
 7010SOL    HW221930   5.143   4.327   5.965
 7011SOL     OW21931   1.222   7.014   5.732
 7011SOL    HW121932   1.185   0.033   5.816
 7011SOL    HW221933   1.282   0.058   5.687
 7012SOL     OW21934   0.503   0.632   1.493
 7012SOL    HW121935   0.422   0.647   1.437
 7012SOL    HW221936   0.489   0.671   1.584
 7013SOL     OW21937   6.080   2.223   1.366
 7013SOL    HW121938   6.021   2.259   1.438
 7013SOL    HW221939   6.115   2.298   1.310
 7014SOL     OW21940   2.584   5.124   0.819
 7014SOL    HW121941   2.485   5.133   0.808
 7014SOL    HW221942   2.628   5.211   0.800
 7015SOL     OW21943   5.046   2.567   2.282
 7015SOL    HW121944   5.011   2.617   2.361
 7015SOL    HW221945   4.995   2.593   2.200
 7016SOL     OW21946   4.886   4.711   0.423
 7016SOL    HW121947   4.790   4.724   0.447
 7016SOL    HW221948   4.893   4.654   0.342
 7017SOL     OW21949   5.432   2.329   5.137
 7017SOL    HW121950   5.404   2.279   5.219
 7017SOL    HW221951   5.360   2.325   5.068
 7018SOL     OW21952   0.388   3.792   2.712
 7018SOL    HW121953   0.339   3.879   2.721
 7018SOL    HW221954   0.347   3.724   2.773
 7019SOL     OW21955   6.830   6.387   2.549
 7019SOL    HW121956   6.823   6.288   2.561
 7019SOL    HW221957   6.901   6.407   2.481
 7020SOL     OW21958   6.916   5.583   6.799
 7020SOL    HW121959   6.987   5.549   6.861
 7020SOL    HW221960   6.934   5.679   6.777
 7021SOL     OW21961   2.965   6.554   5.405
 7021SOL    HW121962   3.019   6.509   5.476
 7021SOL    HW221963   2.917   6.632   5.444
 7022SOL     OW21964   3.814   5.082   5.833
 7022SOL    HW121965   3.857   4.995   5.808
 7022SOL    HW221966   3.883   5.143   5.871
 7023SOL     OW21967   4.244   5.610   2.167
 7023SOL    HW121968   4.158   5.562   2.151
 7023SOL    HW221969   4.317   5.544   2.187
 7024SOL     OW21970   6.001   6.873   2.163
 7024SOL    HW121971   6.006   6.973   2.165
 7024SOL    HW221972   6.060   6.838   2.090
 7025SOL     OW21973   2.823   0.441   1.292
 7025SOL    HW121974   2.762   0.383   1.347
 7025SOL    HW221975   2.793   0.439   1.197
 7026SOL     OW21976   4.856   2.578   0.649
 7026SOL    HW121977   4.791   2.553   0.577
 7026SOL    HW221978   4.926   2.507   0.657
 7027SOL     OW21979   6.041   5.906   4.854
 7027SOL    HW121980   6.059   5.939   4.947
 7027SOL    HW221981   6.024   5.808   4.856
 7028SOL     OW21982   3.372   0.901   4.471
 7028SOL    HW121983   3.410   0.811   4.449
 7028SOL    HW221984   3.279   0.908   4.435
 7029SOL     OW21985   3.810   0.325   3.997
 7029SOL    HW121986   3.722   0.282   4.016
 7029SOL    HW221987   3.802   0.424   4.008
 7030SOL     OW21988   1.424   3.774   3.990
 7030SOL    HW121989   1.344   3.735   4.036
 7030SOL    HW221990   1.400   3.864   3.953
 7031SOL     OW21991   1.598   0.825   4.259
 7031SOL    HW121992   1.642   0.736   4.252
 7031SOL    HW221993   1.655   0.894   4.216
 7032SOL     OW21994   5.959   2.484   3.522
 7032SOL    HW121995   5.930   2.513   3.431
 7032SOL    HW221996   5.986   2.388   3.519
 7033SOL     OW21997   0.075   1.070   4.783
 7033SOL    HW121998   7.012   1.029   4.750
 7033SOL    HW221999   0.122   1.006   4.844
 7034SOL     OW22000   0.435   5.135   3.792
 7034SOL    HW122001   0.475   5.144   3.701
 7034SOL    HW222002   0.336   5.145   3.786
 7035SOL     OW22003   0.094   4.857   1.218
 7035SOL    HW122004   0.023   4.919   1.251
 7035SOL    HW222005   0.074   4.829   1.124
 7036SOL     OW22006   6.608   5.542   0.599
 7036SOL    HW122007   6.590   5.527   0.501
 7036SOL    HW222008   6.524   5.525   0.650
 7037SOL     OW22009   1.026   0.237   6.462
 7037SOL    HW122010   0.997   0.333   6.469
 7037SOL    HW222011   0.966   0.180   6.518
 7038SOL     OW22012   2.190   3.009   4.452
 7038SOL    HW122013   2.192   3.092   4.397
 7038SOL    HW222014   2.283   2.982   4.476
 7039SOL     OW22015   3.858   1.824   0.200
 7039SOL    HW122016   3.945   1.783   0.228
 7039SOL    HW222017   3.788   1.752   0.194
 7040SOL     OW22018   6.290   2.421   6.491
 7040SOL    HW122019   6.199   2.439   6.453
 7040SOL    HW222020   6.308   2.323   6.493
 7041SOL     OW22021   1.958   1.565   3.431
 7041SOL    HW122022   1.915   1.610   3.353
 7041SOL    HW222023   1.962   1.629   3.508
 7042SOL     OW22024   2.108   1.102   6.746
 7042SOL    HW122025   2.173   1.026   6.752
 7042SOL    HW222026   2.045   1.086   6.670
 7043SOL     OW22027   1.791   2.772   1.378
 7043SOL    HW122028   1.796   2.861   1.332
 7043SOL    HW222029   1.882   2.742   1.405
 7044SOL     OW22030   7.005   5.832   0.765
 7044SOL    HW122031   0.006   5.899   0.695
 7044SOL    HW222032   6.914   5.851   0.803
 7045SOL     OW22033   0.491   4.930   0.421
 7045SOL    HW122034   0.460   4.954   0.329
 7045SOL    HW222035   0.415   4.895   0.475
 7046SOL     OW22036   2.875   2.245   3.811
 7046SOL    HW122037   2.824   2.160   3.825
 7046SOL    HW222038   2.896   2.286   3.900
 7047SOL     OW22039   1.320   6.906   3.286
 7047SOL    HW122040   1.382   6.913   3.208
 7047SOL    HW222041   1.325   6.813   3.324
 7048SOL     OW22042   0.135   5.619   0.083
 7048SOL    HW122043   0.161   5.660   0.171
 7048SOL    HW222044   0.036   5.616   0.076
 7049SOL     OW22045   2.508   1.023   6.823
 7049SOL    HW122046   2.460   0.950   6.872
 7049SOL    HW222047   2.598   0.991   6.795
 7050SOL     OW22048   4.372   3.420   5.496
 7050SOL    HW122049   4.367   3.520   5.497
 7050SOL    HW222050   4.461   3.391   5.532
 7051SOL     OW22051   6.071   6.228   2.761
 7051SOL    HW122052   6.048   6.265   2.851
 7051SOL    HW222053   6.032   6.286   2.690
 7052SOL     OW22054   6.178   0.310   5.147
 7052SOL    HW122055   6.157   0.244   5.219
 7052SOL    HW222056   6.236   0.383   5.184
 7053SOL     OW22057   6.221   3.349   6.291
 7053SOL    HW122058   6.157   3.387   6.357
 7053SOL    HW222059   6.177   3.274   6.241
 7054SOL     OW22060   6.268   2.161   2.904
 7054SOL    HW122061   6.272   2.104   2.986
 7054SOL    HW222062   6.186   2.219   2.907
 7055SOL     OW22063   4.410   1.696   3.594
 7055SOL    HW122064   4.502   1.690   3.556
 7055SOL    HW222065   4.343   1.688   3.521
 7056SOL     OW22066   4.652   5.772   4.395
 7056SOL    HW122067   4.581   5.717   4.439
 7056SOL    HW222068   4.619   5.803   4.306
 7057SOL     OW22069   5.718   6.160   3.207
 7057SOL    HW122070   5.717   6.069   3.248
 7057SOL    HW222071   5.675   6.156   3.117
 7058SOL     OW22072   7.017   3.944   4.705
 7058SOL    HW122073   0.055   3.904   4.774
 7058SOL    HW222074   0.049   4.002   4.644
 7059SOL     OW22075   1.869   0.776   2.248
 7059SOL    HW122076   1.789   0.717   2.242
 7059SOL    HW222077   1.850   0.852   2.311
 7060SOL     OW22078   3.902   6.870   0.977
 7060SOL    HW122079   3.969   6.803   0.943
 7060SOL    HW222080   3.900   6.867   1.077
 7061SOL     OW22081   0.829   1.064   2.907
 7061SOL    HW122082   0.735   1.057   2.941
 7061SOL    HW222083   0.889   1.008   2.964
 7062SOL     OW22084   6.886   1.502   6.068
 7062SOL    HW122085   6.897   1.430   6.000
 7062SOL    HW222086   6.856   1.462   6.155
 7063SOL     OW22087   1.820   6.394   1.655
 7063SOL    HW122088   1.886   6.436   1.592
 7063SOL    HW222089   1.862   6.314   1.698
 7064SOL     OW22090   3.473   2.667   0.558
 7064SOL    HW122091   3.479   2.726   0.639
 7064SOL    HW222092   3.384   2.680   0.514
 7065SOL     OW22093   3.317   3.326   2.477
 7065SOL    HW122094   3.395   3.368   2.521
 7065SOL    HW222095   3.301   3.369   2.388
 7066SOL     OW22096   2.559   4.801   1.627
 7066SOL    HW122097   2.611   4.790   1.712
 7066SOL    HW222098   2.582   4.889   1.585
 7067SOL     OW22099   0.779   4.062   4.823
 7067SOL    HW122100   0.833   4.035   4.903
 7067SOL    HW222101   0.743   3.981   4.778
 7068SOL     OW22102   0.843   0.884   2.715
 7068SOL    HW122103   0.878   0.961   2.767
 7068SOL    HW222104   0.915   0.815   2.705
 7069SOL     OW22105   1.466   4.373   5.544
 7069SOL    HW122106   1.453   4.366   5.445
 7069SOL    HW222107   1.563   4.386   5.563
 7070SOL     OW22108   5.926   5.398   3.020
 7070SOL    HW122109   5.835   5.440   3.014
 7070SOL    HW222110   5.995   5.462   2.986
 7071SOL     OW22111   1.663   6.337   5.400
 7071SOL    HW122112   1.641   6.395   5.321
 7071SOL    HW222113   1.579   6.318   5.451
 7072SOL     OW22114   0.082   0.344   6.486
 7072SOL    HW122115   0.001   0.339   6.545
 7072SOL    HW222116   0.132   0.428   6.506
 7073SOL     OW22117   1.790   2.458   6.928
 7073SOL    HW122118   1.805   2.552   6.896
 7073SOL    HW222119   1.707   2.455   6.984
 7074SOL     OW22120   3.623   1.599   6.770
 7074SOL    HW122121   3.555   1.599   6.696
 7074SOL    HW222122   3.705   1.648   6.741
 7075SOL     OW22123   1.044   6.258   3.350
 7075SOL    HW122124   1.090   6.174   3.381
 7075SOL    HW222125   1.113   6.327   3.331
 7076SOL     OW22126   3.478   1.358   6.306
 7076SOL    HW122127   3.554   1.323   6.251
 7076SOL    HW222128   3.514   1.422   6.375
 7077SOL     OW22129   1.211   5.587   6.266
 7077SOL    HW122130   1.136   5.573   6.331
 7077SOL    HW222131   1.200   5.524   6.189
 7078SOL     OW22132   0.726   0.471   1.509
 7078SOL    HW122133   0.650   0.534   1.494
 7078SOL    HW222134   0.722   0.435   1.602
 7079SOL     OW22135   5.216   6.765   4.471
 7079SOL    HW122136   5.136   6.824   4.484
 7079SOL    HW222137   5.298   6.813   4.501
 7080SOL     OW22138   5.656   0.972   3.866
 7080SOL    HW122139   5.622   1.052   3.817
 7080SOL    HW222140   5.630   0.889   3.816
 7081SOL     OW22141   4.590   1.069   4.579
 7081SOL    HW122142   4.542   1.151   4.609
 7081SOL    HW222143   4.523   0.997   4.559
 7082SOL     OW22144   6.052   1.215   0.586
 7082SOL    HW122145   5.971   1.257   0.627
 7082SOL    HW222146   6.024   1.146   0.520
 7083SOL     OW22147   4.001   0.469   5.218
 7083SOL    HW122148   3.948   0.386   5.201
 7083SOL    HW222149   4.048   0.496   5.133
 7084SOL     OW22150   5.884   5.669   0.235
 7084SOL    HW122151   5.817   5.668   0.161
 7084SOL    HW222152   5.963   5.723   0.207
 7085SOL     OW22153   4.905   1.686   1.356
 7085SOL    HW122154   4.997   1.725   1.356
 7085SOL    HW222155   4.843   1.745   1.408
 7086SOL     OW22156   1.163   0.937   5.964
 7086SOL    HW122157   1.121   0.866   6.021
 7086SOL    HW222158   1.256   0.954   5.996
 7087SOL     OW22159   2.335   2.481   4.690
 7087SOL    HW122160   2.390   2.494   4.774
 7087SOL    HW222161   2.271   2.557   4.681
 7088SOL     OW22162   0.245   1.856   4.528
 7088SOL    HW122163   0.244   1.813   4.438
 7088SOL    HW222164   0.280   1.950   4.519
 7089SOL     OW22165   2.989   1.932   1.759
 7089SOL    HW122166   3.045   2.010   1.787
 7089SOL    HW222167   3.041   1.876   1.694
 7090SOL     OW22168   3.156   1.027   5.106
 7090SOL    HW122169   3.224   1.053   5.174
 7090SOL    HW222170   3.182   1.065   5.017
 7091SOL     OW22171   6.433   5.689   0.041
 7091SOL    HW122172   6.493   5.616   0.007
 7091SOL    HW222173   6.429   5.763   6.996
 7092SOL     OW22174   3.615   2.184   0.450
 7092SOL    HW122175   3.604   2.283   0.444
 7092SOL    HW222176   3.661   2.151   0.367
 7093SOL     OW22177   4.107   3.093   6.300
 7093SOL    HW122178   4.023   3.087   6.353
 7093SOL    HW222179   4.185   3.068   6.358
 7094SOL     OW22180   6.282   0.876   6.329
 7094SOL    HW122181   6.262   0.957   6.384
 7094SOL    HW222182   6.371   0.839   6.357
 7095SOL     OW22183   1.182   4.371   1.195
 7095SOL    HW122184   1.256   4.357   1.129
 7095SOL    HW222185   1.103   4.317   1.168
 7096SOL     OW22186   3.906   6.852   3.260
 7096SOL    HW122187   3.917   6.945   3.225
 7096SOL    HW222188   3.811   6.839   3.289
 7097SOL     OW22189   1.496   1.545   1.499
 7097SOL    HW122190   1.568   1.612   1.480
 7097SOL    HW222191   1.406   1.589   1.486
 7098SOL     OW22192   1.464   0.390   6.434
 7098SOL    HW122193   1.523   0.344   6.367
 7098SOL    HW222194   1.407   0.322   6.481
 7099SOL     OW22195   6.906   1.379   5.234
 7099SOL    HW122196   6.882   1.304   5.296
 7099SOL    HW222197   6.982   1.431   5.272
 7100SOL     OW22198   5.578   1.767   1.071
 7100SOL    HW122199   5.582   1.675   1.109
 7100SOL    HW222200   5.658   1.819   1.099
 7101SOL     OW22201   1.458   0.685   4.982
 7101SOL    HW122202   1.428   0.690   5.077
 7101SOL    HW222203   1.513   0.602   4.969
 7102SOL     OW22204   4.361   2.678   0.905
 7102SOL    HW122205   4.273   2.637   0.928
 7102SOL    HW222206   4.425   2.665   0.981
 7103SOL     OW22207   2.246   6.833   6.129
 7103SOL    HW122208   2.182   6.873   6.196
 7103SOL    HW222209   2.313   6.902   6.101
 7104SOL     OW22210   0.420   3.398   1.348
 7104SOL    HW122211   0.487   3.408   1.421
 7104SOL    HW222212   0.333   3.368   1.387
 7105SOL     OW22213   2.030   2.682   5.133
 7105SOL    HW122214   1.934   2.703   5.148
 7105SOL    HW222215   2.078   2.764   5.102
 7106SOL     OW22216   3.106   3.038   5.134
 7106SOL    HW122217   3.051   3.086   5.065
 7106SOL    HW222218   3.047   3.009   5.209
 7107SOL     OW22219   1.733   1.445   6.901
 7107SOL    HW122220   1.646   1.484   6.870
 7107SOL    HW222221   1.716   1.356   6.944
 7108SOL     OW22222   4.852   6.665   2.048
 7108SOL    HW122223   4.841   6.570   2.077
 7108SOL    HW222224   4.771   6.694   1.996
 7109SOL     OW22225   4.464   5.995   6.705
 7109SOL    HW122226   4.486   5.909   6.658
 7109SOL    HW222227   4.386   6.039   6.660
 7110SOL     OW22228   3.557   4.897   4.259
 7110SOL    HW122229   3.626   4.897   4.331
 7110SOL    HW222230   3.466   4.902   4.300
 7111SOL     OW22231   1.279   2.732   3.561
 7111SOL    HW122232   1.326   2.713   3.475
 7111SOL    HW222233   1.282   2.830   3.580
 7112SOL     OW22234   1.519   6.186   3.211
 7112SOL    HW122235   1.503   6.274   3.166
 7112SOL    HW222236   1.512   6.113   3.143
 7113SOL     OW22237   3.719   4.056   5.854
 7113SOL    HW122238   3.660   3.986   5.893
 7113SOL    HW222239   3.663   4.131   5.819
 7114SOL     OW22240   3.678   6.316   1.243
 7114SOL    HW122241   3.751   6.249   1.231
 7114SOL    HW222242   3.632   6.333   1.156
 7115SOL     OW22243   4.072   2.611   1.385
 7115SOL    HW122244   4.154   2.667   1.374
 7115SOL    HW222245   3.991   2.670   1.379
 7116SOL     OW22246   6.219   4.182   3.596
 7116SOL    HW122247   6.197   4.277   3.572
 7116SOL    HW222248   6.302   4.181   3.652
 7117SOL     OW22249   5.367   6.881   2.638
 7117SOL    HW122250   5.268   6.883   2.649
 7117SOL    HW222251   5.394   6.947   2.567
 7118SOL     OW22252   6.762   3.341   3.874
 7118SOL    HW122253   6.815   3.287   3.810
 7118SOL    HW222254   6.708   3.409   3.824
 7119SOL     OW22255   0.569   2.077   2.289
 7119SOL    HW122256   0.547   2.169   2.324
 7119SOL    HW222257   0.509   2.057   2.211
 7120SOL     OW22258   4.753   6.145   4.036
 7120SOL    HW122259   4.784   6.102   4.121
 7120SOL    HW222260   4.701   6.228   4.057
 7121SOL     OW22261   1.910   6.468   1.235
 7121SOL    HW122262   1.827   6.523   1.230
 7121SOL    HW222263   1.983   6.512   1.184
 7122SOL     OW22264   0.001   6.050   0.509
 7122SOL    HW122265   6.973   6.044   0.422
 7122SOL    HW222266   0.099   6.035   0.492
 7123SOL     OW22267   3.155   4.948   0.886
 7123SOL    HW122268   3.183   4.970   0.793
 7123SOL    HW222269   3.185   5.020   0.948
 7124SOL     OW22270   0.239   5.852   6.550
 7124SOL    HW122271   0.188   5.918   6.604
 7124SOL    HW222272   0.244   5.882   6.455
 7125SOL     OW22273   1.228   5.758   3.381
 7125SOL    HW122274   1.256   5.853   3.370
 7125SOL    HW222275   1.214   5.738   3.479
 7126SOL     OW22276   1.554   3.855   1.190
 7126SOL    HW122277   1.587   3.761   1.182
 7126SOL    HW222278   1.612   3.916   1.135
 7127SOL     OW22279   2.113   0.493   5.107
 7127SOL    HW122280   2.098   0.394   5.097
 7127SOL    HW222281   2.026   0.541   5.100
 7128SOL     OW22282   3.568   3.201   2.842
 7128SOL    HW122283   3.481   3.239   2.874
 7128SOL    HW222284   3.551   3.135   2.769
 7129SOL     OW22285   3.356   2.041   0.803
 7129SOL    HW122286   3.431   2.078   0.749
 7129SOL    HW222287   3.380   2.042   0.900
 7130SOL     OW22288   1.941   0.484   2.941
 7130SOL    HW122289   1.845   0.477   2.916
 7130SOL    HW222290   1.965   0.408   3.002
 7131SOL     OW22291   2.504   1.128   3.369
 7131SOL    HW122292   2.446   1.084   3.300
 7131SOL    HW222293   2.561   1.059   3.414
 7132SOL     OW22294   3.054   3.213   2.541
 7132SOL    HW122295   2.992   3.250   2.472
 7132SOL    HW222296   3.148   3.223   2.509
 7133SOL     OW22297   6.526   3.995   1.379
 7133SOL    HW122298   6.569   4.037   1.459
 7133SOL    HW222299   6.427   3.991   1.392
 7134SOL     OW22300   4.427   4.529   2.368
 7134SOL    HW122301   4.503   4.467   2.347
 7134SOL    HW222302   4.371   4.542   2.286
 7135SOL     OW22303   0.331   1.582   5.606
 7135SOL    HW122304   0.379   1.506   5.562
 7135SOL    HW222305   0.266   1.546   5.673
 7136SOL     OW22306   1.587   2.036   6.707
 7136SOL    HW122307   1.507   2.017   6.650
 7136SOL    HW222308   1.562   2.027   6.804
 7137SOL     OW22309   5.395   1.910   4.804
 7137SOL    HW122310   5.426   1.817   4.784
 7137SOL    HW222311   5.469   1.975   4.786
 7138SOL     OW22312   2.051   1.866   6.817
 7138SOL    HW122313   2.070   1.963   6.798
 7138SOL    HW222314   2.076   1.812   6.736
 7139SOL     OW22315   2.221   1.865   0.515
 7139SOL    HW122316   2.229   1.766   0.503
 7139SOL    HW222317   2.271   1.912   0.442
 7140SOL     OW22318   6.618   4.645   4.356
 7140SOL    HW122319   6.628   4.558   4.306
 7140SOL    HW222320   6.572   4.627   4.443
 7141SOL     OW22321   0.625   0.214   2.362
 7141SOL    HW122322   0.666   0.127   2.332
 7141SOL    HW222323   0.693   0.287   2.356
 7142SOL     OW22324   3.801   6.390   3.967
 7142SOL    HW122325   3.749   6.323   3.915
 7142SOL    HW222326   3.784   6.482   3.931
 7143SOL     OW22327   1.558   2.635   3.695
 7143SOL    HW122328   1.580   2.674   3.605
 7143SOL    HW222329   1.541   2.537   3.685
 7144SOL     OW22330   1.569   3.553   3.888
 7144SOL    HW122331   1.522   3.621   3.943
 7144SOL    HW222332   1.666   3.551   3.913
 7145SOL     OW22333   3.655   5.425   6.910
 7145SOL    HW122334   3.656   5.517   6.871
 7145SOL    HW222335   3.737   5.411   6.964
 7146SOL     OW22336   3.372   5.040   1.676
 7146SOL    HW122337   3.370   5.080   1.585
 7146SOL    HW222338   3.285   5.058   1.722
 7147SOL     OW22339   0.720   1.177   3.727
 7147SOL    HW122340   0.703   1.275   3.717
 7147SOL    HW222341   0.811   1.155   3.693
 7148SOL     OW22342   6.511   1.877   0.339
 7148SOL    HW122343   6.585   1.811   0.352
 7148SOL    HW222344   6.501   1.897   0.241
 7149SOL     OW22345   0.854   0.689   4.939
 7149SOL    HW122346   0.873   0.706   4.842
 7149SOL    HW222347   0.868   0.774   4.990
 7150SOL     OW22348   5.707   2.900   5.656
 7150SOL    HW122349   5.706   2.903   5.756
 7150SOL    HW222350   5.798   2.926   5.623
 7151SOL     OW22351   1.399   0.256   0.076
 7151SOL    HW122352   1.330   0.213   0.017
 7151SOL    HW222353   1.357   0.282   0.163
 7152SOL     OW22354   1.277   2.263   5.089
 7152SOL    HW122355   1.237   2.251   5.180
 7152SOL    HW222356   1.248   2.351   5.051
 7153SOL     OW22357   4.433   2.018   3.030
 7153SOL    HW122358   4.499   1.992   2.959
 7153SOL    HW222359   4.383   2.100   3.002
 7154SOL     OW22360   3.417   6.828   4.698
 7154SOL    HW122361   3.335   6.772   4.680
 7154SOL    HW222362   3.393   6.924   4.690
 7155SOL     OW22363   2.548   1.339   4.101
 7155SOL    HW122364   2.511   1.382   4.018
 7155SOL    HW222365   2.573   1.244   4.081
 7156SOL     OW22366   2.339   5.631   5.215
 7156SOL    HW122367   2.409   5.560   5.214
 7156SOL    HW222368   2.250   5.591   5.235
 7157SOL     OW22369   5.197   4.675   0.396
 7157SOL    HW122370   5.230   4.768   0.409
 7157SOL    HW222371   5.098   4.673   0.406
 7158SOL     OW22372   3.806   0.454   3.490
 7158SOL    HW122373   3.878   0.496   3.545
 7158SOL    HW222374   3.810   0.489   3.397
 7159SOL     OW22375   1.583   6.359   0.167
 7159SOL    HW122376   1.651   6.430   0.152
 7159SOL    HW222377   1.532   6.342   0.083
 7160SOL     OW22378   6.693   0.845   2.282
 7160SOL    HW122379   6.725   0.773   2.344
 7160SOL    HW222380   6.646   0.803   2.204
 7161SOL     OW22381   3.062   3.929   4.840
 7161SOL    HW122382   3.014   3.874   4.909
 7161SOL    HW222383   3.142   3.972   4.882
 7162SOL     OW22384   3.465   5.053   4.038
 7162SOL    HW122385   3.437   5.112   4.113
 7162SOL    HW222386   3.524   4.980   4.073
 7163SOL     OW22387   1.146   6.270   3.723
 7163SOL    HW122388   1.201   6.320   3.656
 7163SOL    HW222389   1.057   6.314   3.733
 7164SOL     OW22390   3.751   1.601   4.474
 7164SOL    HW122391   3.783   1.658   4.399
 7164SOL    HW222392   3.811   1.613   4.553
 7165SOL     OW22393   4.224   5.177   2.005
 7165SOL    HW122394   4.152   5.108   1.999
 7165SOL    HW222395   4.204   5.251   1.941
 7166SOL     OW22396   3.366   6.445   2.615
 7166SOL    HW122397   3.393   6.529   2.568
 7166SOL    HW222398   3.286   6.463   2.672
 7167SOL     OW22399   5.712   3.467   0.663
 7167SOL    HW122400   5.672   3.556   0.683
 7167SOL    HW222401   5.697   3.445   0.566
 7168SOL     OW22402   6.828   1.391   4.388
 7168SOL    HW122403   6.924   1.362   4.391
 7168SOL    HW222404   6.822   1.479   4.340
 7169SOL     OW22405   2.693   2.756   6.630
 7169SOL    HW122406   2.784   2.714   6.629
 7169SOL    HW222407   2.677   2.798   6.719
 7170SOL     OW22408   5.016   3.646   4.069
 7170SOL    HW122409   4.962   3.575   4.114
 7170SOL    HW222410   4.957   3.723   4.045
 7171SOL     OW22411   3.965   3.682   5.381
 7171SOL    HW122412   3.980   3.756   5.317
 7171SOL    HW222413   4.031   3.688   5.456
 7172SOL     OW22414   5.884   5.790   1.323
 7172SOL    HW122415   5.931   5.764   1.408
 7172SOL    HW222416   5.796   5.832   1.345
 7173SOL     OW22417   6.975   6.327   4.466
 7173SOL    HW122418   0.006   6.364   4.389
 7173SOL    HW222419   6.897   6.275   4.431
 7174SOL     OW22420   1.239   6.112   6.209
 7174SOL    HW122421   1.192   6.059   6.139
 7174SOL    HW222422   1.334   6.128   6.181
 7175SOL     OW22423   6.366   3.670   5.409
 7175SOL    HW122424   6.411   3.660   5.320
 7175SOL    HW222425   6.301   3.595   5.421
 7176SOL     OW22426   1.094   3.583   0.965
 7176SOL    HW122427   1.010   3.571   0.912
 7176SOL    HW222428   1.169   3.609   0.904
 7177SOL     OW22429   0.792   5.156   1.248
 7177SOL    HW122430   0.775   5.060   1.226
 7177SOL    HW222431   0.868   5.163   1.313
 7178SOL     OW22432   6.297   0.273   6.615
 7178SOL    HW122433   6.347   0.313   6.537
 7178SOL    HW222434   6.279   0.177   6.596
 7179SOL     OW22435   0.622   3.611   5.473
 7179SOL    HW122436   0.703   3.632   5.418
 7179SOL    HW222437   0.540   3.637   5.422
 7180SOL     OW22438   6.813   0.563   2.067
 7180SOL    HW122439   6.909   0.565   2.095
 7180SOL    HW222440   6.792   0.472   2.030
 7181SOL     OW22441   5.477   5.739   2.546
 7181SOL    HW122442   5.492   5.807   2.617
 7181SOL    HW222443   5.458   5.784   2.459
 7182SOL     OW22444   4.225   3.496   6.165
 7182SOL    HW122445   4.255   3.538   6.079
 7182SOL    HW222446   4.190   3.404   6.147
 7183SOL     OW22447   2.343   2.691   2.904
 7183SOL    HW122448   2.372   2.605   2.862
 7183SOL    HW222449   2.393   2.705   2.989
 7184SOL     OW22450   2.084   5.242   3.121
 7184SOL    HW122451   2.015   5.314   3.130
 7184SOL    HW222452   2.107   5.230   3.025
 7185SOL     OW22453   5.332   2.575   6.477
 7185SOL    HW122454   5.235   2.596   6.484
 7185SOL    HW222455   5.347   2.477   6.487
 7186SOL     OW22456   1.048   6.672   4.601
 7186SOL    HW122457   0.991   6.686   4.682
 7186SOL    HW222458   0.989   6.647   4.524
 7187SOL     OW22459   1.851   5.360   1.465
 7187SOL    HW122460   1.897   5.272   1.469
 7187SOL    HW222461   1.841   5.397   1.557
 7188SOL     OW22462   5.016   0.660   1.632
 7188SOL    HW122463   5.020   0.604   1.716
 7188SOL    HW222464   4.921   0.670   1.603
 7189SOL     OW22465   5.733   0.694   5.986
 7189SOL    HW122466   5.647   0.731   5.952
 7189SOL    HW222467   5.751   0.606   5.941
 7190SOL     OW22468   4.969   5.144   2.405
 7190SOL    HW122469   5.059   5.171   2.371
 7190SOL    HW222470   4.904   5.218   2.389
 7191SOL     OW22471   0.402   3.139   1.229
 7191SOL    HW122472   0.493   3.148   1.190
 7191SOL    HW222473   0.369   3.229   1.259
 7192SOL     OW22474   2.989   4.220   5.818
 7192SOL    HW122475   3.055   4.271   5.763
 7192SOL    HW222476   2.996   4.246   5.914
 7193SOL     OW22477   5.830   2.062   4.900
 7193SOL    HW122478   5.907   2.001   4.882
 7193SOL    HW222479   5.861   2.157   4.892
 7194SOL     OW22480   3.135   0.790   2.251
 7194SOL    HW122481   3.108   0.783   2.347
 7194SOL    HW222482   3.184   0.876   2.237
 7195SOL     OW22483   0.587   0.081   3.032
 7195SOL    HW122484   0.631   7.014   3.022
 7195SOL    HW222485   0.497   0.070   3.074
 7196SOL     OW22486   3.624   4.021   1.718
 7196SOL    HW122487   3.643   4.050   1.812
 7196SOL    HW222488   3.630   4.100   1.657
 7197SOL     OW22489   2.011   0.885   4.233
 7197SOL    HW122490   2.076   0.959   4.249
 7197SOL    HW222491   1.919   0.924   4.228
 7198SOL     OW22492   0.113   0.179   5.805
 7198SOL    HW122493   0.189   0.224   5.851
 7198SOL    HW222494   0.148   0.106   5.747
 7199SOL     OW22495   6.211   5.595   2.154
 7199SOL    HW122496   6.250   5.537   2.082
 7199SOL    HW222497   6.197   5.687   2.118
 7200SOL     OW22498   1.172   2.329   2.390
 7200SOL    HW122499   1.241   2.282   2.445
 7200SOL    HW222500   1.215   2.362   2.306
 7201SOL     OW22501   1.693   4.284   3.732
 7201SOL    HW122502   1.635   4.318   3.806
 7201SOL    HW222503   1.780   4.252   3.771
 7202SOL     OW22504   2.613   6.854   6.156
 7202SOL    HW122505   2.550   6.931   6.145
 7202SOL    HW222506   2.586   6.799   6.235
 7203SOL     OW22507   5.352   0.319   0.184
 7203SOL    HW122508   5.399   0.407   0.197
 7203SOL    HW222509   5.282   0.308   0.255
 7204SOL     OW22510   0.303   3.002   2.691
 7204SOL    HW122511   0.331   3.071   2.757
 7204SOL    HW222512   0.204   3.002   2.683
 7205SOL     OW22513   0.907   3.916   1.575
 7205SOL    HW122514   0.875   4.004   1.541
 7205SOL    HW222515   0.901   3.848   1.503
 7206SOL     OW22516   6.239   1.070   1.620
 7206SOL    HW122517   6.329   1.053   1.659
 7206SOL    HW222518   6.238   1.044   1.524
 7207SOL     OW22519   4.111   7.008   1.459
 7207SOL    HW122520   4.033   6.954   1.490
 7207SOL    HW222521   4.103   0.080   1.493
 7208SOL     OW22522   2.400   0.436   5.064
 7208SOL    HW122523   2.425   0.513   5.122
 7208SOL    HW222524   2.308   0.451   5.027
 7209SOL     OW22525   3.036   3.727   5.522
 7209SOL    HW122526   3.001   3.763   5.609
 7209SOL    HW222527   3.125   3.768   5.502
 7210SOL     OW22528   4.430   0.139   4.227
 7210SOL    HW122529   4.429   0.110   4.131
 7210SOL    HW222530   4.485   0.074   4.280
 7211SOL     OW22531   1.085   5.049   2.702
 7211SOL    HW122532   1.057   5.141   2.732
 7211SOL    HW222533   1.126   5.055   2.611
 7212SOL     OW22534   5.512   0.051   3.348
 7212SOL    HW122535   5.491   6.992   3.404
 7212SOL    HW222536   5.494   0.031   3.252
 7213SOL     OW22537   5.778   6.421   5.567
 7213SOL    HW122538   5.720   6.375   5.634
 7213SOL    HW222539   5.837   6.353   5.523
 7214SOL     OW22540   1.362   4.899   6.011
 7214SOL    HW122541   1.462   4.902   6.006
 7214SOL    HW222542   1.333   4.905   6.106
 7215SOL     OW22543   1.050   3.055   1.212
 7215SOL    HW122544   1.116   2.988   1.245
 7215SOL    HW222545   1.097   3.141   1.193
 7216SOL     OW22546   2.974   1.692   2.801
 7216SOL    HW122547   2.920   1.613   2.829
 7216SOL    HW222548   2.913   1.761   2.761
 7217SOL     OW22549   0.124   3.512   1.919
 7217SOL    HW122550   0.069   3.528   1.837
 7217SOL    HW222551   0.069   3.531   2.000
 7218SOL     OW22552   6.036   3.193   3.845
 7218SOL    HW122553   6.005   3.239   3.762
 7218SOL    HW222554   6.080   3.107   3.821
 7219SOL     OW22555   2.269   1.556   1.568
 7219SOL    HW122556   2.363   1.583   1.590
 7219SOL    HW222557   2.238   1.485   1.631
 7220SOL     OW22558   0.041   1.564   3.168
 7220SOL    HW122559   6.994   1.603   3.106
 7220SOL    HW222560   0.115   1.525   3.115
 7221SOL     OW22561   6.752   4.135   4.651
 7221SOL    HW122562   6.767   4.082   4.734
 7221SOL    HW222563   6.654   4.146   4.636
 7222SOL     OW22564   6.559   0.155   2.848
 7222SOL    HW122565   6.619   0.088   2.892
 7222SOL    HW222566   6.526   0.220   2.916
 7223SOL     OW22567   4.658   1.416   4.465
 7223SOL    HW122568   4.697   1.375   4.547
 7223SOL    HW222569   4.642   1.344   4.397
 7224SOL     OW22570   5.616   1.688   3.431
 7224SOL    HW122571   5.607   1.658   3.526
 7224SOL    HW222572   5.573   1.778   3.420
 7225SOL     OW22573   2.992   0.334   1.769
 7225SOL    HW122574   2.980   0.311   1.672
 7225SOL    HW222575   3.087   0.319   1.796
 7226SOL     OW22576   5.902   6.882   5.235
 7226SOL    HW122577   5.809   6.903   5.264
 7226SOL    HW222578   5.933   6.951   5.169
 7227SOL     OW22579   0.220   3.489   5.582
 7227SOL    HW122580   0.155   3.413   5.590
 7227SOL    HW222581   0.312   3.456   5.603
 7228SOL     OW22582   1.926   0.137   2.706
 7228SOL    HW122583   1.904   0.214   2.645
 7228SOL    HW222584   2.025   0.130   2.716
 7229SOL     OW22585   6.957   0.291   3.627
 7229SOL    HW122586   7.007   0.228   3.568
 7229SOL    HW222587   7.016   0.367   3.654
 7230SOL     OW22588   6.430   5.481   1.068
 7230SOL    HW122589   6.461   5.569   1.033
 7230SOL    HW222590   6.447   5.476   1.166
 7231SOL     OW22591   5.735   0.612   6.968
 7231SOL    HW122592   5.741   0.538   0.013
 7231SOL    HW222593   5.662   0.593   6.903
 7232SOL     OW22594   3.192   4.034   0.553
 7232SOL    HW122595   3.291   4.023   0.559
 7232SOL    HW222596   3.147   3.949   0.578
 7233SOL     OW22597   0.950   2.073   5.712
 7233SOL    HW122598   0.925   2.132   5.634
 7233SOL    HW222599   1.047   2.085   5.732
 7234SOL     OW22600   5.238   2.457   4.064
 7234SOL    HW122601   5.195   2.474   3.975
 7234SOL    HW222602   5.301   2.380   4.056
 7235SOL     OW22603   5.981   2.855   4.661
 7235SOL    HW122604   6.037   2.814   4.589
 7235SOL    HW222605   5.905   2.904   4.621
 7236SOL     OW22606   1.144   1.545   3.364
 7236SOL    HW122607   1.128   1.499   3.451
 7236SOL    HW222608   1.183   1.480   3.298
 7237SOL     OW22609   6.055   6.045   5.102
 7237SOL    HW122610   6.059   6.136   5.145
 7237SOL    HW222611   5.986   5.990   5.148
 7238SOL     OW22612   1.585   0.206   2.582
 7238SOL    HW122613   1.661   0.258   2.619
 7238SOL    HW222614   1.619   0.131   2.526
 7239SOL     OW22615   4.645   2.072   2.310
 7239SOL    HW122616   4.569   2.128   2.345
 7239SOL    HW222617   4.731   2.120   2.325
 7240SOL     OW22618   3.613   3.127   3.348
 7240SOL    HW122619   3.626   3.211   3.402
 7240SOL    HW222620   3.541   3.141   3.281
 7241SOL     OW22621   4.352   0.549   4.957
 7241SOL    HW122622   4.343   0.505   4.868
 7241SOL    HW222623   4.448   0.564   4.978
 7242SOL     OW22624   6.340   6.066   0.348
 7242SOL    HW122625   6.439   6.050   0.346
 7242SOL    HW222626   6.320   6.142   0.410
 7243SOL     OW22627   0.842   5.811   1.124
 7243SOL    HW122628   0.922   5.863   1.153
 7243SOL    HW222629   0.843   5.802   1.024
 7244SOL     OW22630   5.336   1.861   1.762
 7244SOL    HW122631   5.285   1.894   1.841
 7244SOL    HW222632   5.430   1.893   1.767
 7245SOL     OW22633   6.098   1.873   3.355
 7245SOL    HW122634   6.129   1.944   3.418
 7245SOL    HW222635   6.076   1.790   3.407
 7246SOL     OW22636   0.583   5.529   5.631
 7246SOL    HW122637   0.662   5.477   5.664
 7246SOL    HW222638   0.600   5.559   5.537
 7247SOL     OW22639   3.917   5.400   4.256
 7247SOL    HW122640   3.911   5.491   4.216
 7247SOL    HW222641   3.844   5.343   4.218
 7248SOL     OW22642   3.288   1.027   4.857
 7248SOL    HW122643   3.336   0.943   4.882
 7248SOL    HW222644   3.354   1.102   4.850
 7249SOL     OW22645   4.709   2.787   6.251
 7249SOL    HW122646   4.643   2.849   6.293
 7249SOL    HW222647   4.659   2.712   6.206
 7250SOL     OW22648   3.115   3.089   0.186
 7250SOL    HW122649   3.023   3.093   0.226
 7250SOL    HW222650   3.115   3.024   0.110
 7251SOL     OW22651   5.889   1.319   5.717
 7251SOL    HW122652   5.867   1.409   5.680
 7251SOL    HW222653   5.827   1.251   5.679
 7252SOL     OW22654   4.687   3.433   5.364
 7252SOL    HW122655   4.675   3.477   5.275
 7252SOL    HW222656   4.676   3.334   5.353
 7253SOL     OW22657   5.202   5.090   6.800
 7253SOL    HW122658   5.229   5.068   6.893
 7253SOL    HW222659   5.102   5.100   6.795
 7254SOL     OW22660   5.620   6.116   5.020
 7254SOL    HW122661   5.709   6.141   4.983
 7254SOL    HW222662   5.622   6.125   5.120
 7255SOL     OW22663   3.574   3.444   3.183
 7255SOL    HW122664   3.496   3.451   3.246
 7255SOL    HW222665   3.611   3.351   3.186
 7256SOL     OW22666   3.251   5.890   3.418
 7256SOL    HW122667   3.202   5.943   3.487
 7256SOL    HW222668   3.192   5.875   3.339
 7257SOL     OW22669   6.075   5.332   2.496
 7257SOL    HW122670   6.068   5.272   2.575
 7257SOL    HW222671   6.065   5.427   2.525
 7258SOL     OW22672   2.985   0.641   6.548
 7258SOL    HW122673   2.934   0.602   6.625
 7258SOL    HW222674   3.065   0.691   6.582
 7259SOL     OW22675   3.439   4.422   5.939
 7259SOL    HW122676   3.465   4.468   6.024
 7259SOL    HW222677   3.352   4.459   5.906
 7260SOL     OW22678   4.195   2.063   2.735
 7260SOL    HW122679   4.171   1.977   2.778
 7260SOL    HW222680   4.265   2.048   2.665
 7261SOL     OW22681   2.275   4.738   1.376
 7261SOL    HW122682   2.271   4.655   1.432
 7261SOL    HW222683   2.370   4.769   1.370
 7262SOL     OW22684   5.637   0.529   4.852
 7262SOL    HW122685   5.581   0.604   4.816
 7262SOL    HW222686   5.733   0.559   4.855
 7263SOL     OW22687   5.188   5.237   1.283
 7263SOL    HW122688   5.283   5.205   1.277
 7263SOL    HW222689   5.136   5.178   1.345
 7264SOL     OW22690   0.133   6.921   4.661
 7264SOL    HW122691   0.098   6.976   4.737
 7264SOL    HW222692   0.182   6.842   4.697
 7265SOL     OW22693   4.571   2.846   6.628
 7265SOL    HW122694   4.489   2.814   6.675
 7265SOL    HW222695   4.591   2.940   6.657
 7266SOL     OW22696   4.258   1.619   3.014
 7266SOL    HW122697   4.263   1.542   3.078
 7266SOL    HW222698   4.228   1.701   3.063
 7267SOL     OW22699   4.967   1.942   3.955
 7267SOL    HW122700   4.970   1.901   3.864
 7267SOL    HW222701   4.977   1.870   4.024
 7268SOL     OW22702   4.156   6.296   0.214
 7268SOL    HW122703   4.131   6.289   0.311
 7268SOL    HW222704   4.249   6.261   0.201
 7269SOL     OW22705   1.692   0.182   2.888
 7269SOL    HW122706   1.710   0.142   2.978
 7269SOL    HW222707   1.764   0.153   2.824
 7270SOL     OW22708   3.291   2.291   1.655
 7270SOL    HW122709   3.379   2.245   1.659
 7270SOL    HW222710   3.236   2.251   1.581
 7271SOL     OW22711   5.989   5.633   3.711
 7271SOL    HW122712   5.951   5.544   3.687
 7271SOL    HW222713   5.988   5.644   3.810
 7272SOL     OW22714   5.738   1.223   1.858
 7272SOL    HW122715   5.693   1.134   1.858
 7272SOL    HW222716   5.789   1.234   1.943
 7273SOL     OW22717   6.152   5.435   4.818
 7273SOL    HW122718   6.213   5.465   4.891
 7273SOL    HW222719   6.206   5.412   4.737
 7274SOL     OW22720   5.570   4.748   3.758
 7274SOL    HW122721   5.666   4.748   3.729
 7274SOL    HW222722   5.543   4.841   3.783
 7275SOL     OW22723   6.074   6.817   2.525
 7275SOL    HW122724   6.047   6.748   2.458
 7275SOL    HW222725   6.049   6.907   2.491
 7276SOL     OW22726   4.181   1.894   3.100
 7276SOL    HW122727   4.121   1.962   3.142
 7276SOL    HW222728   4.266   1.938   3.071
 7277SOL     OW22729   5.867   2.576   3.793
 7277SOL    HW122730   5.899   2.578   3.699
 7277SOL    HW222731   5.883   2.665   3.836
 7278SOL     OW22732   3.636   1.256   3.098
 7278SOL    HW122733   3.718   1.280   3.149
 7278SOL    HW222734   3.621   1.324   3.026
 7279SOL     OW22735   3.529   3.675   1.966
 7279SOL    HW122736   3.574   3.692   2.054
 7279SOL    HW222737   3.449   3.735   1.958
 7280SOL     OW22738   6.863   1.648   5.810
 7280SOL    HW122739   6.806   1.730   5.817
 7280SOL    HW222740   6.861   1.600   5.898
 7281SOL     OW22741   3.810   6.634   3.840
 7281SOL    HW122742   3.847   6.722   3.811
 7281SOL    HW222743   3.719   6.647   3.879
 7282SOL     OW22744   0.637   3.804   1.212
 7282SOL    HW122745   0.583   3.778   1.132
 7282SOL    HW222746   0.592   3.881   1.258
 7283SOL     OW22747   2.831   5.955   2.999
 7283SOL    HW122748   2.928   5.977   3.000
 7283SOL    HW222749   2.808   5.903   3.081
 7284SOL     OW22750   0.679   0.554   3.879
 7284SOL    HW122751   0.679   0.624   3.950
 7284SOL    HW222752   0.618   0.582   3.804
 7285SOL     OW22753   5.018   2.641   2.010
 7285SOL    HW122754   5.003   2.739   2.020
 7285SOL    HW222755   4.996   2.613   1.917
 7286SOL     OW22756   6.402   1.174   4.748
 7286SOL    HW122757   6.464   1.253   4.747
 7286SOL    HW222758   6.366   1.159   4.656
 7287SOL     OW22759   3.465   1.542   4.562
 7287SOL    HW122760   3.407   1.551   4.481
 7287SOL    HW222761   3.560   1.558   4.537
 7288SOL     OW22762   2.935   2.135   1.534
 7288SOL    HW122763   2.861   2.129   1.601
 7288SOL    HW222764   2.930   2.057   1.472
 7289SOL     OW22765   6.748   2.320   1.045
 7289SOL    HW122766   6.794   2.322   1.134
 7289SOL    HW222767   6.702   2.408   1.029
 7290SOL     OW22768   3.450   2.128   4.984
 7290SOL    HW122769   3.498   2.127   5.072
 7290SOL    HW222770   3.403   2.216   4.974
 7291SOL     OW22771   1.154   0.889   0.540
 7291SOL    HW122772   1.212   0.943   0.479
 7291SOL    HW222773   1.179   0.907   0.635
 7292SOL     OW22774   3.824   1.408   2.493
 7292SOL    HW122775   3.856   1.407   2.587
 7292SOL    HW222776   3.806   1.314   2.462
 7293SOL     OW22777   6.547   1.171   4.068
 7293SOL    HW122778   6.468   1.143   4.123
 7293SOL    HW222779   6.516   1.230   3.994
 7294SOL     OW22780   2.373   1.289   2.723
 7294SOL    HW122781   2.406   1.238   2.643
 7294SOL    HW222782   2.287   1.334   2.699
 7295SOL     OW22783   5.112   4.312   1.323
 7295SOL    HW122784   5.198   4.323   1.273
 7295SOL    HW222785   5.132   4.299   1.420
 7296SOL     OW22786   3.132   0.281   2.827
 7296SOL    HW122787   3.035   0.287   2.850
 7296SOL    HW222788   3.185   0.333   2.894
 7297SOL     OW22789   4.085   0.137   0.263
 7297SOL    HW122790   4.114   0.049   0.227
 7297SOL    HW222791   4.153   0.207   0.239
 7298SOL     OW22792   4.102   4.541   0.665
 7298SOL    HW122793   4.102   4.470   0.736
 7298SOL    HW222794   4.070   4.501   0.579
 7299SOL     OW22795   6.797   3.144   0.034
 7299SOL    HW122796   6.853   3.226   0.026
 7299SOL    HW222797   6.854   3.068   0.066
 7300SOL     OW22798   0.991   4.202   2.027
 7300SOL    HW122799   1.066   4.162   2.079
 7300SOL    HW222800   0.967   4.142   1.951
 7301SOL     OW22801   3.527   1.916   0.528
 7301SOL    HW122802   3.536   1.919   0.428
 7301SOL    HW222803   3.552   2.004   0.567
 7302SOL     OW22804   5.508   1.898   6.757
 7302SOL    HW122805   5.597   1.938   6.779
 7302SOL    HW222806   5.440   1.970   6.746
 7303SOL     OW22807   3.861   2.402   1.202
 7303SOL    HW122808   3.959   2.401   1.217
 7303SOL    HW222809   3.813   2.403   1.290
 7304SOL     OW22810   2.878   0.148   0.606
 7304SOL    HW122811   2.903   0.215   0.535
 7304SOL    HW222812   2.807   0.187   0.664
 7305SOL     OW22813   6.812   0.360   6.553
 7305SOL    HW122814   6.813   0.444   6.500
 7305SOL    HW222815   6.723   0.350   6.598
 7306SOL     OW22816   1.895   3.516   1.004
 7306SOL    HW122817   1.944   3.587   0.953
 7306SOL    HW222818   1.962   3.455   1.047
 7307SOL     OW22819   4.285   6.279   1.610
 7307SOL    HW122820   4.351   6.354   1.597
 7307SOL    HW222821   4.291   6.246   1.704
 7308SOL     OW22822   3.669   1.866   2.957
 7308SOL    HW122823   3.726   1.938   2.915
 7308SOL    HW222824   3.724   1.812   3.020
 7309SOL     OW22825   2.370   4.854   3.668
 7309SOL    HW122826   2.408   4.862   3.760
 7309SOL    HW222827   2.415   4.778   3.620
 7310SOL     OW22828   4.772   2.894   0.624
 7310SOL    HW122829   4.753   2.803   0.660
 7310SOL    HW222830   4.867   2.898   0.592
 7311SOL     OW22831   1.342   6.529   5.660
 7311SOL    HW122832   1.423   6.515   5.717
 7311SOL    HW222833   1.287   6.603   5.699
 7312SOL     OW22834   5.977   2.065   4.224
 7312SOL    HW122835   5.961   2.023   4.135
 7312SOL    HW222836   5.898   2.121   4.250
 7313SOL     OW22837   3.410   0.825   3.399
 7313SOL    HW122838   3.328   0.780   3.361
 7313SOL    HW222839   3.489   0.801   3.343
 7314SOL     OW22840   2.458   5.569   4.720
 7314SOL    HW122841   2.381   5.543   4.778
 7314SOL    HW222842   2.544   5.545   4.766
 7315SOL     OW22843   2.301   4.849   2.443
 7315SOL    HW122844   2.365   4.925   2.434
 7315SOL    HW222845   2.310   4.808   2.534
 7316SOL     OW22846   3.478   1.116   2.398
 7316SOL    HW122847   3.575   1.095   2.406
 7316SOL    HW222848   3.459   1.205   2.441
 7317SOL     OW22849   5.954   1.817   1.682
 7317SOL    HW122850   5.967   1.915   1.695
 7317SOL    HW222851   5.857   1.795   1.693
 7318SOL     OW22852   4.651   6.543   1.772
 7318SOL    HW122853   4.648   6.508   1.866
 7318SOL    HW222854   4.736   6.513   1.729
 7319SOL     OW22855   4.593   5.129   5.877
 7319SOL    HW122856   4.692   5.125   5.870
 7319SOL    HW222857   4.566   5.130   5.973
 7320SOL     OW22858   1.462   3.140   0.480
 7320SOL    HW122859   1.371   3.102   0.464
 7320SOL    HW222860   1.480   3.212   0.413
 7321SOL     OW22861   2.124   2.022   5.319
 7321SOL    HW122862   2.150   2.100   5.376
 7321SOL    HW222863   2.031   2.036   5.284
 7322SOL     OW22864   2.639   2.124   3.985
 7322SOL    HW122865   2.613   2.119   4.082
 7322SOL    HW222866   2.561   2.152   3.930
 7323SOL     OW22867   2.303   1.684   0.209
 7323SOL    HW122868   2.263   1.600   0.172
 7323SOL    HW222869   2.303   1.680   0.309
 7324SOL     OW22870   5.417   3.835   4.864
 7324SOL    HW122871   5.328   3.789   4.870
 7324SOL    HW222872   5.483   3.787   4.922
 7325SOL     OW22873   3.346   0.601   6.854
 7325SOL    HW122874   3.445   0.614   6.858
 7325SOL    HW222875   3.306   0.667   6.790
 7326SOL     OW22876   3.543   6.632   0.142
 7326SOL    HW122877   3.455   6.672   0.117
 7326SOL    HW222878   3.594   6.696   0.200
 7327SOL     OW22879   1.947   4.383   3.264
 7327SOL    HW122880   1.873   4.376   3.331
 7327SOL    HW222881   1.928   4.322   3.187
 7328SOL     OW22882   4.058   5.517   6.744
 7328SOL    HW122883   4.030   5.484   6.654
 7328SOL    HW222884   4.021   5.608   6.760
 7329SOL     OW22885   2.814   4.085   6.375
 7329SOL    HW122886   2.736   4.148   6.369
 7329SOL    HW222887   2.781   3.991   6.375
 7330SOL     OW22888   2.259   3.727   1.496
 7330SOL    HW122889   2.176   3.738   1.551
 7330SOL    HW222890   2.335   3.772   1.542
 7331SOL     OW22891   5.451   1.384   2.665
 7331SOL    HW122892   5.525   1.440   2.627
 7331SOL    HW222893   5.374   1.383   2.601
 7332SOL     OW22894   1.864   0.079   5.123
 7332SOL    HW122895   1.768   0.072   5.095
 7332SOL    HW222896   1.910   7.014   5.104
 7333SOL     OW22897   6.286   1.818   2.097
 7333SOL    HW122898   6.235   1.771   2.024
 7333SOL    HW222899   6.263   1.915   2.096
 7334SOL     OW22900   0.931   4.955   5.075
 7334SOL    HW122901   0.935   4.894   4.996
 7334SOL    HW222902   0.925   4.900   5.159
 7335SOL     OW22903   6.334   2.858   1.865
 7335SOL    HW122904   6.263   2.798   1.827
 7335SOL    HW222905   6.424   2.826   1.836
 7336SOL     OW22906   2.593   0.184   1.167
 7336SOL    HW122907   2.563   0.127   1.090
 7336SOL    HW222908   2.672   0.239   1.139
 7337SOL     OW22909   3.170   1.767   2.046
 7337SOL    HW122910   3.082   1.765   1.998
 7337SOL    HW222911   3.196   1.862   2.064
 7338SOL     OW22912   5.112   2.685   0.312
 7338SOL    HW122913   5.034   2.664   0.254
 7338SOL    HW222914   5.154   2.600   0.344
 7339SOL     OW22915   0.205   6.985   3.690
 7339SOL    HW122916   0.213   0.002   3.599
 7339SOL    HW222917   0.110   6.958   3.707
 7340SOL     OW22918   2.982   0.318   0.436
 7340SOL    HW122919   2.919   0.395   0.424
 7340SOL    HW222920   3.018   0.289   0.347
 7341SOL     OW22921   6.472   5.281   2.960
 7341SOL    HW122922   6.416   5.217   2.906
 7341SOL    HW222923   6.545   5.318   2.903
 7342SOL     OW22924   0.004   4.936   6.885
 7342SOL    HW122925   6.939   4.986   6.885
 7342SOL    HW222926   0.075   4.991   6.841
 7343SOL     OW22927   0.562   1.732   3.007
 7343SOL    HW122928   0.531   1.643   2.973
 7343SOL    HW222929   0.651   1.753   2.966
 7344SOL     OW22930   2.037   1.856   5.814
 7344SOL    HW122931   2.109   1.788   5.820
 7344SOL    HW222932   2.063   1.937   5.867
 7345SOL     OW22933   1.304   6.766   6.998
 7345SOL    HW122934   1.226   6.830   6.998
 7345SOL    HW222935   1.337   6.755   6.904
 7346SOL     OW22936   3.694   5.497   2.699
 7346SOL    HW122937   3.668   5.415   2.750
 7346SOL    HW222938   3.745   5.558   2.760
 7347SOL     OW22939   5.624   2.829   3.383
 7347SOL    HW122940   5.609   2.786   3.472
 7347SOL    HW222941   5.558   2.793   3.317
 7348SOL     OW22942   5.452   0.139   6.313
 7348SOL    HW122943   5.548   0.114   6.294
 7348SOL    HW222944   5.423   0.210   6.249
 7349SOL     OW22945   3.581   2.226   1.468
 7349SOL    HW122946   3.653   2.170   1.510
 7349SOL    HW222947   3.610   2.321   1.464
 7350SOL     OW22948   1.724   1.674   2.637
 7350SOL    HW122949   1.764   1.764   2.618
 7350SOL    HW222950   1.665   1.680   2.718
 7351SOL     OW22951   6.080   4.785   0.134
 7351SOL    HW122952   6.034   4.840   0.064
 7351SOL    HW222953   6.072   4.688   0.112
 7352SOL     OW22954   6.684   1.478   3.046
 7352SOL    HW122955   6.662   1.414   3.120
 7352SOL    HW222956   6.619   1.553   3.047
 7353SOL     OW22957   5.466   1.637   4.759
 7353SOL    HW122958   5.437   1.605   4.669
 7353SOL    HW222959   5.542   1.580   4.792
 7354SOL     OW22960   5.544   4.443   5.238
 7354SOL    HW122961   5.623   4.389   5.269
 7354SOL    HW222962   5.536   4.434   5.138
 7355SOL     OW22963   0.019   5.745   0.464
 7355SOL    HW122964   0.076   5.724   0.543
 7355SOL    HW222965   0.073   5.737   0.380
 7356SOL     OW22966   6.997   2.205   6.517
 7356SOL    HW122967   6.973   2.115   6.482
 7356SOL    HW222968   6.925   2.271   6.495
 7357SOL     OW22969   0.509   0.825   0.635
 7357SOL    HW122970   0.411   0.817   0.657
 7357SOL    HW222971   0.529   0.771   0.554
 7358SOL     OW22972   3.346   1.414   3.906
 7358SOL    HW122973   3.361   1.325   3.864
 7358SOL    HW222974   3.266   1.410   3.967
 7359SOL     OW22975   3.268   3.722   4.011
 7359SOL    HW122976   3.223   3.811   4.023
 7359SOL    HW222977   3.287   3.707   3.914
 7360SOL     OW22978   1.699   4.392   6.115
 7360SOL    HW122979   1.796   4.370   6.101
 7360SOL    HW222980   1.647   4.308   6.132
 7361SOL     OW22981   4.537   0.257   1.951
 7361SOL    HW122982   4.503   0.337   2.000
 7361SOL    HW222983   4.470   0.230   1.881
 7362SOL     OW22984   0.927   4.757   0.021
 7362SOL    HW122985   0.951   4.738   0.116
 7362SOL    HW222986   0.903   4.854   0.012
 7363SOL     OW22987   4.952   2.196   6.023
 7363SOL    HW122988   4.972   2.143   6.105
 7363SOL    HW222989   4.878   2.152   5.972
 7364SOL     OW22990   4.994   0.019   0.516
 7364SOL    HW122991   5.054   6.962   0.526
 7364SOL    HW222992   4.963   0.051   0.606
 7365SOL     OW22993   5.055   6.891   1.536
 7365SOL    HW122994   5.108   6.807   1.544
 7365SOL    HW222995   4.986   6.894   1.608
 7366SOL     OW22996   2.909   6.913   0.565
 7366SOL    HW122997   2.905   6.884   0.661
 7366SOL    HW222998   2.901   7.013   0.560
 7367SOL     OW22999   4.534   2.903   5.960
 7367SOL    HW123000   4.471   2.910   6.038
 7367SOL    HW223001   4.482   2.905   5.875
 7368SOL     OW23002   3.278   2.887   4.919
 7368SOL    HW123003   3.205   2.820   4.932
 7368SOL    HW223004   3.239   2.980   4.923
 7369SOL     OW23005   6.973   6.806   6.431
 7369SOL    HW123006   7.010   6.898   6.444
 7369SOL    HW223007   0.009   6.755   6.368
 7370SOL     OW23008   0.117   5.920   1.006
 7370SOL    HW123009   0.138   5.843   1.068
 7370SOL    HW223010   0.112   5.886   0.912
 7371SOL     OW23011   2.166   4.655   3.587
 7371SOL    HW123012   2.134   4.624   3.497
 7371SOL    HW223013   2.161   4.755   3.591
 7372SOL     OW23014   2.549   0.124   5.181
 7372SOL    HW123015   2.492   0.121   5.262
 7372SOL    HW223016   2.642   0.095   5.204
 7373SOL     OW23017   3.900   1.524   1.151
 7373SOL    HW123018   3.971   1.594   1.141
 7373SOL    HW223019   3.812   1.568   1.172
 7374SOL     OW23020   2.400   3.617   0.533
 7374SOL    HW123021   2.344   3.536   0.515
 7374SOL    HW223022   2.472   3.623   0.464
 7375SOL     OW23023   2.277   5.495   2.749
 7375SOL    HW123024   2.350   5.458   2.806
 7375SOL    HW223025   2.306   5.494   2.653
 7376SOL     OW23026   3.460   4.288   6.942
 7376SOL    HW123027   3.475   4.330   6.852
 7376SOL    HW223028   3.363   4.271   6.955
 7377SOL     OW23029   5.222   6.005   1.326
 7377SOL    HW123030   5.149   5.940   1.309
 7377SOL    HW223031   5.198   6.093   1.284
 7378SOL     OW23032   0.946   1.593   6.216
 7378SOL    HW123033   0.902   1.525   6.275
 7378SOL    HW223034   0.955   1.679   6.265
 7379SOL     OW23035   4.313   0.871   0.349
 7379SOL    HW123036   4.332   0.865   0.447
 7379SOL    HW223037   4.224   0.830   0.330
 7380SOL     OW23038   0.316   3.566   6.840
 7380SOL    HW123039   0.351   3.581   6.748
 7380SOL    HW223040   0.269   3.478   6.844
 7381SOL     OW23041   5.236   2.362   0.910
 7381SOL    HW123042   5.243   2.449   0.960
 7381SOL    HW223043   5.255   2.286   0.973
 7382SOL     OW23044   0.815   5.266   3.688
 7382SOL    HW123045   0.873   5.195   3.649
 7382SOL    HW223046   0.867   5.351   3.697
 7383SOL     OW23047   1.769   4.650   2.618
 7383SOL    HW123048   1.706   4.609   2.684
 7383SOL    HW223049   1.854   4.674   2.664
 7384SOL     OW23050   5.630   1.379   1.357
 7384SOL    HW123051   5.703   1.444   1.377
 7384SOL    HW223052   5.606   1.330   1.441
 7385SOL     OW23053   5.307   0.135   2.139
 7385SOL    HW123054   5.349   0.207   2.196
 7385SOL    HW223055   5.279   0.174   2.052
 7386SOL     OW23056   6.368   1.736   5.621
 7386SOL    HW123057   6.330   1.765   5.708
 7386SOL    HW223058   6.414   1.648   5.632
 7387SOL     OW23059   5.069   5.832   4.191
 7387SOL    HW123060   5.070   5.816   4.092
 7387SOL    HW223061   5.148   5.787   4.232
 7388SOL     OW23062   5.296   3.416   4.954
 7388SOL    HW123063   5.279   3.333   5.006
 7388SOL    HW223064   5.315   3.392   4.859
 7389SOL     OW23065   2.366   3.048   5.701
 7389SOL    HW123066   2.408   3.112   5.636
 7389SOL    HW223067   2.405   2.957   5.688
 7390SOL     OW23068   4.591   6.525   0.419
 7390SOL    HW123069   4.613   6.605   0.475
 7390SOL    HW223070   4.598   6.442   0.475
 7391SOL     OW23071   6.974   5.341   0.880
 7391SOL    HW123072   7.021   5.370   0.797
 7391SOL    HW223073   6.931   5.421   0.924
 7392SOL     OW23074   1.360   4.342   1.828
 7392SOL    HW123075   1.290   4.409   1.804
 7392SOL    HW223076   1.431   4.343   1.757
 7393SOL     OW23077   1.289   3.912   0.635
 7393SOL    HW123078   1.292   3.960   0.723
 7393SOL    HW223079   1.265   3.977   0.563
 7394SOL     OW23080   2.954   3.659   0.071
 7394SOL    HW123081   2.947   3.642   6.995
 7394SOL    HW223082   3.047   3.639   0.102
 7395SOL     OW23083   2.629   6.711   0.339
 7395SOL    HW123084   2.626   6.737   0.242
 7395SOL    HW223085   2.636   6.793   0.395
 7396SOL     OW23086   6.787   6.985   2.487
 7396SOL    HW123087   6.860   0.013   2.535
 7396SOL    HW223088   6.814   6.890   2.474
 7397SOL     OW23089   5.729   4.275   3.893
 7397SOL    HW123090   5.765   4.366   3.915
 7397SOL    HW223091   5.722   4.221   3.976
 7398SOL     OW23092   4.224   6.250   2.751
 7398SOL    HW123093   4.226   6.350   2.751
 7398SOL    HW223094   4.131   6.218   2.762
 7399SOL     OW23095   5.153   6.114   4.469
 7399SOL    HW123096   5.204   6.122   4.383
 7399SOL    HW223097   5.080   6.182   4.471
 7400SOL     OW23098   2.651   4.454   6.577
 7400SOL    HW123099   2.648   4.467   6.677
 7400SOL    HW223100   2.743   4.427   6.550
 7401SOL     OW23101   6.455   2.753   4.156
 7401SOL    HW123102   6.540   2.790   4.120
 7401SOL    HW223103   6.391   2.737   4.080
 7402SOL     OW23104   1.804   6.384   4.973
 7402SOL    HW123105   1.765   6.292   4.974
 7402SOL    HW223106   1.901   6.380   4.998
 7403SOL     OW23107   2.287   2.825   1.737
 7403SOL    HW123108   2.195   2.795   1.763
 7403SOL    HW223109   2.298   2.818   1.638
 7404SOL     OW23110   1.398   2.908   2.367
 7404SOL    HW123111   1.463   2.974   2.406
 7404SOL    HW223112   1.376   2.839   2.436
 7405SOL     OW23113   3.296   5.051   6.139
 7405SOL    HW123114   3.211   5.076   6.092
 7405SOL    HW223115   3.350   5.133   6.157
 7406SOL     OW23116   5.962   5.876   2.789
 7406SOL    HW123117   5.984   5.793   2.840
 7406SOL    HW223118   5.972   5.858   2.691
 7407SOL     OW23119   3.741   1.484   6.063
 7407SOL    HW123120   3.796   1.489   6.147
 7407SOL    HW223121   3.800   1.460   5.986
 7408SOL     OW23122   0.906   3.490   5.021
 7408SOL    HW123123   0.895   3.396   5.054
 7408SOL    HW223124   0.821   3.540   5.035
 7409SOL     OW23125   2.125   7.019   4.751
 7409SOL    HW123126   2.035   6.975   4.744
 7409SOL    HW223127   2.196   6.952   4.731
 7410SOL     OW23128   4.380   5.642   5.610
 7410SOL    HW123129   4.369   5.739   5.633
 7410SOL    HW223130   4.421   5.594   5.688
 7411SOL     OW23131   6.056   3.830   5.759
 7411SOL    HW123132   6.124   3.900   5.779
 7411SOL    HW223133   6.038   3.777   5.842
 7412SOL     OW23134   1.369   0.472   0.554
 7412SOL    HW123135   1.460   0.437   0.577
 7412SOL    HW223136   1.340   0.537   0.624
 7413SOL     OW23137   6.227   3.933   3.030
 7413SOL    HW123138   6.182   3.844   3.035
 7413SOL    HW223139   6.175   4.000   3.083
 7414SOL     OW23140   0.086   6.026   2.134
 7414SOL    HW123141   0.004   5.972   2.112
 7414SOL    HW223142   0.165   5.984   2.089
 7415SOL     OW23143   2.872   1.513   3.217
 7415SOL    HW123144   2.947   1.446   3.221
 7415SOL    HW223145   2.817   1.506   3.300
 7416SOL     OW23146   6.461   0.562   2.343
 7416SOL    HW123147   6.425   0.471   2.323
 7416SOL    HW223148   6.414   0.600   2.423
 7417SOL     OW23149   0.316   5.347   1.341
 7417SOL    HW123150   0.220   5.322   1.336
 7417SOL    HW223151   0.325   5.445   1.358
 7418SOL     OW23152   2.452   3.620   1.059
 7418SOL    HW123153   2.387   3.632   0.984
 7418SOL    HW223154   2.407   3.571   1.134
 7419SOL     OW23155   6.181   2.041   5.762
 7419SOL    HW123156   6.102   2.048   5.823
 7419SOL    HW223157   6.250   2.108   5.790
 7420SOL     OW23158   0.460   6.064   1.646
 7420SOL    HW123159   0.362   6.046   1.635
 7420SOL    HW223160   0.495   6.111   1.565
 7421SOL     OW23161   4.417   1.990   1.231
 7421SOL    HW123162   4.371   2.048   1.298
 7421SOL    HW223163   4.484   1.932   1.277
 7422SOL     OW23164   1.426   2.240   0.384
 7422SOL    HW123165   1.358   2.255   0.455
 7422SOL    HW223166   1.494   2.173   0.416
 7423SOL     OW23167   3.129   4.232   0.730
 7423SOL    HW123168   3.187   4.312   0.719
 7423SOL    HW223169   3.157   4.161   0.665
 7424SOL     OW23170   5.687   0.015   3.812
 7424SOL    HW123171   5.708   7.016   3.717
 7424SOL    HW223172   5.644   6.958   3.856
 7425SOL     OW23173   3.850   0.546   4.799
 7425SOL    HW123174   3.805   0.549   4.710
 7425SOL    HW223175   3.908   0.464   4.804
 7426SOL     OW23176   0.173   0.697   6.730
 7426SOL    HW123177   0.114   0.630   6.774
 7426SOL    HW223178   0.181   0.674   6.633
 7427SOL     OW23179   5.250   5.300   5.929
 7427SOL    HW123180   5.217   5.303   6.024
 7427SOL    HW223181   5.350   5.295   5.929
 7428SOL     OW23182   5.359   1.576   5.587
 7428SOL    HW123183   5.425   1.648   5.610
 7428SOL    HW223184   5.368   1.501   5.652
 7429SOL     OW23185   5.833   6.154   3.488
 7429SOL    HW123186   5.878   6.189   3.570
 7429SOL    HW223187   5.892   6.167   3.408
 7430SOL     OW23188   0.836   4.052   4.347
 7430SOL    HW123189   0.864   3.990   4.420
 7430SOL    HW223190   0.759   4.107   4.378
 7431SOL     OW23191   0.101   3.425   2.860
 7431SOL    HW123192   0.025   3.489   2.849
 7431SOL    HW223193   0.183   3.475   2.890
 7432SOL     OW23194   2.084   6.182   5.567
 7432SOL    HW123195   2.065   6.089   5.601
 7432SOL    HW223196   2.016   6.206   5.498
 7433SOL     OW23197   0.606   0.005   0.669
 7433SOL    HW123198   0.620   0.020   0.571
 7433SOL    HW223199   0.602   6.928   0.687
 7434SOL     OW23200   4.250   6.865   0.533
 7434SOL    HW123201   4.330   6.894   0.480
 7434SOL    HW223202   4.224   6.772   0.506
 7435SOL     OW23203   1.100   4.796   6.820
 7435SOL    HW123204   1.071   4.793   6.916
 7435SOL    HW223205   1.053   4.871   6.773
 7436SOL     OW23206   5.457   3.648   6.894
 7436SOL    HW123207   5.369   3.651   6.846
 7436SOL    HW223208   5.487   3.553   6.901
 7437SOL     OW23209   6.828   6.717   5.489
 7437SOL    HW123210   6.908   6.718   5.550
 7437SOL    HW223211   6.754   6.768   5.532
 7438SOL     OW23212   6.585   4.354   0.542
 7438SOL    HW123213   6.534   4.309   0.616
 7438SOL    HW223214   6.678   4.373   0.572
 7439SOL     OW23215   1.479   6.434   3.082
 7439SOL    HW123216   1.511   6.505   3.019
 7439SOL    HW223217   1.379   6.426   3.074
 7440SOL     OW23218   1.270   0.915   4.569
 7440SOL    HW123219   1.367   0.890   4.567
 7440SOL    HW223220   1.227   0.887   4.483
 7441SOL     OW23221   6.991   0.648   4.117
 7441SOL    HW123222   7.021   0.691   4.033
 7441SOL    HW223223   0.045   0.595   4.157
 7442SOL     OW23224   2.105   0.993   0.265
 7442SOL    HW123225   2.130   1.069   0.325
 7442SOL    HW223226   2.008   0.973   0.275
 7443SOL     OW23227   6.483   1.729   1.477
 7443SOL    HW123228   6.417   1.803   1.466
 7443SOL    HW223229   6.479   1.694   1.570
 7444SOL     OW23230   1.856   3.160   5.242
 7444SOL    HW123231   1.852   3.193   5.148
 7444SOL    HW223232   1.782   3.094   5.257
 7445SOL     OW23233   5.730   3.087   2.803
 7445SOL    HW123234   5.662   3.042   2.861
 7445SOL    HW223235   5.685   3.129   2.725
 7446SOL     OW23236   4.626   4.296   2.618
 7446SOL    HW123237   4.632   4.201   2.648
 7446SOL    HW223238   4.642   4.357   2.695
 7447SOL     OW23239   1.532   3.015   6.759
 7447SOL    HW123240   1.466   2.942   6.779
 7447SOL    HW223241   1.562   3.057   6.844
 7448SOL     OW23242   0.247   0.913   5.736
 7448SOL    HW123243   0.243   0.819   5.771
 7448SOL    HW223244   0.320   0.921   5.669
 7449SOL     OW23245   3.054   1.145   3.026
 7449SOL    HW123246   3.026   1.133   3.121
 7449SOL    HW223247   3.058   1.242   3.005
 7450SOL     OW23248   4.022   1.746   2.310
 7450SOL    HW123249   4.027   1.646   2.307
 7450SOL    HW223250   3.950   1.777   2.248
 7451SOL     OW23251   0.825   0.536   1.869
 7451SOL    HW123252   0.875   0.615   1.834
 7451SOL    HW223253   0.728   0.557   1.874
 7452SOL     OW23254   1.788   5.853   3.096
 7452SOL    HW123255   1.849   5.925   3.131
 7452SOL    HW223256   1.843   5.780   3.056
 7453SOL     OW23257   6.398   4.475   5.069
 7453SOL    HW123258   6.401   4.422   5.154
 7453SOL    HW223259   6.440   4.564   5.084
 7454SOL     OW23260   2.534   2.121   0.127
 7454SOL    HW123261   2.608   2.135   0.193
 7454SOL    HW223262   2.541   2.029   0.088
 7455SOL     OW23263   4.976   0.061   1.044
 7455SOL    HW123264   5.036   0.139   1.025
 7455SOL    HW223265   4.941   0.068   1.137
 7456SOL     OW23266   1.376   3.301   6.119
 7456SOL    HW123267   1.427   3.384   6.099
 7456SOL    HW223268   1.278   3.321   6.124
 7457SOL     OW23269   0.207   6.764   5.855
 7457SOL    HW123270   0.137   6.805   5.914
 7457SOL    HW223271   0.283   6.828   5.843
 7458SOL     OW23272   2.674   0.299   1.754
 7458SOL    HW123273   2.629   0.384   1.727
 7458SOL    HW223274   2.773   0.309   1.740
 7459SOL     OW23275   3.820   5.754   3.162
 7459SOL    HW123276   3.916   5.726   3.161
 7459SOL    HW223277   3.768   5.691   3.220
 7460SOL     OW23278   0.893   5.286   6.373
 7460SOL    HW123279   0.970   5.299   6.436
 7460SOL    HW223280   0.922   5.227   6.298
 7461SOL     OW23281   3.681   1.606   3.635
 7461SOL    HW123282   3.722   1.619   3.725
 7461SOL    HW223283   3.751   1.577   3.570
 7462SOL     OW23284   1.708   2.028   4.185
 7462SOL    HW123285   1.799   2.005   4.219
 7462SOL    HW223286   1.641   1.967   4.226
 7463SOL     OW23287   3.854   4.017   2.716
 7463SOL    HW123288   3.929   3.950   2.713
 7463SOL    HW223289   3.873   4.084   2.788
 7464SOL     OW23290   4.692   5.876   0.278
 7464SOL    HW123291   4.734   5.791   0.309
 7464SOL    HW223292   4.677   5.937   0.356
 7465SOL     OW23293   3.183   1.655   3.111
 7465SOL    HW123294   3.104   1.692   3.063
 7465SOL    HW223295   3.265   1.706   3.086
 7466SOL     OW23296   0.127   6.573   0.854
 7466SOL    HW123297   0.116   6.647   0.787
 7466SOL    HW223298   0.169   6.494   0.809
 7467SOL     OW23299   4.459   2.326   1.215
 7467SOL    HW123300   4.446   2.271   1.133
 7467SOL    HW223301   4.485   2.266   1.291
 7468SOL     OW23302   4.857   4.890   4.318
 7468SOL    HW123303   4.779   4.951   4.331
 7468SOL    HW223304   4.936   4.927   4.367
 7469SOL     OW23305   5.391   2.186   1.498
 7469SOL    HW123306   5.421   2.106   1.447
 7469SOL    HW223307   5.414   2.174   1.595
 7470SOL     OW23308   0.692   3.666   3.287
 7470SOL    HW123309   0.605   3.653   3.240
 7470SOL    HW223310   0.728   3.577   3.317
 7471SOL     OW23311   6.776   4.169   5.555
 7471SOL    HW123312   6.819   4.202   5.472
 7471SOL    HW223313   6.834   4.101   5.600
 7472SOL     OW23314   4.564   5.592   3.079
 7472SOL    HW123315   4.628   5.665   3.102
 7472SOL    HW223316   4.610   5.525   3.021
 7473SOL     OW23317   1.640   2.231   6.308
 7473SOL    HW123318   1.721   2.196   6.356
 7473SOL    HW223319   1.559   2.182   6.340
 7474SOL     OW23320   2.642   1.238   2.169
 7474SOL    HW123321   2.662   1.164   2.233
 7474SOL    HW223322   2.603   1.200   2.085
 7475SOL     OW23323   4.971   1.121   6.276
 7475SOL    HW123324   4.992   1.034   6.231
 7475SOL    HW223325   5.015   1.123   6.366
 7476SOL     OW23326   1.795   6.539   4.743
 7476SOL    HW123327   1.793   6.482   4.825
 7476SOL    HW223328   1.888   6.542   4.707
 7477SOL     OW23329   4.552   4.623   4.842
 7477SOL    HW123330   4.468   4.596   4.889
 7477SOL    HW223331   4.604   4.685   4.900
 7478SOL     OW23332   0.194   4.560   1.467
 7478SOL    HW123333   0.180   4.630   1.398
 7478SOL    HW223334   0.114   4.499   1.470
 7479SOL     OW23335   3.654   0.154   4.600
 7479SOL    HW123336   3.742   0.119   4.566
 7479SOL    HW223337   3.670   0.227   4.666
 7480SOL     OW23338   5.645   5.001   0.196
 7480SOL    HW123339   5.583   5.055   0.252
 7480SOL    HW223340   5.613   5.001   0.101
 7481SOL     OW23341   5.831   6.284   0.385
 7481SOL    HW123342   5.926   6.311   0.403
 7481SOL    HW223343   5.809   6.302   0.289
 7482SOL     OW23344   4.554   0.284   5.122
 7482SOL    HW123345   4.554   0.205   5.183
 7482SOL    HW223346   4.547   0.253   5.027
 7483SOL     OW23347   3.594   0.240   7.006
 7483SOL    HW123348   3.684   0.282   6.992
 7483SOL    HW223349   3.547   0.287   0.059
 7484SOL     OW23350   3.032   6.454   1.267
 7484SOL    HW123351   3.113   6.407   1.233
 7484SOL    HW223352   3.059   6.531   1.325
 7485SOL     OW23353   1.035   6.963   5.257
 7485SOL    HW123354   1.109   7.006   5.205
 7485SOL    HW223355   0.956   0.002   5.259
 7486SOL     OW23356   1.518   2.077   4.990
 7486SOL    HW123357   1.533   2.176   4.982
 7486SOL    HW223358   1.422   2.060   5.010
 7487SOL     OW23359   2.736   5.760   2.343
 7487SOL    HW123360   2.802   5.830   2.371
 7487SOL    HW223361   2.756   5.674   2.390
 7488SOL     OW23362   4.583   1.894   4.865
 7488SOL    HW123363   4.637   1.955   4.922
 7488SOL    HW223364   4.515   1.947   4.813
 7489SOL     OW23365   1.078   3.304   3.483
 7489SOL    HW123366   1.007   3.262   3.426
 7489SOL    HW223367   1.104   3.392   3.444
 7490SOL     OW23368   5.918   0.252   2.149
 7490SOL    HW123369   5.831   0.203   2.144
 7490SOL    HW223370   5.940   0.270   2.245
 7491SOL     OW23371   0.910   0.134   0.806
 7491SOL    HW123372   0.924   0.115   0.709
 7491SOL    HW223373   0.859   0.220   0.816
 7492SOL     OW23374   1.356   2.519   2.760
 7492SOL    HW123375   1.271   2.470   2.738
 7492SOL    HW223376   1.339   2.618   2.754
 7493SOL     OW23377   5.904   4.250   6.807
 7493SOL    HW123378   5.837   4.180   6.831
 7493SOL    HW223379   5.924   4.305   6.888
 7494SOL     OW23380   4.769   1.846   1.524
 7494SOL    HW123381   4.741   1.930   1.477
 7494SOL    HW223382   4.733   1.848   1.618
 7495SOL     OW23383   1.568   1.628   3.534
 7495SOL    HW123384   1.647   1.567   3.524
 7495SOL    HW223385   1.507   1.617   3.456
 7496SOL     OW23386   0.364   5.143   6.079
 7496SOL    HW123387   0.364   5.225   6.021
 7496SOL    HW223388   0.376   5.170   6.174
 7497SOL     OW23389   0.683   4.603   3.177
 7497SOL    HW123390   0.776   4.633   3.157
 7497SOL    HW223391   0.669   4.606   3.276
 7498SOL     OW23392   5.538   1.955   4.232
 7498SOL    HW123393   5.630   1.985   4.254
 7498SOL    HW223394   5.476   2.034   4.231
 7499SOL     OW23395   3.813   5.259   3.425
 7499SOL    HW123396   3.733   5.304   3.466
 7499SOL    HW223397   3.791   5.230   3.332
 7500SOL     OW23398   4.834   4.032   1.518
 7500SOL    HW123399   4.779   4.109   1.551
 7500SOL    HW223400   4.910   4.015   1.581
 7501SOL     OW23401   1.352   3.832   3.567
 7501SOL    HW123402   1.353   3.885   3.482
 7501SOL    HW223403   1.422   3.760   3.562
 7502SOL     OW23404   1.253   1.794   4.168
 7502SOL    HW123405   1.178   1.758   4.112
 7502SOL    HW223406   1.335   1.739   4.153
 7503SOL     OW23407   2.167   1.989   0.101
 7503SOL    HW123408   2.207   1.897   0.090
 7503SOL    HW223409   2.071   1.981   0.128
 7504SOL     OW23410   5.547   5.680   5.464
 7504SOL    HW123411   5.484   5.742   5.512
 7504SOL    HW223412   5.508   5.587   5.465
 7505SOL     OW23413   1.502   1.941   3.158
 7505SOL    HW123414   1.510   2.028   3.109
 7505SOL    HW223415   1.408   1.907   3.151
 7506SOL     OW23416   3.741   0.579   3.218
 7506SOL    HW123417   3.832   0.600   3.181
 7506SOL    HW223418   3.706   0.496   3.175
 7507SOL     OW23419   1.756   0.041   5.375
 7507SOL    HW123420   1.795   0.075   5.290
 7507SOL    HW223421   1.788   0.096   5.451
 7508SOL     OW23422   5.274   6.050   3.309
 7508SOL    HW123423   5.229   6.108   3.376
 7508SOL    HW223424   5.330   6.106   3.248
 7509SOL     OW23425   3.204   4.418   6.189
 7509SOL    HW123426   3.243   4.354   6.255
 7509SOL    HW223427   3.275   4.483   6.161
 7510SOL     OW23428   4.061   3.231   5.173
 7510SOL    HW123429   4.053   3.245   5.074
 7510SOL    HW223430   3.971   3.212   5.211
 7511SOL     OW23431   1.389   1.020   2.266
 7511SOL    HW123432   1.383   0.922   2.283
 7511SOL    HW223433   1.462   1.038   2.201
 7512SOL     OW23434   2.210   2.462   2.219
 7512SOL    HW123435   2.228   2.558   2.242
 7512SOL    HW223436   2.115   2.440   2.240
 7513SOL     OW23437   2.498   2.717   0.103
 7513SOL    HW123438   2.533   2.747   0.014
 7513SOL    HW223439   2.401   2.743   0.110
 7514SOL     OW23440   3.028   5.110   2.888
 7514SOL    HW123441   3.014   5.175   2.963
 7514SOL    HW223442   3.090   5.150   2.821
 7515SOL     OW23443   0.292   4.789   3.126
 7515SOL    HW123444   0.204   4.753   3.095
 7515SOL    HW223445   0.319   4.742   3.210
 7516SOL     OW23446   2.099   3.382   1.158
 7516SOL    HW123447   2.190   3.416   1.182
 7516SOL    HW223448   2.035   3.404   1.232
 7517SOL     OW23449   1.378   4.852   1.856
 7517SOL    HW123450   1.362   4.769   1.908
 7517SOL    HW223451   1.463   4.896   1.888
 7518SOL     OW23452   5.251   3.904   2.209
 7518SOL    HW123453   5.165   3.914   2.158
 7518SOL    HW223454   5.254   3.814   2.252
 7519SOL     OW23455   1.715   0.451   5.077
 7519SOL    HW123456   1.718   0.546   5.108
 7519SOL    HW223457   1.637   0.405   5.119
 7520SOL     OW23458   1.956   0.207   4.730
 7520SOL    HW123459   1.902   0.187   4.648
 7520SOL    HW223460   2.007   0.125   4.757
 7521SOL     OW23461   4.422   2.562   5.911
 7521SOL    HW123462   4.410   2.642   5.969
 7521SOL    HW223463   4.493   2.581   5.843
 7522SOL     OW23464   2.114   6.447   2.540
 7522SOL    HW123465   2.199   6.484   2.501
 7522SOL    HW223466   2.039   6.510   2.522
 7523SOL     OW23467   6.417   6.620   6.349
 7523SOL    HW123468   6.360   6.538   6.358
 7523SOL    HW223469   6.462   6.639   6.436
 7524SOL     OW23470   6.722   1.567   5.346
 7524SOL    HW123471   6.772   1.496   5.297
 7524SOL    HW223472   6.786   1.636   5.378
 7525SOL     OW23473   0.307   6.861   0.650
 7525SOL    HW123474   0.343   6.951   0.625
 7525SOL    HW223475   0.221   6.872   0.700
 7526SOL     OW23476   3.969   2.983   5.444
 7526SOL    HW123477   3.921   3.039   5.376
 7526SOL    HW223478   4.025   2.915   5.397
 7527SOL     OW23479   2.646   6.577   1.956
 7527SOL    HW123480   2.696   6.496   1.925
 7527SOL    HW223481   2.672   6.655   1.899
 7528SOL     OW23482   6.314   2.800   0.038
 7528SOL    HW123483   6.308   2.882   0.094
 7528SOL    HW223484   6.343   2.825   6.967
 7529SOL     OW23485   1.745   0.122   3.993
 7529SOL    HW123486   1.699   0.183   3.929
 7529SOL    HW223487   1.822   0.170   4.035
 7530SOL     OW23488   0.313   2.963   3.048
 7530SOL    HW123489   0.345   2.968   3.143
 7530SOL    HW223490   0.277   2.871   3.030
 7531SOL     OW23491   1.425   2.356   3.881
 7531SOL    HW123492   1.518   2.372   3.847
 7531SOL    HW223493   1.414   2.259   3.902
 7532SOL     OW23494   4.679   4.292   2.072
 7532SOL    HW123495   4.678   4.324   2.167
 7532SOL    HW223496   4.586   4.290   2.036
 7533SOL     OW23497   3.335   0.608   5.289
 7533SOL    HW123498   3.307   0.512   5.291
 7533SOL    HW223499   3.254   0.665   5.271
 7534SOL     OW23500   4.493   6.139   4.203
 7534SOL    HW123501   4.536   6.206   4.141
 7534SOL    HW223502   4.499   6.172   4.297
 7535SOL     OW23503   2.921   5.315   6.792
 7535SOL    HW123504   2.854   5.344   6.724
 7535SOL    HW223505   2.947   5.220   6.776
 7536SOL     OW23506   4.533   5.077   6.364
 7536SOL    HW123507   4.514   5.045   6.457
 7536SOL    HW223508   4.628   5.107   6.358
 7537SOL     OW23509   2.413   4.388   4.643
 7537SOL    HW123510   2.480   4.316   4.663
 7537SOL    HW223511   2.377   4.376   4.551
 7538SOL     OW23512   3.319   4.380   5.447
 7538SOL    HW123513   3.386   4.454   5.438
 7538SOL    HW223514   3.244   4.394   5.383
 7539SOL     OW23515   0.739   2.718   4.912
 7539SOL    HW123516   0.701   2.626   4.905
 7539SOL    HW223517   0.664   2.785   4.916
 7540SOL     OW23518   2.626   0.923   0.208
 7540SOL    HW123519   2.540   0.900   0.163
 7540SOL    HW223520   2.649   1.018   0.191
 7541SOL     OW23521   0.302   2.104   5.981
 7541SOL    HW123522   0.336   2.018   6.020
 7541SOL    HW223523   0.325   2.108   5.884
 7542SOL     OW23524   1.529   0.275   5.202
 7542SOL    HW123525   1.469   0.329   5.143
 7542SOL    HW223526   1.560   0.194   5.153
 7543SOL     OW23527   2.710   2.433   1.757
 7543SOL    HW123528   2.652   2.471   1.830
 7543SOL    HW223529   2.799   2.409   1.793
 7544SOL     OW23530   1.248   1.976   2.177
 7544SOL    HW123531   1.225   1.946   2.085
 7544SOL    HW223532   1.169   1.962   2.237
 7545SOL     OW23533   4.663   0.140   3.498
 7545SOL    HW123534   4.642   0.047   3.468
 7545SOL    HW223535   4.578   0.190   3.515
 7546SOL     OW23536   5.014   6.783   5.559
 7546SOL    HW123537   5.080   6.850   5.526
 7546SOL    HW223538   4.927   6.795   5.512
 7547SOL     OW23539   2.616   6.434   0.369
 7547SOL    HW123540   2.605   6.533   0.377
 7547SOL    HW223541   2.678   6.401   0.441
 7548SOL     OW23542   2.708   3.872   0.704
 7548SOL    HW123543   2.742   3.965   0.719
 7548SOL    HW223544   2.753   3.809   0.768
 7549SOL     OW23545   6.320   0.126   2.474
 7549SOL    HW123546   6.408   0.094   2.509
 7549SOL    HW223547   6.262   0.155   2.550
 7550SOL     OW23548   1.065   5.175   0.706
 7550SOL    HW123549   1.106   5.236   0.638
 7550SOL    HW223550   1.114   5.087   0.705
 7551SOL     OW23551   4.961   3.614   6.115
 7551SOL    HW123552   4.894   3.622   6.041
 7551SOL    HW223553   4.940   3.534   6.171
 7552SOL     OW23554   3.830   5.838   4.123
 7552SOL    HW123555   3.854   5.801   4.033
 7552SOL    HW223556   3.792   5.766   4.180
 7553SOL     OW23557   4.347   4.156   5.964
 7553SOL    HW123558   4.325   4.113   5.876
 7553SOL    HW223559   4.264   4.167   6.018
 7554SOL     OW23560   0.009   1.626   0.915
 7554SOL    HW123561   6.937   1.657   0.894
 7554SOL    HW223562   0.038   1.666   1.002
 7555SOL     OW23563   2.252   6.349   5.925
 7555SOL    HW123564   2.269   6.261   5.970
 7555SOL    HW223565   2.266   6.422   5.991
 7556SOL     OW23566   0.073   3.405   2.421
 7556SOL    HW123567   0.131   3.425   2.500
 7556SOL    HW223568   0.015   3.326   2.442
 7557SOL     OW23569   4.429   4.194   0.802
 7557SOL    HW123570   4.427   4.252   0.720
 7557SOL    HW223571   4.378   4.109   0.784
 7558SOL     OW23572   1.837   3.006   3.678
 7558SOL    HW123573   1.859   2.956   3.594
 7558SOL    HW223574   1.910   2.994   3.745
 7559SOL     OW23575   0.709   5.116   0.173
 7559SOL    HW123576   0.765   5.100   0.092
 7559SOL    HW223577   0.758   5.087   0.255
 7560SOL     OW23578   4.422   0.031   6.067
 7560SOL    HW123579   4.427   7.010   6.158
 7560SOL    HW223580   4.376   6.989   6.004
 7561SOL     OW23581   1.281   3.154   0.260
 7561SOL    HW123582   1.183   3.142   0.281
 7561SOL    HW223583   1.319   3.067   0.231
 7562SOL     OW23584   4.224   6.220   5.068
 7562SOL    HW123585   4.168   6.302   5.078
 7562SOL    HW223586   4.211   6.181   4.977
 7563SOL     OW23587   1.971   1.571   3.940
 7563SOL    HW123588   2.069   1.566   3.959
 7563SOL    HW223589   1.957   1.578   3.841
 7564SOL     OW23590   6.297   5.683   4.452
 7564SOL    HW123591   6.209   5.662   4.408
 7564SOL    HW223592   6.285   5.683   4.551
 7565SOL     OW23593   5.229   4.733   6.503
 7565SOL    HW123594   5.267   4.789   6.577
 7565SOL    HW223595   5.270   4.642   6.506
 7566SOL     OW23596   1.635   5.233   4.141
 7566SOL    HW123597   1.685   5.166   4.086
 7566SOL    HW223598   1.659   5.222   4.237
 7567SOL     OW23599   2.813   3.453   0.206
 7567SOL    HW123600   2.861   3.524   0.155
 7567SOL    HW223601   2.878   3.403   0.264
 7568SOL     OW23602   4.209   4.751   3.770
 7568SOL    HW123603   4.113   4.730   3.752
 7568SOL    HW223604   4.252   4.782   3.685
 7569SOL     OW23605   4.035   0.549   2.890
 7569SOL    HW123606   4.079   0.546   2.800
 7569SOL    HW223607   3.936   0.554   2.878
 7570SOL     OW23608   5.437   4.741   4.947
 7570SOL    HW123609   5.371   4.738   4.872
 7570SOL    HW223610   5.391   4.768   5.031
 7571SOL     OW23611   6.469   4.089   0.234
 7571SOL    HW123612   6.423   4.011   0.277
 7571SOL    HW223613   6.445   4.093   0.137
 7572SOL     OW23614   5.971   1.686   3.534
 7572SOL    HW123615   5.898   1.683   3.602
 7572SOL    HW223616   5.937   1.646   3.448
 7573SOL     OW23617   3.252   5.250   3.933
 7573SOL    HW123618   3.312   5.176   3.964
 7573SOL    HW223619   3.157   5.221   3.938
 7574SOL     OW23620   4.186   5.827   1.462
 7574SOL    HW123621   4.163   5.746   1.516
 7574SOL    HW223622   4.240   5.890   1.517
 7575SOL     OW23623   5.054   3.155   4.260
 7575SOL    HW123624   5.145   3.131   4.227
 7575SOL    HW223625   5.058   3.180   4.357
 7576SOL     OW23626   0.378   4.448   1.652
 7576SOL    HW123627   0.324   4.480   1.575
 7576SOL    HW223628   0.326   4.378   1.702
 7577SOL     OW23629   4.197   1.468   3.938
 7577SOL    HW123630   4.126   1.531   3.904
 7577SOL    HW223631   4.178   1.445   4.033
 7578SOL     OW23632   2.172   5.475   5.405
 7578SOL    HW123633   2.161   5.405   5.475
 7578SOL    HW223634   2.213   5.557   5.446
 7579SOL     OW23635   4.574   2.051   4.558
 7579SOL    HW123636   4.590   2.098   4.472
 7579SOL    HW223637   4.659   2.048   4.611
 7580SOL     OW23638   2.130   3.185   2.099
 7580SOL    HW123639   2.183   3.261   2.060
 7580SOL    HW223640   2.076   3.142   2.028
 7581SOL     OW23641   5.670   1.155   1.215
 7581SOL    HW123642   5.627   1.219   1.278
 7581SOL    HW223643   5.630   1.064   1.227
 7582SOL     OW23644   4.168   2.903   1.574
 7582SOL    HW123645   4.117   2.918   1.490
 7582SOL    HW223646   4.137   2.967   1.644
 7583SOL     OW23647   6.858   3.937   3.573
 7583SOL    HW123648   6.916   3.859   3.545
 7583SOL    HW223649   6.904   4.022   3.549
 7584SOL     OW23650   2.048   2.526   1.961
 7584SOL    HW123651   1.993   2.610   1.965
 7584SOL    HW223652   2.076   2.501   2.053
 7585SOL     OW23653   2.893   4.183   0.875
 7585SOL    HW123654   2.967   4.162   0.810
 7585SOL    HW223655   2.851   4.099   0.906
 7586SOL     OW23656   1.919   2.332   3.240
 7586SOL    HW123657   1.938   2.430   3.238
 7586SOL    HW223658   2.001   2.284   3.272
 7587SOL     OW23659   3.091   0.728   5.788
 7587SOL    HW123660   3.150   0.648   5.801
 7587SOL    HW223661   3.137   0.809   5.823
 7588SOL     OW23662   0.654   4.906   1.256
 7588SOL    HW123663   0.667   4.930   1.352
 7588SOL    HW223664   0.557   4.911   1.233
 7589SOL     OW23665   5.003   5.828   6.038
 7589SOL    HW123666   4.980   5.925   6.046
 7589SOL    HW223667   4.941   5.774   6.096
 7590SOL     OW23668   2.230   0.804   5.163
 7590SOL    HW123669   2.205   0.749   5.084
 7590SOL    HW223670   2.293   0.876   5.135
 7591SOL     OW23671   6.451   5.745   6.240
 7591SOL    HW123672   6.544   5.758   6.275
 7591SOL    HW223673   6.402   5.831   6.242
 7592SOL     OW23674   4.334   4.816   5.982
 7592SOL    HW123675   4.362   4.722   5.999
 7592SOL    HW223676   4.384   4.853   5.904
 7593SOL     OW23677   6.798   4.687   0.275
 7593SOL    HW123678   6.710   4.707   0.233
 7593SOL    HW223679   6.808   4.588   0.287
 7594SOL     OW23680   0.897   6.802   4.277
 7594SOL    HW123681   0.850   6.827   4.192
 7594SOL    HW223682   0.982   6.854   4.285
 7595SOL     OW23683   0.132   3.553   6.499
 7595SOL    HW123684   0.074   3.503   6.435
 7595SOL    HW223685   0.173   3.489   6.565
 7596SOL     OW23686   5.033   5.190   2.056
 7596SOL    HW123687   5.117   5.199   2.109
 7596SOL    HW223688   5.030   5.099   2.014
 7597SOL     OW23689   2.232   4.054   2.286
 7597SOL    HW123690   2.278   4.089   2.204
 7597SOL    HW223691   2.232   3.954   2.284
 7598SOL     OW23692   6.623   1.369   2.605
 7598SOL    HW123693   6.540   1.399   2.559
 7598SOL    HW223694   6.680   1.448   2.627
 7599SOL     OW23695   5.472   3.698   1.999
 7599SOL    HW123696   5.451   3.611   2.045
 7599SOL    HW223697   5.394   3.724   1.942
 7600SOL     OW23698   2.338   2.064   2.631
 7600SOL    HW123699   2.398   2.083   2.553
 7600SOL    HW223700   2.393   2.047   2.712
 7601SOL     OW23701   2.013   0.873   5.702
 7601SOL    HW123702   1.921   0.835   5.707
 7601SOL    HW223703   2.060   0.836   5.621
 7602SOL     OW23704   1.917   2.974   5.685
 7602SOL    HW123705   2.009   2.955   5.651
 7602SOL    HW223706   1.919   3.056   5.741
 7603SOL     OW23707   6.639   1.703   2.304
 7603SOL    HW123708   6.698   1.622   2.302
 7603SOL    HW223709   6.617   1.730   2.210
 7604SOL     OW23710   5.549   5.734   6.332
 7604SOL    HW123711   5.511   5.707   6.421
 7604SOL    HW223712   5.542   5.658   6.268
 7605SOL     OW23713   5.150   3.537   5.571
 7605SOL    HW123714   5.148   3.501   5.477
 7605SOL    HW223715   5.195   3.471   5.631
 7606SOL     OW23716   5.695   1.546   3.882
 7606SOL    HW123717   5.756   1.467   3.876
 7606SOL    HW223718   5.716   1.599   3.964
 7607SOL     OW23719   5.085   6.212   5.882
 7607SOL    HW123720   5.138   6.148   5.825
 7607SOL    HW223721   5.146   6.260   5.945
 7608SOL     OW23722   3.713   3.720   5.013
 7608SOL    HW123723   3.692   3.690   4.919
 7608SOL    HW223724   3.680   3.813   5.026
 7609SOL     OW23725   1.322   2.774   3.015
 7609SOL    HW123726   1.355   2.681   3.034
 7609SOL    HW223727   1.247   2.770   2.948
 7610SOL     OW23728   5.440   0.320   2.264
 7610SOL    HW123729   5.486   0.375   2.194
 7610SOL    HW223730   5.504   0.297   2.337
 7611SOL     OW23731   1.532   1.471   1.895
 7611SOL    HW123732   1.471   1.410   1.844
 7611SOL    HW223733   1.479   1.547   1.932
 7612SOL     OW23734   4.391   1.120   2.904
 7612SOL    HW123735   4.382   1.106   3.002
 7612SOL    HW223736   4.310   1.167   2.869
 7613SOL     OW23737   6.601   0.697   2.063
 7613SOL    HW123738   6.690   0.652   2.063
 7613SOL    HW223739   6.534   0.637   2.106
 7614SOL     OW23740   4.112   0.814   0.870
 7614SOL    HW123741   4.054   0.805   0.789
 7614SOL    HW223742   4.180   0.885   0.854
 7615SOL     OW23743   3.938   4.600   5.759
 7615SOL    HW123744   3.959   4.577   5.854
 7615SOL    HW223745   3.840   4.584   5.742
 7616SOL     OW23746   0.033   6.072   3.645
 7616SOL    HW123747   0.061   6.009   3.717
 7616SOL    HW223748   0.086   6.157   3.653
 7617SOL     OW23749   3.987   5.455   3.402
 7617SOL    HW123750   3.966   5.541   3.449
 7617SOL    HW223751   3.919   5.386   3.426
 7618SOL     OW23752   3.273   1.765   0.340
 7618SOL    HW123753   3.251   1.795   0.433
 7618SOL    HW223754   3.316   1.675   0.343
 7619SOL     OW23755   5.508   3.176   5.713
 7619SOL    HW123756   5.494   3.077   5.713
 7619SOL    HW223757   5.490   3.212   5.621
 7620SOL     OW23758   2.632   5.450   1.826
 7620SOL    HW123759   2.674   5.537   1.852
 7620SOL    HW223760   2.541   5.443   1.866
 7621SOL     OW23761   2.724   2.873   1.385
 7621SOL    HW123762   2.693   2.873   1.290
 7621SOL    HW223763   2.774   2.789   1.404
 7622SOL     OW23764   5.238   2.182   1.127
 7622SOL    HW123765   5.255   2.092   1.086
 7622SOL    HW223766   5.175   2.172   1.204
 7623SOL     OW23767   6.971   0.025   4.904
 7623SOL    HW123768   6.877   7.020   4.884
 7623SOL    HW223769   6.973   0.119   4.938
 7624SOL     OW23770   6.569   1.292   4.989
 7624SOL    HW123771   6.581   1.198   5.021
 7624SOL    HW223772   6.472   1.315   4.989
 7625SOL     OW23773   2.465   4.599   0.577
 7625SOL    HW123774   2.464   4.675   0.642
 7625SOL    HW223775   2.383   4.603   0.520
 7626SOL     OW23776   2.698   4.013   5.300
 7626SOL    HW123777   2.745   3.926   5.286
 7626SOL    HW223778   2.604   4.006   5.267
 7627SOL     OW23779   6.663   0.600   0.294
 7627SOL    HW123780   6.593   0.672   0.295
 7627SOL    HW223781   6.633   0.525   0.235
 7628SOL     OW23782   4.399   1.256   0.433
 7628SOL    HW123783   4.363   1.297   0.517
 7628SOL    HW223784   4.463   1.183   0.457
 7629SOL     OW23785   6.053   5.580   2.609
 7629SOL    HW123786   5.976   5.639   2.584
 7629SOL    HW223787   6.125   5.635   2.650
 7630SOL     OW23788   5.428   1.589   1.975
 7630SOL    HW123789   5.331   1.611   1.972
 7630SOL    HW223790   5.463   1.579   1.882
 7631SOL     OW23791   1.186   0.087   4.179
 7631SOL    HW123792   1.206   0.172   4.130
 7631SOL    HW223793   1.091   0.062   4.164
 7632SOL     OW23794   4.390   0.855   4.584
 7632SOL    HW123795   4.369   0.770   4.536
 7632SOL    HW223796   4.445   0.835   4.665
 7633SOL     OW23797   5.922   3.466   6.166
 7633SOL    HW123798   5.842   3.406   6.165
 7633SOL    HW223799   5.936   3.501   6.259
 7634SOL     OW23800   0.973   2.452   1.667
 7634SOL    HW123801   1.047   2.386   1.682
 7634SOL    HW223802   0.907   2.446   1.742
 7635SOL     OW23803   2.119   4.521   5.426
 7635SOL    HW123804   2.127   4.457   5.502
 7635SOL    HW223805   2.198   4.511   5.366
 7636SOL     OW23806   0.967   1.229   3.556
 7636SOL    HW123807   1.031   1.300   3.584
 7636SOL    HW223808   0.899   1.267   3.493
 7637SOL     OW23809   3.212   6.118   4.236
 7637SOL    HW123810   3.208   6.151   4.142
 7637SOL    HW223811   3.238   6.021   4.235
 7638SOL     OW23812   4.650   4.904   1.786
 7638SOL    HW123813   4.703   4.828   1.822
 7638SOL    HW223814   4.584   4.935   1.855
 7639SOL     OW23815   0.864   2.228   4.577
 7639SOL    HW123816   0.925   2.305   4.559
 7639SOL    HW223817   0.865   2.207   4.675
 7640SOL     OW23818   1.989   2.933   6.285
 7640SOL    HW123819   2.057   2.981   6.339
 7640SOL    HW223820   1.989   2.970   6.191
 7641SOL     OW23821   6.131   3.464   1.917
 7641SOL    HW123822   6.092   3.411   1.992
 7641SOL    HW223823   6.106   3.422   1.830
 7642SOL     OW23824   1.061   2.460   2.597
 7642SOL    HW123825   1.093   2.401   2.523
 7642SOL    HW223826   1.070   2.556   2.569
 7643SOL     OW23827   5.438   3.656   3.480
 7643SOL    HW123828   5.414   3.753   3.474
 7643SOL    HW223829   5.418   3.611   3.393
 7644SOL     OW23830   6.020   2.741   3.604
 7644SOL    HW123831   6.002   2.644   3.584
 7644SOL    HW223832   5.964   2.798   3.543
 7645SOL     OW23833   4.217   3.048   0.814
 7645SOL    HW123834   4.294   3.082   0.759
 7645SOL    HW223835   4.131   3.079   0.773
 7646SOL     OW23836   0.871   0.349   2.386
 7646SOL    HW123837   0.874   0.395   2.297
 7646SOL    HW223838   0.959   0.305   2.403
 7647SOL     OW23839   2.455   4.403   6.847
 7647SOL    HW123840   2.484   4.308   6.837
 7647SOL    HW223841   2.394   4.412   6.925
 7648SOL     OW23842   2.582   0.546   3.576
 7648SOL    HW123843   2.567   0.597   3.661
 7648SOL    HW223844   2.628   0.460   3.596
 7649SOL     OW23845   3.737   2.024   1.076
 7649SOL    HW123846   3.794   2.001   1.155
 7649SOL    HW223847   3.764   2.112   1.038
 7650SOL     OW23848   6.832   5.089   0.730
 7650SOL    HW123849   6.829   5.177   0.776
 7650SOL    HW223850   6.922   5.077   0.687
 7651SOL     OW23851   5.491   2.016   6.009
 7651SOL    HW123852   5.407   2.018   6.063
 7651SOL    HW223853   5.514   2.108   5.979
 7652SOL     OW23854   0.717   3.188   2.342
 7652SOL    HW123855   0.622   3.202   2.366
 7652SOL    HW223856   0.735   3.089   2.336
 7653SOL     OW23857   4.583   2.472   2.087
 7653SOL    HW123858   4.650   2.543   2.105
 7653SOL    HW223859   4.539   2.488   1.999
 7654SOL     OW23860   5.356   3.733   5.220
 7654SOL    HW123861   5.322   3.703   5.309
 7654SOL    HW223862   5.426   3.803   5.233
 7655SOL     OW23863   4.819   4.841   6.360
 7655SOL    HW123864   4.737   4.801   6.319
 7655SOL    HW223865   4.876   4.769   6.399
 7656SOL     OW23866   0.146   0.684   5.145
 7656SOL    HW123867   0.229   0.723   5.185
 7656SOL    HW223868   0.139   0.588   5.168
 7657SOL     OW23869   3.475   1.889   3.656
 7657SOL    HW123870   3.489   1.800   3.614
 7657SOL    HW223871   3.508   1.961   3.594
 7658SOL     OW23872   4.108   0.877   5.850
 7658SOL    HW123873   4.060   0.905   5.767
 7658SOL    HW223874   4.117   0.955   5.911
 7659SOL     OW23875   5.271   6.296   6.074
 7659SOL    HW123876   5.288   6.374   6.134
 7659SOL    HW223877   5.353   6.239   6.069
 7660SOL     OW23878   5.150   5.229   3.385
 7660SOL    HW123879   5.213   5.291   3.337
 7660SOL    HW223880   5.171   5.230   3.483
 7661SOL     OW23881   5.969   3.229   3.558
 7661SOL    HW123882   5.914   3.312   3.567
 7661SOL    HW223883   6.054   3.250   3.509
 7662SOL     OW23884   6.105   5.725   3.439
 7662SOL    HW123885   6.182   5.662   3.435
 7662SOL    HW223886   6.047   5.702   3.518
 7663SOL     OW23887   0.827   6.419   6.766
 7663SOL    HW123888   0.892   6.358   6.721
 7663SOL    HW223889   0.858   6.513   6.758
 7664SOL     OW23890   4.193   5.209   4.815
 7664SOL    HW123891   4.271   5.155   4.784
 7664SOL    HW223892   4.225   5.277   4.881
 7665SOL     OW23893   1.977   5.347   3.567
 7665SOL    HW123894   1.951   5.444   3.571
 7665SOL    HW223895   2.073   5.338   3.593
 7666SOL     OW23896   2.215   0.166   2.516
 7666SOL    HW123897   2.212   0.178   2.417
 7666SOL    HW223898   2.202   0.069   2.538
 7667SOL     OW23899   5.736   0.021   5.704
 7667SOL    HW123900   5.815   6.983   5.712
 7667SOL    HW223901   5.654   6.993   5.733
 7668SOL     OW23902   3.302   2.927   2.813
 7668SOL    HW123903   3.267   2.933   2.720
 7668SOL    HW223904   3.391   2.973   2.819
 7669SOL     OW23905   4.650   6.549   4.965
 7669SOL    HW123906   4.602   6.538   4.878
 7669SOL    HW223907   4.716   6.475   4.976
 7670SOL     OW23908   1.904   6.001   1.075
 7670SOL    HW123909   1.818   6.018   1.027
 7670SOL    HW223910   1.924   6.077   1.136
 7671SOL     OW23911   4.540   2.422   4.768
 7671SOL    HW123912   4.575   2.335   4.803
 7671SOL    HW223913   4.476   2.460   4.834
 7672SOL     OW23914   5.754   0.016   1.717
 7672SOL    HW123915   5.695   0.097   1.717
 7672SOL    HW223916   5.756   6.997   1.808
 7673SOL     OW23917   2.024   3.780   0.200
 7673SOL    HW123918   2.108   3.776   0.146
 7673SOL    HW223919   1.945   3.784   0.139
 7674SOL     OW23920   6.003   1.131   5.280
 7674SOL    HW123921   6.090   1.177   5.297
 7674SOL    HW223922   5.928   1.195   5.295
 7675SOL     OW23923   5.237   0.476   3.255
 7675SOL    HW123924   5.296   0.529   3.194
 7675SOL    HW223925   5.264   0.380   3.253
 7676SOL     OW23926   1.992   0.158   1.304
 7676SOL    HW123927   1.957   0.160   1.398
 7676SOL    HW223928   1.939   0.223   1.249
 7677SOL     OW23929   1.725   2.653   2.680
 7677SOL    HW123930   1.815   2.682   2.712
 7677SOL    HW223931   1.688   2.584   2.742
 7678SOL     OW23932   4.836   6.613   5.799
 7678SOL    HW123933   4.781   6.625   5.882
 7678SOL    HW223934   4.900   6.690   5.790
 7679SOL     OW23935   1.679   5.060   4.760
 7679SOL    HW123936   1.601   5.109   4.799
 7679SOL    HW223937   1.657   4.962   4.754
 7680SOL     OW23938   4.296   0.618   0.925
 7680SOL    HW123939   4.235   0.695   0.942
 7680SOL    HW223940   4.387   0.651   0.901
 7681SOL     OW23941   3.924   2.051   5.696
 7681SOL    HW123942   3.943   1.961   5.655
 7681SOL    HW223943   3.900   2.039   5.792
 7682SOL     OW23944   2.685   0.839   0.460
 7682SOL    HW123945   2.680   0.822   0.362
 7682SOL    HW223946   2.706   0.935   0.477
 7683SOL     OW23947   7.007   3.282   3.383
 7683SOL    HW123948   6.973   3.205   3.328
 7683SOL    HW223949   6.950   3.293   3.464
 7684SOL     OW23950   3.957   1.596   5.888
 7684SOL    HW123951   4.043   1.605   5.939
 7684SOL    HW223952   3.957   1.510   5.837
 7685SOL     OW23953   4.377   4.893   1.603
 7685SOL    HW123954   4.310   4.953   1.646
 7685SOL    HW223955   4.395   4.815   1.663
 7686SOL     OW23956   2.191   0.629   2.603
 7686SOL    HW123957   2.116   0.647   2.666
 7686SOL    HW223958   2.161   0.650   2.510
 7687SOL     OW23959   4.846   4.152   5.561
 7687SOL    HW123960   4.803   4.185   5.645
 7687SOL    HW223961   4.781   4.095   5.511
 7688SOL     OW23962   6.747   0.787   3.513
 7688SOL    HW123963   6.752   0.798   3.414
 7688SOL    HW223964   6.730   0.876   3.555
 7689SOL     OW23965   3.308   0.194   5.051
 7689SOL    HW123966   3.280   0.249   5.130
 7689SOL    HW223967   3.314   0.098   5.077
 7690SOL     OW23968   0.890   5.492   2.892
 7690SOL    HW123969   0.835   5.539   2.822
 7690SOL    HW223970   0.861   5.522   2.983
 7691SOL     OW23971   6.622   3.614   5.503
 7691SOL    HW123972   6.554   3.662   5.448
 7691SOL    HW223973   6.583   3.592   5.593
 7692SOL     OW23974   1.568   6.293   1.203
 7692SOL    HW123975   1.504   6.230   1.247
 7692SOL    HW223976   1.613   6.247   1.127
 7693SOL     OW23977   4.371   0.821   0.618
 7693SOL    HW123978   4.368   0.869   0.706
 7693SOL    HW223979   4.415   0.732   0.630
 7694SOL     OW23980   5.714   4.950   3.595
 7694SOL    HW123981   5.722   5.015   3.519
 7694SOL    HW223982   5.773   4.980   3.670
 7695SOL     OW23983   5.070   0.254   6.634
 7695SOL    HW123984   5.118   0.301   6.561
 7695SOL    HW223985   4.999   0.313   6.671
 7696SOL     OW23986   1.241   4.185   5.226
 7696SOL    HW123987   1.210   4.234   5.145
 7696SOL    HW223988   1.319   4.233   5.266
 7697SOL     OW23989   4.616   0.595   2.424
 7697SOL    HW123990   4.675   0.524   2.463
 7697SOL    HW223991   4.628   0.680   2.475
 7698SOL     OW23992   0.314   1.858   6.252
 7698SOL    HW123993   0.312   1.941   6.308
 7698SOL    HW223994   0.403   1.849   6.208
 7699SOL     OW23995   3.413   3.482   1.630
 7699SOL    HW123996   3.513   3.482   1.638
 7699SOL    HW223997   3.375   3.416   1.695
 7700SOL     OW23998   5.081   0.302   5.049
 7700SOL    HW123999   5.099   0.235   4.977
 7700SOL    HW224000   5.145   0.378   5.039
 7701SOL     OW24001   6.143   2.045   5.148
 7701SOL    HW124002   6.128   2.114   5.077
 7701SOL    HW224003   6.122   1.954   5.111
 7702SOL     OW24004   1.484   6.422   6.915
 7702SOL    HW124005   1.534   6.508   6.907
 7702SOL    HW224006   1.459   6.389   6.824
 7703SOL     OW24007   0.627   1.990   6.820
 7703SOL    HW124008   0.695   1.967   6.890
 7703SOL    HW224009   0.628   2.089   6.804
 7704SOL     OW24010   3.608   4.018   1.415
 7704SOL    HW124011   3.613   4.117   1.396
 7704SOL    HW224012   3.547   4.003   1.492
 7705SOL     OW24013   3.963   3.934   4.510
 7705SOL    HW124014   3.904   3.953   4.588
 7705SOL    HW224015   3.955   4.009   4.444
 7706SOL     OW24016   6.139   1.242   5.775
 7706SOL    HW124017   6.050   1.285   5.759
 7706SOL    HW224018   6.127   1.143   5.783
 7707SOL     OW24019   6.999   4.972   6.371
 7707SOL    HW124020   0.053   4.910   6.352
 7707SOL    HW224021   6.949   4.940   6.451
 7708SOL     OW24022   4.705   1.202   4.981
 7708SOL    HW124023   4.607   1.217   4.972
 7708SOL    HW224024   4.737   1.242   5.067
 7709SOL     OW24025   3.654   2.727   1.237
 7709SOL    HW124026   3.636   2.675   1.154
 7709SOL    HW224027   3.572   2.726   1.295
 7710SOL     OW24028   3.361   1.927   6.500
 7710SOL    HW124029   3.280   1.961   6.453
 7710SOL    HW224030   3.410   2.004   6.543
 7711SOL     OW24031   4.484   6.296   4.958
 7711SOL    HW124032   4.464   6.372   4.897
 7711SOL    HW224033   4.398   6.260   4.995
 7712SOL     OW24034   6.313   4.332   6.007
 7712SOL    HW124035   6.290   4.282   6.091
 7712SOL    HW224036   6.411   4.355   6.008
 7713SOL     OW24037   0.377   5.197   6.377
 7713SOL    HW124038   0.390   5.290   6.343
 7713SOL    HW224039   0.281   5.184   6.401
 7714SOL     OW24040   5.264   4.831   4.691
 7714SOL    HW124041   5.192   4.765   4.668
 7714SOL    HW224042   5.316   4.854   4.609
 7715SOL     OW24043   3.854   2.117   1.534
 7715SOL    HW124044   3.875   2.177   1.611
 7715SOL    HW224045   3.841   2.023   1.568
 7716SOL     OW24046   4.178   2.238   4.756
 7716SOL    HW124047   4.173   2.307   4.828
 7716SOL    HW224048   4.090   2.191   4.747
 7717SOL     OW24049   2.945   6.913   6.896
 7717SOL    HW124050   2.995   6.924   6.809
 7717SOL    HW224051   2.879   6.838   6.887
 7718SOL     OW24052   1.989   6.219   3.396
 7718SOL    HW124053   2.089   6.221   3.395
 7718SOL    HW224054   1.956   6.264   3.479
 7719SOL     OW24055   5.404   2.326   5.484
 7719SOL    HW124056   5.436   2.415   5.452
 7719SOL    HW224057   5.305   2.330   5.501
 7720SOL     OW24058   4.712   6.520   1.292
 7720SOL    HW124059   4.689   6.436   1.341
 7720SOL    HW224060   4.751   6.497   1.203
 7721SOL     OW24061   0.881   4.962   2.874
 7721SOL    HW124062   0.887   5.053   2.915
 7721SOL    HW224063   0.962   4.945   2.819
 7722SOL     OW24064   0.668   5.595   3.659
 7722SOL    HW124065   0.620   5.547   3.585
 7722SOL    HW224066   0.633   5.688   3.666
 7723SOL     OW24067   6.917   1.966   6.419
 7723SOL    HW124068   6.817   1.955   6.411
 7723SOL    HW224069   6.957   1.973   6.328
 7724SOL     OW24070   2.547   6.315   6.568
 7724SOL    HW124071   2.601   6.395   6.596
 7724SOL    HW224072   2.561   6.298   6.470
 7725SOL     OW24073   5.052   4.203   3.514
 7725SOL    HW124074   5.093   4.123   3.470
 7725SOL    HW224075   5.088   4.213   3.607
 7726SOL     OW24076   5.372   5.387   3.292
 7726SOL    HW124077   5.368   5.377   3.192
 7726SOL    HW224078   5.361   5.483   3.316
 7727SOL     OW24079   6.054   3.774   2.156
 7727SOL    HW124080   6.068   3.756   2.059
 7727SOL    HW224081   6.002   3.699   2.197
 7728SOL     OW24082   2.156   2.861   3.079
 7728SOL    HW124083   2.175   2.794   3.008
 7728SOL    HW224084   2.059   2.856   3.105
 7729SOL     OW24085   5.366   1.767   6.297
 7729SOL    HW124086   5.461   1.759   6.268
 7729SOL    HW224087   5.321   1.678   6.288
 7730SOL     OW24088   4.574   6.437   2.631
 7730SOL    HW124089   4.661   6.400   2.598
 7730SOL    HW224090   4.591   6.513   2.694
 7731SOL     OW24091   6.214   1.493   3.827
 7731SOL    HW124092   6.239   1.587   3.808
 7731SOL    HW224093   6.151   1.490   3.905
 7732SOL     OW24094   4.445   4.407   1.216
 7732SOL    HW124095   4.526   4.434   1.268
 7732SOL    HW224096   4.363   4.430   1.268
 7733SOL     OW24097   3.362   5.483   1.268
 7733SOL    HW124098   3.293   5.430   1.317
 7733SOL    HW224099   3.320   5.532   1.192
 7734SOL     OW24100   1.617   3.037   2.007
 7734SOL    HW124101   1.615   2.940   1.985
 7734SOL    HW224102   1.526   3.076   1.991
 7735SOL     OW24103   5.777   4.267   0.421
 7735SOL    HW124104   5.732   4.191   0.375
 7735SOL    HW224105   5.710   4.317   0.476
 7736SOL     OW24106   5.938   4.485   6.570
 7736SOL    HW124107   5.990   4.399   6.570
 7736SOL    HW224108   5.841   4.465   6.575
 7737SOL     OW24109   4.863   2.662   0.178
 7737SOL    HW124110   4.793   2.629   0.114
 7737SOL    HW224111   4.887   2.756   0.154
 7738SOL     OW24112   1.766   4.938   6.517
 7738SOL    HW124113   1.751   5.034   6.539
 7738SOL    HW224114   1.853   4.927   6.469
 7739SOL     OW24115   5.592   4.278   2.015
 7739SOL    HW124116   5.495   4.273   1.989
 7739SOL    HW224117   5.649   4.245   1.940
 7740SOL     OW24118   6.826   6.047   3.476
 7740SOL    HW124119   6.844   5.950   3.463
 7740SOL    HW224120   6.897   6.087   3.535
 7741SOL     OW24121   3.044   5.192   3.602
 7741SOL    HW124122   3.104   5.118   3.631
 7741SOL    HW224123   2.965   5.197   3.663
 7742SOL     OW24124   6.610   0.560   4.617
 7742SOL    HW124125   6.623   0.496   4.541
 7742SOL    HW224126   6.648   0.522   4.701
 7743SOL     OW24127   4.978   3.480   2.546
 7743SOL    HW124128   4.995   3.387   2.513
 7743SOL    HW224129   4.883   3.487   2.577
 7744SOL     OW24130   0.280   6.643   5.057
 7744SOL    HW124131   0.187   6.679   5.063
 7744SOL    HW224132   0.276   6.543   5.055
 7745SOL     OW24133   5.618   2.605   5.506
 7745SOL    HW124134   5.562   2.599   5.423
 7745SOL    HW224135   5.635   2.701   5.527
 7746SOL     OW24136   2.022   0.858   6.187
 7746SOL    HW124137   1.990   0.812   6.104
 7746SOL    HW224138   2.087   0.800   6.235
 7747SOL     OW24139   4.833   5.639   0.377
 7747SOL    HW124140   4.899   5.599   0.314
 7747SOL    HW224141   4.859   5.618   0.471
 7748SOL     OW24142   2.129   3.823   6.547
 7748SOL    HW124143   2.214   3.871   6.572
 7748SOL    HW224144   2.060   3.838   6.618
 7749SOL     OW24145   5.886   3.142   5.976
 7749SOL    HW124146   5.806   3.107   5.927
 7749SOL    HW224147   5.887   3.242   5.970
 7750SOL     OW24148   4.210   5.445   2.891
 7750SOL    HW124149   4.152   5.427   2.970
 7750SOL    HW224150   4.297   5.397   2.901
 7751SOL     OW24151   0.778   2.316   1.160
 7751SOL    HW124152   0.868   2.357   1.147
 7751SOL    HW224153   0.764   2.294   1.257
 7752SOL     OW24154   3.184   0.977   2.809
 7752SOL    HW124155   3.163   1.073   2.791
 7752SOL    HW224156   3.255   0.946   2.746
 7753SOL     OW24157   4.186   0.731   5.605
 7753SOL    HW124158   4.117   0.670   5.567
 7753SOL    HW224159   4.147   0.785   5.679
 7754SOL     OW24160   4.434   5.950   1.232
 7754SOL    HW124161   4.338   5.963   1.254
 7754SOL    HW224162   4.486   5.934   1.315
 7755SOL     OW24163   1.184   3.734   6.119
 7755SOL    HW124164   1.158   3.639   6.132
 7755SOL    HW224165   1.267   3.739   6.062
 7756SOL     OW24166   1.710   3.712   2.040
 7756SOL    HW124167   1.769   3.633   2.057
 7756SOL    HW224168   1.720   3.741   1.945
 7757SOL     OW24169   1.168   4.480   0.078
 7757SOL    HW124170   1.146   4.577   0.074
 7757SOL    HW224171   1.120   4.432   0.005
 7758SOL     OW24172   0.068   0.999   5.436
 7758SOL    HW124173   0.088   0.982   5.340
 7758SOL    HW224174   0.140   1.056   5.475
 7759SOL     OW24175   3.605   1.286   2.720
 7759SOL    HW124176   3.704   1.299   2.732
 7759SOL    HW224177   3.564   1.373   2.693
 7760SOL     OW24178   4.866   2.965   0.205
 7760SOL    HW124179   4.770   2.993   0.209
 7760SOL    HW224180   4.908   3.004   0.123
 7761SOL     OW24181   5.438   5.510   2.870
 7761SOL    HW124182   5.430   5.608   2.890
 7761SOL    HW224183   5.382   5.458   2.934
 7762SOL     OW24184   4.466   1.716   0.488
 7762SOL    HW124185   4.371   1.687   0.479
 7762SOL    HW224186   4.526   1.645   0.451
 7763SOL     OW24187   1.741   0.779   3.497
 7763SOL    HW124188   1.714   0.770   3.402
 7763SOL    HW224189   1.786   0.867   3.511
 7764SOL     OW24190   3.812   4.590   5.321
 7764SOL    HW124191   3.865   4.656   5.372
 7764SOL    HW224192   3.873   4.520   5.283
 7765SOL     OW24193   6.535   4.322   4.518
 7765SOL    HW124194   6.614   4.273   4.480
 7765SOL    HW224195   6.455   4.307   4.459
 7766SOL     OW24196   6.743   2.088   5.663
 7766SOL    HW124197   6.830   2.100   5.711
 7766SOL    HW224198   6.756   2.105   5.565
 7767SOL     OW24199   4.239   0.537   3.794
 7767SOL    HW124200   4.268   0.623   3.834
 7767SOL    HW224201   4.296   0.462   3.829
 7768SOL     OW24202   3.687   5.865   3.517
 7768SOL    HW124203   3.709   5.962   3.509
 7768SOL    HW224204   3.769   5.815   3.545
 7769SOL     OW24205   3.727   2.048   6.518
 7769SOL    HW124206   3.754   2.143   6.500
 7769SOL    HW224207   3.630   2.045   6.542
 7770SOL     OW24208   1.345   2.968   3.737
 7770SOL    HW124209   1.440   2.999   3.734
 7770SOL    HW224210   1.337   2.887   3.794
 7771SOL     OW24211   0.910   3.970   5.051
 7771SOL    HW124212   0.922   3.873   5.029
 7771SOL    HW224213   0.864   3.978   5.140
 7772SOL     OW24214   4.935   5.419   1.928
 7772SOL    HW124215   5.003   5.352   1.955
 7772SOL    HW224216   4.875   5.380   1.858
 7773SOL     OW24217   2.898   6.546   6.693
 7773SOL    HW124218   2.997   6.547   6.710
 7773SOL    HW224219   2.878   6.487   6.615
 7774SOL     OW24220   5.277   0.982   2.784
 7774SOL    HW124221   5.277   1.071   2.829
 7774SOL    HW224222   5.245   0.912   2.848
 7775SOL     OW24223   3.681   1.713   1.119
 7775SOL    HW124224   3.694   1.812   1.126
 7775SOL    HW224225   3.597   1.687   1.167
 7776SOL     OW24226   2.726   1.492   3.802
 7776SOL    HW124227   2.795   1.458   3.867
 7776SOL    HW224228   2.758   1.578   3.763
 7777SOL     OW24229   4.937   5.109   3.285
 7777SOL    HW124230   4.872   5.060   3.342
 7777SOL    HW224231   5.014   5.139   3.341
 7778SOL     OW24232   0.913   3.061   1.470
 7778SOL    HW124233   0.816   3.077   1.452
 7778SOL    HW224234   0.959   3.034   1.385
 7779SOL     OW24235   2.678   0.730   3.383
 7779SOL    HW124236   2.641   0.642   3.410
 7779SOL    HW224237   2.778   0.729   3.392
 7780SOL     OW24238   6.386   5.697   4.170
 7780SOL    HW124239   6.440   5.769   4.126
 7780SOL    HW224240   6.382   5.714   4.268
 7781SOL     OW24241   3.380   3.225   1.391
 7781SOL    HW124242   3.311   3.181   1.449
 7781SOL    HW224243   3.401   3.316   1.427
 7782SOL     OW24244   5.413   5.081   3.479
 7782SOL    HW124245   5.398   4.985   3.456
 7782SOL    HW224246   5.352   5.138   3.423
 7783SOL     OW24247   0.513   6.165   3.955
 7783SOL    HW124248   0.525   6.261   3.930
 7783SOL    HW224249   0.482   6.113   3.875
 7784SOL     OW24250   1.213   2.950   2.187
 7784SOL    HW124251   1.285   2.915   2.247
 7784SOL    HW224252   1.139   2.987   2.242
 7785SOL     OW24253   6.033   6.587   2.705
 7785SOL    HW124254   6.030   6.592   2.805
 7785SOL    HW224255   6.047   6.679   2.668
 7786SOL     OW24256   5.612   0.906   6.702
 7786SOL    HW124257   5.660   0.835   6.651
 7786SOL    HW224258   5.516   0.881   6.711
 7787SOL     OW24259   1.019   2.358   1.052
 7787SOL    HW124260   1.102   2.400   1.088
 7787SOL    HW224261   0.977   2.419   0.984
 7788SOL     OW24262   1.168   4.030   2.161
 7788SOL    HW124263   1.192   3.951   2.105
 7788SOL    HW224264   1.102   4.002   2.231
 7789SOL     OW24265   3.724   0.117   6.245
 7789SOL    HW124266   3.627   0.113   6.219
 7789SOL    HW224267   3.745   0.209   6.279
 7790SOL     OW24268   3.873   5.353   4.525
 7790SOL    HW124269   3.885   5.383   4.431
 7790SOL    HW224270   3.851   5.432   4.583
 7791SOL     OW24271   2.267   6.799   1.320
 7791SOL    HW124272   2.252   6.721   1.379
 7791SOL    HW224273   2.365   6.810   1.304
 7792SOL     OW24274   1.500   1.292   2.146
 7792SOL    HW124275   1.522   1.329   2.056
 7792SOL    HW224276   1.436   1.354   2.192
 7793SOL     OW24277   5.332   1.718   0.670
 7793SOL    HW124278   5.239   1.754   0.663
 7793SOL    HW224279   5.372   1.709   0.578
 7794SOL     OW24280   1.374   1.358   2.699
 7794SOL    HW124281   1.348   1.453   2.717
 7794SOL    HW224282   1.330   1.328   2.614
 7795SOL     OW24283   4.531   3.759   1.107
 7795SOL    HW124284   4.629   3.773   1.123
 7795SOL    HW224285   4.512   3.661   1.099
 7796SOL     OW24286   3.986   1.329   0.567
 7796SOL    HW124287   3.916   1.295   0.631
 7796SOL    HW224288   3.961   1.420   0.535
 7797SOL     OW24289   1.273   6.065   3.425
 7797SOL    HW124290   1.326   6.110   3.497
 7797SOL    HW224291   1.325   6.067   3.339
 7798SOL     OW24292   1.799   3.291   0.867
 7798SOL    HW124293   1.710   3.274   0.823
 7798SOL    HW224294   1.808   3.390   0.884
 7799SOL     OW24295   1.908   5.974   4.245
 7799SOL    HW124296   1.979   6.021   4.192
 7799SOL    HW224297   1.921   5.875   4.238
 7800SOL     OW24298   0.534   0.561   2.457
 7800SOL    HW124299   0.593   0.527   2.530
 7800SOL    HW224300   0.571   0.647   2.421
 7801SOL     OW24301   2.568   2.042   0.639
 7801SOL    HW124302   2.480   1.998   0.656
 7801SOL    HW224303   2.626   1.981   0.586
 7802SOL     OW24304   6.711   4.863   3.688
 7802SOL    HW124305   6.780   4.925   3.650
 7802SOL    HW224306   6.735   4.843   3.784
 7803SOL     OW24307   3.128   2.475   6.315
 7803SOL    HW124308   3.223   2.462   6.288
 7803SOL    HW224309   3.076   2.393   6.292
 7804SOL     OW24310   2.922   1.003   5.428
 7804SOL    HW124311   2.993   1.072   5.414
 7804SOL    HW224312   2.965   0.913   5.439
 7805SOL     OW24313   6.534   1.758   6.760
 7805SOL    HW124314   6.631   1.747   6.782
 7805SOL    HW224315   6.512   1.706   6.678
 7806SOL     OW24316   6.118   2.514   4.861
 7806SOL    HW124317   6.034   2.547   4.818
 7806SOL    HW224318   6.156   2.585   4.919
 7807SOL     OW24319   1.953   5.836   5.349
 7807SOL    HW124320   1.899   5.755   5.373
 7807SOL    HW224321   1.989   5.826   5.257
 7808SOL     OW24322   6.946   2.891   4.379
 7808SOL    HW124323   6.935   2.925   4.472
 7808SOL    HW224324   7.002   2.808   4.380
 7809SOL     OW24325   3.110   0.625   3.115
 7809SOL    HW124326   3.157   0.707   3.084
 7809SOL    HW224327   3.145   0.598   3.205
 7810SOL     OW24328   2.761   6.777   5.905
 7810SOL    HW124329   2.754   6.686   5.865
 7810SOL    HW224330   2.694   6.787   5.978
 7811SOL     OW24331   1.380   4.871   3.156
 7811SOL    HW124332   1.457   4.930   3.177
 7811SOL    HW224333   1.295   4.925   3.160
 7812SOL     OW24334   3.257   0.555   6.195
 7812SOL    HW124335   3.277   0.599   6.282
 7812SOL    HW224336   3.161   0.569   6.171
 7813SOL     OW24337   5.831   1.341   0.737
 7813SOL    HW124338   5.851   1.311   0.830
 7813SOL    HW224339   5.830   1.441   0.733
 7814SOL     OW24340   0.129   2.478   1.374
 7814SOL    HW124341   0.185   2.426   1.309
 7814SOL    HW224342   0.131   2.433   1.463
 7815SOL     OW24343   4.729   6.308   3.328
 7815SOL    HW124344   4.712   6.386   3.267
 7815SOL    HW224345   4.772   6.340   3.412
 7816SOL     OW24346   1.476   1.605   5.465
 7816SOL    HW124347   1.393   1.561   5.499
 7816SOL    HW224348   1.469   1.617   5.366
 7817SOL     OW24349   4.724   1.066   5.479
 7817SOL    HW124350   4.739   1.055   5.381
 7817SOL    HW224351   4.651   1.005   5.509
 7818SOL     OW24352   4.906   0.851   2.946
 7818SOL    HW124353   4.806   0.840   2.946
 7818SOL    HW224354   4.928   0.946   2.922
 7819SOL     OW24355   2.557   2.489   4.545
 7819SOL    HW124356   2.475   2.488   4.603
 7819SOL    HW224357   2.531   2.513   4.452
 7820SOL     OW24358   2.097   0.503   6.455
 7820SOL    HW124359   2.077   0.439   6.381
 7820SOL    HW224360   2.012   0.526   6.503
 7821SOL     OW24361   3.547   5.911   6.770
 7821SOL    HW124362   3.483   5.889   6.844
 7821SOL    HW224363   3.497   5.915   6.684
 7822SOL     OW24364   0.553   1.117   4.764
 7822SOL    HW124365   0.463   1.079   4.744
 7822SOL    HW224366   0.607   1.049   4.814
 7823SOL     OW24367   2.358   2.660   5.408
 7823SOL    HW124368   2.281   2.597   5.415
 7823SOL    HW224369   2.416   2.651   5.490
 7824SOL     OW24370   6.231   3.843   2.604
 7824SOL    HW124371   6.160   3.787   2.563
 7824SOL    HW224372   6.271   3.902   2.534
 7825SOL     OW24373   3.526   2.965   3.991
 7825SOL    HW124374   3.475   2.913   4.059
 7825SOL    HW224375   3.486   2.952   3.901
 7826SOL     OW24376   6.107   6.552   1.127
 7826SOL    HW124377   6.016   6.570   1.090
 7826SOL    HW224378   6.115   6.454   1.150
 7827SOL     OW24379   4.840   3.801   0.300
 7827SOL    HW124380   4.895   3.860   0.358
 7827SOL    HW224381   4.771   3.754   0.355
 7828SOL     OW24382   0.883   6.077   0.140
 7828SOL    HW124383   0.976   6.043   0.133
 7828SOL    HW224384   0.873   6.161   0.087
 7829SOL     OW24385   3.190   4.059   2.988
 7829SOL    HW124386   3.132   4.075   2.908
 7829SOL    HW224387   3.224   3.965   2.987
 7830SOL     OW24388   0.013   4.651   6.788
 7830SOL    HW124389   0.076   4.655   6.710
 7830SOL    HW224390   6.998   4.743   6.805
 7831SOL     OW24391   3.124   2.840   0.057
 7831SOL    HW124392   3.202   2.845   7.016
 7831SOL    HW224393   3.137   2.763   0.119
 7832SOL     OW24394   3.675   2.668   5.718
 7832SOL    HW124395   3.725   2.617   5.787
 7832SOL    HW224396   3.600   2.718   5.762
 7833SOL     OW24397   6.396   6.991   1.565
 7833SOL    HW124398   6.436   6.994   1.657
 7833SOL    HW224399   6.360   0.060   1.541
 7834SOL     OW24400   5.294   1.075   1.578
 7834SOL    HW124401   5.283   1.161   1.627
 7834SOL    HW224402   5.204   1.035   1.561
 7835SOL     OW24403   2.478   2.528   4.286
 7835SOL    HW124404   2.526   2.526   4.199
 7835SOL    HW224405   2.421   2.447   4.296
 7836SOL     OW24406   2.500   0.738   6.950
 7836SOL    HW124407   2.525   0.648   6.986
 7836SOL    HW224408   2.402   0.742   6.933
 7837SOL     OW24409   5.542   6.285   2.112
 7837SOL    HW124410   5.497   6.308   2.199
 7837SOL    HW224411   5.486   6.220   2.062
 7838SOL     OW24412   3.418   5.580   4.101
 7838SOL    HW124413   3.404   5.649   4.030
 7838SOL    HW224414   3.342   5.514   4.099
 7839SOL     OW24415   6.905   5.842   2.954
 7839SOL    HW124416   7.005   5.850   2.960
 7839SOL    HW224417   6.870   5.803   3.039
 7840SOL     OW24418   4.263   2.775   6.240
 7840SOL    HW124419   4.297   2.684   6.217
 7840SOL    HW224420   4.216   2.814   6.161
 7841SOL     OW24421   1.296   2.016   5.809
 7841SOL    HW124422   1.252   1.977   5.889
 7841SOL    HW224423   1.304   1.947   5.737
 7842SOL     OW24424   1.840   1.294   2.355
 7842SOL    HW124425   1.741   1.279   2.354
 7842SOL    HW224426   1.863   1.360   2.426
 7843SOL     OW24427   6.997   2.432   1.705
 7843SOL    HW124428   6.897   2.442   1.703
 7843SOL    HW224429   0.010   2.465   1.793
 7844SOL     OW24430   3.364   1.951   3.327
 7844SOL    HW124431   3.398   1.914   3.240
 7844SOL    HW224432   3.276   1.909   3.349
 7845SOL     OW24433   1.140   1.122   4.295
 7845SOL    HW124434   1.207   1.185   4.254
 7845SOL    HW224435   1.164   1.028   4.271
 7846SOL     OW24436   4.877   6.722   2.942
 7846SOL    HW124437   4.910   6.633   2.974
 7846SOL    HW224438   4.950   6.790   2.951
 7847SOL     OW24439   0.490   6.435   6.522
 7847SOL    HW124440   0.393   6.457   6.530
 7847SOL    HW224441   0.519   6.446   6.427
 7848SOL     OW24442   4.432   3.846   1.460
 7848SOL    HW124443   4.341   3.811   1.480
 7848SOL    HW224444   4.435   3.876   1.365
 7849SOL     OW24445   5.695   4.464   4.973
 7849SOL    HW124446   5.738   4.544   5.016
 7849SOL    HW224447   5.717   4.463   4.876
 7850SOL     OW24448   1.395   2.817   5.033
 7850SOL    HW124449   1.353   2.835   5.122
 7850SOL    HW224450   1.494   2.828   5.040
 7851SOL     OW24451   2.892   6.860   0.828
 7851SOL    HW124452   2.866   6.945   0.874
 7851SOL    HW224453   2.979   6.827   0.865
 7852SOL     OW24454   2.431   6.540   1.020
 7852SOL    HW124455   2.399   6.634   1.013
 7852SOL    HW224456   2.442   6.502   0.928
 7853SOL     OW24457   2.014   1.486   6.967
 7853SOL    HW124458   1.918   1.461   6.959
 7853SOL    HW224459   2.061   1.463   6.881
 7854SOL     OW24460   3.777   4.002   4.725
 7854SOL    HW124461   3.792   4.055   4.809
 7854SOL    HW224462   3.743   4.063   4.653
 7855SOL     OW24463   2.705   6.945   4.692
 7855SOL    HW124464   2.764   6.946   4.611
 7855SOL    HW224465   2.724   6.862   4.746
 7856SOL     OW24466   2.970   3.136   5.812
 7856SOL    HW124467   3.009   3.045   5.827
 7856SOL    HW224468   2.877   3.139   5.847
 7857SOL     OW24469   0.311   2.752   4.997
 7857SOL    HW124470   0.356   2.807   4.927
 7857SOL    HW224471   0.337   2.786   5.088
 7858SOL     OW24472   5.074   2.946   3.381
 7858SOL    HW124473   5.035   2.904   3.299
 7858SOL    HW224474   5.165   2.907   3.398
 7859SOL     OW24475   6.875   6.967   0.618
 7859SOL    HW124476   6.939   6.894   0.592
 7859SOL    HW224477   6.871   6.973   0.718
 7860SOL     OW24478   4.494   6.101   0.989
 7860SOL    HW124479   4.463   6.020   0.939
 7860SOL    HW224480   4.488   6.084   1.087
 7861SOL     OW24481   6.553   3.506   0.337
 7861SOL    HW124482   6.514   3.505   0.245
 7861SOL    HW224483   6.544   3.416   0.379
 7862SOL     OW24484   2.600   4.399   1.750
 7862SOL    HW124485   2.685   4.426   1.795
 7862SOL    HW224486   2.523   4.431   1.804
 7863SOL     OW24487   4.382   5.958   2.725
 7863SOL    HW124488   4.415   6.032   2.784
 7863SOL    HW224489   4.457   5.893   2.709
 7864SOL     OW24490   1.856   5.890   5.614
 7864SOL    HW124491   1.891   5.889   5.520
 7864SOL    HW224492   1.827   5.983   5.638
 7865SOL     OW24493   4.598   0.804   3.351
 7865SOL    HW124494   4.620   0.883   3.407
 7865SOL    HW224495   4.505   0.772   3.373
 7866SOL     OW24496   3.251   0.344   5.809
 7866SOL    HW124497   3.296   0.327   5.721
 7866SOL    HW224498   3.200   0.263   5.837
 7867SOL     OW24499   6.752   3.242   0.600
 7867SOL    HW124500   6.721   3.150   0.625
 7867SOL    HW224501   6.764   3.296   0.684
 7868SOL     OW24502   5.105   6.581   0.950
 7868SOL    HW124503   5.071   6.674   0.960
 7868SOL    HW224504   5.196   6.582   0.907
 7869SOL     OW24505   6.108   1.619   4.339
 7869SOL    HW124506   6.204   1.628   4.312
 7869SOL    HW224507   6.066   1.710   4.344
 7870SOL     OW24508   6.751   0.297   3.405
 7870SOL    HW124509   6.732   0.393   3.427
 7870SOL    HW224510   6.817   0.260   3.471
 7871SOL     OW24511   5.735   3.074   3.307
 7871SOL    HW124512   5.694   2.983   3.301
 7871SOL    HW224513   5.785   3.094   3.222
 7872SOL     OW24514   5.945   4.053   3.891
 7872SOL    HW124515   5.872   4.105   3.936
 7872SOL    HW224516   6.030   4.063   3.942
 7873SOL     OW24517   6.879   6.031   5.067
 7873SOL    HW124518   6.884   5.936   5.096
 7873SOL    HW224519   6.789   6.069   5.089
 7874SOL     OW24520   6.107   6.843   0.261
 7874SOL    HW124521   6.166   6.769   0.293
 7874SOL    HW224522   6.029   6.853   0.323
 7875SOL     OW24523   5.681   2.695   0.415
 7875SOL    HW124524   5.685   2.748   0.330
 7875SOL    HW224525   5.628   2.746   0.483
 7876SOL     OW24526   6.802   1.986   4.862
 7876SOL    HW124527   6.797   1.894   4.822
 7876SOL    HW224528   6.709   2.017   4.885
 7877SOL     OW24529   5.879   3.766   1.725
 7877SOL    HW124530   5.800   3.706   1.736
 7877SOL    HW224531   5.947   3.745   1.795
 7878SOL     OW24532   3.253   4.045   2.523
 7878SOL    HW124533   3.320   4.045   2.597
 7878SOL    HW224534   3.292   4.092   2.443
 7879SOL     OW24535   6.877   1.395   4.976
 7879SOL    HW124536   6.783   1.364   4.975
 7879SOL    HW224537   6.915   1.387   5.068
 7880SOL     OW24538   2.081   6.153   6.649
 7880SOL    HW124539   2.171   6.134   6.688
 7880SOL    HW224540   2.013   6.156   6.722
 7881SOL     OW24541   0.732   4.950   5.408
 7881SOL    HW124542   0.724   4.851   5.419
 7881SOL    HW224543   0.704   4.975   5.315
 7882SOL     OW24544   1.314   4.985   0.659
 7882SOL    HW124545   1.351   5.038   0.736
 7882SOL    HW224546   1.250   4.916   0.694
 7883SOL     OW24547   2.933   2.105   2.511
 7883SOL    HW124548   3.025   2.141   2.506
 7883SOL    HW224549   2.869   2.178   2.536
 7884SOL     OW24550   0.315   2.147   5.692
 7884SOL    HW124551   0.237   2.204   5.667
 7884SOL    HW224552   0.396   2.179   5.643
 7885SOL     OW24553   5.704   4.935   2.758
 7885SOL    HW124554   5.723   4.953   2.662
 7885SOL    HW224555   5.717   4.837   2.777
 7886SOL     OW24556   3.742   4.925   2.739
 7886SOL    HW124557   3.758   5.023   2.735
 7886SOL    HW224558   3.724   4.890   2.647
 7887SOL     OW24559   0.065   3.111   0.499
 7887SOL    HW124560   0.029   3.032   0.449
 7887SOL    HW224561   0.108   3.174   0.435
 7888SOL     OW24562   0.683   1.748   5.301
 7888SOL    HW124563   0.617   1.716   5.233
 7888SOL    HW224564   0.765   1.782   5.255
 7889SOL     OW24565   5.354   4.951   0.264
 7889SOL    HW124566   5.292   5.021   0.297
 7889SOL    HW224567   5.409   4.917   0.340
 7890SOL     OW24568   1.252   2.720   1.817
 7890SOL    HW124569   1.178   2.760   1.870
 7890SOL    HW224570   1.265   2.625   1.844
 7891SOL     OW24571   5.985   1.041   4.321
 7891SOL    HW124572   5.924   1.026   4.243
 7891SOL    HW224573   5.949   1.114   4.379
 7892SOL     OW24574   0.916   1.975   4.372
 7892SOL    HW124575   0.883   2.065   4.400
 7892SOL    HW224576   0.880   1.905   4.434
 7893SOL     OW24577   5.443   6.141   0.375
 7893SOL    HW124578   5.516   6.080   0.408
 7893SOL    HW224579   5.440   6.223   0.431
 7894SOL     OW24580   3.072   6.907   6.630
 7894SOL    HW124581   3.096   6.864   6.543
 7894SOL    HW224582   3.096   7.005   6.627
 7895SOL     OW24583   5.346   6.442   2.671
 7895SOL    HW124584   5.325   6.450   2.574
 7895SOL    HW224585   5.360   6.534   2.709
 7896SOL     OW24586   3.095   2.361   1.043
 7896SOL    HW124587   3.001   2.384   1.019
 7896SOL    HW224588   3.131   2.296   0.976
 7897SOL     OW24589   5.076   0.930   1.541
 7897SOL    HW124590   5.046   0.933   1.446
 7897SOL    HW224591   5.075   0.835   1.573
 7898SOL     OW24592   4.340   6.636   2.992
 7898SOL    HW124593   4.321   6.556   3.049
 7898SOL    HW224594   4.356   6.716   3.050
 7899SOL     OW24595   6.390   5.095   2.782
 7899SOL    HW124596   6.475   5.079   2.731
 7899SOL    HW224597   6.385   5.031   2.859
 7900SOL     OW24598   0.011   3.603   0.305
 7900SOL    HW124599   0.048   3.536   0.370
 7900SOL    HW224600   6.933   3.599   0.305
 7901SOL     OW24601   0.495   2.229   6.386
 7901SOL    HW124602   0.554   2.303   6.418
 7901SOL    HW224603   0.419   2.217   6.450
 7902SOL     OW24604   1.660   0.312   1.409
 7902SOL    HW124605   1.602   0.369   1.351
 7902SOL    HW224606   1.635   0.216   1.398
 7903SOL     OW24607   3.348   2.086   5.454
 7903SOL    HW124608   3.278   2.126   5.394
 7903SOL    HW224609   3.436   2.130   5.436
 7904SOL     OW24610   5.758   3.437   2.780
 7904SOL    HW124611   5.826   3.420   2.851
 7904SOL    HW224612   5.676   3.478   2.820
 7905SOL     OW24613   5.747   2.011   1.515
 7905SOL    HW124614   5.840   2.006   1.479
 7905SOL    HW224615   5.730   1.932   1.574
 7906SOL     OW24616   6.812   6.315   6.074
 7906SOL    HW124617   6.751   6.337   6.151
 7906SOL    HW224618   6.848   6.400   6.036
 7907SOL     OW24619   5.819   5.796   3.340
 7907SOL    HW124620   5.906   5.749   3.355
 7907SOL    HW224621   5.753   5.767   3.408
 7908SOL     OW24622   1.560   6.600   6.172
 7908SOL    HW124623   1.594   6.506   6.176
 7908SOL    HW224624   1.631   6.660   6.135
 7909SOL     OW24625   6.981   4.176   2.372
 7909SOL    HW124626   0.039   4.117   2.387
 7909SOL    HW224627   6.933   4.192   2.458
 7910SOL     OW24628   1.235   4.274   4.862
 7910SOL    HW124629   1.223   4.351   4.799
 7910SOL    HW224630   1.159   4.272   4.926
 7911SOL     OW24631   5.991   3.618   5.944
 7911SOL    HW124632   6.001   3.588   6.039
 7911SOL    HW224633   5.942   3.549   5.892
 7912SOL     OW24634   5.493   5.555   1.865
 7912SOL    HW124635   5.522   5.646   1.895
 7912SOL    HW224636   5.395   5.555   1.848
 7913SOL     OW24637   1.481   4.629   6.545
 7913SOL    HW124638   1.493   4.594   6.452
 7913SOL    HW224639   1.569   4.627   6.592
 7914SOL     OW24640   0.968   0.421   4.904
 7914SOL    HW124641   1.015   0.434   4.991
 7914SOL    HW224642   0.963   0.508   4.856
 7915SOL     OW24643   3.216   5.989   2.179
 7915SOL    HW124644   3.170   6.050   2.243
 7915SOL    HW224645   3.290   5.940   2.226
 7916SOL     OW24646   1.982   1.089   3.878
 7916SOL    HW124647   1.983   1.178   3.924
 7916SOL    HW224648   2.075   1.053   3.875
 7917SOL     OW24649   5.132   1.753   2.606
 7917SOL    HW124650   5.037   1.780   2.625
 7917SOL    HW224651   5.189   1.834   2.597
 7918SOL     OW24652   1.333   2.193   2.560
 7918SOL    HW124653   1.266   2.125   2.592
 7918SOL    HW224654   1.406   2.201   2.627
 7919SOL     OW24655   0.886   0.000   4.857
 7919SOL    HW124656   0.895   6.960   4.935
 7919SOL    HW224657   0.819   0.071   4.878
 7920SOL     OW24658   5.350   6.994   1.033
 7920SOL    HW124659   5.292   6.948   1.100
 7920SOL    HW224660   5.424   0.020   1.080
 7921SOL     OW24661   5.979   3.620   0.842
 7921SOL    HW124662   5.963   3.662   0.753
 7921SOL    HW224663   5.979   3.520   0.832
 7922SOL     OW24664   2.388   6.142   3.574
 7922SOL    HW124665   2.303   6.113   3.617
 7922SOL    HW224666   2.451   6.064   3.570
 7923SOL     OW24667   5.176   0.588   1.170
 7923SOL    HW124668   5.230   0.609   1.089
 7923SOL    HW224669   5.196   0.495   1.201
 7924SOL     OW24670   5.494   6.137   0.064
 7924SOL    HW124671   5.521   6.233   0.067
 7924SOL    HW224672   5.524   6.092   0.148
 7925SOL     OW24673   2.021   5.040   5.897
 7925SOL    HW124674   2.107   5.081   5.866
 7925SOL    HW224675   2.040   4.951   5.938
 7926SOL     OW24676   4.363   5.836   6.320
 7926SOL    HW124677   4.308   5.919   6.324
 7926SOL    HW224678   4.340   5.777   6.398
 7927SOL     OW24679   5.162   7.021   3.539
 7927SOL    HW124680   5.225   6.961   3.490
 7927SOL    HW224681   5.174   0.094   3.509
 7928SOL     OW24682   5.900   1.929   3.981
 7928SOL    HW124683   5.930   1.941   3.886
 7928SOL    HW224684   5.804   1.954   3.989
 7929SOL     OW24685   4.607   3.750   5.315
 7929SOL    HW124686   4.630   3.708   5.402
 7929SOL    HW224687   4.635   3.690   5.240
 7930SOL     OW24688   4.100   5.220   0.854
 7930SOL    HW124689   4.143   5.144   0.806
 7930SOL    HW224690   4.062   5.285   0.788
 7931SOL     OW24691   4.772   0.743   0.713
 7931SOL    HW124692   4.771   0.835   0.672
 7931SOL    HW224693   4.859   0.729   0.760
 7932SOL     OW24694   0.846   3.787   0.520
 7932SOL    HW124695   0.763   3.732   0.533
 7932SOL    HW224696   0.878   3.820   0.609
 7933SOL     OW24697   1.551   1.243   0.253
 7933SOL    HW124698   1.491   1.322   0.246
 7933SOL    HW224699   1.586   1.220   0.162
 7934SOL     OW24700   6.689   5.667   0.276
 7934SOL    HW124701   6.712   5.716   0.359
 7934SOL    HW224702   6.592   5.680   0.255
 7935SOL     OW24703   6.224   3.590   3.398
 7935SOL    HW124704   6.173   3.537   3.466
 7935SOL    HW224705   6.316   3.610   3.433
 7936SOL     OW24706   2.368   5.637   3.402
 7936SOL    HW124707   2.314   5.582   3.338
 7936SOL    HW224708   2.325   5.726   3.414
 7937SOL     OW24709   3.647   1.221   1.315
 7937SOL    HW124710   3.638   1.265   1.405
 7937SOL    HW224711   3.570   1.159   1.301
 7938SOL     OW24712   2.146   6.563   3.240
 7938SOL    HW124713   2.051   6.570   3.208
 7938SOL    HW224714   2.153   6.596   3.334
 7939SOL     OW24715   1.845   6.932   3.075
 7939SOL    HW124716   1.786   6.999   3.122
 7939SOL    HW224717   1.940   6.947   3.102
 7940SOL     OW24718   6.575   1.576   4.924
 7940SOL    HW124719   6.605   1.488   4.960
 7940SOL    HW224720   6.518   1.622   4.992
 7941SOL     OW24721   3.421   0.409   1.120
 7941SOL    HW124722   3.519   0.390   1.123
 7941SOL    HW224723   3.400   0.461   1.037
 7942SOL     OW24724   1.342   4.128   1.340
 7942SOL    HW124725   1.408   4.199   1.361
 7942SOL    HW224726   1.271   4.126   1.410
 7943SOL     OW24727   1.813   5.358   6.997
 7943SOL    HW124728   1.830   5.272   6.949
 7943SOL    HW224729   1.901   5.401   7.019
 7944SOL     OW24730   1.047   2.089   0.754
 7944SOL    HW124731   0.985   2.165   0.732
 7944SOL    HW224732   1.105   2.069   0.675
 7945SOL     OW24733   6.607   4.575   3.510
 7945SOL    HW124734   6.584   4.664   3.470
 7945SOL    HW224735   6.701   4.551   3.486
 7946SOL     OW24736   4.729   1.444   5.834
 7946SOL    HW124737   4.791   1.428   5.911
 7946SOL    HW224738   4.635   1.436   5.866
 7947SOL     OW24739   0.885   3.961   6.994
 7947SOL    HW124740   0.790   3.977   6.968
 7947SOL    HW224741   0.897   3.865   7.019
 7948SOL     OW24742   1.623   5.921   1.633
 7948SOL    HW124743   1.577   5.928   1.545
 7948SOL    HW224744   1.713   5.879   1.621
 7949SOL     OW24745   3.391   5.532   4.868
 7949SOL    HW124746   3.343   5.451   4.835
 7949SOL    HW224747   3.407   5.524   4.967
 7950SOL     OW24748   6.422   2.518   5.618
 7950SOL    HW124749   6.508   2.548   5.658
 7950SOL    HW224750   6.347   2.539   5.681
 7951SOL     OW24751   3.767   0.565   2.917
 7951SOL    HW124752   3.752   0.661   2.942
 7951SOL    HW224753   3.709   0.507   2.975
 7952SOL     OW24754   0.072   3.229   5.312
 7952SOL    HW124755   0.073   3.320   5.270
 7952SOL    HW224756   7.013   3.220   5.369
 7953SOL     OW24757   0.941   0.540   0.594
 7953SOL    HW124758   1.008   0.567   0.524
 7953SOL    HW224759   0.891   0.460   0.564
 7954SOL     OW24760   3.805   2.833   0.777
 7954SOL    HW124761   3.894   2.860   0.741
 7954SOL    HW224762   3.807   2.839   0.877
 7955SOL     OW24763   6.532   0.305   6.355
 7955SOL    HW124764   6.591   0.365   6.301
 7955SOL    HW224765   6.437   0.331   6.341
 7956SOL     OW24766   0.058   0.154   0.730
 7956SOL    HW124767   0.050   0.168   0.828
 7956SOL    HW224768   0.053   0.242   0.683
 7957SOL     OW24769   5.586   1.778   6.088
 7957SOL    HW124770   5.562   1.861   6.039
 7957SOL    HW224771   5.665   1.734   6.045
 7958SOL     OW24772   4.679   2.625   6.504
 7958SOL    HW124773   4.685   2.643   6.406
 7958SOL    HW224774   4.661   2.710   6.553
 7959SOL     OW24775   5.275   2.788   6.871
 7959SOL    HW124776   5.188   2.759   6.831
 7959SOL    HW224777   5.287   2.887   6.856
 7960SOL     OW24778   1.141   2.484   5.037
 7960SOL    HW124779   1.153   2.555   4.967
 7960SOL    HW224780   1.043   2.472   5.056
 7961SOL     OW24781   5.909   0.053   6.283
 7961SOL    HW124782   5.847   0.126   6.254
 7961SOL    HW224783   5.915   0.051   6.383
 7962SOL     OW24784   5.281   0.161   4.897
 7962SOL    HW124785   5.350   0.187   4.964
 7962SOL    HW224786   5.256   0.065   4.911
 7963SOL     OW24787   5.762   6.076   2.722
 7963SOL    HW124788   5.839   6.016   2.747
 7963SOL    HW224789   5.796   6.153   2.668
 7964SOL     OW24790   0.317   4.124   1.540
 7964SOL    HW124791   0.371   4.078   1.611
 7964SOL    HW224792   0.222   4.093   1.545
 7965SOL     OW24793   4.122   1.808   6.631
 7965SOL    HW124794   4.110   1.712   6.655
 7965SOL    HW224795   4.217   1.836   6.648
 7966SOL     OW24796   5.931   3.512   5.220
 7966SOL    HW124797   5.998   3.581   5.192
 7966SOL    HW224798   5.886   3.475   5.139
 7967SOL     OW24799   1.951   4.027   1.409
 7967SOL    HW124800   1.952   4.009   1.311
 7967SOL    HW224801   2.041   4.007   1.448
 7968SOL     OW24802   2.389   2.135   3.876
 7968SOL    HW124803   2.429   2.145   3.785
 7968SOL    HW224804   2.343   2.220   3.902
 7969SOL     OW24805   3.059   4.061   6.246
 7969SOL    HW124806   2.963   4.080   6.266
 7969SOL    HW224807   3.087   3.978   6.295
 7970SOL     OW24808   6.717   3.217   3.028
 7970SOL    HW124809   6.708   3.280   2.950
 7970SOL    HW224810   6.632   3.218   3.081
 7971SOL     OW24811   2.562   0.477   0.011
 7971SOL    HW124812   2.545   0.386   6.996
 7971SOL    HW224813   2.660   0.488   0.029
 7972SOL     OW24814   4.166   3.451   4.746
 7972SOL    HW124815   4.122   3.529   4.702
 7972SOL    HW224816   4.250   3.482   4.791
 7973SOL     OW24817   0.459   5.380   2.102
 7973SOL    HW124818   0.381   5.359   2.162
 7973SOL    HW224819   0.504   5.463   2.134
 7974SOL     OW24820   6.810   2.546   4.461
 7974SOL    HW124821   6.763   2.546   4.549
 7974SOL    HW224822   6.877   2.472   4.460
 7975SOL     OW24823   3.823   0.209   6.548
 7975SOL    HW124824   3.852   0.255   6.465
 7975SOL    HW224825   3.902   0.165   6.591
 7976SOL     OW24826   0.349   0.143   0.650
 7976SOL    HW124827   0.295   0.200   0.713
 7976SOL    HW224828   0.442   0.132   0.686
 7977SOL     OW24829   4.947   4.983   2.616
 7977SOL    HW124830   4.944   5.042   2.535
 7977SOL    HW224831   4.986   5.034   2.693
 7978SOL     OW24832   0.524   4.113   0.715
 7978SOL    HW124833   0.526   4.204   0.673
 7978SOL    HW224834   0.617   4.085   0.738
 7979SOL     OW24835   3.639   2.354   5.770
 7979SOL    HW124836   3.608   2.415   5.843
 7979SOL    HW224837   3.566   2.290   5.747
 7980SOL     OW24838   4.124   5.911   2.655
 7980SOL    HW124839   4.084   5.913   2.746
 7980SOL    HW224840   4.223   5.920   2.662
 7981SOL     OW24841   1.031   2.747   4.237
 7981SOL    HW124842   1.080   2.826   4.200
 7981SOL    HW224843   0.942   2.739   4.192
 7982SOL     OW24844   6.345   0.223   0.413
 7982SOL    HW124845   6.330   0.298   0.478
 7982SOL    HW224846   6.270   0.222   0.347
 7983SOL     OW24847   3.311   1.497   1.418
 7983SOL    HW124848   3.296   1.398   1.408
 7983SOL    HW224849   3.224   1.545   1.413
 7984SOL     OW24850   6.378   2.533   3.040
 7984SOL    HW124851   6.345   2.561   2.949
 7984SOL    HW224852   6.301   2.496   3.093
 7985SOL     OW24853   3.112   3.321   5.950
 7985SOL    HW124854   3.069   3.239   5.914
 7985SOL    HW224855   3.209   3.322   5.926
 7986SOL     OW24856   2.298   1.134   3.577
 7986SOL    HW124857   2.253   1.122   3.488
 7986SOL    HW224858   2.393   1.160   3.563
 7987SOL     OW24859   1.388   3.148   6.355
 7987SOL    HW124860   1.373   3.202   6.272
 7987SOL    HW224861   1.301   3.115   6.390
 7988SOL     OW24862   6.310   0.222   1.489
 7988SOL    HW124863   6.401   0.254   1.517
 7988SOL    HW224864   6.242   0.291   1.510
 7989SOL     OW24865   0.894   4.791   1.207
 7989SOL    HW124866   0.920   4.782   1.303
 7989SOL    HW224867   0.804   4.834   1.201
 7990SOL     OW24868   4.283   5.293   5.470
 7990SOL    HW124869   4.378   5.302   5.501
 7990SOL    HW224870   4.230   5.372   5.501
 7991SOL     OW24871   5.363   0.794   4.363
 7991SOL    HW124872   5.288   0.808   4.300
 7991SOL    HW224873   5.333   0.815   4.456
 7992SOL     OW24874   2.559   0.494   0.292
 7992SOL    HW124875   2.533   0.476   0.197
 7992SOL    HW224876   2.524   0.584   0.319
 7993SOL     OW24877   6.201   5.490   0.596
 7993SOL    HW124878   6.224   5.583   0.569
 7993SOL    HW224879   6.126   5.456   0.539
 7994SOL     OW24880   0.833   1.474   4.916
 7994SOL    HW124881   0.879   1.528   4.845
 7994SOL    HW224882   0.737   1.463   4.892
 7995SOL     OW24883   0.310   6.310   0.731
 7995SOL    HW124884   0.344   6.239   0.668
 7995SOL    HW224885   0.318   6.277   0.825
 7996SOL     OW24886   1.862   6.762   4.194
 7996SOL    HW124887   1.932   6.731   4.258
 7996SOL    HW224888   1.884   6.729   4.102
 7997SOL     OW24889   2.720   0.359   5.597
 7997SOL    HW124890   2.710   0.371   5.499
 7997SOL    HW224891   2.698   0.446   5.643
 7998SOL     OW24892   1.823   1.518   1.409
 7998SOL    HW124893   1.916   1.524   1.374
 7998SOL    HW224894   1.785   1.610   1.420
 7999SOL     OW24895   6.903   0.943   2.529
 7999SOL    HW124896   6.892   0.985   2.619
 7999SOL    HW224897   6.971   0.870   2.534
 8000SOL     OW24898   4.649   5.802   0.808
 8000SOL    HW124899   4.609   5.753   0.885
 8000SOL    HW224900   4.577   5.825   0.742
 8001SOL     OW24901   5.295   5.072   2.534
 8001SOL    HW124902   5.362   5.106   2.600
 8001SOL    HW224903   5.223   5.141   2.522
 8002SOL     OW24904   1.174   0.710   5.317
 8002SOL    HW124905   1.154   0.798   5.360
 8002SOL    HW224906   1.089   0.660   5.301
 8003SOL     OW24907   2.823   5.415   2.552
 8003SOL    HW124908   2.761   5.483   2.594
 8003SOL    HW224909   2.889   5.384   2.621
 8004SOL     OW24910   2.135   3.515   3.976
 8004SOL    HW124911   2.146   3.417   3.962
 8004SOL    HW224912   2.096   3.555   3.893
 8005SOL     OW24913   2.873   0.460   4.367
 8005SOL    HW124914   2.783   0.503   4.371
 8005SOL    HW224915   2.926   0.486   4.448
 8006SOL     OW24916   4.824   5.117   6.352
 8006SOL    HW124917   4.833   5.018   6.348
 8006SOL    HW224918   4.836   5.156   6.261
 8007SOL     OW24919   0.029   0.579   0.991
 8007SOL    HW124920   7.005   0.492   1.008
 8007SOL    HW224921   6.999   0.630   0.922
 8008SOL     OW24922   5.209   5.545   1.223
 8008SOL    HW124923   5.295   5.495   1.211
 8008SOL    HW224924   5.156   5.541   1.139
 8009SOL     OW24925   6.204   0.423   1.055
 8009SOL    HW124926   6.175   0.393   0.964
 8009SOL    HW224927   6.261   0.352   1.097
 8010SOL     OW24928   2.567   0.201   7.014
 8010SOL    HW124929   2.607   0.137   6.948
 8010SOL    HW224930   2.471   0.175   0.009
 8011SOL     OW24931   3.953   2.166   2.061
 8011SOL    HW124932   3.947   2.069   2.039
 8011SOL    HW224933   3.865   2.198   2.098
 8012SOL     OW24934   5.884   0.465   5.521
 8012SOL    HW124935   5.888   0.370   5.550
 8012SOL    HW224936   5.812   0.476   5.452
 8013SOL     OW24937   3.456   0.339   3.518
 8013SOL    HW124938   3.458   0.413   3.586
 8013SOL    HW224939   3.543   0.290   3.521
 8014SOL     OW24940   2.412   2.590   3.176
 8014SOL    HW124941   2.406   2.650   3.256
 8014SOL    HW224942   2.491   2.530   3.186
 8015SOL     OW24943   3.388   5.747   4.645
 8015SOL    HW124944   3.390   5.704   4.734
 8015SOL    HW224945   3.400   5.678   4.574
 8016SOL     OW24946   2.921   3.225   4.985
 8016SOL    HW124947   2.908   3.306   5.043
 8016SOL    HW224948   2.834   3.176   4.979
 8017SOL     OW24949   5.218   6.346   1.860
 8017SOL    HW124950   5.282   6.276   1.891
 8017SOL    HW224951   5.250   6.436   1.889
 8018SOL     OW24952   3.037   2.873   1.348
 8018SOL    HW124953   2.980   2.936   1.295
 8018SOL    HW224954   2.992   2.783   1.352
 8019SOL     OW24955   3.152   3.483   1.390
 8019SOL    HW124956   3.240   3.480   1.343
 8019SOL    HW224957   3.163   3.528   1.479
 8020SOL     OW24958   0.686   0.102   0.091
 8020SOL    HW124959   0.683   0.057   0.181
 8020SOL    HW224960   0.594   0.109   0.055
 8021SOL     OW24961   1.024   2.379   0.675
 8021SOL    HW124962   0.927   2.396   0.664
 8021SOL    HW224963   1.065   2.454   0.729
 8022SOL     OW24964   4.777   0.612   2.822
 8022SOL    HW124965   4.708   0.560   2.872
 8022SOL    HW224966   4.868   0.585   2.851
 8023SOL     OW24967   3.590   4.944   2.208
 8023SOL    HW124968   3.591   4.879   2.132
 8023SOL    HW224969   3.529   5.020   2.186
 8024SOL     OW24970   2.998   0.614   6.153
 8024SOL    HW124971   2.939   0.604   6.073
 8024SOL    HW224972   2.953   0.574   6.233
 8025SOL     OW24973   1.190   6.647   1.323
 8025SOL    HW124974   1.269   6.707   1.336
 8025SOL    HW224975   1.149   6.665   1.233
 8026SOL     OW24976   0.443   6.756   5.331
 8026SOL    HW124977   0.352   6.715   5.338
 8026SOL    HW224978   0.513   6.686   5.347
 8027SOL     OW24979   4.153   6.340   6.792
 8027SOL    HW124980   4.178   6.427   6.750
 8027SOL    HW224981   4.090   6.356   6.868
 8028SOL     OW24982   3.933   5.763   6.816
 8028SOL    HW124983   3.921   5.832   6.745
 8028SOL    HW224984   3.844   5.736   6.853
 8029SOL     OW24985   1.303   6.741   1.904
 8029SOL    HW124986   1.389   6.702   1.872
 8029SOL    HW224987   1.300   6.735   2.004
 8030SOL     OW24988   0.666   3.734   0.885
 8030SOL    HW124989   0.698   3.827   0.901
 8030SOL    HW224990   0.571   3.725   0.914
 8031SOL     OW24991   0.534   1.131   3.915
 8031SOL    HW124992   0.449   1.097   3.876
 8031SOL    HW224993   0.600   1.147   3.842
 8032SOL     OW24994   0.048   3.128   1.165
 8032SOL    HW124995   0.084   3.065   1.234
 8032SOL    HW224996   0.123   3.157   1.104
 8033SOL     OW24997   4.213   4.718   1.128
 8033SOL    HW124998   4.170   4.653   1.066
 8033SOL    HW224999   4.263   4.669   1.199
 8034SOL     OW25000   1.642   1.219   4.973
 8034SOL    HW125001   1.683   1.231   4.882
 8034SOL    HW225002   1.713   1.192   5.038
 8035SOL     OW25003   5.049   0.305   4.725
 8035SOL    HW125004   5.021   0.221   4.678
 8035SOL    HW225005   5.147   0.301   4.746
 8036SOL     OW25006   5.066   4.671   4.603
 8036SOL    HW125007   5.019   4.592   4.643
 8036SOL    HW225008   5.097   4.648   4.511
 8037SOL     OW25009   2.839   1.234   6.533
 8037SOL    HW125010   2.871   1.180   6.456
 8037SOL    HW225011   2.750   1.274   6.511
 8038SOL     OW25012   6.261   5.799   1.627
 8038SOL    HW125013   6.246   5.714   1.678
 8038SOL    HW225014   6.196   5.804   1.551
 8039SOL     OW25015   1.879   2.855   4.851
 8039SOL    HW125016   1.955   2.903   4.895
 8039SOL    HW225017   1.866   2.892   4.759
 8040SOL     OW25018   0.497   6.924   5.555
 8040SOL    HW125019   0.481   6.877   5.468
 8040SOL    HW225020   0.586   6.896   5.592
 8041SOL     OW25021   3.093   1.891   2.951
 8041SOL    HW125022   3.101   1.964   2.883
 8041SOL    HW225023   3.099   1.802   2.905
 8042SOL     OW25024   4.400   3.872   6.087
 8042SOL    HW125025   4.446   3.850   6.173
 8042SOL    HW225026   4.453   3.941   6.038
 8043SOL     OW25027   5.304   5.507   6.801
 8043SOL    HW125028   5.359   5.516   6.884
 8043SOL    HW225029   5.320   5.417   6.761
 8044SOL     OW25030   1.004   2.411   1.369
 8044SOL    HW125031   1.017   2.510   1.377
 8044SOL    HW225032   0.959   2.376   1.451
 8045SOL     OW25033   5.755   3.133   5.123
 8045SOL    HW125034   5.723   3.135   5.218
 8045SOL    HW225035   5.757   3.038   5.091
 8046SOL     OW25036   0.666   4.178   1.165
 8046SOL    HW125037   0.638   4.273   1.149
 8046SOL    HW225038   0.594   4.131   1.217
 8047SOL     OW25039   3.089   6.343   6.829
 8047SOL    HW125040   3.082   6.418   6.895
 8047SOL    HW225041   3.012   6.280   6.841
 8048SOL     OW25042   4.410   1.787   6.725
 8048SOL    HW125043   4.467   1.736   6.660
 8048SOL    HW225044   4.412   1.741   6.814
 8049SOL     OW25045   2.229   1.418   1.101
 8049SOL    HW125046   2.203   1.485   1.031
 8049SOL    HW225047   2.175   1.335   1.090
 8050SOL     OW25048   6.435   5.180   5.753
 8050SOL    HW125049   6.452   5.183   5.851
 8050SOL    HW225050   6.349   5.131   5.736
 8051SOL     OW25051   4.174   6.909   3.369
 8051SOL    HW125052   4.158   6.892   3.466
 8051SOL    HW225053   4.100   6.868   3.315
 8052SOL     OW25054   2.285   1.395   3.095
 8052SOL    HW125055   2.329   1.307   3.076
 8052SOL    HW225056   2.219   1.415   3.023
 8053SOL     OW25057   1.537   1.299   6.637
 8053SOL    HW125058   1.491   1.357   6.569
 8053SOL    HW225059   1.635   1.298   6.618
 8054SOL     OW25060   5.157   3.628   5.080
 8054SOL    HW125061   5.201   3.553   5.030
 8054SOL    HW225062   5.225   3.676   5.135
 8055SOL     OW25063   6.870   0.798   6.932
 8055SOL    HW125064   6.892   0.787   6.835
 8055SOL    HW225065   6.773   0.820   6.942
 8056SOL     OW25066   1.949   2.755   2.780
 8056SOL    HW125067   2.047   2.760   2.762
 8056SOL    HW225068   1.915   2.846   2.805
 8057SOL     OW25069   3.103   1.778   1.585
 8057SOL    HW125070   3.183   1.838   1.587
 8057SOL    HW225071   3.039   1.811   1.516
 8058SOL     OW25072   3.470   6.514   2.116
 8058SOL    HW125073   3.533   6.475   2.184
 8058SOL    HW225074   3.511   6.508   2.025
 8059SOL     OW25075   4.675   4.000   5.414
 8059SOL    HW125076   4.673   3.910   5.371
 8059SOL    HW225077   4.582   4.033   5.427
 8060SOL     OW25078   0.351   1.299   5.252
 8060SOL    HW125079   0.299   1.215   5.240
 8060SOL    HW225080   0.383   1.332   5.163
 8061SOL     OW25081   6.603   0.945   1.067
 8061SOL    HW125082   6.552   0.898   0.995
 8061SOL    HW225083   6.673   1.003   1.027
 8062SOL     OW25084   4.633   4.733   6.198
 8062SOL    HW125085   4.549   4.771   6.237
 8062SOL    HW225086   4.652   4.779   6.111
 8063SOL     OW25087   2.470   4.460   2.641
 8063SOL    HW125088   2.395   4.493   2.698
 8063SOL    HW225089   2.464   4.503   2.551
 8064SOL     OW25090   6.826   2.614   0.260
 8064SOL    HW125091   6.901   2.552   0.235
 8064SOL    HW225092   6.817   2.618   0.359
 8065SOL     OW25093   4.440   0.428   6.380
 8065SOL    HW125094   4.477   0.341   6.413
 8065SOL    HW225095   4.372   0.462   6.445
 8066SOL     OW25096   6.434   1.165   6.006
 8066SOL    HW125097   6.423   1.204   5.914
 8066SOL    HW225098   6.345   1.166   6.053
 8067SOL     OW25099   5.290   0.312   4.317
 8067SOL    HW125100   5.389   0.303   4.307
 8067SOL    HW225101   5.271   0.376   4.392
 8068SOL     OW25102   0.249   4.206   0.680
 8068SOL    HW125103   0.266   4.217   0.583
 8068SOL    HW225104   0.318   4.145   0.720
 8069SOL     OW25105   0.908   2.709   1.570
 8069SOL    HW125106   0.969   2.741   1.497
 8069SOL    HW225107   0.938   2.618   1.600
 8070SOL     OW25108   5.012   4.012   1.731
 8070SOL    HW125109   4.924   4.032   1.776
 8070SOL    HW225110   5.085   4.012   1.800
 8071SOL     OW25111   1.788   6.937   6.247
 8071SOL    HW125112   1.712   6.938   6.312
 8071SOL    HW225113   1.779   6.859   6.186
 8072SOL     OW25114   2.759   2.146   5.521
 8072SOL    HW125115   2.832   2.208   5.549
 8072SOL    HW225116   2.797   2.055   5.505
 8073SOL     OW25117   5.286   6.726   6.962
 8073SOL    HW125118   5.270   6.794   0.012
 8073SOL    HW225119   5.214   6.657   6.965
 8074SOL     OW25120   6.190   0.697   1.112
 8074SOL    HW125121   6.186   0.597   1.109
 8074SOL    HW225122   6.097   0.733   1.124
 8075SOL     OW25123   0.407   0.153   1.066
 8075SOL    HW125124   0.471   0.189   1.134
 8075SOL    HW225125   0.445   0.070   1.026
 8076SOL     OW25126   6.786   5.785   0.500
 8076SOL    HW125127   6.770   5.751   0.592
 8076SOL    HW225128   6.884   5.785   0.480
 8077SOL     OW25129   6.395   4.497   0.880
 8077SOL    HW125130   6.299   4.472   0.866
 8077SOL    HW225131   6.414   4.583   0.833
 8078SOL     OW25132   5.556   1.997   1.994
 8078SOL    HW125133   5.612   1.914   1.980
 8078SOL    HW225134   5.615   2.071   2.027
 8079SOL     OW25135   6.960   0.639   0.157
 8079SOL    HW125136   6.892   0.659   0.227
 8079SOL    HW225137   6.920   0.653   0.067
 8080SOL     OW25138   0.060   3.316   3.779
 8080SOL    HW125139   0.087   3.406   3.812
 8080SOL    HW225140   0.133   3.278   3.722
 8081SOL     OW25141   5.629   0.439   5.361
 8081SOL    HW125142   5.688   0.382   5.304
 8081SOL    HW225143   5.568   0.493   5.303
 8082SOL     OW25144   4.648   1.629   4.823
 8082SOL    HW125145   4.571   1.600   4.766
 8082SOL    HW225146   4.633   1.723   4.853
 8083SOL     OW25147   6.840   2.834   3.767
 8083SOL    HW125148   6.906   2.830   3.692
 8083SOL    HW225149   6.883   2.798   3.851
 8084SOL     OW25150   5.436   1.783   6.993
 8084SOL    HW125151   5.458   1.783   6.896
 8084SOL    HW225152   5.478   1.862   0.016
 8085SOL     OW25153   1.568   5.766   4.297
 8085SOL    HW125154   1.607   5.688   4.247
 8085SOL    HW225155   1.629   5.845   4.289
 8086SOL     OW25156   6.810   2.246   2.117
 8086SOL    HW125157   6.824   2.161   2.067
 8086SOL    HW225158   6.854   2.239   2.207
 8087SOL     OW25159   6.279   0.784   6.083
 8087SOL    HW125160   6.281   0.831   6.171
 8087SOL    HW225161   6.353   0.717   6.079
 8088SOL     OW25162   6.589   0.164   5.134
 8088SOL    HW125163   6.608   0.214   5.049
 8088SOL    HW225164   6.592   0.066   5.116
 8089SOL     OW25165   6.171   0.913   0.412
 8089SOL    HW125166   6.074   0.937   0.412
 8089SOL    HW225167   6.188   0.841   0.479
 8090SOL     OW25168   4.382   2.033   4.738
 8090SOL    HW125169   4.327   2.116   4.745
 8090SOL    HW225170   4.440   2.038   4.656
 8091SOL     OW25171   1.010   3.522   5.275
 8091SOL    HW125172   1.016   3.510   5.176
 8091SOL    HW225173   0.951   3.601   5.295
 8092SOL     OW25174   4.155   0.174   5.272
 8092SOL    HW125175   4.183   0.082   5.244
 8092SOL    HW225176   4.181   0.240   5.202
 8093SOL     OW25177   4.224   0.301   3.374
 8093SOL    HW125178   4.209   0.389   3.328
 8093SOL    HW225179   4.146   0.281   3.433
 8094SOL     OW25180   2.081   4.939   3.478
 8094SOL    HW125181   2.048   4.975   3.390
 8094SOL    HW225182   2.020   4.969   3.551
 8095SOL     OW25183   1.014   5.858   4.555
 8095SOL    HW125184   1.007   5.870   4.456
 8095SOL    HW225185   0.924   5.838   4.593
 8096SOL     OW25186   0.613   4.798   0.752
 8096SOL    HW125187   0.547   4.859   0.708
 8096SOL    HW225188   0.655   4.845   0.830
 8097SOL     OW25189   4.408   0.242   0.283
 8097SOL    HW125190   4.387   0.230   0.186
 8097SOL    HW225191   4.423   0.339   0.302
 8098SOL     OW25192   2.537   6.315   5.358
 8098SOL    HW125193   2.515   6.412   5.371
 8098SOL    HW225194   2.530   6.292   5.261
 8099SOL     OW25195   2.137   3.684   2.944
 8099SOL    HW125196   2.150   3.725   2.854
 8099SOL    HW225197   2.066   3.614   2.938
 8100SOL     OW25198   6.951   6.417   0.276
 8100SOL    HW125199   0.014   6.391   0.229
 8100SOL    HW225200   6.971   6.489   0.343
 8101SOL     OW25201   3.054   4.890   6.835
 8101SOL    HW125202   3.106   4.898   6.920
 8101SOL    HW225203   3.029   4.794   6.821
 8102SOL     OW25204   1.635   4.363   4.011
 8102SOL    HW125205   1.727   4.323   4.015
 8102SOL    HW225206   1.575   4.315   4.075
 8103SOL     OW25207   4.521   0.754   1.715
 8103SOL    HW125208   4.481   0.817   1.649
 8103SOL    HW225209   4.533   0.801   1.803
 8104SOL     OW25210   1.280   6.625   0.206
 8104SOL    HW125211   1.312   6.664   0.119
 8104SOL    HW225212   1.180   6.630   0.208
 8105SOL     OW25213   6.900   0.329   2.781
 8105SOL    HW125214   6.910   0.350   2.683
 8105SOL    HW225215   6.827   0.386   2.820
 8106SOL     OW25216   3.916   6.345   6.945
 8106SOL    HW125217   3.944   6.364   0.018
 8106SOL    HW225218   3.895   6.248   6.936
 8107SOL     OW25219   0.908   6.353   7.020
 8107SOL    HW125220   1.007   6.369   7.021
 8107SOL    HW225221   0.872   6.378   6.930
 8108SOL     OW25222   1.909   0.751   1.051
 8108SOL    HW125223   1.911   0.845   1.018
 8108SOL    HW225224   1.999   0.725   1.086
 8109SOL     OW25225   0.050   3.947   1.896
 8109SOL    HW125226   0.109   3.902   1.829
 8109SOL    HW225227   0.064   3.906   1.986
 8110SOL     OW25228   4.504   4.522   0.300
 8110SOL    HW125229   4.557   4.451   0.347
 8110SOL    HW225230   4.558   4.558   0.224
 8111SOL     OW25231   5.565   2.104   2.469
 8111SOL    HW125232   5.639   2.159   2.430
 8111SOL    HW225233   5.478   2.128   2.426
 8112SOL     OW25234   2.056   4.516   6.584
 8112SOL    HW125235   2.132   4.468   6.541
 8112SOL    HW225236   1.970   4.472   6.558
 8113SOL     OW25237   5.463   5.211   6.141
 8113SOL    HW125238   5.470   5.139   6.072
 8113SOL    HW225239   5.450   5.169   6.231
 8114SOL     OW25240   2.214   2.763   2.699
 8114SOL    HW125241   2.248   2.720   2.615
 8114SOL    HW225242   2.275   2.739   2.775
 8115SOL     OW25243   2.589   1.384   6.180
 8115SOL    HW125244   2.652   1.451   6.220
 8115SOL    HW225245   2.496   1.402   6.213
 8116SOL     OW25246   4.171   3.483   2.342
 8116SOL    HW125247   4.244   3.501   2.276
 8116SOL    HW225248   4.163   3.384   2.355
 8117SOL     OW25249   0.956   0.360   3.685
 8117SOL    HW125250   0.929   0.424   3.757
 8117SOL    HW225251   0.996   0.412   3.609
 8118SOL     OW25252   6.733   2.745   6.367
 8118SOL    HW125253   6.796   2.725   6.292
 8118SOL    HW225254   6.661   2.676   6.370
 8119SOL     OW25255   5.515   4.971   6.974
 8119SOL    HW125256   5.420   4.985   7.002
 8119SOL    HW225257   5.544   5.046   6.914
 8120SOL     OW25258   2.108   6.145   2.588
 8120SOL    HW125259   2.019   6.103   2.602
 8120SOL    HW225260   2.107   6.239   2.623
 8121SOL     OW25261   1.303   2.500   3.060
 8121SOL    HW125262   1.329   2.453   2.976
 8121SOL    HW225263   1.258   2.435   3.122
 8122SOL     OW25264   0.775   4.949   0.932
 8122SOL    HW125265   0.854   4.931   0.992
 8122SOL    HW225266   0.709   5.006   0.980
 8123SOL     OW25267   6.779   0.797   5.955
 8123SOL    HW125268   6.863   0.821   6.005
 8123SOL    HW225269   6.780   0.842   5.865
 8124SOL     OW25270   6.127   6.352   5.542
 8124SOL    HW125271   6.177   6.379   5.625
 8124SOL    HW225272   6.188   6.361   5.463
 8125SOL     OW25273   0.549   6.095   2.228
 8125SOL    HW125274   0.643   6.119   2.203
 8125SOL    HW225275   0.546   6.065   2.323
 8126SOL     OW25276   3.391   5.625   4.386
 8126SOL    HW125277   3.370   5.575   4.303
 8126SOL    HW225278   3.402   5.722   4.365
 8127SOL     OW25279   4.252   1.374   6.064
 8127SOL    HW125280   4.294   1.380   6.155
 8127SOL    HW225281   4.230   1.466   6.031
 8128SOL     OW25282   3.797   3.472   1.003
 8128SOL    HW125283   3.871   3.492   0.938
 8128SOL    HW225284   3.709   3.500   0.963
 8129SOL     OW25285   6.405   2.721   3.319
 8129SOL    HW125286   6.467   2.756   3.249
 8129SOL    HW225287   6.313   2.710   3.279
 8130SOL     OW25288   0.120   6.319   0.118
 8130SOL    HW125289   0.196   6.363   0.071
 8130SOL    HW225290   0.061   6.274   0.050
 8131SOL     OW25291   2.293   2.804   0.654
 8131SOL    HW125292   2.248   2.754   0.728
 8131SOL    HW225293   2.270   2.901   0.661
 8132SOL     OW25294   5.929   1.497   4.492
 8132SOL    HW125295   5.840   1.527   4.526
 8132SOL    HW225296   5.979   1.576   4.455
 8133SOL     OW25297   3.806   5.370   1.268
 8133SOL    HW125298   3.873   5.442   1.287
 8133SOL    HW225299   3.816   5.339   1.174
 8134SOL     OW25300   6.069   1.542   6.825
 8134SOL    HW125301   6.109   1.493   6.903
 8134SOL    HW225302   6.009   1.614   6.858
 8135SOL     OW25303   2.453   6.096   2.009
 8135SOL    HW125304   2.487   6.030   2.076
 8135SOL    HW225305   2.480   6.067   1.917
 8136SOL     OW25306   4.539   4.749   2.124
 8136SOL    HW125307   4.476   4.673   2.105
 8136SOL    HW225308   4.501   4.834   2.086
 8137SOL     OW25309   3.934   1.360   5.775
 8137SOL    HW125310   3.856   1.311   5.815
 8137SOL    HW225311   4.011   1.297   5.766
 8138SOL     OW25312   6.340   0.421   2.727
 8138SOL    HW125313   6.428   0.404   2.682
 8138SOL    HW225314   6.279   0.343   2.713
 8139SOL     OW25315   0.921   1.419   4.541
 8139SOL    HW125316   0.829   1.407   4.505
 8139SOL    HW225317   0.948   1.337   4.591
 8140SOL     OW25318   4.759   2.537   3.072
 8140SOL    HW125319   4.696   2.558   3.147
 8140SOL    HW225320   4.737   2.596   2.993
 8141SOL     OW25321   5.679   4.096   3.683
 8141SOL    HW125322   5.702   4.167   3.749
 8141SOL    HW225323   5.749   4.024   3.686
 8142SOL     OW25324   0.829   6.063   0.412
 8142SOL    HW125325   0.864   6.082   0.320
 8142SOL    HW225326   0.766   6.135   0.439
 8143SOL     OW25327   6.900   2.645   6.164
 8143SOL    HW125328   6.825   2.642   6.098
 8143SOL    HW225329   6.904   2.558   6.214
 8144SOL     OW25330   4.803   6.101   0.159
 8144SOL    HW125331   4.778   6.006   0.177
 8144SOL    HW225332   4.728   6.162   0.184
 8145SOL     OW25333   4.744   6.252   4.359
 8145SOL    HW125334   4.661   6.222   4.406
 8145SOL    HW225335   4.800   6.172   4.337
 8146SOL     OW25336   3.158   1.788   3.374
 8146SOL    HW125337   3.146   1.718   3.303
 8146SOL    HW225338   3.145   1.746   3.464
 8147SOL     OW25339   5.001   1.292   3.339
 8147SOL    HW125340   5.064   1.343   3.281
 8147SOL    HW225341   4.978   1.205   3.295
 8148SOL     OW25342   0.568   3.430   2.903
 8148SOL    HW125343   0.655   3.382   2.910
 8148SOL    HW225344   0.570   3.492   2.825
 8149SOL     OW25345   3.756   5.208   4.148
 8149SOL    HW125346   3.710   5.206   4.236
 8149SOL    HW225347   3.771   5.115   4.116
 8150SOL     OW25348   1.257   5.776   1.156
 8150SOL    HW125349   1.194   5.699   1.150
 8150SOL    HW225350   1.232   5.833   1.235
 8151SOL     OW25351   1.150   1.647   5.028
 8151SOL    HW125352   1.179   1.649   4.932
 8151SOL    HW225353   1.213   1.702   5.083
 8152SOL     OW25354   0.746   1.010   3.230
 8152SOL    HW125355   0.830   0.995   3.178
 8152SOL    HW225356   0.739   1.107   3.255
 8153SOL     OW25357   2.468   5.837   0.285
 8153SOL    HW125358   2.496   5.864   0.377
 8153SOL    HW225359   2.493   5.909   0.220
 8154SOL     OW25360   1.995   6.226   3.709
 8154SOL    HW125361   2.041   6.314   3.706
 8154SOL    HW225362   2.063   6.153   3.697
 8155SOL     OW25363   3.623   3.761   4.759
 8155SOL    HW125364   3.603   3.696   4.686
 8155SOL    HW225365   3.704   3.813   4.736
 8156SOL     OW25366   0.536   6.763   5.015
 8156SOL    HW125367   0.537   6.800   4.923
 8156SOL    HW225368   0.443   6.735   5.039
 8157SOL     OW25369   5.829   2.311   6.841
 8157SOL    HW125370   5.784   2.226   6.816
 8157SOL    HW225371   5.772   2.361   6.907
 8158SOL     OW25372   0.831   6.078   2.666
 8158SOL    HW125373   0.832   6.138   2.746
 8158SOL    HW225374   0.850   6.132   2.584
 8159SOL     OW25375   0.423   6.308   0.261
 8159SOL    HW125376   0.370   6.229   0.293
 8159SOL    HW225377   0.417   6.313   0.161
 8160SOL     OW25378   5.519   2.229   1.154
 8160SOL    HW125379   5.524   2.168   1.234
 8160SOL    HW225380   5.426   2.228   1.118
 8161SOL     OW25381   4.187   3.742   1.486
 8161SOL    HW125382   4.121   3.712   1.417
 8161SOL    HW225383   4.170   3.694   1.572
 8162SOL     OW25384   5.939   0.957   1.576
 8162SOL    HW125385   6.027   0.979   1.617
 8162SOL    HW225386   5.924   1.015   1.496
 8163SOL     OW25387   2.249   2.864   5.258
 8163SOL    HW125388   2.288   2.776   5.285
 8163SOL    HW225389   2.309   2.907   5.190
 8164SOL     OW25390   5.642   4.332   1.685
 8164SOL    HW125391   5.686   4.388   1.615
 8164SOL    HW225392   5.579   4.268   1.641
 8165SOL     OW25393   1.278   3.343   1.595
 8165SOL    HW125394   1.237   3.251   1.596
 8165SOL    HW225395   1.264   3.385   1.505
 8166SOL     OW25396   2.515   6.936   2.351
 8166SOL    HW125397   2.515   6.908   2.255
 8166SOL    HW225398   2.600   6.987   2.370
 8167SOL     OW25399   5.740   2.793   4.492
 8167SOL    HW125400   5.753   2.802   4.393
 8167SOL    HW225401   5.723   2.697   4.514
 8168SOL     OW25402   3.016   1.887   2.326
 8168SOL    HW125403   3.001   1.823   2.402
 8168SOL    HW225404   2.931   1.938   2.309
 8169SOL     OW25405   5.460   3.997   5.452
 8169SOL    HW125406   5.440   4.062   5.379
 8169SOL    HW225407   5.416   4.027   5.537
 8170SOL     OW25408   1.081   5.009   3.887
 8170SOL    HW125409   0.991   4.979   3.855
 8170SOL    HW225410   1.149   4.988   3.818
 8171SOL     OW25411   1.766   0.830   6.623
 8171SOL    HW125412   1.778   0.749   6.566
 8171SOL    HW225413   1.669   0.841   6.644
 8172SOL     OW25414   6.696   6.375   2.101
 8172SOL    HW125415   6.731   6.308   2.167
 8172SOL    HW225416   6.770   6.432   2.069
 8173SOL     OW25417   6.604   3.056   0.255
 8173SOL    HW125418   6.657   3.084   0.175
 8173SOL    HW225419   6.640   2.969   0.290
 8174SOL     OW25420   4.902   6.398   2.937
 8174SOL    HW125421   4.931   6.321   2.995
 8174SOL    HW225422   4.805   6.389   2.915
 8175SOL     OW25423   1.268   2.361   3.314
 8175SOL    HW125424   1.367   2.354   3.300
 8175SOL    HW225425   1.249   2.374   3.411
 8176SOL     OW25426   4.138   5.238   3.324
 8176SOL    HW125427   4.096   5.314   3.374
 8176SOL    HW225428   4.118   5.246   3.227
 8177SOL     OW25429   1.973   6.705   6.273
 8177SOL    HW125430   2.042   6.650   6.319
 8177SOL    HW225431   1.989   6.802   6.293
 8178SOL     OW25432   1.636   6.091   6.541
 8178SOL    HW125433   1.603   6.054   6.454
 8178SOL    HW225434   1.632   6.020   6.611
 8179SOL     OW25435   4.031   0.499   6.364
 8179SOL    HW125436   4.025   0.589   6.321
 8179SOL    HW225437   4.082   0.437   6.304
 8180SOL     OW25438   4.750   4.216   4.450
 8180SOL    HW125439   4.845   4.248   4.442
 8180SOL    HW225440   4.691   4.293   4.475
 8181SOL     OW25441   2.408   2.285   2.164
 8181SOL    HW125442   2.442   2.242   2.248
 8181SOL    HW225443   2.330   2.344   2.186
 8182SOL     OW25444   5.562   3.078   5.377
 8182SOL    HW125445   5.536   3.059   5.282
 8182SOL    HW225446   5.526   3.006   5.436
 8183SOL     OW25447   1.784   3.157   3.286
 8183SOL    HW125448   1.716   3.212   3.334
 8183SOL    HW225449   1.876   3.185   3.316
 8184SOL     OW25450   6.487   6.098   4.650
 8184SOL    HW125451   6.487   6.073   4.747
 8184SOL    HW225452   6.580   6.096   4.615
 8185SOL     OW25453   0.765   2.394   3.436
 8185SOL    HW125454   0.827   2.420   3.362
 8185SOL    HW225455   0.670   2.400   3.403
 8186SOL     OW25456   4.607   3.474   6.478
 8186SOL    HW125457   4.695   3.490   6.523
 8186SOL    HW225458   4.545   3.428   6.541
 8187SOL     OW25459   2.137   1.590   5.825
 8187SOL    HW125460   2.078   1.573   5.746
 8187SOL    HW225461   2.230   1.560   5.804
 8188SOL     OW25462   5.678   3.417   3.193
 8188SOL    HW125463   5.769   3.409   3.235
 8188SOL    HW225464   5.647   3.327   3.164
 8189SOL     OW25465   6.716   5.035   3.331
 8189SOL    HW125466   6.643   5.029   3.400
 8189SOL    HW225467   6.730   5.131   3.307
 8190SOL     OW25468   5.944   3.446   2.977
 8190SOL    HW125469   5.940   3.421   3.073
 8190SOL    HW225470   5.969   3.543   2.969
 8191SOL     OW25471   6.063   4.903   1.216
 8191SOL    HW125472   5.982   4.918   1.273
 8191SOL    HW225473   6.075   4.805   1.202
 8192SOL     OW25474   1.487   2.123   0.846
 8192SOL    HW125475   1.439   2.053   0.793
 8192SOL    HW225476   1.572   2.085   0.882
 8193SOL     OW25477   3.966   6.239   6.027
 8193SOL    HW125478   3.984   6.236   5.929
 8193SOL    HW225479   4.052   6.253   6.076
 8194SOL     OW25480   1.851   0.913   2.615
 8194SOL    HW125481   1.934   0.863   2.641
 8194SOL    HW225482   1.774   0.850   2.611
 8195SOL     OW25483   5.910   1.262   1.606
 8195SOL    HW125484   5.903   1.206   1.524
 8195SOL    HW225485   5.847   1.226   1.676
 8196SOL     OW25486   2.679   0.663   1.373
 8196SOL    HW125487   2.730   0.584   1.341
 8196SOL    HW225488   2.719   0.746   1.334
 8197SOL     OW25489   0.560   6.749   0.742
 8197SOL    HW125490   0.460   6.759   0.739
 8197SOL    HW225491   0.590   6.694   0.664
 8198SOL     OW25492   2.753   1.529   2.855
 8198SOL    HW125493   2.749   1.440   2.901
 8198SOL    HW225494   2.673   1.584   2.882
 8199SOL     OW25495   5.502   4.715   1.159
 8199SOL    HW125496   5.570   4.725   1.232
 8199SOL    HW225497   5.465   4.622   1.161
 8200SOL     OW25498   3.602   4.310   1.432
 8200SOL    HW125499   3.533   4.319   1.504
 8200SOL    HW225500   3.692   4.329   1.470
 8201SOL     OW25501   0.901   0.880   5.164
 8201SOL    HW125502   0.895   0.931   5.249
 8201SOL    HW225503   0.939   0.940   5.092
 8202SOL     OW25504   1.672   3.128   4.132
 8202SOL    HW125505   1.610   3.149   4.057
 8202SOL    HW225506   1.620   3.114   4.216
 8203SOL     OW25507   6.733   4.207   6.154
 8203SOL    HW125508   6.811   4.176   6.100
 8203SOL    HW225509   6.755   4.199   6.251
 8204SOL     OW25510   3.110   6.891   1.231
 8204SOL    HW125511   3.091   6.925   1.138
 8204SOL    HW225512   3.198   6.928   1.262
 8205SOL     OW25513   3.840   6.981   2.905
 8205SOL    HW125514   3.880   0.024   2.840
 8205SOL    HW225515   3.812   6.898   2.856
 8206SOL     OW25516   3.676   1.905   4.495
 8206SOL    HW125517   3.697   1.887   4.591
 8206SOL    HW225518   3.690   2.002   4.475
 8207SOL     OW25519   2.564   6.022   0.071
 8207SOL    HW125520   2.486   6.084   0.078
 8207SOL    HW225521   2.576   5.994   6.997
 8208SOL     OW25522   1.170   5.898   0.932
 8208SOL    HW125523   1.197   5.849   0.849
 8208SOL    HW225524   1.196   5.846   1.013
 8209SOL     OW25525   0.903   5.809   4.969
 8209SOL    HW125526   0.917   5.715   4.936
 8209SOL    HW225527   0.862   5.864   4.896
 8210SOL     OW25528   2.353   0.651   1.306
 8210SOL    HW125529   2.373   0.565   1.353
 8210SOL    HW225530   2.405   0.725   1.349
 8211SOL     OW25531   3.133   3.955   4.034
 8211SOL    HW125532   3.170   4.038   4.076
 8211SOL    HW225533   3.033   3.962   4.030
 8212SOL     OW25534   4.264   4.832   0.034
 8212SOL    HW125535   4.202   4.772   7.006
 8212SOL    HW225536   4.284   4.794   0.124
 8213SOL     OW25537   4.827   4.065   2.201
 8213SOL    HW125538   4.858   4.130   2.271
 8213SOL    HW225539   4.743   4.099   2.159
 8214SOL     OW25540   4.300   5.092   3.502
 8214SOL    HW125541   4.217   5.140   3.475
 8214SOL    HW225542   4.374   5.113   3.438
 8215SOL     OW25543   2.912   6.294   4.995
 8215SOL    HW125544   2.890   6.303   5.092
 8215SOL    HW225545   2.853   6.355   4.941
 8216SOL     OW25546   6.265   5.130   0.038
 8216SOL    HW125547   6.273   5.092   6.967
 8216SOL    HW225548   6.297   5.063   0.104
 8217SOL     OW25549   3.731   6.226   3.761
 8217SOL    HW125550   3.791   6.190   3.689
 8217SOL    HW225551   3.639   6.188   3.750
 8218SOL     OW25552   2.316   6.127   4.017
 8218SOL    HW125553   2.415   6.139   4.010
 8218SOL    HW225554   2.283   6.076   3.937
 8219SOL     OW25555   3.455   3.601   4.157
 8219SOL    HW125556   3.518   3.544   4.104
 8219SOL    HW225557   3.383   3.636   4.096
 8220SOL     OW25558   4.519   4.330   6.081
 8220SOL    HW125559   4.616   4.307   6.083
 8220SOL    HW225560   4.474   4.278   6.008
 8221SOL     OW25561   6.881   3.914   3.995
 8221SOL    HW125562   6.831   3.999   3.977
 8221SOL    HW225563   6.849   3.875   4.081
 8222SOL     OW25564   4.834   2.246   6.456
 8222SOL    HW125565   4.767   2.311   6.493
 8222SOL    HW225566   4.812   2.226   6.361
 8223SOL     OW25567   1.019   6.310   5.539
 8223SOL    HW125568   1.060   6.237   5.595
 8223SOL    HW225569   1.065   6.313   5.450
 8224SOL     OW25570   5.350   0.929   5.251
 8224SOL    HW125571   5.335   0.918   5.349
 8224SOL    HW225572   5.278   0.882   5.200
 8225SOL     OW25573   5.985   2.450   0.183
 8225SOL    HW125574   5.958   2.396   0.262
 8225SOL    HW225575   6.084   2.457   0.178
 8226SOL     OW25576   3.625   0.578   6.829
 8226SOL    HW125577   3.646   0.484   6.800
 8226SOL    HW225578   3.697   0.610   6.891
 8227SOL     OW25579   5.897   3.561   2.290
 8227SOL    HW125580   5.925   3.492   2.223
 8227SOL    HW225581   5.850   3.516   2.366
 8228SOL     OW25582   2.855   1.324   4.380
 8228SOL    HW125583   2.782   1.279   4.328
 8228SOL    HW225584   2.896   1.396   4.324
 8229SOL     OW25585   4.403   3.930   0.564
 8229SOL    HW125586   4.496   3.932   0.600
 8229SOL    HW225587   4.339   3.950   0.638
 8230SOL     OW25588   6.544   0.618   6.165
 8230SOL    HW125589   6.631   0.572   6.149
 8230SOL    HW225590   6.553   0.715   6.140
 8231SOL     OW25591   3.508   1.744   1.507
 8231SOL    HW125592   3.599   1.761   1.468
 8231SOL    HW225593   3.468   1.663   1.463
 8232SOL     OW25594   3.772   6.316   4.220
 8232SOL    HW125595   3.720   6.371   4.285
 8232SOL    HW225596   3.786   6.368   4.136
 8233SOL     OW25597   3.169   0.393   6.928
 8233SOL    HW125598   3.235   0.468   6.918
 8233SOL    HW225599   3.103   0.397   6.853
 8234SOL     OW25600   0.653   2.447   6.424
 8234SOL    HW125601   0.640   2.530   6.369
 8234SOL    HW225602   0.745   2.447   6.463
 8235SOL     OW25603   1.216   6.258   0.241
 8235SOL    HW125604   1.198   6.314   0.160
 8235SOL    HW225605   1.277   6.308   0.302
 8236SOL     OW25606   1.077   0.152   0.471
 8236SOL    HW125607   1.015   0.202   0.532
 8236SOL    HW225608   1.149   0.214   0.440
 8237SOL     OW25609   4.005   4.709   5.489
 8237SOL    HW125610   4.082   4.764   5.523
 8237SOL    HW225611   3.977   4.644   5.559
 8238SOL     OW25612   6.793   5.337   6.331
 8238SOL    HW125613   6.852   5.304   6.404
 8238SOL    HW225614   6.820   5.295   6.244
 8239SOL     OW25615   4.294   2.417   3.850
 8239SOL    HW125616   4.245   2.369   3.923
 8239SOL    HW225617   4.373   2.464   3.888
 8240SOL     OW25618   3.654   3.755   5.342
 8240SOL    HW125619   3.617   3.828   5.285
 8240SOL    HW225620   3.697   3.795   5.423
 8241SOL     OW25621   0.464   3.172   5.788
 8241SOL    HW125622   0.454   3.076   5.759
 8241SOL    HW225623   0.561   3.192   5.802
 8242SOL     OW25624   0.482   3.538   3.193
 8242SOL    HW125625   0.481   3.454   3.247
 8242SOL    HW225626   0.525   3.520   3.105
 8243SOL     OW25627   2.213   5.869   3.877
 8243SOL    HW125628   2.308   5.860   3.847
 8243SOL    HW225629   2.195   5.805   3.952
 8244SOL     OW25630   5.405   0.108   4.649
 8244SOL    HW125631   5.501   0.136   4.649
 8244SOL    HW225632   5.367   0.123   4.741
 8245SOL     OW25633   5.855   4.194   2.463
 8245SOL    HW125634   5.804   4.200   2.378
 8245SOL    HW225635   5.792   4.198   2.541
 8246SOL     OW25636   2.213   4.531   0.050
 8246SOL    HW125637   2.150   4.507   6.997
 8246SOL    HW225638   2.219   4.631   0.057
 8247SOL     OW25639   1.908   4.713   3.378
 8247SOL    HW125640   1.890   4.642   3.446
 8247SOL    HW225641   2.006   4.734   3.377
 8248SOL     OW25642   6.685   0.234   2.255
 8248SOL    HW125643   6.655   0.139   2.245
 8248SOL    HW225644   6.782   0.236   2.278
 8249SOL     OW25645   3.610   6.841   5.610
 8249SOL    HW125646   3.704   6.874   5.620
 8249SOL    HW225647   3.567   6.885   5.532
 8250SOL     OW25648   1.262   1.701   6.767
 8250SOL    HW125649   1.223   1.610   6.750
 8250SOL    HW225650   1.234   1.733   6.858
 8251SOL     OW25651   1.306   1.685   6.209
 8251SOL    HW125652   1.260   1.598   6.191
 8251SOL    HW225653   1.315   1.698   6.307
 8252SOL     OW25654   1.023   1.167   6.386
 8252SOL    HW125655   1.030   1.154   6.287
 8252SOL    HW225656   0.954   1.238   6.405
 8253SOL     OW25657   0.173   3.987   5.032
 8253SOL    HW125658   0.116   3.904   5.029
 8253SOL    HW225659   0.269   3.961   5.030
 8254SOL     OW25660   4.875   4.471   0.237
 8254SOL    HW125661   4.969   4.468   0.271
 8254SOL    HW225662   4.841   4.378   0.222
 8255SOL     OW25663   1.424   6.269   5.544
 8255SOL    HW125664   1.389   6.354   5.582
 8255SOL    HW225665   1.384   6.191   5.593
 8256SOL     OW25666   1.663   5.846   2.725
 8256SOL    HW125667   1.648   5.923   2.786
 8256SOL    HW225668   1.740   5.867   2.664
 8257SOL     OW25669   4.537   4.437   3.353
 8257SOL    HW125670   4.556   4.349   3.311
 8257SOL    HW225671   4.610   4.459   3.418
 8258SOL     OW25672   0.405   3.255   5.008
 8258SOL    HW125673   0.430   3.307   5.090
 8258SOL    HW225674   0.437   3.304   4.927
 8259SOL     OW25675   5.665   3.766   4.152
 8259SOL    HW125676   5.568   3.749   4.170
 8259SOL    HW225677   5.696   3.707   4.078
 8260SOL     OW25678   5.064   2.633   6.515
 8260SOL    HW125679   5.012   2.554   6.547
 8260SOL    HW225680   5.008   2.716   6.523
 8261SOL     OW25681   5.410   2.552   2.784
 8261SOL    HW125682   5.361   2.528   2.701
 8261SOL    HW225683   5.383   2.490   2.858
 8262SOL     OW25684   5.237   4.060   1.909
 8262SOL    HW125685   5.274   4.149   1.883
 8262SOL    HW225686   5.305   4.009   1.961
 8263SOL     OW25687   6.765   1.274   6.984
 8263SOL    HW125688   6.825   1.352   7.004
 8263SOL    HW225689   6.670   1.298   7.003
 8264SOL     OW25690   3.403   1.592   1.777
 8264SOL    HW125691   3.428   1.500   1.747
 8264SOL    HW225692   3.393   1.652   1.697
 8265SOL     OW25693   5.032   5.584   6.740
 8265SOL    HW125694   4.981   5.645   6.800
 8265SOL    HW225695   5.128   5.582   6.768
 8266SOL     OW25696   4.655   2.615   2.823
 8266SOL    HW125697   4.718   2.552   2.779
 8266SOL    HW225698   4.670   2.707   2.789
 8267SOL     OW25699   2.088   3.140   2.910
 8267SOL    HW125700   2.131   3.088   2.984
 8267SOL    HW225701   2.144   3.133   2.828
 8268SOL     OW25702   2.477   5.185   1.151
 8268SOL    HW125703   2.533   5.267   1.163
 8268SOL    HW225704   2.537   5.105   1.144
 8269SOL     OW25705   6.710   1.886   3.171
 8269SOL    HW125706   6.724   1.976   3.129
 8269SOL    HW225707   6.717   1.894   3.270
 8270SOL     OW25708   3.838   4.880   0.057
 8270SOL    HW125709   3.782   4.960   0.079
 8270SOL    HW225710   3.858   4.830   0.142
 8271SOL     OW25711   2.685   6.864   5.152
 8271SOL    HW125712   2.747   6.942   5.154
 8271SOL    HW225713   2.597   6.892   5.114
 8272SOL     OW25714   0.587   0.645   1.924
 8272SOL    HW125715   0.656   0.709   1.889
 8272SOL    HW225716   0.532   0.692   1.994
 8273SOL     OW25717   5.040   0.111   5.978
 8273SOL    HW125718   4.988   0.179   6.031
 8273SOL    HW225719   4.995   0.096   5.890
 8274SOL     OW25720   5.561   6.755   3.804
 8274SOL    HW125721   5.588   6.659   3.809
 8274SOL    HW225722   5.476   6.764   3.752
 8275SOL     OW25723   4.902   0.683   4.214
 8275SOL    HW125724   4.911   0.594   4.258
 8275SOL    HW225725   4.988   0.734   4.222
 8276SOL     OW25726   5.264   2.723   0.833
 8276SOL    HW125727   5.252   2.675   0.920
 8276SOL    HW225728   5.361   2.738   0.816
 8277SOL     OW25729   1.127   6.923   1.754
 8277SOL    HW125730   1.043   6.883   1.718
 8277SOL    HW225731   1.164   6.865   1.827
 8278SOL     OW25732   1.711   0.652   1.556
 8278SOL    HW125733   1.764   0.667   1.472
 8278SOL    HW225734   1.616   0.632   1.532
 8279SOL     OW25735   6.166   4.571   5.686
 8279SOL    HW125736   6.203   4.557   5.594
 8279SOL    HW225737   6.067   4.589   5.680
 8280SOL     OW25738   0.355   5.039   6.955
 8280SOL    HW125739   0.398   4.951   6.932
 8280SOL    HW225740   0.263   5.022   6.992
 8281SOL     OW25741   2.747   4.785   7.003
 8281SOL    HW125742   2.667   4.738   6.964
 8281SOL    HW225743   2.831   4.747   6.963
 8282SOL     OW25744   4.635   3.236   0.862
 8282SOL    HW125745   4.674   3.323   0.893
 8282SOL    HW225746   4.648   3.167   0.933
 8283SOL     OW25747   0.938   1.879   3.463
 8283SOL    HW125748   0.974   1.914   3.377
 8283SOL    HW225749   0.932   1.953   3.530
 8284SOL     OW25750   4.939   2.514   1.148
 8284SOL    HW125751   4.850   2.470   1.134
 8284SOL    HW225752   4.931   2.583   1.220
 8285SOL     OW25753   0.288   5.270   6.812
 8285SOL    HW125754   0.324   5.185   6.852
 8285SOL    HW225755   0.188   5.265   6.808
 8286SOL     OW25756   6.344   1.964   6.750
 8286SOL    HW125757   6.361   2.042   6.810
 8286SOL    HW225758   6.410   1.892   6.769
 8287SOL     OW25759   0.723   1.418   2.944
 8287SOL    HW125760   0.673   1.372   2.871
 8287SOL    HW225761   0.662   1.431   3.023
 8288SOL     OW25762   2.367   6.528   2.501
 8288SOL    HW125763   2.407   6.461   2.438
 8288SOL    HW225764   2.422   6.532   2.585
 8289SOL     OW25765   5.873   6.865   0.468
 8289SOL    HW125766   5.829   6.785   0.508
 8289SOL    HW225767   5.819   6.947   0.488
 8290SOL     OW25768   4.612   2.781   1.714
 8290SOL    HW125769   4.529   2.775   1.658
 8290SOL    HW225770   4.658   2.868   1.695
 8291SOL     OW25771   5.600   5.390   5.272
 8291SOL    HW125772   5.526   5.457   5.283
 8291SOL    HW225773   5.600   5.328   5.350
 8292SOL     OW25774   6.851   3.791   5.807
 8292SOL    HW125775   6.812   3.717   5.863
 8292SOL    HW225776   6.905   3.752   5.733
 8293SOL     OW25777   3.006   5.314   4.464
 8293SOL    HW125778   2.907   5.314   4.479
 8293SOL    HW225779   3.032   5.401   4.420
 8294SOL     OW25780   6.550   3.420   5.792
 8294SOL    HW125781   6.461   3.465   5.802
 8294SOL    HW225782   6.616   3.464   5.854
 8295SOL     OW25783   4.234   4.415   1.375
 8295SOL    HW125784   4.176   4.335   1.359
 8295SOL    HW225785   4.229   4.440   1.472
 8296SOL     OW25786   3.221   0.069   2.059
 8296SOL    HW125787   3.140   0.127   2.049
 8296SOL    HW225788   3.194   6.994   2.052
 8297SOL     OW25789   6.229   4.632   1.936
 8297SOL    HW125790   6.145   4.687   1.932
 8297SOL    HW225791   6.206   4.536   1.924
 8298SOL     OW25792   0.021   6.295   0.706
 8298SOL    HW125793   0.083   6.242   0.764
 8298SOL    HW225794   7.021   6.243   0.623
 8299SOL     OW25795   1.242   1.838   7.019
 8299SOL    HW125796   1.180   1.896   0.051
 8299SOL    HW225797   1.330   1.884   7.008
 8300SOL     OW25798   4.248   6.497   4.445
 8300SOL    HW125799   4.232   6.595   4.435
 8300SOL    HW225800   4.263   6.456   4.356
 8301SOL     OW25801   6.109   4.731   6.797
 8301SOL    HW125802   6.122   4.722   6.698
 8301SOL    HW225803   6.176   4.674   6.845
 8302SOL     OW25804   3.772   6.288   6.217
 8302SOL    HW125805   3.705   6.226   6.176
 8302SOL    HW225806   3.844   6.308   6.151
 8303SOL     OW25807   6.984   4.511   4.232
 8303SOL    HW125808   6.959   4.607   4.245
 8303SOL    HW225809   0.026   4.483   4.304
 8304SOL     OW25810   5.659   2.987   3.989
 8304SOL    HW125811   5.589   3.051   4.020
 8304SOL    HW225812   5.677   3.002   3.892
 8305SOL     OW25813   4.707   6.230   5.436
 8305SOL    HW125814   4.612   6.223   5.407
 8305SOL    HW225815   4.767   6.196   5.362
 8306SOL     OW25816   5.574   1.477   3.630
 8306SOL    HW125817   5.620   1.502   3.715
 8306SOL    HW225818   5.476   1.493   3.638
 8307SOL     OW25819   6.843   4.848   4.462
 8307SOL    HW125820   6.890   4.813   4.381
 8307SOL    HW225821   6.745   4.832   4.454
 8308SOL     OW25822   2.339   5.099   0.341
 8308SOL    HW125823   2.345   5.060   0.249
 8308SOL    HW225824   2.285   5.038   0.399
 8309SOL     OW25825   5.771   4.966   2.477
 8309SOL    HW125826   5.690   4.911   2.454
 8309SOL    HW225827   5.807   5.009   2.394
 8310SOL     OW25828   2.142   5.816   2.964
 8310SOL    HW125829   2.173   5.798   2.870
 8310SOL    HW225830   2.055   5.769   2.979
 8311SOL     OW25831   5.064   6.676   2.508
 8311SOL    HW125832   5.127   6.601   2.485
 8311SOL    HW225833   5.016   6.704   2.425
 8312SOL     OW25834   6.795   0.282   0.814
 8312SOL    HW125835   6.792   0.183   0.827
 8312SOL    HW225836   6.834   0.304   0.725
 8313SOL     OW25837   4.831   2.459   5.704
 8313SOL    HW125838   4.859   2.462   5.608
 8313SOL    HW225839   4.908   2.487   5.762
 8314SOL     OW25840   5.446   6.153   4.593
 8314SOL    HW125841   5.373   6.091   4.563
 8314SOL    HW225842   5.422   6.247   4.569
 8315SOL     OW25843   3.617   1.662   0.640
 8315SOL    HW125844   3.618   1.702   0.732
 8315SOL    HW225845   3.574   1.726   0.577
 8316SOL     OW25846   1.661   1.598   4.821
 8316SOL    HW125847   1.737   1.588   4.886
 8316SOL    HW225848   1.586   1.648   4.864
 8317SOL     OW25849   2.450   1.713   6.289
 8317SOL    HW125850   2.507   1.782   6.244
 8317SOL    HW225851   2.384   1.676   6.224
 8318SOL     OW25852   4.149   6.497   5.208
 8318SOL    HW125853   4.069   6.479   5.150
 8318SOL    HW225854   4.126   6.476   5.303
 8319SOL     OW25855   3.024   5.998   6.269
 8319SOL    HW125856   3.012   6.008   6.170
 8319SOL    HW225857   2.979   5.914   6.299
 8320SOL     OW25858   3.989   5.637   5.224
 8320SOL    HW125859   3.920   5.608   5.158
 8320SOL    HW225860   3.966   5.727   5.260
 8321SOL     OW25861   0.409   0.303   0.234
 8321SOL    HW125862   0.354   0.312   0.317
 8321SOL    HW225863   0.397   0.385   0.178
 8322SOL     OW25864   2.249   0.435   1.950
 8322SOL    HW125865   2.315   0.365   1.977
 8322SOL    HW225866   2.251   0.511   2.016
 8323SOL     OW25867   5.899   5.553   6.581
 8323SOL    HW125868   5.995   5.561   6.557
 8323SOL    HW225869   5.883   5.595   6.670
 8324SOL     OW25870   6.461   5.996   5.614
 8324SOL    HW125871   6.476   6.021   5.710
 8324SOL    HW225872   6.541   6.022   5.560
 8325SOL     OW25873   1.526   5.705   5.474
 8325SOL    HW125874   1.430   5.678   5.471
 8325SOL    HW225875   1.534   5.792   5.522
 8326SOL     OW25876   3.194   0.799   6.625
 8326SOL    HW125877   3.180   0.871   6.557
 8326SOL    HW225878   3.245   0.836   6.703
 8327SOL     OW25879   0.361   6.314   5.633
 8327SOL    HW125880   0.336   6.381   5.702
 8327SOL    HW225881   0.384   6.361   5.547
 8328SOL     OW25882   0.713   6.946   0.299
 8328SOL    HW125883   0.653   6.870   0.323
 8328SOL    HW225884   0.806   6.928   0.331
 8329SOL     OW25885   1.584   2.243   5.406
 8329SOL    HW125886   1.523   2.256   5.485
 8329SOL    HW225887   1.609   2.332   5.368
 8330SOL     OW25888   3.708   6.786   6.891
 8330SOL    HW125889   3.666   6.845   6.960
 8330SOL    HW225890   3.649   6.706   6.874
 8331SOL     OW25891   1.720   2.500   5.584
 8331SOL    HW125892   1.643   2.539   5.634
 8331SOL    HW225893   1.798   2.563   5.589
 8332SOL     OW25894   5.314   4.378   1.152
 8332SOL    HW125895   5.309   4.452   1.085
 8332SOL    HW225896   5.304   4.290   1.106
 8333SOL     OW25897   2.596   4.620   5.956
 8333SOL    HW125898   2.621   4.532   5.996
 8333SOL    HW225899   2.524   4.662   6.011
 8334SOL     OW25900   2.965   2.886   5.330
 8334SOL    HW125901   2.944   2.790   5.346
 8334SOL    HW225902   3.007   2.925   5.412
 8335SOL     OW25903   6.042   3.011   0.008
 8335SOL    HW125904   6.133   3.054   0.011
 8335SOL    HW225905   5.976   3.078   6.996
 8336SOL     OW25906   0.738   4.627   3.851
 8336SOL    HW125907   0.810   4.566   3.819
 8336SOL    HW225908   0.714   4.604   3.945
 8337SOL     OW25909   6.476   6.816   4.311
 8337SOL    HW125910   6.493   6.914   4.323
 8337SOL    HW225911   6.452   6.775   4.399
 8338SOL     OW25912   2.448   4.804   0.875
 8338SOL    HW125913   2.414   4.731   0.934
 8338SOL    HW225914   2.535   4.837   0.911
 8339SOL     OW25915   6.977   0.283   1.523
 8339SOL    HW125916   6.972   0.184   1.536
 8339SOL    HW225917   0.051   0.312   1.523
 8340SOL     OW25918   5.954   2.360   6.074
 8340SOL    HW125919   6.044   2.316   6.076
 8340SOL    HW225920   5.888   2.304   6.123
 8341SOL     OW25921   3.568   0.083   0.985
 8341SOL    HW125922   3.487   0.129   0.947
 8341SOL    HW225923   3.582   7.018   0.937
 8342SOL     OW25924   3.780   1.038   1.642
 8342SOL    HW125925   3.793   0.995   1.553
 8342SOL    HW225926   3.839   0.994   1.710
 8343SOL     OW25927   4.440   6.209   2.901
 8343SOL    HW125928   4.356   6.219   2.848
 8343SOL    HW225929   4.421   6.159   2.986
 8344SOL     OW25930   2.165   4.215   4.607
 8344SOL    HW125931   2.188   4.153   4.683
 8344SOL    HW225932   2.250   4.253   4.569
 8345SOL     OW25933   6.723   0.008   4.145
 8345SOL    HW125934   6.675   0.027   4.231
 8345SOL    HW225935   6.687   6.945   4.104
 8346SOL     OW25936   5.550   4.513   2.941
 8346SOL    HW125937   5.524   4.448   2.871
 8346SOL    HW225938   5.542   4.470   3.031
 8347SOL     OW25939   0.959   0.798   6.841
 8347SOL    HW125940   0.972   0.809   6.742
 8347SOL    HW225941   0.951   0.701   6.863
 8348SOL     OW25942   2.828   6.294   0.206
 8348SOL    HW125943   2.756   6.340   0.154
 8348SOL    HW225944   2.787   6.232   0.272
 8349SOL     OW25945   4.904   5.595   1.209
 8349SOL    HW125946   4.881   5.689   1.234
 8349SOL    HW225947   4.933   5.545   1.290
 8350SOL     OW25948   2.212   0.484   6.712
 8350SOL    HW125949   2.177   0.474   6.618
 8350SOL    HW225950   2.298   0.435   6.720
 8351SOL     OW25951   7.007   3.851   3.051
 8351SOL    HW125952   6.990   3.753   3.041
 8351SOL    HW225953   0.067   3.876   2.997
 8352SOL     OW25954   2.290   0.236   6.229
 8352SOL    HW125955   2.258   0.229   6.324
 8352SOL    HW225956   2.225   0.289   6.176
 8353SOL     OW25957   0.522   5.804   2.618
 8353SOL    HW125958   0.441   5.784   2.564
 8353SOL    HW225959   0.543   5.902   2.611
 8354SOL     OW25960   5.278   2.761   4.216
 8354SOL    HW125961   5.196   2.770   4.272
 8354SOL    HW225962   5.262   2.693   4.145
 8355SOL     OW25963   3.518   4.719   5.714
 8355SOL    HW125964   3.552   4.722   5.808
 8355SOL    HW225965   3.458   4.798   5.698
 8356SOL     OW25966   3.435   3.134   2.314
 8356SOL    HW125967   3.391   3.209   2.364
 8356SOL    HW225968   3.403   3.047   2.350
 8357SOL     OW25969   2.832   6.398   5.226
 8357SOL    HW125970   2.754   6.460   5.224
 8357SOL    HW225971   2.909   6.443   5.272
 8358SOL     OW25972   0.344   0.296   4.409
 8358SOL    HW125973   0.263   0.252   4.448
 8358SOL    HW225974   0.417   0.229   4.398
 8359SOL     OW25975   4.845   2.368   4.935
 8359SOL    HW125976   4.878   2.411   4.851
 8359SOL    HW225977   4.766   2.417   4.969
 8360SOL     OW25978   2.996   0.137   2.583
 8360SOL    HW125979   3.006   0.222   2.531
 8360SOL    HW225980   2.926   0.149   2.653
 8361SOL     OW25981   4.484   1.209   6.984
 8361SOL    HW125982   4.504   1.256   0.048
 8361SOL    HW225983   4.429   1.128   7.002
 8362SOL     OW25984   0.747   4.309   1.808
 8362SOL    HW125985   0.784   4.216   1.816
 8362SOL    HW225986   0.738   4.349   1.899
 8363SOL     OW25987   3.461   2.052   1.067
 8363SOL    HW125988   3.415   2.139   1.086
 8363SOL    HW225989   3.558   2.060   1.088
 8364SOL     OW25990   0.830   1.468   3.476
 8364SOL    HW125991   0.803   1.467   3.572
 8364SOL    HW225992   0.856   1.561   3.450
 8365SOL     OW25993   1.937   2.488   0.943
 8365SOL    HW125994   1.903   2.502   1.036
 8365SOL    HW225995   2.031   2.521   0.936
 8366SOL     OW25996   4.623   5.980   1.460
 8366SOL    HW125997   4.604   6.004   1.556
 8366SOL    HW225998   4.708   5.928   1.455
 8367SOL     OW25999   1.540   4.891   3.821
 8367SOL    HW126000   1.568   4.896   3.917
 8367SOL    HW226001   1.576   4.807   3.781
 8368SOL     OW26002   0.636   3.349   6.583
 8368SOL    HW126003   0.602   3.297   6.660
 8368SOL    HW226004   0.624   3.297   6.499
 8369SOL     OW26005   0.769   0.762   0.740
 8369SOL    HW126006   0.823   0.694   0.691
 8369SOL    HW226007   0.679   0.769   0.697
 8370SOL     OW26008   2.423   3.246   1.157
 8370SOL    HW126009   2.511   3.292   1.164
 8370SOL    HW226010   2.381   3.240   1.248
 8371SOL     OW26011   3.084   4.116   5.523
 8371SOL    HW126012   3.006   4.096   5.583
 8371SOL    HW226013   3.116   4.209   5.540
 8372SOL     OW26014   1.786   6.692   2.992
 8372SOL    HW126015   1.854   6.672   2.922
 8372SOL    HW226016   1.787   6.789   3.014
 8373SOL     OW26017   5.929   0.293   4.172
 8373SOL    HW126018   5.854   0.237   4.136
 8373SOL    HW226019   5.933   0.379   4.122
 8374SOL     OW26020   0.743   2.485   3.887
 8374SOL    HW126021   0.745   2.537   3.802
 8374SOL    HW226022   0.819   2.420   3.889
 8375SOL     OW26023   2.229   2.720   5.656
 8375SOL    HW126024   2.329   2.728   5.664
 8375SOL    HW226025   2.205   2.629   5.622
 8376SOL     OW26026   0.914   1.399   3.942
 8376SOL    HW126027   0.855   1.422   3.865
 8376SOL    HW226028   0.942   1.303   3.935
 8377SOL     OW26029   4.334   5.183   1.523
 8377SOL    HW126030   4.415   5.153   1.573
 8377SOL    HW226031   4.283   5.103   1.489
 8378SOL     OW26032   4.030   6.023   5.553
 8378SOL    HW126033   3.941   6.025   5.509
 8378SOL    HW226034   4.035   5.947   5.617
 8379SOL     OW26035   5.760   2.669   1.901
 8379SOL    HW126036   5.673   2.625   1.925
 8379SOL    HW226037   5.830   2.598   1.891
 8380SOL     OW26038   1.359   4.698   2.647
 8380SOL    HW126039   1.346   4.767   2.718
 8380SOL    HW226040   1.400   4.616   2.687
 8381SOL     OW26041   0.993   2.359   2.839
 8381SOL    HW126042   1.020   2.404   2.753
 8381SOL    HW226043   0.956   2.428   2.902
 8382SOL     OW26044   1.319   0.080   1.853
 8382SOL    HW126045   1.234   0.040   1.819
 8382SOL    HW226046   1.337   0.167   1.807
 8383SOL     OW26047   1.965   6.863   4.991
 8383SOL    HW126048   1.917   6.865   4.904
 8383SOL    HW226049   1.972   6.769   5.024
 8384SOL     OW26050   0.577   4.262   3.856
 8384SOL    HW126051   0.506   4.191   3.852
 8384SOL    HW226052   0.535   4.352   3.842
 8385SOL     OW26053   4.393   2.366   2.242
 8385SOL    HW126054   4.470   2.404   2.189
 8385SOL    HW226055   4.314   2.354   2.183
 8386SOL     OW26056   6.612   5.406   2.363
 8386SOL    HW126057   6.661   5.387   2.448
 8386SOL    HW226058   6.523   5.444   2.384
 8387SOL     OW26059   0.511   2.358   3.315
 8387SOL    HW126060   0.472   2.265   3.315
 8387SOL    HW226061   0.455   2.417   3.373
 8388SOL     OW26062   3.497   6.034   1.722
 8388SOL    HW126063   3.416   6.022   1.778
 8388SOL    HW226064   3.510   6.132   1.702
 8389SOL     OW26065   1.582   2.304   4.181
 8389SOL    HW126066   1.640   2.222   4.175
 8389SOL    HW226067   1.624   2.378   4.130
 8390SOL     OW26068   1.173   6.499   6.595
 8390SOL    HW126069   1.113   6.434   6.642
 8390SOL    HW226070   1.162   6.489   6.496
 8391SOL     OW26071   4.659   6.349   0.740
 8391SOL    HW126072   4.581   6.384   0.792
 8391SOL    HW226073   4.741   6.401   0.764
 8392SOL     OW26074   3.337   5.905   0.726
 8392SOL    HW126075   3.369   5.877   0.817
 8392SOL    HW226076   3.370   5.841   0.657
 8393SOL     OW26077   1.739   6.518   1.893
 8393SOL    HW126078   1.779   6.462   1.820
 8393SOL    HW226079   1.654   6.559   1.860
 8394SOL     OW26080   1.917   1.361   3.614
 8394SOL    HW126081   1.950   1.439   3.560
 8394SOL    HW226082   1.818   1.354   3.604
 8395SOL     OW26083   1.930   6.143   6.378
 8395SOL    HW126084   1.933   6.177   6.472
 8395SOL    HW226085   1.927   6.220   6.315
 8396SOL     OW26086   4.795   1.656   0.593
 8396SOL    HW126087   4.888   1.639   0.625
 8396SOL    HW226088   4.753   1.570   0.565
 8397SOL     OW26089   0.441   4.223   3.504
 8397SOL    HW126090   0.414   4.142   3.452
 8397SOL    HW226091   0.360   4.269   3.540
 8398SOL     OW26092   5.093   1.547   6.560
 8398SOL    HW126093   5.140   1.511   6.479
 8398SOL    HW226094   5.113   1.489   6.639
 8399SOL     OW26095   5.648   6.455   5.133
 8399SOL    HW126096   5.743   6.449   5.102
 8399SOL    HW226097   5.618   6.366   5.167
 8400SOL     OW26098   6.072   6.143   3.301
 8400SOL    HW126099   6.052   6.088   3.220
 8400SOL    HW226100   6.152   6.200   3.284
 8401SOL     OW26101   2.798   3.625   5.373
 8401SOL    HW126102   2.849   3.634   5.459
 8401SOL    HW226103   2.700   3.631   5.391
 8402SOL     OW26104   4.758   1.291   4.707
 8402SOL    HW126105   4.664   1.261   4.693
 8402SOL    HW226106   4.786   1.270   4.801
 8403SOL     OW26107   0.562   1.590   6.044
 8403SOL    HW126108   0.609   1.637   6.118
 8403SOL    HW226109   0.619   1.515   6.010
 8404SOL     OW26110   4.831   5.046   5.295
 8404SOL    HW126111   4.811   4.957   5.336
 8404SOL    HW226112   4.806   5.044   5.198
 8405SOL     OW26113   0.855   2.574   6.183
 8405SOL    HW126114   0.836   2.613   6.093
 8405SOL    HW226115   0.932   2.511   6.177
 8406SOL     OW26116   5.604   4.040   1.357
 8406SOL    HW126117   5.650   3.952   1.347
 8406SOL    HW226118   5.573   4.072   1.267
 8407SOL     OW26119   5.742   3.500   2.504
 8407SOL    HW126120   5.684   3.581   2.493
 8407SOL    HW226121   5.751   3.479   2.602
 8408SOL     OW26122   4.621   4.329   4.104
 8408SOL    HW126123   4.552   4.287   4.047
 8408SOL    HW226124   4.583   4.347   4.195
 8409SOL     OW26125   1.477   2.062   3.959
 8409SOL    HW126126   1.558   2.064   4.017
 8409SOL    HW226127   1.500   2.019   3.872
 8410SOL     OW26128   2.121   5.360   2.490
 8410SOL    HW126129   2.137   5.277   2.544
 8410SOL    HW226130   2.042   5.409   2.527
 8411SOL     OW26131   1.663   3.173   3.040
 8411SOL    HW126132   1.575   3.219   3.051
 8411SOL    HW226133   1.714   3.177   3.126
 8412SOL     OW26134   5.671   2.473   2.744
 8412SOL    HW126135   5.580   2.514   2.757
 8412SOL    HW226136   5.696   2.478   2.647
 8413SOL     OW26137   1.626   5.520   1.940
 8413SOL    HW126138   1.632   5.619   1.950
 8413SOL    HW226139   1.594   5.479   2.026
 8414SOL     OW26140   6.373   0.288   4.385
 8414SOL    HW126141   6.326   0.353   4.444
 8414SOL    HW226142   6.306   0.236   4.332
 8415SOL     OW26143   0.507   5.031   0.996
 8415SOL    HW126144   0.443   5.012   1.071
 8415SOL    HW226145   0.468   4.996   0.910
 8416SOL     OW26146   4.466   4.793   2.869
 8416SOL    HW126147   4.423   4.883   2.871
 8416SOL    HW226148   4.542   4.794   2.804
 8417SOL     OW26149   0.864   5.555   0.168
 8417SOL    HW126150   0.820   5.628   0.117
 8417SOL    HW226151   0.794   5.501   0.215
 8418SOL     OW26152   5.519   5.983   2.708
 8418SOL    HW126153   5.448   6.035   2.661
 8418SOL    HW226154   5.604   6.036   2.709
 8419SOL     OW26155   3.169   1.346   3.199
 8419SOL    HW126156   3.231   1.301   3.135
 8419SOL    HW226157   3.215   1.361   3.286
 8420SOL     OW26158   4.948   1.691   5.465
 8420SOL    HW126159   5.044   1.667   5.446
 8420SOL    HW226160   4.894   1.680   5.381
 8421SOL     OW26161   0.070   0.893   0.613
 8421SOL    HW126162   0.040   0.962   0.679
 8421SOL    HW226163   0.154   0.850   0.645
 8422SOL     OW26164   2.783   0.890   1.301
 8422SOL    HW126165   2.870   0.854   1.266
 8422SOL    HW226166   2.801   0.967   1.362
 8423SOL     OW26167   1.952   4.700   1.008
 8423SOL    HW126168   1.984   4.751   1.087
 8423SOL    HW226169   1.853   4.689   1.013
 8424SOL     OW26170   2.824   2.084   2.005
 8424SOL    HW126171   2.853   2.172   2.043
 8424SOL    HW226172   2.807   2.094   1.907
 8425SOL     OW26173   0.352   4.960   5.871
 8425SOL    HW126174   0.360   5.051   5.912
 8425SOL    HW226175   0.255   4.933   5.867
 8426SOL     OW26176   3.691   3.891   2.184
 8426SOL    HW126177   3.780   3.853   2.208
 8426SOL    HW226178   3.628   3.881   2.261
 8427SOL     OW26179   2.579   1.256   6.933
 8427SOL    HW126180   2.529   1.180   6.891
 8427SOL    HW226181   2.524   1.298   7.004
 8428SOL     OW26182   6.217   3.898   1.209
 8428SOL    HW126183   6.158   3.919   1.132
 8428SOL    HW226184   6.304   3.861   1.176
 8429SOL     OW26185   1.374   6.819   2.874
 8429SOL    HW126186   1.375   6.915   2.905
 8429SOL    HW226187   1.320   6.811   2.790
 8430SOL     OW26188   3.969   6.261   2.870
 8430SOL    HW126189   3.898   6.197   2.839
 8430SOL    HW226190   3.927   6.351   2.885
 8431SOL     OW26191   3.214   2.978   2.572
 8431SOL    HW126192   3.218   2.917   2.493
 8431SOL    HW226193   3.130   3.032   2.568
 8432SOL     OW26194   4.974   5.559   0.120
 8432SOL    HW126195   4.923   5.570   0.036
 8432SOL    HW226196   5.058   5.613   0.115
 8433SOL     OW26197   0.092   1.528   4.141
 8433SOL    HW126198   0.103   1.442   4.091
 8433SOL    HW226199   0.112   1.605   4.080
 8434SOL     OW26200   5.111   6.523   6.970
 8434SOL    HW126201   5.075   6.461   0.019
 8434SOL    HW226202   5.047   6.525   6.893
 8435SOL     OW26203   4.778   3.502   0.801
 8435SOL    HW126204   4.752   3.594   0.770
 8435SOL    HW226205   4.809   3.506   0.896
 8436SOL     OW26206   3.058   4.036   1.762
 8436SOL    HW126207   3.132   3.996   1.710
 8436SOL    HW226208   3.055   4.135   1.746
 8437SOL     OW26209   0.233   2.493   0.490
 8437SOL    HW126210   0.151   2.437   0.501
 8437SOL    HW226211   0.284   2.495   0.576
 8438SOL     OW26212   2.117   5.671   1.559
 8438SOL    HW126213   2.058   5.652   1.481
 8438SOL    HW226214   2.094   5.609   1.634
 8439SOL     OW26215   5.367   0.221   1.818
 8439SOL    HW126216   5.442   0.282   1.795
 8439SOL    HW226217   5.342   0.166   1.738
 8440SOL     OW26218   1.115   3.797   3.733
 8440SOL    HW126219   1.205   3.786   3.690
 8440SOL    HW226220   1.045   3.756   3.675
 8441SOL     OW26221   3.970   5.586   1.265
 8441SOL    HW126222   4.065   5.565   1.244
 8441SOL    HW226223   3.930   5.637   1.189
 8442SOL     OW26224   2.454   3.072   0.927
 8442SOL    HW126225   2.455   3.073   1.027
 8442SOL    HW226226   2.547   3.078   0.892
 8443SOL     OW26227   0.053   2.260   1.078
 8443SOL    HW126228   0.056   2.317   0.996
 8443SOL    HW226229   0.131   2.281   1.137
 8444SOL     OW26230   4.692   2.423   3.738
 8444SOL    HW126231   4.780   2.470   3.733
 8444SOL    HW226232   4.638   2.445   3.658
 8445SOL     OW26233   3.899   5.776   2.228
 8445SOL    HW126234   3.970   5.815   2.286
 8445SOL    HW226235   3.925   5.683   2.202
 8446SOL     OW26236   6.080   3.685   2.927
 8446SOL    HW126237   6.083   3.666   2.829
 8446SOL    HW226238   6.000   3.741   2.948
 8447SOL     OW26239   5.436   4.498   1.471
 8447SOL    HW126240   5.408   4.491   1.375
 8447SOL    HW226241   5.488   4.582   1.484
 8448SOL     OW26242   1.896   4.573   5.778
 8448SOL    HW126243   1.920   4.492   5.832
 8448SOL    HW226244   1.910   4.655   5.834
 8449SOL     OW26245   1.334   0.507   5.566
 8449SOL    HW126246   1.410   0.455   5.528
 8449SOL    HW226247   1.356   0.604   5.566
 8450SOL     OW26248   1.719   5.916   0.855
 8450SOL    HW126249   1.684   5.893   0.945
 8450SOL    HW226250   1.803   5.864   0.837
 8451SOL     OW26251   2.581   3.995   1.467
 8451SOL    HW126252   2.517   3.944   1.524
 8451SOL    HW226253   2.541   4.009   1.377
 8452SOL     OW26254   6.798   6.096   2.544
 8452SOL    HW126255   6.752   6.012   2.518
 8452SOL    HW226256   6.810   6.099   2.643
 8453SOL     OW26257   0.467   4.523   5.174
 8453SOL    HW126258   0.407   4.600   5.197
 8453SOL    HW226259   0.561   4.556   5.168
 8454SOL     OW26260   1.914   6.721   5.499
 8454SOL    HW126261   1.974   6.675   5.434
 8454SOL    HW226262   1.850   6.780   5.450
 8455SOL     OW26263   5.913   2.296   0.392
 8455SOL    HW126264   5.857   2.357   0.449
 8455SOL    HW226265   6.002   2.282   0.435
 8456SOL     OW26266   6.193   4.465   3.568
 8456SOL    HW126267   6.249   4.526   3.512
 8456SOL    HW226268   6.218   4.476   3.664
 8457SOL     OW26269   5.951   6.211   6.046
 8457SOL    HW126270   5.886   6.194   6.120
 8457SOL    HW226271   5.928   6.151   5.968
 8458SOL     OW26272   0.840   1.751   1.375
 8458SOL    HW126273   0.853   1.780   1.470
 8458SOL    HW226274   0.854   1.652   1.369
 8459SOL     OW26275   2.776   5.054   2.955
 8459SOL    HW126276   2.780   5.077   3.052
 8459SOL    HW226277   2.866   5.071   2.913
 8460SOL     OW26278   3.539   1.005   0.994
 8460SOL    HW126279   3.518   1.031   1.088
 8460SOL    HW226280   3.633   1.031   0.973
 8461SOL     OW26281   5.668   4.864   3.193
 8461SOL    HW126282   5.599   4.839   3.124
 8461SOL    HW226283   5.657   4.806   3.274
 8462SOL     OW26284   2.087   3.657   0.858
 8462SOL    HW126285   2.148   3.735   0.843
 8462SOL    HW226286   2.065   3.615   0.770
 8463SOL     OW26287   0.268   6.653   1.073
 8463SOL    HW126288   0.215   6.623   0.994
 8463SOL    HW226289   0.207   6.673   1.149
 8464SOL     OW26290   0.416   3.562   6.595
 8464SOL    HW126291   0.404   3.595   6.502
 8464SOL    HW226292   0.490   3.494   6.597
 8465SOL     OW26293   5.984   4.208   0.587
 8465SOL    HW126294   6.017   4.297   0.619
 8465SOL    HW226295   5.909   4.221   0.522
 8466SOL     OW26296   0.443   1.459   5.061
 8466SOL    HW126297   0.501   1.540   5.066
 8466SOL    HW226298   0.443   1.424   4.967
 8467SOL     OW26299   3.194   1.514   1.042
 8467SOL    HW126300   3.098   1.486   1.032
 8467SOL    HW226301   3.245   1.442   1.088
 8468SOL     OW26302   6.446   3.814   1.085
 8468SOL    HW126303   6.543   3.796   1.097
 8468SOL    HW226304   6.407   3.748   1.020
 8469SOL     OW26305   3.605   3.001   5.353
 8469SOL    HW126306   3.575   2.971   5.443
 8469SOL    HW226307   3.564   2.942   5.283
 8470SOL     OW26308   2.049   5.486   1.360
 8470SOL    HW126309   1.967   5.449   1.403
 8470SOL    HW226310   2.037   5.488   1.260
 8471SOL     OW26311   4.178   2.239   4.023
 8471SOL    HW126312   4.196   2.194   3.935
 8471SOL    HW226313   4.246   2.208   4.090
 8472SOL     OW26314   6.001   1.282   6.737
 8472SOL    HW126315   6.015   1.381   6.737
 8472SOL    HW226316   6.090   1.237   6.733
 8473SOL     OW26317   4.723   5.021   5.646
 8473SOL    HW126318   4.754   4.945   5.588
 8473SOL    HW226319   4.775   5.103   5.623
 8474SOL     OW26320   3.466   3.769   6.230
 8474SOL    HW126321   3.564   3.792   6.234
 8474SOL    HW226322   3.427   3.806   6.146
 8475SOL     OW26323   0.481   2.031   2.748
 8475SOL    HW126324   0.564   2.079   2.779
 8475SOL    HW226325   0.446   2.076   2.666
 8476SOL     OW26326   6.541   1.026   2.440
 8476SOL    HW126327   6.594   0.955   2.395
 8476SOL    HW226328   6.565   1.029   2.537
 8477SOL     OW26329   5.444   6.633   1.242
 8477SOL    HW126330   5.517   6.627   1.310
 8477SOL    HW226331   5.378   6.559   1.259
 8478SOL     OW26332   1.818   6.656   6.602
 8478SOL    HW126333   1.917   6.646   6.610
 8478SOL    HW226334   1.780   6.574   6.559
 8479SOL     OW26335   0.934   2.312   6.855
 8479SOL    HW126336   0.948   2.238   6.921
 8479SOL    HW226337   1.004   2.306   6.783
 8480SOL     OW26338   2.974   4.305   1.694
 8480SOL    HW126339   2.928   4.373   1.751
 8480SOL    HW226340   2.906   4.246   1.650
 8481SOL     OW26341   5.023   3.639   2.300
 8481SOL    HW126342   4.999   3.573   2.372
 8481SOL    HW226343   4.951   3.707   2.292
 8482SOL     OW26344   4.676   0.257   5.690
 8482SOL    HW126345   4.694   0.312   5.609
 8482SOL    HW226346   4.749   0.189   5.703
 8483SOL     OW26347   4.783   5.260   3.663
 8483SOL    HW126348   4.819   5.274   3.755
 8483SOL    HW226349   4.686   5.239   3.668
 8484SOL     OW26350   6.065   6.945   5.460
 8484SOL    HW126351   6.002   6.935   5.537
 8484SOL    HW226352   6.038   6.882   5.387
 8485SOL     OW26353   3.907   0.418   5.652
 8485SOL    HW126354   3.819   0.464   5.666
 8485SOL    HW226355   3.924   0.355   5.728
 8486SOL     OW26356   4.783   2.786   4.763
 8486SOL    HW126357   4.750   2.698   4.729
 8486SOL    HW226358   4.787   2.851   4.687
 8487SOL     OW26359   0.105   1.484   5.386
 8487SOL    HW126360   0.133   1.421   5.459
 8487SOL    HW226361   0.172   1.481   5.312
 8488SOL     OW26362   4.712   5.402   2.971
 8488SOL    HW126363   4.709   5.349   2.886
 8488SOL    HW226364   4.794   5.379   3.022
 8489SOL     OW26365   6.207   2.316   2.076
 8489SOL    HW126366   6.267   2.388   2.110
 8489SOL    HW226367   6.191   2.329   1.978
 8490SOL     OW26368   3.915   6.806   0.414
 8490SOL    HW126369   3.996   6.774   0.364
 8490SOL    HW226370   3.943   6.844   0.502
 8491SOL     OW26371   3.282   6.017   1.907
 8491SOL    HW126372   3.295   6.116   1.898
 8491SOL    HW226373   3.269   5.993   2.003
 8492SOL     OW26374   6.018   6.922   4.183
 8492SOL    HW126375   6.053   6.847   4.238
 8492SOL    HW226376   5.977   6.887   4.099
 8493SOL     OW26377   5.028   0.158   5.470
 8493SOL    HW126378   4.969   0.152   5.390
 8493SOL    HW226379   5.041   0.254   5.495
 8494SOL     OW26380   0.017   3.800   2.132
 8494SOL    HW126381   0.008   3.706   2.166
 8494SOL    HW226382   6.966   3.857   2.170
 8495SOL     OW26383   4.956   5.942   4.816
 8495SOL    HW126384   4.961   5.842   4.810
 8495SOL    HW226385   5.046   5.981   4.797
 8496SOL     OW26386   3.929   2.012   2.352
 8496SOL    HW126387   3.966   1.920   2.345
 8496SOL    HW226388   3.844   2.018   2.300
 8497SOL     OW26389   6.768   0.794   3.197
 8497SOL    HW126390   6.687   0.853   3.205
 8497SOL    HW226391   6.739   0.701   3.173
 8498SOL     OW26392   5.535   6.527   4.894
 8498SOL    HW126393   5.564   6.521   4.989
 8498SOL    HW226394   5.537   6.436   4.853
 8499SOL     OW26395   6.113   6.902   6.150
 8499SOL    HW126396   6.037   6.953   6.189
 8499SOL    HW226397   6.179   6.880   6.222
 8500SOL     OW26398   0.977   0.777   6.106
 8500SOL    HW126399   0.880   0.755   6.097
 8500SOL    HW226400   1.025   0.701   6.150
 8501SOL     OW26401   3.565   0.254   5.097
 8501SOL    HW126402   3.609   0.342   5.082
 8501SOL    HW226403   3.476   0.253   5.052
 8502SOL     OW26404   6.258   2.937   0.511
 8502SOL    HW126405   6.218   2.861   0.562
 8502SOL    HW226406   6.342   2.906   0.466
 8503SOL     OW26407   4.671   2.106   6.127
 8503SOL    HW126408   4.616   2.156   6.195
 8503SOL    HW226409   4.610   2.065   6.059
 8504SOL     OW26410   1.646   0.722   3.213
 8504SOL    HW126411   1.744   0.711   3.201
 8504SOL    HW226412   1.609   0.774   3.135
 8505SOL     OW26413   5.929   1.997   2.993
 8505SOL    HW126414   5.887   1.975   3.081
 8505SOL    HW226415   6.017   1.949   2.986
 8506SOL     OW26416   1.772   1.026   4.186
 8506SOL    HW126417   1.760   1.120   4.217
 8506SOL    HW226418   1.741   1.018   4.091
 8507SOL     OW26419   4.525   4.924   0.048
 8507SOL    HW126420   4.432   4.908   0.015
 8507SOL    HW226421   4.569   4.994   7.014
 8508SOL     OW26422   4.089   0.838   6.429
 8508SOL    HW126423   4.090   0.808   6.334
 8508SOL    HW226424   4.003   0.884   6.450
 8509SOL     OW26425   4.301   1.845   2.367
 8509SOL    HW126426   4.216   1.793   2.358
 8509SOL    HW226427   4.327   1.884   2.279
 8510SOL     OW26428   0.469   2.084   5.063
 8510SOL    HW126429   0.563   2.099   5.033
 8510SOL    HW226430   0.406   2.113   4.991
 8511SOL     OW26431   5.646   2.066   3.977
 8511SOL    HW126432   5.563   2.015   3.953
 8511SOL    HW226433   5.646   2.153   3.928
 8512SOL     OW26434   2.303   6.797   6.493
 8512SOL    HW126435   2.344   6.767   6.579
 8512SOL    HW226436   2.357   6.763   6.416
 8513SOL     OW26437   3.861   5.725   0.124
 8513SOL    HW126438   3.933   5.681   0.178
 8513SOL    HW226439   3.843   5.671   0.042
 8514SOL     OW26440   4.439   5.628   4.507
 8514SOL    HW126441   4.436   5.561   4.581
 8514SOL    HW226442   4.356   5.621   4.452
 8515SOL     OW26443   5.433   3.150   1.896
 8515SOL    HW126444   5.432   3.078   1.965
 8515SOL    HW226445   5.430   3.109   1.805
 8516SOL     OW26446   6.520   2.480   1.443
 8516SOL    HW126447   6.615   2.456   1.428
 8516SOL    HW226448   6.462   2.400   1.426
 8517SOL     OW26449   0.928   3.908   4.561
 8517SOL    HW126450   0.844   3.867   4.595
 8517SOL    HW226451   1.000   3.896   4.628
 8518SOL     OW26452   3.824   5.765   1.101
 8518SOL    HW126453   3.731   5.750   1.134
 8518SOL    HW226454   3.835   5.862   1.077
 8519SOL     OW26455   2.737   5.422   3.532
 8519SOL    HW126456   2.812   5.454   3.474
 8519SOL    HW226457   2.667   5.379   3.475
 8520SOL     OW26458   3.540   5.470   0.281
 8520SOL    HW126459   3.572   5.502   0.370
 8520SOL    HW226460   3.509   5.375   0.289
 8521SOL     OW26461   1.370   1.067   3.110
 8521SOL    HW126462   1.344   1.153   3.065
 8521SOL    HW226463   1.293   1.033   3.163
 8522SOL     OW26464   2.491   5.902   3.851
 8522SOL    HW126465   2.524   5.914   3.758
 8522SOL    HW226466   2.545   5.832   3.898
 8523SOL     OW26467   1.916   5.626   6.643
 8523SOL    HW126468   1.980   5.701   6.628
 8523SOL    HW226469   1.959   5.558   6.703
 8524SOL     OW26470   1.726   1.575   6.594
 8524SOL    HW126471   1.819   1.558   6.627
 8524SOL    HW226472   1.729   1.614   6.502
 8525SOL     OW26473   5.368   4.305   4.167
 8525SOL    HW126474   5.411   4.294   4.257
 8525SOL    HW226475   5.370   4.218   4.118
 8526SOL     OW26476   0.048   3.022   1.832
 8526SOL    HW126477   6.989   3.042   1.887
 8526SOL    HW226478   0.112   3.099   1.838
 8527SOL     OW26479   5.120   0.812   5.146
 8527SOL    HW126480   5.077   0.851   5.226
 8527SOL    HW226481   5.057   0.815   5.069
 8528SOL     OW26482   5.168   0.239   0.373
 8528SOL    HW126483   5.097   0.309   0.381
 8528SOL    HW226484   5.144   0.159   0.428
 8529SOL     OW26485   0.038   0.462   4.380
 8529SOL    HW126486   7.005   0.382   4.355
 8529SOL    HW226487   0.122   0.463   4.327
 8530SOL     OW26488   1.854   5.196   6.030
 8530SOL    HW126489   1.886   5.117   5.978
 8530SOL    HW226490   1.874   5.280   5.980
 8531SOL     OW26491   3.468   5.665   2.816
 8531SOL    HW126492   3.518   5.612   2.747
 8531SOL    HW226493   3.465   5.613   2.902
 8532SOL     OW26494   1.362   3.939   6.810
 8532SOL    HW126495   1.378   3.859   6.753
 8532SOL    HW226496   1.288   3.920   6.874
 8533SOL     OW26497   3.428   0.074   6.291
 8533SOL    HW126498   3.377   0.160   6.301
 8533SOL    HW226499   3.363   7.021   6.276
 8534SOL     OW26500   2.874   2.618   0.741
 8534SOL    HW126501   2.917   2.543   0.690
 8534SOL    HW226502   2.943   2.687   0.762
 8535SOL     OW26503   0.359   2.355   6.086
 8535SOL    HW126504   0.358   2.270   6.033
 8535SOL    HW226505   0.453   2.381   6.106
 8536SOL     OW26506   6.424   0.640   6.444
 8536SOL    HW126507   6.435   0.562   6.506
 8536SOL    HW226508   6.393   0.608   6.355
 8537SOL     OW26509   3.929   5.671   2.802
 8537SOL    HW126510   3.988   5.691   2.723
 8537SOL    HW226511   3.955   5.731   2.878
 8538SOL     OW26512   3.964   1.248   5.124
 8538SOL    HW126513   4.054   1.271   5.161
 8538SOL    HW226514   3.913   1.333   5.107
 8539SOL     OW26515   0.425   3.164   2.896
 8539SOL    HW126516   0.476   3.239   2.939
 8539SOL    HW226517   0.401   3.096   2.965
 8540SOL     OW26518   4.840   6.046   5.908
 8540SOL    HW126519   4.777   5.969   5.906
 8540SOL    HW226520   4.870   6.067   5.815
 8541SOL     OW26521   3.325   5.841   5.603
 8541SOL    HW126522   3.352   5.894   5.524
 8541SOL    HW226523   3.374   5.753   5.603
 8542SOL     OW26524   1.774   4.995   5.495
 8542SOL    HW126525   1.697   5.048   5.529
 8542SOL    HW226526   1.859   5.038   5.526
 8543SOL     OW26527   3.588   1.805   5.440
 8543SOL    HW126528   3.491   1.825   5.451
 8543SOL    HW226529   3.604   1.768   5.349
 8544SOL     OW26530   4.998   3.717   5.364
 8544SOL    HW126531   4.941   3.705   5.446
 8544SOL    HW226532   5.091   3.740   5.391
 8545SOL     OW26533   2.010   0.397   6.228
 8545SOL    HW126534   1.968   0.310   6.256
 8545SOL    HW226535   1.945   0.449   6.172
 8546SOL     OW26536   2.694   1.098   4.237
 8546SOL    HW126537   2.703   1.013   4.185
 8546SOL    HW226538   2.631   1.084   4.313
 8547SOL     OW26539   5.776   4.953   5.594
 8547SOL    HW126540   5.742   4.864   5.564
 8547SOL    HW226541   5.867   4.970   5.554
 8548SOL     OW26542   1.562   4.104   4.168
 8548SOL    HW126543   1.610   4.018   4.181
 8548SOL    HW226544   1.515   4.104   4.080
 8549SOL     OW26545   3.297   0.446   3.844
 8549SOL    HW126546   3.319   0.441   3.941
 8549SOL    HW226547   3.211   0.397   3.827
 8550SOL     OW26548   0.657   3.581   5.043
 8550SOL    HW126549   0.623   3.572   4.949
 8550SOL    HW226550   0.590   3.541   5.106
 8551SOL     OW26551   3.773   1.840   3.857
 8551SOL    HW126552   3.673   1.845   3.859
 8551SOL    HW226553   3.809   1.863   3.947
 8552SOL     OW26554   4.069   1.191   2.027
 8552SOL    HW126555   4.058   1.290   2.030
 8552SOL    HW226556   3.988   1.147   2.067
 8553SOL     OW26557   5.410   3.226   0.832
 8553SOL    HW126558   5.498   3.262   0.864
 8553SOL    HW226559   5.398   3.133   0.866
 8554SOL     OW26560   0.751   1.228   6.752
 8554SOL    HW126561   0.697   1.157   6.799
 8554SOL    HW226562   0.800   1.282   6.820
 8555SOL     OW26563   3.457   1.916   3.914
 8555SOL    HW126564   3.388   1.974   3.958
 8555SOL    HW226565   3.436   1.908   3.817
 8556SOL     OW26566   0.923   3.937   5.747
 8556SOL    HW126567   0.996   3.868   5.752
 8556SOL    HW226568   0.841   3.896   5.709
 8557SOL     OW26569   5.933   0.430   0.722
 8557SOL    HW126570   5.899   0.351   0.773
 8557SOL    HW226571   6.003   0.477   0.776
 8558SOL     OW26572   2.738   5.806   3.216
 8558SOL    HW126573   2.717   5.712   3.242
 8558SOL    HW226574   2.666   5.867   3.251
 8559SOL     OW26575   1.484   3.002   3.473
 8559SOL    HW126576   1.385   2.995   3.459
 8559SOL    HW226577   1.521   3.070   3.409
 8560SOL     OW26578   3.187   4.429   1.577
 8560SOL    HW126579   3.222   4.502   1.635
 8560SOL    HW226580   3.100   4.396   1.614
 8561SOL     OW26581   3.568   0.814   2.236
 8561SOL    HW126582   3.561   0.751   2.314
 8561SOL    HW226583   3.511   0.781   2.161
 8562SOL     OW26584   5.421   3.472   6.121
 8562SOL    HW126585   5.351   3.506   6.059
 8562SOL    HW226586   5.486   3.415   6.070
 8563SOL     OW26587   0.528   4.207   3.198
 8563SOL    HW126588   0.502   4.229   3.292
 8563SOL    HW226589   0.536   4.291   3.145
 8564SOL     OW26590   4.453   6.235   6.851
 8564SOL    HW126591   4.449   6.136   6.835
 8564SOL    HW226592   4.363   6.269   6.877
 8565SOL     OW26593   0.804   5.115   0.704
 8565SOL    HW126594   0.900   5.140   0.697
 8565SOL    HW226595   0.788   5.065   0.789
 8566SOL     OW26596   2.468   0.789   3.147
 8566SOL    HW126597   2.417   0.870   3.175
 8566SOL    HW226598   2.408   0.709   3.149
 8567SOL     OW26599   1.641   3.572   0.475
 8567SOL    HW126600   1.674   3.666   0.472
 8567SOL    HW226601   1.585   3.559   0.557
 8568SOL     OW26602   5.615   6.668   6.461
 8568SOL    HW126603   5.596   6.723   6.542
 8568SOL    HW226604   5.660   6.725   6.392
 8569SOL     OW26605   4.198   1.655   6.022
 8569SOL    HW126606   4.243   1.741   5.995
 8569SOL    HW226607   4.168   1.662   6.117
 8570SOL     OW26608   2.033   2.226   4.257
 8570SOL    HW126609   2.043   2.128   4.241
 8570SOL    HW226610   2.048   2.277   4.172
 8571SOL     OW26611   1.556   0.687   3.657
 8571SOL    HW126612   1.601   0.614   3.708
 8571SOL    HW226613   1.624   0.741   3.608
 8572SOL     OW26614   2.641   3.054   6.184
 8572SOL    HW126615   2.571   3.061   6.255
 8572SOL    HW226616   2.668   3.146   6.155
 8573SOL     OW26617   1.779   6.097   5.932
 8573SOL    HW126618   1.879   6.090   5.942
 8573SOL    HW226619   1.737   6.010   5.957
 8574SOL     OW26620   5.963   2.394   5.604
 8574SOL    HW126621   5.872   2.359   5.583
 8574SOL    HW226622   5.964   2.431   5.697
 8575SOL     OW26623   2.560   6.738   4.008
 8575SOL    HW126624   2.484   6.716   4.069
 8575SOL    HW226625   2.607   6.654   3.982
 8576SOL     OW26626   1.161   3.813   4.718
 8576SOL    HW126627   1.202   3.731   4.676
 8576SOL    HW226628   1.218   3.892   4.698
 8577SOL     OW26629   1.871   1.046   0.644
 8577SOL    HW126630   1.800   1.097   0.595
 8577SOL    HW226631   1.883   1.085   0.735
 8578SOL     OW26632   1.494   0.590   6.029
 8578SOL    HW126633   1.520   0.686   6.024
 8578SOL    HW226634   1.537   0.548   6.109
 8579SOL     OW26635   2.790   6.991   2.475
 8579SOL    HW126636   2.733   6.923   2.520
 8579SOL    HW226637   2.861   0.002   2.539
 8580SOL     OW26638   1.227   0.469   1.809
 8580SOL    HW126639   1.189   0.545   1.756
 8580SOL    HW226640   1.278   0.504   1.887
 8581SOL     OW26641   4.137   3.535   4.012
 8581SOL    HW126642   4.051   3.559   4.059
 8581SOL    HW226643   4.194   3.481   4.073
 8582SOL     OW26644   5.171   5.617   5.573
 8582SOL    HW126645   5.153   5.523   5.602
 8582SOL    HW226646   5.137   5.681   5.642
 8583SOL     OW26647   3.560   0.630   2.426
 8583SOL    HW126648   3.603   0.631   2.517
 8583SOL    HW226649   3.526   0.538   2.406
 8584SOL     OW26650   5.295   2.635   5.617
 8584SOL    HW126651   5.281   2.599   5.710
 8584SOL    HW226652   5.256   2.570   5.551
 8585SOL     OW26653   4.694   2.675   3.344
 8585SOL    HW126654   4.632   2.739   3.297
 8585SOL    HW226655   4.641   2.614   3.402
 8586SOL     OW26656   6.063   0.081   5.865
 8586SOL    HW126657   5.979   0.026   5.867
 8586SOL    HW226658   6.139   0.025   5.833
 8587SOL     OW26659   6.569   0.094   0.940
 8587SOL    HW126660   6.504   0.018   0.942
 8587SOL    HW226661   6.572   0.137   1.030
 8588SOL     OW26662   1.945   2.179   5.671
 8588SOL    HW126663   1.906   2.092   5.640
 8588SOL    HW226664   1.926   2.250   5.604
 8589SOL     OW26665   6.166   3.330   6.679
 8589SOL    HW126666   6.177   3.359   6.774
 8589SOL    HW226667   6.104   3.252   6.676
 8590SOL     OW26668   0.986   1.395   2.996
 8590SOL    HW126669   1.024   1.485   3.019
 8590SOL    HW226670   0.905   1.407   2.939
 8591SOL     OW26671   0.561   4.188   5.812
 8591SOL    HW126672   0.481   4.128   5.813
 8591SOL    HW226673   0.550   4.260   5.882
 8592SOL     OW26674   0.266   2.485   4.752
 8592SOL    HW126675   0.305   2.471   4.843
 8592SOL    HW226676   0.170   2.457   4.752
 8593SOL     OW26677   6.288   1.132   0.320
 8593SOL    HW126678   6.247   1.041   0.325
 8593SOL    HW226679   6.250   1.191   0.391
 8594SOL     OW26680   6.130   2.740   6.401
 8594SOL    HW126681   6.154   2.650   6.439
 8594SOL    HW226682   6.047   2.731   6.346
 8595SOL     OW26683   5.801   6.361   2.177
 8595SOL    HW126684   5.706   6.357   2.149
 8595SOL    HW226685   5.816   6.298   2.254
 8596SOL     OW26686   0.666   2.868   5.584
 8596SOL    HW126687   0.589   2.893   5.643
 8596SOL    HW226688   0.656   2.914   5.496
 8597SOL     OW26689   6.315   2.319   5.502
 8597SOL    HW126690   6.357   2.407   5.520
 8597SOL    HW226691   6.306   2.267   5.587
 8598SOL     OW26692   6.319   0.608   5.704
 8598SOL    HW126693   6.417   0.626   5.688
 8598SOL    HW226694   6.270   0.611   5.616
 8599SOL     OW26695   5.345   4.422   5.009
 8599SOL    HW126696   5.409   4.489   4.972
 8599SOL    HW226697   5.381   4.330   4.994
 8600SOL     OW26698   3.834   2.986   1.984
 8600SOL    HW126699   3.736   2.968   1.992
 8600SOL    HW226700   3.877   2.919   1.924
 8601SOL     OW26701   4.994   5.058   1.662
 8601SOL    HW126702   5.021   4.963   1.680
 8601SOL    HW226703   4.923   5.085   1.728
 8602SOL     OW26704   1.921   6.249   5.351
 8602SOL    HW126705   1.822   6.259   5.364
 8602SOL    HW226706   1.967   6.331   5.384
 8603SOL     OW26707   0.856   1.203   0.168
 8603SOL    HW126708   0.762   1.209   0.204
 8603SOL    HW226709   0.859   1.135   0.095
 8604SOL     OW26710   2.212   5.473   5.767
 8604SOL    HW126711   2.147   5.531   5.717
 8604SOL    HW226712   2.258   5.413   5.702
 8605SOL     OW26713   6.490   4.631   4.031
 8605SOL    HW126714   6.398   4.662   4.056
 8605SOL    HW226715   6.493   4.610   3.933
 8606SOL     OW26716   0.809   0.315   6.229
 8606SOL    HW126717   0.872   0.288   6.302
 8606SOL    HW226718   0.835   0.267   6.145
 8607SOL     OW26719   3.175   2.782   1.736
 8607SOL    HW126720   3.165   2.682   1.728
 8607SOL    HW226721   3.101   2.826   1.685
 8608SOL     OW26722   1.727   5.299   2.333
 8608SOL    HW126723   1.733   5.199   2.338
 8608SOL    HW226724   1.687   5.334   2.417
 8609SOL     OW26725   4.901   2.181   4.056
 8609SOL    HW126726   4.875   2.174   4.152
 8609SOL    HW226727   4.923   2.090   4.021
 8610SOL     OW26728   0.057   5.644   2.651
 8610SOL    HW126729   0.016   5.735   2.663
 8610SOL    HW226730   0.016   5.600   2.572
 8611SOL     OW26731   2.294   1.554   5.437
 8611SOL    HW126732   2.268   1.645   5.402
 8611SOL    HW226733   2.378   1.562   5.490
 8612SOL     OW26734   3.338   2.947   5.765
 8612SOL    HW126735   3.252   2.909   5.801
 8612SOL    HW226736   3.385   2.998   5.837
 8613SOL     OW26737   3.378   3.197   3.149
 8613SOL    HW126738   3.349   3.279   3.199
 8613SOL    HW226739   3.310   3.174   3.080
 8614SOL     OW26740   0.323   3.307   4.011
 8614SOL    HW126741   0.318   3.357   3.924
 8614SOL    HW226742   0.231   3.300   4.051
 8615SOL     OW26743   3.925   0.828   5.345
 8615SOL    HW126744   3.890   0.736   5.363
 8615SOL    HW226745   3.849   0.893   5.346
 8616SOL     OW26746   5.707   3.968   4.879
 8616SOL    HW126747   5.698   3.966   4.779
 8616SOL    HW226748   5.737   4.059   4.908
 8617SOL     OW26749   0.886   0.259   4.228
 8617SOL    HW126750   0.792   0.280   4.201
 8617SOL    HW226751   0.903   0.295   4.319
 8618SOL     OW26752   6.769   5.387   0.297
 8618SOL    HW126753   6.770   5.481   0.263
 8618SOL    HW226754   6.704   5.332   0.244
 8619SOL     OW26755   5.899   4.967   6.518
 8619SOL    HW126756   5.992   4.984   6.487
 8619SOL    HW226757   5.835   5.017   6.460
 8620SOL     OW26758   1.169   6.218   4.194
 8620SOL    HW126759   1.165   6.161   4.112
 8620SOL    HW226760   1.239   6.183   4.255
 8621SOL     OW26761   6.542   3.564   1.618
 8621SOL    HW126762   6.449   3.600   1.623
 8621SOL    HW226763   6.576   3.573   1.524
 8622SOL     OW26764   0.846   6.501   1.582
 8622SOL    HW126765   0.835   6.435   1.657
 8622SOL    HW226766   0.825   6.457   1.495
 8623SOL     OW26767   1.974   2.033   3.435
 8623SOL    HW126768   2.024   2.072   3.358
 8623SOL    HW226769   2.039   1.993   3.500
 8624SOL     OW26770   3.126   3.760   6.054
 8624SOL    HW126771   3.182   3.833   6.017
 8624SOL    HW226772   3.090   3.704   5.980
 8625SOL     OW26773   4.612   3.579   6.219
 8625SOL    HW126774   4.657   3.518   6.154
 8625SOL    HW226775   4.610   3.537   6.309
 8626SOL     OW26776   4.917   1.182   0.117
 8626SOL    HW126777   4.887   1.165   0.023
 8626SOL    HW226778   4.905   1.278   0.139
 8627SOL     OW26779   6.959   0.225   2.319
 8627SOL    HW126780   6.975   0.150   2.383
 8627SOL    HW226781   7.005   0.206   2.233
 8628SOL     OW26782   1.215   6.541   0.596
 8628SOL    HW126783   1.135   6.596   0.620
 8628SOL    HW226784   1.185   6.452   0.560
 8629SOL     OW26785   6.979   1.105   4.247
 8629SOL    HW126786   6.997   1.157   4.331
 8629SOL    HW226787   0.021   1.028   4.242
 8630SOL     OW26788   4.957   2.804   1.714
 8630SOL    HW126789   4.894   2.873   1.676
 8630SOL    HW226790   4.977   2.827   1.809
 8631SOL     OW26791   1.635   6.098   0.210
 8631SOL    HW126792   1.561   6.035   0.233
 8631SOL    HW226793   1.604   6.192   0.225
 8632SOL     OW26794   6.365   6.127   3.665
 8632SOL    HW126795   6.424   6.126   3.584
 8632SOL    HW226796   6.281   6.076   3.646
 8633SOL     OW26797   6.567   3.860   5.777
 8633SOL    HW126798   6.665   3.858   5.755
 8633SOL    HW226799   6.529   3.949   5.754
 8634SOL     OW26800   4.607   4.652   0.071
 8634SOL    HW126801   4.627   4.743   0.105
 8634SOL    HW226802   4.586   4.657   6.994
 8635SOL     OW26803   5.339   2.131   6.848
 8635SOL    HW126804   5.336   2.154   6.945
 8635SOL    HW226805   5.246   2.115   6.815
 8636SOL     OW26806   4.508   5.985   0.078
 8636SOL    HW126807   4.566   5.973   7.019
 8636SOL    HW226808   4.548   5.936   0.156
 8637SOL     OW26809   3.143   2.645   1.004
 8637SOL    HW126810   3.117   2.550   1.023
 8637SOL    HW226811   3.242   2.653   1.004
 8638SOL     OW26812   4.868   1.967   4.309
 8638SOL    HW126813   4.959   1.988   4.345
 8638SOL    HW226814   4.823   1.900   4.368
 8639SOL     OW26815   3.859   4.080   0.355
 8639SOL    HW126816   3.884   4.172   0.324
 8639SOL    HW226817   3.767   4.058   0.322
 8640SOL     OW26818   3.213   2.539   6.558
 8640SOL    HW126819   3.160   2.537   6.473
 8640SOL    HW226820   3.243   2.447   6.581
 8641SOL     OW26821   3.386   5.215   2.995
 8641SOL    HW126822   3.324   5.278   2.949
 8641SOL    HW226823   3.336   5.133   3.023
 8642SOL     OW26824   2.622   6.332   3.046
 8642SOL    HW126825   2.617   6.388   2.963
 8642SOL    HW226826   2.542   6.349   3.103
 8643SOL     OW26827   3.640   6.003   1.121
 8643SOL    HW126828   3.720   6.054   1.151
 8643SOL    HW226829   3.587   6.057   1.057
 8644SOL     OW26830   5.527   2.418   6.750
 8644SOL    HW126831   5.442   2.450   6.792
 8644SOL    HW226832   5.603   2.434   6.814
 8645SOL     OW26833   5.219   5.565   2.676
 8645SOL    HW126834   5.305   5.579   2.724
 8645SOL    HW226835   5.234   5.577   2.577
 8646SOL     OW26836   6.578   1.836   3.878
 8646SOL    HW126837   6.488   1.878   3.866
 8646SOL    HW226838   6.647   1.893   3.832
 8647SOL     OW26839   1.777   4.440   1.979
 8647SOL    HW126840   1.815   4.410   2.066
 8647SOL    HW226841   1.850   4.481   1.923
 8648SOL     OW26842   5.916   5.895   6.263
 8648SOL    HW126843   5.869   5.807   6.271
 8648SOL    HW226844   5.863   5.955   6.202
 8649SOL     OW26845   5.654   2.843   2.266
 8649SOL    HW126846   5.752   2.831   2.254
 8649SOL    HW226847   5.609   2.848   2.177
 8650SOL     OW26848   1.000   1.055   4.964
 8650SOL    HW126849   1.065   1.117   5.008
 8650SOL    HW226850   1.048   0.995   4.901
 8651SOL     OW26851   4.769   1.323   1.489
 8651SOL    HW126852   4.817   1.397   1.440
 8651SOL    HW226853   4.836   1.263   1.532
 8652SOL     OW26854   6.581   3.211   4.895
 8652SOL    HW126855   6.577   3.147   4.972
 8652SOL    HW226856   6.582   3.160   4.809
 8653SOL     OW26857   4.506   0.823   6.960
 8653SOL    HW126858   4.606   0.826   6.968
 8653SOL    HW226859   4.481   0.832   6.863
 8654SOL     OW26860   6.915   4.356   3.312
 8654SOL    HW126861   6.865   4.420   3.254
 8654SOL    HW226862   6.981   4.305   3.257
 8655SOL     OW26863   1.443   6.866   5.230
 8655SOL    HW126864   1.401   6.804   5.296
 8655SOL    HW226865   1.376   6.890   5.160
 8656SOL     OW26866   3.429   6.165   0.454
 8656SOL    HW126867   3.470   6.177   0.363
 8656SOL    HW226868   3.359   6.094   0.450
 8657SOL     OW26869   3.279   1.926   2.385
 8657SOL    HW126870   3.182   1.899   2.387
 8657SOL    HW226871   3.316   1.907   2.294
 8658SOL     OW26872   5.908   4.146   1.023
 8658SOL    HW126873   5.937   4.060   0.981
 8658SOL    HW226874   5.819   4.173   0.986
 8659SOL     OW26875   3.308   0.111   3.636
 8659SOL    HW126876   3.248   0.104   3.716
 8659SOL    HW226877   3.365   0.192   3.644
 8660SOL     OW26878   6.955   4.577   1.033
 8660SOL    HW126879   6.949   4.498   0.972
 8660SOL    HW226880   6.900   4.560   1.115
 8661SOL     OW26881   5.551   3.279   1.260
 8661SOL    HW126882   5.608   3.267   1.179
 8661SOL    HW226883   5.581   3.217   1.332
 8662SOL     OW26884   1.711   2.869   2.218
 8662SOL    HW126885   1.689   2.776   2.190
 8662SOL    HW226886   1.675   2.933   2.150
 8663SOL     OW26887   3.142   5.245   2.083
 8663SOL    HW126888   3.137   5.284   2.175
 8663SOL    HW226889   3.129   5.317   2.015
 8664SOL     OW26890   3.451   5.902   4.295
 8664SOL    HW126891   3.397   5.902   4.210
 8664SOL    HW226892   3.531   5.961   4.283
 8665SOL     OW26893   0.985   3.227   6.565
 8665SOL    HW126894   0.926   3.253   6.488
 8665SOL    HW226895   1.027   3.308   6.604
 8666SOL     OW26896   5.066   6.912   2.938
 8666SOL    HW126897   5.012   6.988   2.974
 8666SOL    HW226898   5.084   6.928   2.840
 8667SOL     OW26899   4.160   2.179   2.382
 8667SOL    HW126900   4.161   2.245   2.307
 8667SOL    HW226901   4.070   2.138   2.389
 8668SOL     OW26902   3.801   2.076   3.653
 8668SOL    HW126903   3.802   1.983   3.689
 8668SOL    HW226904   3.729   2.085   3.584
 8669SOL     OW26905   0.534   6.163   5.789
 8669SOL    HW126906   0.585   6.108   5.723
 8669SOL    HW226907   0.470   6.223   5.741
 8670SOL     OW26908   6.974   5.033   4.691
 8670SOL    HW126909   6.961   4.935   4.706
 8670SOL    HW226910   6.894   5.083   4.725
 8671SOL     OW26911   0.175   3.694   3.421
 8671SOL    HW126912   0.261   3.707   3.472
 8671SOL    HW226913   0.151   3.778   3.375
 8672SOL     OW26914   6.392   1.403   2.447
 8672SOL    HW126915   6.376   1.486   2.394
 8672SOL    HW226916   6.309   1.380   2.498
 8673SOL     OW26917   0.238   1.342   1.819
 8673SOL    HW126918   0.212   1.246   1.827
 8673SOL    HW226919   0.287   1.371   1.901
 8674SOL     OW26920   0.423   2.916   4.187
 8674SOL    HW126921   0.356   2.976   4.232
 8674SOL    HW226922   0.440   2.836   4.245
 8675SOL     OW26923   5.391   2.493   4.836
 8675SOL    HW126924   5.381   2.396   4.818
 8675SOL    HW226925   5.321   2.522   4.901
 8676SOL     OW26926   4.932   2.807   0.967
 8676SOL    HW126927   5.024   2.766   0.962
 8676SOL    HW226928   4.940   2.906   0.961
 8677SOL     OW26929   2.958   1.433   0.124
 8677SOL    HW126930   2.931   1.467   0.033
 8677SOL    HW226931   2.979   1.336   0.118
 8678SOL     OW26932   2.629   1.611   6.934
 8678SOL    HW126933   2.594   1.667   7.009
 8678SOL    HW226934   2.655   1.670   6.858
 8679SOL     OW26935   1.856   2.063   6.825
 8679SOL    HW126936   1.904   1.975   6.833
 8679SOL    HW226937   1.786   2.057   6.754
 8680SOL     OW26938   0.448   0.286   1.537
 8680SOL    HW126939   0.498   0.331   1.611
 8680SOL    HW226940   0.365   0.338   1.516
 8681SOL     OW26941   5.462   5.554   0.710
 8681SOL    HW126942   5.368   5.556   0.745
 8681SOL    HW226943   5.517   5.623   0.757
 8682SOL     OW26944   1.588   1.857   2.009
 8682SOL    HW126945   1.626   1.832   1.920
 8682SOL    HW226946   1.596   1.780   2.072
 8683SOL     OW26947   2.617   4.740   4.416
 8683SOL    HW126948   2.533   4.792   4.432
 8683SOL    HW226949   2.617   4.658   4.473
 8684SOL     OW26950   2.206   3.961   3.618
 8684SOL    HW126951   2.238   4.048   3.582
 8684SOL    HW226952   2.209   3.892   3.546
 8685SOL     OW26953   4.897   3.323   5.835
 8685SOL    HW126954   4.851   3.315   5.923
 8685SOL    HW226955   4.833   3.299   5.762
 8686SOL     OW26956   0.901   4.749   2.371
 8686SOL    HW126957   0.927   4.837   2.331
 8686SOL    HW226958   0.952   4.734   2.456
 8687SOL     OW26959   6.150   3.482   5.433
 8687SOL    HW126960   6.076   3.436   5.385
 8687SOL    HW226961   6.123   3.576   5.455
 8688SOL     OW26962   1.369   3.369   4.506
 8688SOL    HW126963   1.296   3.303   4.523
 8688SOL    HW226964   1.438   3.327   4.447
 8689SOL     OW26965   5.215   3.510   1.147
 8689SOL    HW126966   5.196   3.481   1.053
 8689SOL    HW226967   5.218   3.610   1.151
 8690SOL     OW26968   1.305   2.449   2.173
 8690SOL    HW126969   1.265   2.484   2.088
 8690SOL    HW226970   1.368   2.374   2.153
 8691SOL     OW26971   3.366   1.198   6.905
 8691SOL    HW126972   3.273   1.217   6.874
 8691SOL    HW226973   3.412   1.284   6.928
 8692SOL     OW26974   5.759   2.198   4.219
 8692SOL    HW126975   5.721   2.160   4.135
 8692SOL    HW226976   5.695   2.264   4.258
 8693SOL     OW26977   0.821   0.100   5.298
 8693SOL    HW126978   0.742   0.137   5.346
 8693SOL    HW226979   0.842   0.156   5.218
 8694SOL     OW26980   3.793   3.632   5.730
 8694SOL    HW126981   3.799   3.550   5.674
 8694SOL    HW226982   3.885   3.659   5.759
 8695SOL     OW26983   3.908   4.195   1.333
 8695SOL    HW126984   3.872   4.264   1.395
 8695SOL    HW226985   3.986   4.149   1.376
 8696SOL     OW26986   2.760   4.752   6.601
 8696SOL    HW126987   2.722   4.844   6.590
 8696SOL    HW226988   2.685   4.687   6.610
 8697SOL     OW26989   0.861   3.052   4.263
 8697SOL    HW126990   0.824   3.035   4.172
 8697SOL    HW226991   0.831   2.979   4.325
 8698SOL     OW26992   5.642   4.437   6.492
 8698SOL    HW126993   5.577   4.366   6.465
 8698SOL    HW226994   5.624   4.464   6.586
 8699SOL     OW26995   2.142   1.903   1.429
 8699SOL    HW126996   2.082   1.975   1.465
 8699SOL    HW226997   2.207   1.875   1.499
 8700SOL     OW26998   0.619   2.454   4.817
 8700SOL    HW126999   0.676   2.373   4.831
 8700SOL    HW227000   0.545   2.455   4.884
 8701SOL     OW27001   2.620   2.833   6.895
 8701SOL    HW127002   2.699   2.809   6.950
 8701SOL    HW227003   2.619   2.931   6.877
 8702SOL     OW27004   5.598   4.434   0.835
 8702SOL    HW127005   5.506   4.433   0.874
 8702SOL    HW227006   5.638   4.342   0.841
 8703SOL     OW27007   2.576   5.375   0.701
 8703SOL    HW127008   2.670   5.393   0.672
 8703SOL    HW227009   2.518   5.452   0.675
 8704SOL     OW27010   6.826   1.167   3.431
 8704SOL    HW127011   6.926   1.172   3.436
 8704SOL    HW227012   6.793   1.095   3.491
 8705SOL     OW27013   3.703   2.050   0.250
 8705SOL    HW127014   3.768   1.974   0.249
 8705SOL    HW227015   3.617   2.021   0.209
 8706SOL     OW27016   4.635   2.824   5.109
 8706SOL    HW127017   4.720   2.855   5.066
 8706SOL    HW227018   4.598   2.897   5.166
 8707SOL     OW27019   1.710   0.893   3.926
 8707SOL    HW127020   1.796   0.943   3.917
 8707SOL    HW227021   1.724   0.797   3.905
 8708SOL     OW27022   5.723   2.409   1.104
 8708SOL    HW127023   5.643   2.351   1.121
 8708SOL    HW227024   5.804   2.352   1.095
 8709SOL     OW27025   6.371   6.335   4.235
 8709SOL    HW127026   6.341   6.295   4.321
 8709SOL    HW227027   6.460   6.379   4.248
 8710SOL     OW27028   2.374   2.685   3.442
 8710SOL    HW127029   2.372   2.732   3.530
 8710SOL    HW227030   2.369   2.586   3.457
 8711SOL     OW27031   0.746   2.031   2.524
 8711SOL    HW127032   0.673   2.067   2.467
 8711SOL    HW227033   0.764   1.936   2.500
 8712SOL     OW27034   1.576   3.668   4.373
 8712SOL    HW127035   1.594   3.764   4.349
 8712SOL    HW227036   1.593   3.654   4.470
 8713SOL     OW27037   0.098   4.705   3.907
 8713SOL    HW127038   0.082   4.618   3.954
 8713SOL    HW227039   0.184   4.745   3.939
 8714SOL     OW27040   1.032   4.252   6.135
 8714SOL    HW127041   1.024   4.157   6.162
 8714SOL    HW227042   1.101   4.297   6.191
 8715SOL     OW27043   2.049   5.106   1.500
 8715SOL    HW127044   2.140   5.113   1.540
 8715SOL    HW227045   2.010   5.016   1.522
 8716SOL     OW27046   5.317   6.803   3.024
 8716SOL    HW127047   5.351   6.767   2.937
 8716SOL    HW227048   5.221   6.829   3.014
 8717SOL     OW27049   4.076   1.997   6.984
 8717SOL    HW127050   4.089   2.089   7.021
 8717SOL    HW227051   4.143   1.981   6.912
 8718SOL     OW27052   2.899   5.388   6.043
 8718SOL    HW127053   2.823   5.408   5.982
 8718SOL    HW227054   2.952   5.472   6.058
 8719SOL     OW27055   3.109   2.195   4.458
 8719SOL    HW127056   3.134   2.251   4.538
 8719SOL    HW227057   3.135   2.100   4.474
 8720SOL     OW27058   0.172   6.858   5.393
 8720SOL    HW127059   0.213   6.920   5.326
 8720SOL    HW227060   0.162   6.906   5.481
 8721SOL     OW27061   0.479   0.395   1.981
 8721SOL    HW127062   0.474   0.388   2.081
 8721SOL    HW227063   0.517   0.484   1.956
 8722SOL     OW27064   3.695   1.003   0.200
 8722SOL    HW127065   3.685   1.084   0.258
 8722SOL    HW227066   3.606   0.959   0.189
 8723SOL     OW27067   3.468   6.843   2.603
 8723SOL    HW127068   3.422   6.931   2.608
 8723SOL    HW227069   3.431   6.782   2.674
 8724SOL     OW27070   4.740   0.397   5.467
 8724SOL    HW127071   4.698   0.454   5.396
 8724SOL    HW227072   4.798   0.328   5.424
 8725SOL     OW27073   6.533   1.242   2.293
 8725SOL    HW127074   6.486   1.310   2.348
 8725SOL    HW227075   6.544   1.158   2.346
 8726SOL     OW27076   6.916   1.039   0.467
 8726SOL    HW127077   6.997   0.995   0.505
 8726SOL    HW227078   6.838   0.977   0.473
 8727SOL     OW27079   4.926   5.422   5.791
 8727SOL    HW127080   4.859   5.467   5.732
 8727SOL    HW227081   5.001   5.388   5.734
 8728SOL     OW27082   5.498   6.951   4.314
 8728SOL    HW127083   5.469   6.900   4.394
 8728SOL    HW227084   5.438   6.931   4.237
 8729SOL     OW27085   5.776   6.194   6.266
 8729SOL    HW127086   5.685   6.154   6.280
 8729SOL    HW227087   5.777   6.288   6.300
 8730SOL     OW27088   4.095   5.000   1.621
 8730SOL    HW127089   4.037   5.018   1.700
 8730SOL    HW227090   4.060   5.052   1.542
 8731SOL     OW27091   6.913   2.598   4.174
 8731SOL    HW127092   6.870   2.598   4.264
 8731SOL    HW227093   7.008   2.568   4.183
 8732SOL     OW27094   5.669   6.655   5.354
 8732SOL    HW127095   5.626   6.604   5.278
 8732SOL    HW227096   5.729   6.593   5.405
 8733SOL     OW27097   5.909   4.126   2.082
 8733SOL    HW127098   5.834   4.069   2.113
 8733SOL    HW227099   5.896   4.220   2.116
 8734SOL     OW27100   0.233   6.291   1.703
 8734SOL    HW127101   0.151   6.236   1.688
 8734SOL    HW227102   0.256   6.340   1.619
 8735SOL     OW27103   1.508   2.221   0.133
 8735SOL    HW127104   1.498   2.308   0.084
 8735SOL    HW227105   1.473   2.231   0.226
 8736SOL     OW27106   0.954   5.722   4.038
 8736SOL    HW127107   0.910   5.800   3.994
 8736SOL    HW227108   0.890   5.645   4.042
 8737SOL     OW27109   0.712   5.610   6.914
 8737SOL    HW127110   0.658   5.669   6.854
 8737SOL    HW227111   0.661   5.591   6.997
 8738SOL     OW27112   1.989   2.272   2.481
 8738SOL    HW127113   2.020   2.307   2.569
 8738SOL    HW227114   1.970   2.174   2.489
 8739SOL     OW27115   4.414   4.679   3.308
 8739SOL    HW127116   4.430   4.582   3.323
 8739SOL    HW227117   4.492   4.718   3.259
 8740SOL     OW27118   1.898   0.985   3.631
 8740SOL    HW127119   1.944   1.033   3.557
 8740SOL    HW227120   1.914   1.034   3.717
 8741SOL     OW27121   1.818   2.220   3.008
 8741SOL    HW127122   1.881   2.249   2.936
 8741SOL    HW227123   1.846   2.260   3.096
 8742SOL     OW27124   1.549   3.238   0.759
 8742SOL    HW127125   1.513   3.197   0.675
 8742SOL    HW227126   1.514   3.189   0.838
 8743SOL     OW27127   1.923   2.932   0.288
 8743SOL    HW127128   1.854   3.001   0.269
 8743SOL    HW227129   1.922   2.910   0.386
 8744SOL     OW27130   2.496   3.771   5.680
 8744SOL    HW127131   2.509   3.870   5.692
 8744SOL    HW227132   2.574   3.722   5.721
 8745SOL     OW27133   5.669   1.175   6.669
 8745SOL    HW127134   5.660   1.076   6.681
 8745SOL    HW227135   5.666   1.219   6.758
 8746SOL     OW27136   4.442   5.013   3.941
 8746SOL    HW127137   4.514   4.954   3.978
 8746SOL    HW227138   4.353   4.975   3.963
 8747SOL     OW27139   0.124   6.681   1.324
 8747SOL    HW127140   0.036   6.649   1.358
 8747SOL    HW227141   0.178   6.717   1.400
 8748SOL     OW27142   6.023   1.849   4.763
 8748SOL    HW127143   6.071   1.818   4.844
 8748SOL    HW227144   6.088   1.899   4.704
 8749SOL     OW27145   2.361   1.269   4.311
 8749SOL    HW127146   2.401   1.272   4.402
 8749SOL    HW227147   2.432   1.290   4.243
 8750SOL     OW27148   4.007   3.671   2.302
 8750SOL    HW127149   3.938   3.606   2.336
 8750SOL    HW227150   4.098   3.634   2.318
 8751SOL     OW27151   2.009   6.308   0.046
 8751SOL    HW127152   2.002   6.287   6.970
 8751SOL    HW227153   1.957   6.240   0.099
 8752SOL     OW27154   1.210   2.916   6.882
 8752SOL    HW127155   1.137   2.937   6.947
 8752SOL    HW227156   1.227   2.996   6.824
 8753SOL     OW27157   2.106   2.117   0.955
 8753SOL    HW127158   2.178   2.182   0.980
 8753SOL    HW227159   2.051   2.155   0.881
 8754SOL     OW27160   1.860   6.265   6.825
 8754SOL    HW127161   1.785   6.223   6.878
 8754SOL    HW227162   1.821   6.313   6.746
 8755SOL     OW27163   0.167   1.666   1.809
 8755SOL    HW127164   0.069   1.663   1.792
 8755SOL    HW227165   0.216   1.662   1.722
 8756SOL     OW27166   1.855   1.596   2.127
 8756SOL    HW127167   1.922   1.632   2.192
 8756SOL    HW227168   1.889   1.607   2.034
 8757SOL     OW27169   5.525   5.809   5.226
 8757SOL    HW127170   5.559   5.762   5.307
 8757SOL    HW227171   5.577   5.780   5.146
 8758SOL     OW27172   3.504   5.073   6.519
 8758SOL    HW127173   3.518   5.002   6.588
 8758SOL    HW227174   3.411   5.108   6.524
 8759SOL     OW27175   6.674   1.034   1.537
 8759SOL    HW127176   6.679   1.116   1.595
 8759SOL    HW227177   6.592   0.981   1.562
 8760SOL     OW27178   1.493   2.991   4.595
 8760SOL    HW127179   1.443   3.016   4.678
 8760SOL    HW227180   1.461   2.902   4.562
 8761SOL     OW27181   5.202   2.887   3.861
 8761SOL    HW127182   5.157   2.965   3.904
 8761SOL    HW227183   5.146   2.855   3.784
 8762SOL     OW27184   4.146   6.216   2.109
 8762SOL    HW127185   4.062   6.264   2.083
 8762SOL    HW227186   4.144   6.124   2.071
 8763SOL     OW27187   0.069   1.977   5.432
 8763SOL    HW127188   0.056   1.938   5.524
 8763SOL    HW227189   0.108   1.908   5.371
 8764SOL     OW27190   2.390   5.547   5.977
 8764SOL    HW127191   2.342   5.542   5.890
 8764SOL    HW227192   2.341   5.494   6.046
 8765SOL     OW27193   4.451   0.355   3.559
 8765SOL    HW127194   4.357   0.329   3.536
 8765SOL    HW227195   4.459   0.369   3.658
 8766SOL     OW27196   6.386   0.053   4.878
 8766SOL    HW127197   6.420   0.063   4.972
 8766SOL    HW227198   6.333   0.134   4.854
 8767SOL     OW27199   1.943   1.149   4.999
 8767SOL    HW127200   1.903   1.200   4.922
 8767SOL    HW227201   2.009   1.207   5.046
 8768SOL     OW27202   6.511   1.971   0.855
 8768SOL    HW127203   6.597   1.925   0.876
 8768SOL    HW227204   6.501   1.980   0.755
 8769SOL     OW27205   6.806   0.224   0.551
 8769SOL    HW127206   6.752   0.219   0.467
 8769SOL    HW227207   6.843   0.133   0.572
 8770SOL     OW27208   4.572   2.053   0.782
 8770SOL    HW127209   4.532   2.029   0.694
 8770SOL    HW227210   4.647   2.118   0.768
 8771SOL     OW27211   0.925   2.434   6.485
 8771SOL    HW127212   0.989   2.406   6.414
 8771SOL    HW227213   0.965   2.505   6.542
 8772SOL     OW27214   0.736   6.725   3.729
 8772SOL    HW127215   0.636   6.734   3.722
 8772SOL    HW227216   0.766   6.646   3.676
 8773SOL     OW27217   6.390   1.648   4.283
 8773SOL    HW127218   6.421   1.589   4.358
 8773SOL    HW227219   6.451   1.636   4.204
 8774SOL     OW27220   0.827   2.098   6.530
 8774SOL    HW127221   0.762   2.174   6.543
 8774SOL    HW227222   0.889   2.120   6.455
 8775SOL     OW27223   4.428   1.603   2.460
 8775SOL    HW127224   4.390   1.693   2.440
 8775SOL    HW227225   4.479   1.607   2.546
 8776SOL     OW27226   5.604   3.113   1.479
 8776SOL    HW127227   5.533   3.053   1.517
 8776SOL    HW227228   5.645   3.167   1.552
 8777SOL     OW27229   6.572   2.139   3.870
 8777SOL    HW127230   6.559   2.236   3.849
 8777SOL    HW227231   6.528   2.118   3.957
 8778SOL     OW27232   2.025   4.196   6.028
 8778SOL    HW127233   2.014   4.295   6.039
 8778SOL    HW227234   2.122   4.173   6.029
 8779SOL     OW27235   3.696   6.742   3.440
 8779SOL    HW127236   3.699   6.695   3.528
 8779SOL    HW227237   3.664   6.836   3.453
 8780SOL     OW27238   1.001   3.264   4.349
 8780SOL    HW127239   0.934   3.197   4.318
 8780SOL    HW227240   1.015   3.333   4.278
 8781SOL     OW27241   3.772   1.150   2.407
 8781SOL    HW127242   3.795   1.157   2.310
 8781SOL    HW227243   3.816   1.069   2.446
 8782SOL     OW27244   6.870   2.456   0.008
 8782SOL    HW127245   6.963   2.456   6.994
 8782SOL    HW227246   6.809   2.502   6.965
 8783SOL     OW27247   3.665   4.012   6.308
 8783SOL    HW127248   3.665   3.974   6.400
 8783SOL    HW227249   3.663   3.938   6.241
 8784SOL     OW27250   4.196   1.823   5.763
 8784SOL    HW127251   4.238   1.741   5.802
 8784SOL    HW227252   4.145   1.799   5.680
 8785SOL     OW27253   6.677   0.093   5.879
 8785SOL    HW127254   6.742   0.169   5.890
 8785SOL    HW227255   6.658   0.052   5.967
 8786SOL     OW27256   4.976   2.454   3.237
 8786SOL    HW127257   4.910   2.511   3.188
 8786SOL    HW227258   4.990   2.368   3.187
 8787SOL     OW27259   3.210   5.549   2.506
 8787SOL    HW127260   3.157   5.584   2.583
 8787SOL    HW227261   3.295   5.509   2.539
 8788SOL     OW27262   0.307   6.885   3.936
 8788SOL    HW127263   0.314   6.917   3.842
 8788SOL    HW227264   0.368   6.939   3.994
 8789SOL     OW27265   2.562   3.626   7.000
 8789SOL    HW127266   2.551   3.648   0.075
 8789SOL    HW227267   2.474   3.599   6.961
 8790SOL     OW27268   4.744   3.200   5.263
 8790SOL    HW127269   4.830   3.162   5.298
 8790SOL    HW227270   4.671   3.133   5.274
 8791SOL     OW27271   4.027   6.790   5.587
 8791SOL    HW127272   3.968   6.868   5.605
 8791SOL    HW227273   3.973   6.713   5.555
 8792SOL     OW27274   4.919   4.565   0.837
 8792SOL    HW127275   4.885   4.536   0.927
 8792SOL    HW227276   4.841   4.584   0.777
 8793SOL     OW27277   6.198   0.564   5.442
 8793SOL    HW127278   6.256   0.503   5.388
 8793SOL    HW227279   6.109   0.521   5.459
 8794SOL     OW27280   0.827   2.769   2.890
 8794SOL    HW127281   0.770   2.828   2.947
 8794SOL    HW227282   0.790   2.767   2.796
 8795SOL     OW27283   1.790   0.239   6.640
 8795SOL    HW127284   1.877   0.223   6.686
 8795SOL    HW227285   1.715   0.208   6.697
 8796SOL     OW27286   5.826   5.130   4.001
 8796SOL    HW127287   5.866   5.199   3.940
 8796SOL    HW227288   5.821   5.042   3.954
 8797SOL     OW27289   5.819   5.886   5.223
 8797SOL    HW127290   5.856   5.895   5.316
 8797SOL    HW227291   5.815   5.790   5.198
 8798SOL     OW27292   1.648   5.298   0.206
 8798SOL    HW127293   1.614   5.204   0.216
 8798SOL    HW227294   1.700   5.307   0.121
 8799SOL     OW27295   1.484   6.125   2.094
 8799SOL    HW127296   1.523   6.216   2.106
 8799SOL    HW227297   1.551   6.065   2.050
 8800SOL     OW27298   6.804   6.252   4.872
 8800SOL    HW127299   6.867   6.191   4.919
 8800SOL    HW227300   6.805   6.231   4.774
 8801SOL     OW27301   5.513   3.050   6.616
 8801SOL    HW127302   5.497   3.058   6.517
 8801SOL    HW227303   5.552   3.136   6.650
 8802SOL     OW27304   1.033   6.977   6.973
 8802SOL    HW127305   0.947   6.948   7.014
 8802SOL    HW227306   1.050   6.926   6.889
 8803SOL     OW27307   4.559   5.096   5.028
 8803SOL    HW127308   4.647   5.057   5.001
 8803SOL    HW227309   4.573   5.158   5.106
 8804SOL     OW27310   2.142   6.202   1.500
 8804SOL    HW127311   2.202   6.135   1.457
 8804SOL    HW227312   2.197   6.273   1.544
 8805SOL     OW27313   5.172   5.290   0.903
 8805SOL    HW127314   5.174   5.384   0.871
 8805SOL    HW227315   5.264   5.252   0.902
 8806SOL     OW27316   1.816   1.463   1.884
 8806SOL    HW127317   1.829   1.454   1.983
 8806SOL    HW227318   1.721   1.443   1.860
 8807SOL     OW27319   5.201   1.948   1.969
 8807SOL    HW127320   5.208   1.984   2.062
 8807SOL    HW227321   5.146   2.011   1.913
 8808SOL     OW27322   1.913   1.224   0.889
 8808SOL    HW127323   1.903   1.297   0.821
 8808SOL    HW227324   1.839   1.230   0.956
 8809SOL     OW27325   0.756   3.230   2.952
 8809SOL    HW127326   0.824   3.215   3.024
 8809SOL    HW227327   0.801   3.226   2.862
 8810SOL     OW27328   6.090   2.902   3.813
 8810SOL    HW127329   6.091   2.845   3.731
 8810SOL    HW227330   6.012   2.876   3.871
 8811SOL     OW27331   3.699   5.883   2.434
 8811SOL    HW127332   3.761   5.825   2.382
 8811SOL    HW227333   3.655   5.949   2.372
 8812SOL     OW27334   5.307   0.951   0.334
 8812SOL    HW127335   5.344   0.898   0.257
 8812SOL    HW227336   5.238   1.015   0.300
 8813SOL     OW27337   1.546   2.884   1.108
 8813SOL    HW127338   1.567   2.800   1.057
 8813SOL    HW227339   1.631   2.928   1.136
 8814SOL     OW27340   6.024   0.043   5.033
 8814SOL    HW127341   5.986   0.134   5.015
 8814SOL    HW227342   6.033   7.015   4.946
 8815SOL     OW27343   4.506   0.199   1.253
 8815SOL    HW127344   4.562   0.194   1.170
 8815SOL    HW227345   4.447   0.279   1.249
 8816SOL     OW27346   0.636   0.804   2.447
 8816SOL    HW127347   0.699   0.859   2.502
 8816SOL    HW227348   0.642   0.833   2.352
 8817SOL     OW27349   1.197   2.548   4.304
 8817SOL    HW127350   1.149   2.633   4.286
 8817SOL    HW227351   1.152   2.473   4.254
 8818SOL     OW27352   1.312   5.727   5.944
 8818SOL    HW127353   1.232   5.732   5.884
 8818SOL    HW227354   1.360   5.641   5.928
 8819SOL     OW27355   5.707   6.504   6.729
 8819SOL    HW127356   5.714   6.552   6.642
 8819SOL    HW227357   5.653   6.559   6.794
 8820SOL     OW27358   3.143   6.673   5.889
 8820SOL    HW127359   3.079   6.618   5.941
 8820SOL    HW227360   3.215   6.615   5.850
 8821SOL     OW27361   1.664   5.041   5.245
 8821SOL    HW127362   1.716   4.994   5.317
 8821SOL    HW227363   1.717   5.042   5.161
 8822SOL     OW27364   0.289   0.755   5.434
 8822SOL    HW127365   0.284   0.656   5.453
 8822SOL    HW227366   0.210   0.801   5.475
 8823SOL     OW27367   4.470   2.447   3.147
 8823SOL    HW127368   4.420   2.476   3.065
 8823SOL    HW227369   4.537   2.377   3.122
 8824SOL     OW27370   1.476   6.888   4.029
 8824SOL    HW127371   1.515   6.972   3.990
 8824SOL    HW227372   1.438   6.832   3.956
 8825SOL     OW27373   1.265   6.867   0.385
 8825SOL    HW127374   1.352   6.901   0.420
 8825SOL    HW227375   1.282   6.796   0.317
 8826SOL     OW27376   0.514   3.336   6.849
 8826SOL    HW127377   0.603   3.338   6.895
 8826SOL    HW227378   0.460   3.415   6.878
 8827SOL     OW27379   5.435   5.889   3.960
 8827SOL    HW127380   5.458   5.888   4.057
 8827SOL    HW227381   5.424   5.983   3.929
 8828SOL     OW27382   5.127   2.817   5.523
 8828SOL    HW127383   5.191   2.747   5.555
 8828SOL    HW227384   5.062   2.837   5.597
 8829SOL     OW27385   6.506   0.839   2.896
 8829SOL    HW127386   6.528   0.865   2.990
 8829SOL    HW227387   6.485   0.741   2.892
 8830SOL     OW27388   2.419   1.529   2.546
 8830SOL    HW127389   2.413   1.554   2.643
 8830SOL    HW227390   2.514   1.510   2.523
 8831SOL     OW27391   0.902   2.333   2.286
 8831SOL    HW127392   1.000   2.319   2.300
 8831SOL    HW227393   0.876   2.423   2.321
 8832SOL     OW27394   6.055   6.951   4.763
 8832SOL    HW127395   5.962   6.949   4.727
 8832SOL    HW227396   6.115   7.001   4.699
 8833SOL     OW27397   4.769   2.583   0.915
 8833SOL    HW127398   4.780   2.550   0.821
 8833SOL    HW227399   4.827   2.663   0.930
 8834SOL     OW27400   6.324   4.349   5.714
 8834SOL    HW127401   6.353   4.336   5.809
 8834SOL    HW227402   6.254   4.421   5.710
 8835SOL     OW27403   5.905   0.880   5.421
 8835SOL    HW127404   5.813   0.860   5.454
 8835SOL    HW227405   5.908   0.974   5.386
 8836SOL     OW27406   4.488   2.005   0.484
 8836SOL    HW127407   4.490   2.049   0.394
 8836SOL    HW227408   4.493   1.906   0.472
 8837SOL     OW27409   5.868   5.012   0.372
 8837SOL    HW127410   5.816   4.995   0.288
 8837SOL    HW227411   5.938   4.941   0.382
 8838SOL     OW27412   1.181   3.108   1.602
 8838SOL    HW127413   1.229   3.020   1.595
 8838SOL    HW227414   1.083   3.092   1.594
 8839SOL     OW27415   4.550   4.490   1.776
 8839SOL    HW127416   4.509   4.418   1.833
 8839SOL    HW227417   4.583   4.564   1.835
 8840SOL     OW27418   0.295   6.810   1.510
 8840SOL    HW127419   0.323   6.906   1.511
 8840SOL    HW227420   0.375   6.751   1.523
 8841SOL     OW27421   4.484   1.813   0.106
 8841SOL    HW127422   4.424   1.877   0.155
 8841SOL    HW227423   4.579   1.831   0.132
 8842SOL     OW27424   3.944   3.016   3.865
 8842SOL    HW127425   3.908   2.937   3.914
 8842SOL    HW227426   3.880   3.040   3.791
 8843SOL     OW27427   2.510   6.317   5.080
 8843SOL    HW127428   2.538   6.230   5.039
 8843SOL    HW227429   2.432   6.354   5.030
 8844SOL     OW27430   3.995   2.743   5.287
 8844SOL    HW127431   4.066   2.679   5.260
 8844SOL    HW227432   3.971   2.802   5.210
 8845SOL     OW27433   0.775   3.721   2.239
 8845SOL    HW127434   0.794   3.625   2.219
 8845SOL    HW227435   0.861   3.773   2.238
 8846SOL     OW27436   5.898   5.032   4.249
 8846SOL    HW127437   5.852   4.944   4.263
 8846SOL    HW227438   5.859   5.078   4.169
 8847SOL     OW27439   1.025   2.721   3.642
 8847SOL    HW127440   1.026   2.784   3.720
 8847SOL    HW227441   1.104   2.740   3.584
 8848SOL     OW27442   5.721   2.600   1.316
 8848SOL    HW127443   5.751   2.545   1.238
 8848SOL    HW227444   5.652   2.549   1.368
 8849SOL     OW27445   3.465   5.240   4.917
 8849SOL    HW127446   3.538   5.187   4.961
 8849SOL    HW227447   3.379   5.224   4.965
 8850SOL     OW27448   4.615   1.805   1.289
 8850SOL    HW127449   4.682   1.800   1.215
 8850SOL    HW227450   4.662   1.794   1.376
 8851SOL     OW27451   6.833   5.418   3.123
 8851SOL    HW127452   6.930   5.430   3.101
 8851SOL    HW227453   6.824   5.390   3.219
 8852SOL     OW27454   5.891   4.282   4.541
 8852SOL    HW127455   5.817   4.216   4.528
 8852SOL    HW227456   5.978   4.235   4.540
 8853SOL     OW27457   4.591   1.599   4.222
 8853SOL    HW127458   4.588   1.504   4.253
 8853SOL    HW227459   4.531   1.610   4.143
 8854SOL     OW27460   3.032   0.383   6.679
 8854SOL    HW127461   2.959   0.438   6.720
 8854SOL    HW227462   3.013   0.369   6.582
 8855SOL     OW27463   6.460   4.621   6.125
 8855SOL    HW127464   6.528   4.567   6.076
 8855SOL    HW227465   6.426   4.694   6.065
 8856SOL     OW27466   5.393   1.889   5.769
 8856SOL    HW127467   5.428   1.969   5.818
 8856SOL    HW227468   5.293   1.891   5.769
 8857SOL     OW27469   1.597   2.789   4.225
 8857SOL    HW127470   1.513   2.831   4.191
 8857SOL    HW227471   1.670   2.802   4.157
 8858SOL     OW27472   1.069   3.633   5.574
 8858SOL    HW127473   1.024   3.559   5.524
 8858SOL    HW227474   1.160   3.649   5.534
 8859SOL     OW27475   2.728   5.507   5.090
 8859SOL    HW127476   2.686   5.479   5.176
 8859SOL    HW227477   2.764   5.600   5.099
 8860SOL     OW27478   2.250   1.027   1.743
 8860SOL    HW127479   2.161   0.982   1.754
 8860SOL    HW227480   2.236   1.121   1.714
 8861SOL     OW27481   2.161   1.372   6.767
 8861SOL    HW127482   2.153   1.272   6.759
 8861SOL    HW227483   2.256   1.396   6.788
 8862SOL     OW27484   0.512   3.191   3.617
 8862SOL    HW127485   0.602   3.189   3.662
 8862SOL    HW227486   0.455   3.117   3.655
 8863SOL     OW27487   1.530   5.679   5.164
 8863SOL    HW127488   1.439   5.721   5.159
 8863SOL    HW227489   1.545   5.641   5.256
 8864SOL     OW27490   1.838   4.057   5.288
 8864SOL    HW127491   1.866   4.149   5.316
 8864SOL    HW227492   1.904   3.990   5.321
 8865SOL     OW27493   2.770   1.907   5.803
 8865SOL    HW127494   2.826   1.835   5.844
 8865SOL    HW227495   2.808   1.932   5.714
 8866SOL     OW27496   5.298   0.387   5.584
 8866SOL    HW127497   5.385   0.427   5.612
 8866SOL    HW227498   5.314   0.312   5.520
 8867SOL     OW27499   5.661   0.874   2.794
 8867SOL    HW127500   5.679   0.964   2.833
 8867SOL    HW227501   5.728   0.808   2.830
 8868SOL     OW27502   5.905   3.156   0.418
 8868SOL    HW127503   5.864   3.067   0.438
 8868SOL    HW227504   5.833   3.226   0.415
 8869SOL     OW27505   2.044   1.950   4.126
 8869SOL    HW127506   2.020   1.864   4.171
 8869SOL    HW227507   1.978   1.970   4.053
 8870SOL     OW27508   3.696   6.556   1.801
 8870SOL    HW127509   3.721   6.604   1.717
 8870SOL    HW227510   3.705   6.458   1.786
 8871SOL     OW27511   1.186   2.297   4.201
 8871SOL    HW127512   1.236   2.244   4.132
 8871SOL    HW227513   1.146   2.235   4.269
 8872SOL     OW27514   1.266   1.202   2.423
 8872SOL    HW127515   1.214   1.150   2.491
 8872SOL    HW227516   1.327   1.140   2.373
 8873SOL     OW27517   0.276   5.646   4.735
 8873SOL    HW127518   0.226   5.663   4.649
 8873SOL    HW227519   0.262   5.551   4.763
 8874SOL     OW27520   1.380   1.376   5.956
 8874SOL    HW127521   1.325   1.453   5.923
 8874SOL    HW227522   1.455   1.359   5.893
 8875SOL     OW27523   1.386   1.275   4.211
 8875SOL    HW127524   1.477   1.245   4.240
 8875SOL    HW227525   1.394   1.358   4.155
 8876SOL     OW27526   2.820   1.335   4.646
 8876SOL    HW127527   2.842   1.338   4.548
 8876SOL    HW227528   2.840   1.243   4.681
 8877SOL     OW27529   2.759   6.470   4.829
 8877SOL    HW127530   2.747   6.552   4.884
 8877SOL    HW227531   2.830   6.486   4.760
 8878SOL     OW27532   5.023   4.297   5.834
 8878SOL    HW127533   4.954   4.231   5.863
 8878SOL    HW227534   4.998   4.335   5.745
 8879SOL     OW27535   6.140   5.986   4.530
 8879SOL    HW127536   6.175   5.909   4.583
 8879SOL    HW227537   6.083   6.044   4.589
 8880SOL     OW27538   1.183   7.013   4.829
 8880SOL    HW127539   1.232   0.071   4.793
 8880SOL    HW227540   1.084   0.007   4.824
 8881SOL     OW27541   6.951   2.068   2.543
 8881SOL    HW127542   6.997   1.990   2.587
 8881SOL    HW227543   6.853   2.052   2.542
 8882SOL     OW27544   5.465   2.064   0.870
 8882SOL    HW127545   5.461   2.027   0.777
 8882SOL    HW227546   5.560   2.090   0.890
 8883SOL     OW27547   6.395   1.241   5.676
 8883SOL    HW127548   6.307   1.276   5.706
 8883SOL    HW227549   6.381   1.171   5.606
 8884SOL     OW27550   0.440   1.325   6.372
 8884SOL    HW127551   0.460   1.337   6.275
 8884SOL    HW227552   0.502   1.383   6.426
 8885SOL     OW27553   6.189   4.039   1.469
 8885SOL    HW127554   6.217   4.133   1.449
 8885SOL    HW227555   6.178   3.989   1.383
 8886SOL     OW27556   3.339   6.003   6.064
 8886SOL    HW127557   3.242   5.984   6.080
 8886SOL    HW227558   3.365   5.970   5.973
 8887SOL     OW27559   1.537   0.766   0.327
 8887SOL    HW127560   1.534   0.762   0.427
 8887SOL    HW227561   1.627   0.736   0.295
 8888SOL     OW27562   2.102   2.117   3.219
 8888SOL    HW127563   2.121   2.049   3.149
 8888SOL    HW227564   2.175   2.185   3.220
 8889SOL     OW27565   3.428   1.078   5.197
 8889SOL    HW127566   3.467   0.991   5.167
 8889SOL    HW227567   3.483   1.153   5.161
 8890SOL     OW27568   6.853   5.239   3.932
 8890SOL    HW127569   6.878   5.146   3.958
 8890SOL    HW227570   6.904   5.304   3.989
 8891SOL     OW27571   3.569   1.929   6.051
 8891SOL    HW127572   3.592   2.008   6.108
 8891SOL    HW227573   3.638   1.918   5.979
 8892SOL     OW27574   0.917   0.046   2.842
 8892SOL    HW127575   0.855   0.112   2.883
 8892SOL    HW227576   0.899   0.040   2.743
 8893SOL     OW27577   6.955   0.668   0.513
 8893SOL    HW127578   6.864   0.708   0.508
 8893SOL    HW227579   0.002   0.741   0.523
 8894SOL     OW27580   4.940   2.569   5.405
 8894SOL    HW127581   4.934   2.658   5.359
 8894SOL    HW227582   4.872   2.507   5.367
 8895SOL     OW27583   1.400   1.285   3.461
 8895SOL    HW127584   1.363   1.284   3.368
 8895SOL    HW227585   1.325   1.296   3.527
 8896SOL     OW27586   1.338   3.977   4.918
 8896SOL    HW127587   1.246   3.953   4.888
 8896SOL    HW227588   1.333   4.040   4.995
 8897SOL     OW27589   0.728   2.027   1.554
 8897SOL    HW127590   0.739   1.944   1.500
 8897SOL    HW227591   0.640   2.026   1.600
 8898SOL     OW27592   0.090   2.561   5.392
 8898SOL    HW127593   0.017   2.532   5.454
 8898SOL    HW227594   0.062   2.644   5.344
 8899SOL     OW27595   3.842   6.491   2.632
 8899SOL    HW127596   3.819   6.406   2.584
 8899SOL    HW227597   3.802   6.490   2.723
 8900SOL     OW27598   6.744   1.961   3.486
 8900SOL    HW127599   6.748   1.999   3.579
 8900SOL    HW227600   6.776   1.866   3.488
 8901SOL     OW27601   1.648   0.209   2.293
 8901SOL    HW127602   1.562   0.229   2.246
 8901SOL    HW227603   1.653   0.112   2.315
 8902SOL     OW27604   3.977   6.780   6.107
 8902SOL    HW127605   4.059   6.731   6.138
 8902SOL    HW227606   3.899   6.717   6.105
 8903SOL     OW27607   6.920   1.394   2.874
 8903SOL    HW127608   6.974   1.359   2.950
 8903SOL    HW227609   6.825   1.404   2.903
 8904SOL     OW27610   2.006   3.626   3.752
 8904SOL    HW127611   1.940   3.582   3.692
 8904SOL    HW227612   2.010   3.724   3.731
 8905SOL     OW27613   2.225   4.551   4.764
 8905SOL    HW127614   2.300   4.518   4.707
 8905SOL    HW227615   2.224   4.501   4.851
 8906SOL     OW27616   1.949   5.148   4.172
 8906SOL    HW127617   1.997   5.220   4.221
 8906SOL    HW227618   1.962   5.061   4.221
 8907SOL     OW27619   3.897   2.952   6.443
 8907SOL    HW127620   3.826   2.972   6.375
 8907SOL    HW227621   3.859   2.962   6.535
 8908SOL     OW27622   0.556   3.187   2.642
 8908SOL    HW127623   0.549   3.286   2.659
 8908SOL    HW227624   0.528   3.137   2.724
 8909SOL     OW27625   3.067   6.882   5.291
 8909SOL    HW127626   3.012   6.837   5.361
 8909SOL    HW227627   3.037   6.851   5.201
 8910SOL     OW27628   4.324   2.715   0.191
 8910SOL    HW127629   4.254   2.783   0.170
 8910SOL    HW227630   4.379   2.697   0.109
 8911SOL     OW27631   5.257   3.017   4.543
 8911SOL    HW127632   5.306   3.095   4.505
 8911SOL    HW227633   5.317   2.937   4.543
 8912SOL     OW27634   3.843   0.759   0.275
 8912SOL    HW127635   3.849   0.739   0.372
 8912SOL    HW227636   3.799   0.848   0.262
 8913SOL     OW27637   3.930   3.880   1.056
 8913SOL    HW127638   3.926   3.825   1.139
 8913SOL    HW227639   3.976   3.829   0.984
 8914SOL     OW27640   5.446   3.409   3.575
 8914SOL    HW127641   5.355   3.427   3.611
 8914SOL    HW227642   5.477   3.488   3.522
 8915SOL     OW27643   1.052   5.554   1.969
 8915SOL    HW127644   1.117   5.479   1.958
 8915SOL    HW227645   0.963   5.527   1.932
 8916SOL     OW27646   5.629   3.292   1.691
 8916SOL    HW127647   5.706   3.354   1.705
 8916SOL    HW227648   5.581   3.278   1.778
 8917SOL     OW27649   5.743   4.050   5.540
 8917SOL    HW127650   5.805   3.997   5.484
 8917SOL    HW227651   5.662   3.996   5.562
 8918SOL     OW27652   4.682   4.245   5.795
 8918SOL    HW127653   4.631   4.330   5.782
 8918SOL    HW227654   4.731   4.248   5.883
 8919SOL     OW27655   1.797   3.254   1.190
 8919SOL    HW127656   1.861   3.297   1.126
 8919SOL    HW227657   1.706   3.293   1.177
 8920SOL     OW27658   6.178   5.824   5.721
 8920SOL    HW127659   6.116   5.843   5.645
 8920SOL    HW227660   6.250   5.761   5.691
 8921SOL     OW27661   0.905   5.509   3.356
 8921SOL    HW127662   0.931   5.584   3.296
 8921SOL    HW227663   0.962   5.510   3.439
 8922SOL     OW27664   0.539   2.476   6.857
 8922SOL    HW127665   0.447   2.444   6.837
 8922SOL    HW227666   0.567   2.445   6.948
 8923SOL     OW27667   2.344   4.733   4.032
 8923SOL    HW127668   2.334   4.784   4.117
 8923SOL    HW227669   2.440   4.709   4.018
 8924SOL     OW27670   2.328   6.602   4.418
 8924SOL    HW127671   2.414   6.651   4.413
 8924SOL    HW227672   2.328   6.541   4.498
 8925SOL     OW27673   4.895   5.666   0.728
 8925SOL    HW127674   4.808   5.707   0.757
 8925SOL    HW227675   4.941   5.626   0.807
 8926SOL     OW27676   5.732   6.620   0.078
 8926SOL    HW127677   5.740   6.640   7.002
 8926SOL    HW227678   5.707   6.703   0.127
 8927SOL     OW27679   3.141   1.956   5.080
 8927SOL    HW127680   3.054   1.918   5.112
 8927SOL    HW227681   3.125   2.048   5.043
 8928SOL     OW27682   1.807   0.720   5.424
 8928SOL    HW127683   1.785   0.815   5.404
 8928SOL    HW227684   1.777   0.697   5.517
 8929SOL     OW27685   4.735   4.821   2.729
 8929SOL    HW127686   4.705   4.819   2.634
 8929SOL    HW227687   4.832   4.846   2.734
 8930SOL     OW27688   0.014   5.291   5.375
 8930SOL    HW127689   0.029   5.269   5.279
 8930SOL    HW227690   0.087   5.352   5.407
 8931SOL     OW27691   5.265   1.324   1.681
 8931SOL    HW127692   5.265   1.338   1.780
 8931SOL    HW227693   5.193   1.381   1.640
 8932SOL     OW27694   4.109   0.691   6.956
 8932SOL    HW127695   4.009   0.685   6.952
 8932SOL    HW227696   4.145   0.721   6.868
 8933SOL     OW27697   1.862   6.745   5.787
 8933SOL    HW127698   1.947   6.779   5.827
 8933SOL    HW227699   1.883   6.684   5.710
 8934SOL     OW27700   3.296   6.534   3.764
 8934SOL    HW127701   3.206   6.567   3.793
 8934SOL    HW227702   3.354   6.613   3.745
 8935SOL     OW27703   5.774   2.259   2.426
 8935SOL    HW127704   5.850   2.207   2.465
 8935SOL    HW227705   5.800   2.355   2.420
 8936SOL     OW27706   0.898   3.888   1.996
 8936SOL    HW127707   0.858   3.800   2.023
 8936SOL    HW227708   0.928   3.937   2.078
 8937SOL     OW27709   3.233   6.442   4.776
 8937SOL    HW127710   3.205   6.355   4.736
 8937SOL    HW227711   3.153   6.493   4.805
 8938SOL     OW27712   4.914   6.809   2.291
 8938SOL    HW127713   4.962   6.896   2.286
 8938SOL    HW227714   4.892   6.777   2.199
 8939SOL     OW27715   6.689   2.829   4.992
 8939SOL    HW127716   6.776   2.872   4.969
 8939SOL    HW227717   6.644   2.881   5.065
 8940SOL     OW27718   6.442   3.686   2.686
 8940SOL    HW127719   6.421   3.594   2.719
 8940SOL    HW227720   6.358   3.731   2.654
 8941SOL     OW27721   5.437   2.220   3.670
 8941SOL    HW127722   5.514   2.271   3.710
 8941SOL    HW227723   5.355   2.237   3.724
 8942SOL     OW27724   5.190   6.034   4.713
 8942SOL    HW127725   5.228   6.106   4.770
 8942SOL    HW227726   5.166   6.071   4.623
 8943SOL     OW27727   4.643   3.559   0.176
 8943SOL    HW127728   4.696   3.632   0.133
 8943SOL    HW227729   4.640   3.575   0.275
 8944SOL     OW27730   4.740   5.924   5.546
 8944SOL    HW127731   4.725   5.986   5.469
 8944SOL    HW227732   4.768   5.834   5.512
 8945SOL     OW27733   6.760   4.541   2.308
 8945SOL    HW127734   6.676   4.487   2.303
 8945SOL    HW227735   6.785   4.556   2.404
 8946SOL     OW27736   3.894   2.189   3.915
 8946SOL    HW127737   3.987   2.222   3.931
 8946SOL    HW227738   3.869   2.205   3.820
 8947SOL     OW27739   3.170   5.392   0.522
 8947SOL    HW127740   3.171   5.399   0.422
 8947SOL    HW227741   3.117   5.312   0.549
 8948SOL     OW27742   6.186   0.206   2.709
 8948SOL    HW127743   6.196   0.194   2.808
 8948SOL    HW227744   6.089   0.207   2.685
 8949SOL     OW27745   3.874   6.135   1.169
 8949SOL    HW127746   3.962   6.091   1.188
 8949SOL    HW227747   3.888   6.213   1.108
 8950SOL     OW27748   3.364   3.714   3.758
 8950SOL    HW127749   3.297   3.691   3.687
 8950SOL    HW227750   3.455   3.722   3.716
 8951SOL     OW27751   1.014   1.015   3.403
 8951SOL    HW127752   0.998   1.096   3.459
 8951SOL    HW227753   0.998   0.933   3.458
 8952SOL     OW27754   1.505   3.838   4.713
 8952SOL    HW127755   1.602   3.853   4.732
 8952SOL    HW227756   1.451   3.869   4.792
 8953SOL     OW27757   1.242   5.669   0.763
 8953SOL    HW127758   1.169   5.611   0.799
 8953SOL    HW227759   1.331   5.627   0.782
 8954SOL     OW27760   2.428   4.168   5.550
 8954SOL    HW127761   2.369   4.114   5.491
 8954SOL    HW227762   2.501   4.210   5.496
 8955SOL     OW27763   6.276   2.509   5.860
 8955SOL    HW127764   6.187   2.550   5.843
 8955SOL    HW227765   6.315   2.549   5.944
 8956SOL     OW27766   0.836   6.734   1.166
 8956SOL    HW127767   0.801   6.694   1.082
 8956SOL    HW227768   0.907   6.675   1.205
 8957SOL     OW27769   0.489   0.265   3.921
 8957SOL    HW127770   0.571   0.251   3.866
 8957SOL    HW227771   0.480   0.190   3.987
 8958SOL     OW27772   6.706   2.845   4.625
 8958SOL    HW127773   6.688   2.799   4.711
 8958SOL    HW227774   6.790   2.898   4.632
 8959SOL     OW27775   5.291   1.463   3.662
 8959SOL    HW127776   5.222   1.440   3.731
 8959SOL    HW227777   5.298   1.389   3.596
 8960SOL     OW27778   3.831   6.264   1.953
 8960SOL    HW127779   3.862   6.304   1.867
 8960SOL    HW227780   3.790   6.174   1.936
 8961SOL     OW27781   2.602   2.360   5.647
 8961SOL    HW127782   2.641   2.277   5.606
 8961SOL    HW227783   2.613   2.436   5.582
 8962SOL     OW27784   6.547   6.104   1.274
 8962SOL    HW127785   6.635   6.058   1.290
 8962SOL    HW227786   6.552   6.156   1.189
 8963SOL     OW27787   2.283   5.191   5.854
 8963SOL    HW127788   2.341   5.117   5.888
 8963SOL    HW227789   2.287   5.269   5.917
 8964SOL     OW27790   1.050   3.414   4.124
 8964SOL    HW127791   1.108   3.365   4.059
 8964SOL    HW227792   1.063   3.512   4.113
 8965SOL     OW27793   3.361   6.336   6.821
 8965SOL    HW127794   3.262   6.340   6.831
 8965SOL    HW227795   3.401   6.298   6.905
 8966SOL     OW27796   5.156   6.652   5.259
 8966SOL    HW127797   5.059   6.662   5.238
 8966SOL    HW227798   5.170   6.569   5.312
 8967SOL     OW27799   2.024   0.284   3.110
 8967SOL    HW127800   1.951   0.280   3.177
 8967SOL    HW227801   2.065   0.193   3.100
 8968SOL     OW27802   2.881   5.987   2.385
 8968SOL    HW127803   2.950   6.050   2.348
 8968SOL    HW227804   2.802   6.040   2.416
 8969SOL     OW27805   6.789   1.263   1.679
 8969SOL    HW127806   6.874   1.304   1.644
 8969SOL    HW227807   6.796   1.253   1.778
 8970SOL     OW27808   2.682   2.246   4.615
 8970SOL    HW127809   2.620   2.170   4.632
 8970SOL    HW227810   2.629   2.328   4.590
 8971SOL     OW27811   3.195   5.385   1.461
 8971SOL    HW127812   3.097   5.389   1.444
 8971SOL    HW227813   3.228   5.475   1.490
 8972SOL     OW27814   6.341   3.530   6.145
 8972SOL    HW127815   6.334   3.492   6.052
 8972SOL    HW227816   6.286   3.475   6.207
 8973SOL     OW27817   2.268   1.751   3.410
 8973SOL    HW127818   2.360   1.782   3.386
 8973SOL    HW227819   2.273   1.678   3.478
 8974SOL     OW27820   1.009   4.648   5.667
 8974SOL    HW127821   1.100   4.635   5.628
 8974SOL    HW227822   1.001   4.741   5.704
 8975SOL     OW27823   0.692   3.850   6.214
 8975SOL    HW127824   0.624   3.908   6.259
 8975SOL    HW227825   0.673   3.845   6.116
 8976SOL     OW27826   5.473   6.983   1.462
 8976SOL    HW127827   5.402   6.996   1.393
 8976SOL    HW227828   5.517   0.050   1.481
 8977SOL     OW27829   0.430   5.308   5.849
 8977SOL    HW127830   0.376   5.388   5.824
 8977SOL    HW227831   0.515   5.338   5.892
 8978SOL     OW27832   6.544   4.914   4.963
 8978SOL    HW127833   6.452   4.876   4.973
 8978SOL    HW227834   6.611   4.851   5.002
 8979SOL     OW27835   1.983   4.170   3.092
 8979SOL    HW127836   1.993   4.192   2.995
 8979SOL    HW227837   2.074   4.165   3.135
 8980SOL     OW27838   4.929   0.927   0.534
 8980SOL    HW127839   4.916   1.024   0.517
 8980SOL    HW227840   4.956   0.882   0.449
 8981SOL     OW27841   3.910   2.381   6.952
 8981SOL    HW127842   3.831   2.422   6.997
 8981SOL    HW227843   3.896   2.380   6.853
 8982SOL     OW27844   0.747   0.546   3.181
 8982SOL    HW127845   0.727   0.448   3.171
 8982SOL    HW227846   0.670   0.591   3.225
 8983SOL     OW27847   1.473   6.411   2.354
 8983SOL    HW127848   1.525   6.381   2.274
 8983SOL    HW227849   1.500   6.504   2.379
 8984SOL     OW27850   6.066   1.167   3.790
 8984SOL    HW127851   6.106   1.138   3.877
 8984SOL    HW227852   6.007   1.095   3.754
 8985SOL     OW27853   4.801   1.086   0.985
 8985SOL    HW127854   4.729   1.018   0.991
 8985SOL    HW227855   4.872   1.054   0.921
 8986SOL     OW27856   0.975   6.827   6.161
 8986SOL    HW127857   1.026   6.764   6.220
 8986SOL    HW227858   0.881   6.834   6.192
 8987SOL     OW27859   3.168   6.568   2.777
 8987SOL    HW127860   3.093   6.550   2.841
 8987SOL    HW227861   3.136   6.628   2.704
 8988SOL     OW27862   2.263   6.830   0.749
 8988SOL    HW127863   2.281   6.819   0.847
 8988SOL    HW227864   2.199   6.906   0.736
 8989SOL     OW27865   6.503   1.931   2.422
 8989SOL    HW127866   6.555   1.858   2.378
 8989SOL    HW227867   6.465   1.991   2.351
 8990SOL     OW27868   3.907   1.442   3.211
 8990SOL    HW127869   3.843   1.508   3.173
 8990SOL    HW227870   3.960   1.486   3.284
 8991SOL     OW27871   1.441   1.765   1.008
 8991SOL    HW127872   1.493   1.834   1.057
 8991SOL    HW227873   1.478   1.753   0.916
 8992SOL     OW27874   1.246   5.571   5.404
 8992SOL    HW127875   1.209   5.540   5.491
 8992SOL    HW227876   1.220   5.507   5.332
 8993SOL     OW27877   5.371   4.428   3.382
 8993SOL    HW127878   5.376   4.484   3.465
 8993SOL    HW227879   5.276   4.425   3.350
 8994SOL     OW27880   1.233   6.264   2.260
 8994SOL    HW127881   1.314   6.307   2.299
 8994SOL    HW227882   1.185   6.329   2.201
 8995SOL     OW27883   2.019   4.380   3.690
 8995SOL    HW127884   2.009   4.335   3.779
 8995SOL    HW227885   2.066   4.467   3.702
 8996SOL     OW27886   2.819   3.540   1.806
 8996SOL    HW127887   2.844   3.635   1.788
 8996SOL    HW227888   2.882   3.502   1.873
 8997SOL     OW27889   4.027   1.837   4.480
 8997SOL    HW127890   4.112   1.874   4.441
 8997SOL    HW227891   3.979   1.783   4.411
 8998SOL     OW27892   1.407   1.406   6.423
 8998SOL    HW127893   1.447   1.439   6.337
 8998SOL    HW227894   1.319   1.363   6.404
 8999SOL     OW27895   6.283   2.920   5.339
 8999SOL    HW127896   6.303   2.833   5.295
 8999SOL    HW227897   6.300   2.912   5.437
 9000SOL     OW27898   4.309   5.006   1.260
 9000SOL    HW127899   4.233   5.055   1.218
 9000SOL    HW227900   4.288   4.909   1.266
 9001SOL     OW27901   0.375   3.091   4.416
 9001SOL    HW127902   0.436   3.156   4.371
 9001SOL    HW227903   0.285   3.095   4.374
 9002SOL     OW27904   4.733   3.075   6.075
 9002SOL    HW127905   4.680   3.009   6.022
 9002SOL    HW227906   4.691   3.086   6.166
 9003SOL     OW27907   0.573   3.894   6.982
 9003SOL    HW127908   0.597   3.798   6.989
 9003SOL    HW227909   0.542   3.928   0.049
 9004SOL     OW27910   5.170   5.734   0.059
 9004SOL    HW127911   5.110   5.785   7.019
 9004SOL    HW227912   5.265   5.753   0.037
 9005SOL     OW27913   4.844   3.893   3.977
 9005SOL    HW127914   4.827   3.924   4.071
 9005SOL    HW227915   4.912   3.952   3.934
 9006SOL     OW27916   3.319   6.217   2.426
 9006SOL    HW127917   3.409   6.183   2.396
 9006SOL    HW227918   3.331   6.303   2.475
 9007SOL     OW27919   2.084   6.445   5.710
 9007SOL    HW127920   2.152   6.433   5.782
 9007SOL    HW227921   2.070   6.359   5.662
 9008SOL     OW27922   0.702   4.477   1.410
 9008SOL    HW127923   0.801   4.476   1.397
 9008SOL    HW227924   0.678   4.547   1.478
 9009SOL     OW27925   3.554   6.987   0.009
 9009SOL    HW127926   3.589   0.055   7.001
 9009SOL    HW227927   3.506   6.998   0.096
 9010SOL     OW27928   0.030   6.252   5.103
 9010SOL    HW127929   7.009   6.163   5.083
 9010SOL    HW227930   6.997   6.300   5.172
 9011SOL     OW27931   4.668   2.565   2.481
 9011SOL    HW127932   4.673   2.622   2.399
 9011SOL    HW227933   4.598   2.495   2.468
 9012SOL     OW27934   4.155   5.279   2.451
 9012SOL    HW127935   4.107   5.196   2.477
 9012SOL    HW227936   4.090   5.354   2.440
 9013SOL     OW27937   3.476   6.326   1.423
 9013SOL    HW127938   3.401   6.272   1.386
 9013SOL    HW227939   3.550   6.332   1.355
 9014SOL     OW27940   2.154   1.438   1.968
 9014SOL    HW127941   2.113   1.377   2.036
 9014SOL    HW227942   2.122   1.531   1.984
 9015SOL     OW27943   6.114   2.253   4.459
 9015SOL    HW127944   6.044   2.196   4.501
 9015SOL    HW227945   6.147   2.320   4.525
 9016SOL     OW27946   0.220   4.839   6.402
 9016SOL    HW127947   0.271   4.868   6.483
 9016SOL    HW227948   0.267   4.868   6.319
 9017SOL     OW27949   6.286   2.634   2.803
 9017SOL    HW127950   6.229   2.714   2.821
 9017SOL    HW227951   6.241   2.577   2.734
 9018SOL     OW27952   5.078   1.814   6.661
 9018SOL    HW127953   5.000   1.858   6.617
 9018SOL    HW227954   5.062   1.715   6.666
 9019SOL     OW27955   1.618   5.764   0.567
 9019SOL    HW127956   1.695   5.705   0.545
 9019SOL    HW227957   1.651   5.850   0.605
 9020SOL     OW27958   0.478   5.037   4.537
 9020SOL    HW127959   0.378   5.025   4.533
 9020SOL    HW227960   0.498   5.131   4.565
 9021SOL     OW27961   6.734   5.123   4.834
 9021SOL    HW127962   6.692   5.040   4.796
 9021SOL    HW227963   6.682   5.203   4.804
 9022SOL     OW27964   0.836   6.622   5.994
 9022SOL    HW127965   0.901   6.693   6.022
 9022SOL    HW227966   0.883   6.534   5.990
 9023SOL     OW27967   3.513   4.001   4.221
 9023SOL    HW127968   3.499   4.052   4.306
 9023SOL    HW227969   3.595   3.944   4.231
 9024SOL     OW27970   1.585   0.026   0.084
 9024SOL    HW127971   1.515   0.097   0.098
 9024SOL    HW227972   1.556   6.987   0.010
 9025SOL     OW27973   0.400   2.835   0.650
 9025SOL    HW127974   0.365   2.855   0.558
 9025SOL    HW227975   0.374   2.908   0.712
 9026SOL     OW27976   2.755   4.006   5.560
 9026SOL    HW127977   2.670   4.043   5.599
 9026SOL    HW227978   2.753   4.017   5.460
 9027SOL     OW27979   0.916   3.090   1.786
 9027SOL    HW127980   0.907   3.135   1.697
 9027SOL    HW227981   0.866   3.003   1.786
 9028SOL     OW27982   1.494   4.285   4.931
 9028SOL    HW127983   1.395   4.282   4.923
 9028SOL    HW227984   1.522   4.234   5.013
 9029SOL     OW27985   5.494   5.170   2.770
 9029SOL    HW127986   5.485   5.218   2.858
 9029SOL    HW227987   5.522   5.075   2.787
 9030SOL     OW27988   4.724   2.269   3.091
 9030SOL    HW127989   4.706   2.231   3.001
 9030SOL    HW227990   4.756   2.364   3.082
 9031SOL     OW27991   3.029   1.079   2.480
 9031SOL    HW127992   3.064   0.989   2.504
 9031SOL    HW227993   3.017   1.134   2.563
 9032SOL     OW27994   0.300   3.774   2.425
 9032SOL    HW127995   0.372   3.736   2.368
 9032SOL    HW227996   0.340   3.811   2.509
 9033SOL     OW27997   1.034   3.209   2.288
 9033SOL    HW127998   1.108   3.245   2.231
 9033SOL    HW227999   0.951   3.262   2.271
 9034SOL     OW28000   1.017   6.650   0.257
 9034SOL    HW128001   1.009   6.568   0.314
 9034SOL    HW228002   0.928   6.673   0.218
 9035SOL     OW28003   6.187   1.341   4.572
 9035SOL    HW128004   6.123   1.298   4.636
 9035SOL    HW228005   6.137   1.409   4.517
 9036SOL     OW28006   0.406   1.428   4.627
 9036SOL    HW128007   0.480   1.382   4.676
 9036SOL    HW228008   0.318   1.389   4.655
 9037SOL     OW28009   2.424   4.640   6.379
 9037SOL    HW128010   2.496   4.646   6.449
 9037SOL    HW228011   2.376   4.553   6.388
 9038SOL     OW28012   3.869   5.836   5.393
 9038SOL    HW128013   3.850   5.838   5.491
 9038SOL    HW228014   3.795   5.882   5.344
 9039SOL     OW28015   2.728   4.812   0.280
 9039SOL    HW128016   2.697   4.759   0.358
 9039SOL    HW228017   2.714   4.760   0.196
 9040SOL     OW28018   3.679   1.645   2.429
 9040SOL    HW128019   3.650   1.692   2.513
 9040SOL    HW228020   3.704   1.551   2.451
 9041SOL     OW28021   2.472   2.553   4.921
 9041SOL    HW128022   2.450   2.649   4.905
 9041SOL    HW228023   2.400   2.511   4.977
 9042SOL     OW28024   1.753   5.018   2.429
 9042SOL    HW128025   1.721   5.019   2.524
 9042SOL    HW228026   1.851   4.997   2.428
 9043SOL     OW28027   0.302   1.360   0.231
 9043SOL    HW128028   0.256   1.398   0.312
 9043SOL    HW228029   0.234   1.341   0.160
 9044SOL     OW28030   0.674   3.973   0.375
 9044SOL    HW128031   0.735   3.915   0.430
 9044SOL    HW228032   0.702   4.069   0.386
 9045SOL     OW28033   2.263   4.430   5.013
 9045SOL    HW128034   2.243   4.523   5.044
 9045SOL    HW228035   2.203   4.365   5.060
 9046SOL     OW28036   3.578   4.260   5.767
 9046SOL    HW128037   3.532   4.252   5.678
 9046SOL    HW228038   3.517   4.305   5.832
 9047SOL     OW28039   1.047   4.616   4.363
 9047SOL    HW128040   1.025   4.675   4.286
 9047SOL    HW228041   1.064   4.523   4.329
 9048SOL     OW28042   1.409   2.607   5.399
 9048SOL    HW128043   1.496   2.601   5.350
 9048SOL    HW228044   1.406   2.537   5.470
 9049SOL     OW28045   4.374   5.903   5.670
 9049SOL    HW128046   4.275   5.895   5.664
 9049SOL    HW228047   4.399   5.952   5.754
 9050SOL     OW28048   0.087   3.941   6.833
 9050SOL    HW128049   7.013   3.970   6.843
 9050SOL    HW228050   0.148   4.018   6.854
 9051SOL     OW28051   0.213   6.084   6.050
 9051SOL    HW128052   0.122   6.052   6.077
 9051SOL    HW228053   0.252   6.019   5.984
 9052SOL     OW28054   2.318   4.799   4.526
 9052SOL    HW128055   2.331   4.887   4.480
 9052SOL    HW228056   2.330   4.811   4.625
 9053SOL     OW28057   1.637   6.998   2.432
 9053SOL    HW128058   1.725   6.952   2.426
 9053SOL    HW228059   1.576   6.946   2.492
 9054SOL     OW28060   1.482   0.079   2.088
 9054SOL    HW128061   1.426   0.069   2.006
 9054SOL    HW228062   1.578   0.063   2.065
 9055SOL     OW28063   1.734   2.723   5.166
 9055SOL    HW128064   1.714   2.793   5.098
 9055SOL    HW228065   1.721   2.761   5.258
 9056SOL     OW28066   5.166   2.113   1.370
 9056SOL    HW128067   5.094   2.124   1.438
 9056SOL    HW228068   5.251   2.153   1.404
 9057SOL     OW28069   3.440   6.705   6.072
 9057SOL    HW128070   3.403   6.612   6.077
 9057SOL    HW228071   3.491   6.724   6.156
 9058SOL     OW28072   2.243   3.061   3.867
 9058SOL    HW128073   2.230   3.032   3.772
 9058SOL    HW228074   2.291   2.989   3.917
 9059SOL     OW28075   0.080   0.703   2.255
 9059SOL    HW128076   0.085   0.611   2.216
 9059SOL    HW228077   0.058   0.697   2.352
 9060SOL     OW28078   0.514   5.260   6.610
 9060SOL    HW128079   0.480   5.223   6.524
 9060SOL    HW228080   0.441   5.257   6.678
 9061SOL     OW28081   3.716   4.918   2.452
 9061SOL    HW128082   3.667   4.886   2.371
 9061SOL    HW228083   3.803   4.959   2.425
 9062SOL     OW28084   0.175   5.856   3.047
 9062SOL    HW128085   0.249   5.827   3.108
 9062SOL    HW228086   0.167   5.956   3.050
 9063SOL     OW28087   6.221   6.802   1.089
 9063SOL    HW128088   6.146   6.854   1.130
 9063SOL    HW228089   6.202   6.704   1.098
 9064SOL     OW28090   1.216   5.754   2.692
 9064SOL    HW128091   1.122   5.734   2.720
 9064SOL    HW228092   1.216   5.818   2.616
 9065SOL     OW28093   3.203   3.964   6.723
 9065SOL    HW128094   3.119   3.991   6.676
 9065SOL    HW228095   3.280   3.972   6.660
 9066SOL     OW28096   5.539   5.254   3.078
 9066SOL    HW128097   5.621   5.217   3.034
 9066SOL    HW228098   5.553   5.258   3.176
 9067SOL     OW28099   1.950   0.191   4.225
 9067SOL    HW128100   1.887   0.114   4.237
 9067SOL    HW228101   2.044   0.156   4.226
 9068SOL     OW28102   5.038   0.437   5.584
 9068SOL    HW128103   4.994   0.446   5.673
 9068SOL    HW228104   5.136   0.422   5.596
 9069SOL     OW28105   4.707   2.227   2.019
 9069SOL    HW128106   4.635   2.179   1.968
 9069SOL    HW228107   4.679   2.323   2.032
 9070SOL     OW28108   0.886   0.541   6.956
 9070SOL    HW128109   0.968   0.516   7.007
 9070SOL    HW228110   0.861   0.465   6.894
 9071SOL     OW28111   5.577   2.776   0.028
 9071SOL    HW128112   5.527   2.689   0.016
 9071SOL    HW228113   5.600   2.813   6.959
 9072SOL     OW28114   6.117   1.153   1.872
 9072SOL    HW128115   6.041   1.091   1.850
 9072SOL    HW228116   6.170   1.171   1.789
 9073SOL     OW28117   4.988   2.783   6.221
 9073SOL    HW128118   4.891   2.783   6.245
 9073SOL    HW228119   5.023   2.689   6.224
 9074SOL     OW28120   2.048   0.606   3.452
 9074SOL    HW128121   2.031   0.514   3.486
 9074SOL    HW228122   2.140   0.635   3.479
 9075SOL     OW28123   5.207   5.872   1.022
 9075SOL    HW128124   5.179   5.938   0.952
 9075SOL    HW228125   5.293   5.900   1.063
 9076SOL     OW28126   1.301   6.493   2.625
 9076SOL    HW128127   1.291   6.589   2.652
 9076SOL    HW228128   1.218   6.462   2.580
 9077SOL     OW28129   6.588   1.088   6.735
 9077SOL    HW128130   6.576   1.016   6.666
 9077SOL    HW228131   6.680   1.126   6.728
 9078SOL     OW28132   5.195   6.868   6.688
 9078SOL    HW128133   5.275   6.907   6.642
 9078SOL    HW228134   5.213   6.862   6.787
 9079SOL     OW28135   2.252   1.906   6.359
 9079SOL    HW128136   2.176   1.878   6.300
 9079SOL    HW228137   2.325   1.838   6.353
 9080SOL     OW28138   6.415   4.775   0.814
 9080SOL    HW128139   6.414   4.875   0.826
 9080SOL    HW228140   6.455   4.753   0.725
 9081SOL     OW28141   4.597   1.153   6.614
 9081SOL    HW128142   4.527   1.174   6.546
 9081SOL    HW228143   4.685   1.189   6.583
 9082SOL     OW28144   3.096   4.661   6.338
 9082SOL    HW128145   3.183   4.691   6.376
 9082SOL    HW228146   3.111   4.581   6.279
 9083SOL     OW28147   4.122   0.276   1.144
 9083SOL    HW128148   4.027   0.267   1.175
 9083SOL    HW228149   4.183   0.269   1.222
 9084SOL     OW28150   6.641   4.893   4.693
 9084SOL    HW128151   6.629   4.905   4.791
 9084SOL    HW228152   6.710   4.822   4.676
 9085SOL     OW28153   3.123   4.713   1.788
 9085SOL    HW128154   3.201   4.673   1.740
 9085SOL    HW228155   3.050   4.732   1.722
 9086SOL     OW28156   6.718   1.694   0.373
 9086SOL    HW128157   6.794   1.680   0.437
 9086SOL    HW228158   6.695   1.607   0.329
 9087SOL     OW28159   4.685   1.232   0.640
 9087SOL    HW128160   4.651   1.257   0.731
 9087SOL    HW228161   4.634   1.153   0.606
 9088SOL     OW28162   5.085   6.775   0.683
 9088SOL    HW128163   5.184   6.763   0.683
 9088SOL    HW228164   5.052   6.786   0.777
 9089SOL     OW28165   5.472   5.761   2.938
 9089SOL    HW128166   5.542   5.801   2.879
 9089SOL    HW228167   5.496   5.778   3.034
 9090SOL     OW28168   6.066   5.229   5.210
 9090SOL    HW128169   6.146   5.271   5.166
 9090SOL    HW228170   5.993   5.296   5.218
 9091SOL     OW28171   1.898   2.183   1.768
 9091SOL    HW128172   1.903   2.192   1.867
 9091SOL    HW228173   1.880   2.272   1.726
 9092SOL     OW28174   3.294   1.813   5.484
 9092SOL    HW128175   3.306   1.912   5.489
 9092SOL    HW228176   3.197   1.792   5.476
 9093SOL     OW28177   1.979   3.628   0.599
 9093SOL    HW128178   1.957   3.566   0.524
 9093SOL    HW228179   1.900   3.637   0.660
 9094SOL     OW28180   6.931   2.437   6.707
 9094SOL    HW128181   6.961   2.342   6.714
 9094SOL    HW228182   6.949   2.484   6.793
 9095SOL     OW28183   2.587   2.621   0.341
 9095SOL    HW128184   2.557   2.526   0.328
 9095SOL    HW228185   2.550   2.678   0.268
 9096SOL     OW28186   6.887   4.268   2.601
 9096SOL    HW128187   6.864   4.353   2.553
 9096SOL    HW228188   6.939   4.289   2.684
 9097SOL     OW28189   6.907   6.054   6.111
 9097SOL    HW128190   6.912   6.153   6.110
 9097SOL    HW228191   6.815   6.025   6.141
 9098SOL     OW28192   3.793   3.383   5.572
 9098SOL    HW128193   3.890   3.381   5.545
 9098SOL    HW228194   3.774   3.307   5.634
 9099SOL     OW28195   1.802   2.711   6.823
 9099SOL    HW128196   1.770   2.799   6.787
 9099SOL    HW228197   1.890   2.724   6.867
 9100SOL     OW28198   1.611   2.677   0.630
 9100SOL    HW128199   1.625   2.765   0.585
 9100SOL    HW228200   1.584   2.608   0.562
 9101SOL     OW28201   2.314   2.014   0.316
 9101SOL    HW128202   2.392   2.076   0.320
 9101SOL    HW228203   2.266   2.026   0.229
 9102SOL     OW28204   4.408   6.235   2.543
 9102SOL    HW128205   4.339   6.238   2.616
 9102SOL    HW228206   4.482   6.299   2.566
 9103SOL     OW28207   1.444   4.259   6.148
 9103SOL    HW128208   1.378   4.265   6.223
 9103SOL    HW228209   1.402   4.211   6.071
 9104SOL     OW28210   4.554   6.617   2.827
 9104SOL    HW128211   4.599   6.697   2.788
 9104SOL    HW228212   4.473   6.647   2.878
 9105SOL     OW28213   3.573   2.439   6.171
 9105SOL    HW128214   3.609   2.521   6.216
 9105SOL    HW228215   3.512   2.466   6.096
 9106SOL     OW28216   6.509   5.730   1.017
 9106SOL    HW128217   6.569   5.703   1.092
 9106SOL    HW228218   6.427   5.774   1.054
 9107SOL     OW28219   5.090   6.579   6.353
 9107SOL    HW128220   5.183   6.614   6.339
 9107SOL    HW228221   5.094   6.482   6.377
 9108SOL     OW28222   3.593   5.610   1.159
 9108SOL    HW128223   3.593   5.571   1.067
 9108SOL    HW228224   3.539   5.551   1.220
 9109SOL     OW28225   3.381   1.961   4.280
 9109SOL    HW128226   3.377   1.995   4.186
 9109SOL    HW228227   3.405   2.036   4.342
 9110SOL     OW28228   0.607   3.852   4.063
 9110SOL    HW128229   0.612   3.801   4.149
 9110SOL    HW228230   0.562   3.940   4.079
 9111SOL     OW28231   3.463   4.285   1.653
 9111SOL    HW128232   3.431   4.257   1.743
 9111SOL    HW228233   3.462   4.385   1.646
 9112SOL     OW28234   1.055   6.581   2.292
 9112SOL    HW128235   1.079   6.676   2.313
 9112SOL    HW228236   1.107   6.551   2.212
 9113SOL     OW28237   2.318   5.714   0.059
 9113SOL    HW128238   2.341   5.620   0.035
 9113SOL    HW228239   2.377   5.744   0.134
 9114SOL     OW28240   2.564   3.562   1.700
 9114SOL    HW128241   2.653   3.569   1.745
 9114SOL    HW228242   2.500   3.514   1.759
 9115SOL     OW28243   1.466   4.366   4.523
 9115SOL    HW128244   1.462   4.428   4.445
 9115SOL    HW228245   1.398   4.392   4.591
 9116SOL     OW28246   3.506   2.381   6.783
 9116SOL    HW128247   3.543   2.471   6.805
 9116SOL    HW228248   3.509   2.323   6.865
 9117SOL     OW28249   0.685   2.663   6.724
 9117SOL    HW128250   0.621   2.606   6.776
 9117SOL    HW228251   0.671   2.648   6.626
 9118SOL     OW28252   0.532   6.661   1.525
 9118SOL    HW128253   0.508   6.615   1.439
 9118SOL    HW228254   0.619   6.709   1.513
 9119SOL     OW28255   5.719   6.906   1.186
 9119SOL    HW128256   5.649   6.900   1.115
 9119SOL    HW228257   5.734   6.815   1.225
 9120SOL     OW28258   6.023   0.165   0.571
 9120SOL    HW128259   6.056   0.077   0.605
 9120SOL    HW228260   5.923   0.166   0.571
 9121SOL     OW28261   1.412   1.074   6.612
 9121SOL    HW128262   1.456   1.164   6.609
 9121SOL    HW228263   1.482   1.003   6.618
 9122SOL     OW28264   0.439   3.330   0.977
 9122SOL    HW128265   0.351   3.286   0.956
 9122SOL    HW228266   0.505   3.260   1.005
 9123SOL     OW28267   1.294   6.429   6.195
 9123SOL    HW128268   1.369   6.366   6.175
 9123SOL    HW228269   1.317   6.482   6.277
 9124SOL     OW28270   0.171   4.100   4.575
 9124SOL    HW128271   0.109   4.164   4.530
 9124SOL    HW228272   0.244   4.074   4.512
 9125SOL     OW28273   4.972   5.923   1.192
 9125SOL    HW128274   4.947   6.017   1.168
 9125SOL    HW228275   5.048   5.893   1.135
 9126SOL     OW28276   5.813   0.664   3.167
 9126SOL    HW128277   5.743   0.592   3.162
 9126SOL    HW228278   5.903   0.623   3.151
 9127SOL     OW28279   5.996   5.318   5.707
 9127SOL    HW128280   5.914   5.262   5.701
 9127SOL    HW228281   5.970   5.413   5.728
 9128SOL     OW28282   4.930   2.822   5.234
 9128SOL    HW128283   4.921   2.845   5.137
 9128SOL    HW228284   4.909   2.903   5.289
 9129SOL     OW28285   2.780   1.099   0.487
 9129SOL    HW128286   2.874   1.127   0.469
 9129SOL    HW228287   2.722   1.122   0.409
 9130SOL     OW28288   5.636   5.376   0.614
 9130SOL    HW128289   5.592   5.455   0.655
 9130SOL    HW228290   5.735   5.383   0.625
 9131SOL     OW28291   1.156   4.672   4.049
 9131SOL    HW128292   1.147   4.756   4.102
 9131SOL    HW228293   1.231   4.617   4.086
 9132SOL     OW28294   1.376   2.908   4.132
 9132SOL    HW128295   1.284   2.945   4.118
 9132SOL    HW228296   1.417   2.889   4.042
 9133SOL     OW28297   1.477   5.309   0.650
 9133SOL    HW128298   1.459   5.276   0.743
 9133SOL    HW228299   1.396   5.292   0.593
 9134SOL     OW28300   2.907   5.020   6.258
 9134SOL    HW128301   2.934   5.070   6.176
 9134SOL    HW228302   2.873   4.929   6.232
 9135SOL     OW28303   1.193   6.487   3.273
 9135SOL    HW128304   1.203   6.498   3.174
 9135SOL    HW228305   1.235   6.565   3.320
 9136SOL     OW28306   3.493   5.224   5.365
 9136SOL    HW128307   3.515   5.127   5.369
 9136SOL    HW228308   3.501   5.264   5.457
 9137SOL     OW28309   3.897   0.551   2.451
 9137SOL    HW128310   3.824   0.533   2.517
 9137SOL    HW228311   3.984   0.518   2.487
 9138SOL     OW28312   3.336   4.917   1.232
 9138SOL    HW128313   3.315   4.978   1.308
 9138SOL    HW228314   3.350   4.824   1.265
 9139SOL     OW28315   3.701   0.683   5.470
 9139SOL    HW128316   3.754   0.757   5.511
 9139SOL    HW228317   3.671   0.619   5.542
 9140SOL     OW28318   6.301   2.567   3.514
 9140SOL    HW128319   6.222   2.623   3.537
 9140SOL    HW228320   6.368   2.623   3.465
 9141SOL     OW28321   5.297   0.912   5.511
 9141SOL    HW128322   5.316   0.816   5.533
 9141SOL    HW228323   5.244   0.953   5.585
 9142SOL     OW28324   1.716   3.782   6.802
 9142SOL    HW128325   1.695   3.861   6.859
 9142SOL    HW228326   1.631   3.736   6.776
 9143SOL     OW28327   6.142   4.498   0.064
 9143SOL    HW128328   6.179   4.496   6.993
 9143SOL    HW228329   6.068   4.432   0.072
 9144SOL     OW28330   1.023   5.380   4.328
 9144SOL    HW128331   1.020   5.322   4.247
 9144SOL    HW228332   1.093   5.450   4.316
 9145SOL     OW28333   1.406   3.527   6.540
 9145SOL    HW128334   1.430   3.436   6.575
 9145SOL    HW228335   1.445   3.597   6.600
 9146SOL     OW28336   1.019   1.709   1.139
 9146SOL    HW128337   0.949   1.709   1.211
 9146SOL    HW228338   1.105   1.742   1.178
 9147SOL     OW28339   3.892   5.606   6.409
 9147SOL    HW128340   3.868   5.530   6.470
 9147SOL    HW228341   3.868   5.582   6.315
 9148SOL     OW28342   3.310   4.876   2.815
 9148SOL    HW128343   3.360   4.922   2.742
 9148SOL    HW228344   3.259   4.798   2.777
 9149SOL     OW28345   6.062   2.979   5.190
 9149SOL    HW128346   6.125   2.931   5.250
 9149SOL    HW228347   6.051   2.928   5.104
 9150SOL     OW28348   4.001   1.525   2.930
 9150SOL    HW128349   4.042   1.459   2.992
 9150SOL    HW228350   4.073   1.585   2.893
 9151SOL     OW28351   6.037   3.088   2.462
 9151SOL    HW128352   5.960   3.121   2.406
 9151SOL    HW228353   6.013   3.000   2.504
 9152SOL     OW28354   2.210   4.883   2.996
 9152SOL    HW128355   2.302   4.920   2.996
 9152SOL    HW228356   2.149   4.945   2.946
 9153SOL     OW28357   2.384   2.998   0.223
 9153SOL    HW128358   2.457   3.033   0.165
 9153SOL    HW228359   2.296   3.035   0.192
 9154SOL     OW28360   0.787   5.611   0.563
 9154SOL    HW128361   0.768   5.540   0.631
 9154SOL    HW228362   0.855   5.577   0.498
 9155SOL     OW28363   1.899   4.927   0.181
 9155SOL    HW128364   1.893   4.977   0.268
 9155SOL    HW228365   1.877   4.831   0.195
 9156SOL     OW28366   4.981   2.652   1.473
 9156SOL    HW128367   4.975   2.700   1.560
 9156SOL    HW228368   4.905   2.679   1.415
 9157SOL     OW28369   5.743   3.721   5.288
 9157SOL    HW128370   5.798   3.638   5.300
 9157SOL    HW228371   5.684   3.732   5.368
 9158SOL     OW28372   1.052   4.118   3.669
 9158SOL    HW128373   1.002   4.138   3.584
 9158SOL    HW228374   1.046   4.020   3.688
 9159SOL     OW28375   0.160   5.199   1.808
 9159SOL    HW128376   0.143   5.171   1.713
 9159SOL    HW228377   0.247   5.248   1.812
 9160SOL     OW28378   0.617   0.017   0.943
 9160SOL    HW128379   0.639   0.014   0.845
 9160SOL    HW228380   0.702   0.031   0.995
 9161SOL     OW28381   5.298   3.641   2.320
 9161SOL    HW128382   5.340   3.575   2.257
 9161SOL    HW228383   5.199   3.644   2.304
 9162SOL     OW28384   4.853   2.618   3.565
 9162SOL    HW128385   4.811   2.652   3.481
 9162SOL    HW228386   4.867   2.519   3.557
 9163SOL     OW28387   3.452   0.843   4.986
 9163SOL    HW128388   3.552   0.840   4.982
 9163SOL    HW228389   3.419   0.765   5.040
 9164SOL     OW28390   2.743   0.407   1.036
 9164SOL    HW128391   2.719   0.499   1.003
 9164SOL    HW228392   2.757   0.346   0.959
 9165SOL     OW28393   4.932   6.177   1.057
 9165SOL    HW128394   4.986   6.221   0.985
 9165SOL    HW228395   4.870   6.110   1.015
 9166SOL     OW28396   2.897   5.345   0.844
 9166SOL    HW128397   2.868   5.397   0.764
 9166SOL    HW228398   2.898   5.247   0.822
 9167SOL     OW28399   0.522   3.494   4.505
 9167SOL    HW128400   0.462   3.500   4.425
 9167SOL    HW228401   0.611   3.533   4.483
 9168SOL     OW28402   3.524   0.266   0.681
 9168SOL    HW128403   3.456   0.307   0.620
 9168SOL    HW228404   3.478   0.231   0.763
 9169SOL     OW28405   0.399   6.629   3.921
 9169SOL    HW128406   0.414   6.718   3.876
 9169SOL    HW228407   0.306   6.598   3.901
 9170SOL     OW28408   6.379   5.878   6.885
 9170SOL    HW128409   6.417   5.834   6.804
 9170SOL    HW228410   6.293   5.924   6.862
 9171SOL     OW28411   3.644   5.825   4.993
 9171SOL    HW128412   3.722   5.879   4.960
 9171SOL    HW228413   3.574   5.820   4.921
 9172SOL     OW28414   2.307   2.381   4.023
 9172SOL    HW128415   2.334   2.375   4.119
 9172SOL    HW228416   2.235   2.450   4.012
 9173SOL     OW28417   6.873   5.053   5.361
 9173SOL    HW128418   6.817   5.082   5.283
 9173SOL    HW228419   6.952   5.114   5.370
 9174SOL     OW28420   0.138   5.781   6.241
 9174SOL    HW128421   0.121   5.699   6.295
 9174SOL    HW228422   0.153   5.756   6.145
 9175SOL     OW28423   2.621   6.233   5.906
 9175SOL    HW128424   2.572   6.166   5.962
 9175SOL    HW228425   2.558   6.273   5.840
 9176SOL     OW28426   1.404   2.513   5.650
 9176SOL    HW128427   1.381   2.493   5.745
 9176SOL    HW228428   1.456   2.598   5.646
 9177SOL     OW28429   1.533   4.138   3.012
 9177SOL    HW128430   1.584   4.146   2.926
 9177SOL    HW228431   1.581   4.076   3.074
 9178SOL     OW28432   2.123   4.078   0.197
 9178SOL    HW128433   2.096   4.174   0.204
 9178SOL    HW228434   2.186   4.055   0.271
 9179SOL     OW28435   2.974   4.835   5.548
 9179SOL    HW128436   3.056   4.777   5.543
 9179SOL    HW228437   2.922   4.827   5.464
 9180SOL     OW28438   4.917   2.143   2.187
 9180SOL    HW128439   4.836   2.138   2.129
 9180SOL    HW228440   4.929   2.057   2.235
 9181SOL     OW28441   3.908   0.950   2.542
 9181SOL    HW128442   3.904   0.890   2.622
 9181SOL    HW228443   3.935   0.895   2.462
 9182SOL     OW28444   2.342   6.742   1.818
 9182SOL    HW128445   2.297   6.769   1.733
 9182SOL    HW228446   2.357   6.643   1.819
 9183SOL     OW28447   5.177   5.354   5.681
 9183SOL    HW128448   5.190   5.275   5.622
 9183SOL    HW228449   5.188   5.326   5.777
 9184SOL     OW28450   4.636   0.142   0.462
 9184SOL    HW128451   4.701   0.209   0.426
 9184SOL    HW228452   4.543   0.178   0.452
 9185SOL     OW28453   5.019   1.150   4.773
 9185SOL    HW128454   5.014   1.148   4.872
 9185SOL    HW228455   5.035   1.244   4.742
 9186SOL     OW28456   5.054   0.746   5.903
 9186SOL    HW128457   5.124   0.685   5.941
 9186SOL    HW228458   5.084   0.778   5.813
 9187SOL     OW28459   2.495   5.959   3.324
 9187SOL    HW128460   2.434   5.949   3.245
 9187SOL    HW228461   2.520   6.055   3.334
 9188SOL     OW28462   3.012   5.171   0.560
 9188SOL    HW128463   2.948   5.152   0.486
 9188SOL    HW228464   2.978   5.131   0.645
 9189SOL     OW28465   5.497   4.613   1.767
 9189SOL    HW128466   5.412   4.638   1.720
 9189SOL    HW228467   5.544   4.541   1.715
 9190SOL     OW28468   1.372   6.269   6.683
 9190SOL    HW128469   1.325   6.311   6.605
 9190SOL    HW228470   1.453   6.221   6.651
 9191SOL     OW28471   0.010   0.836   6.102
 9191SOL    HW128472   0.086   0.799   6.048
 9191SOL    HW228473   0.028   0.932   6.123
 9192SOL     OW28474   1.161   3.288   5.507
 9192SOL    HW128475   1.165   3.294   5.607
 9192SOL    HW228476   1.119   3.371   5.470
 9193SOL     OW28477   3.459   3.902   0.614
 9193SOL    HW128478   3.425   3.852   0.535
 9193SOL    HW228479   3.458   3.842   0.694
 9194SOL     OW28480   3.216   0.879   4.225
 9194SOL    HW128481   3.229   0.782   4.205
 9194SOL    HW228482   3.300   0.929   4.202
 9195SOL     OW28483   1.909   1.305   4.044
 9195SOL    HW128484   1.939   1.396   4.016
 9195SOL    HW228485   1.812   1.294   4.022
 9196SOL     OW28486   4.919   1.269   6.057
 9196SOL    HW128487   4.972   1.220   6.126
 9196SOL    HW228488   4.895   1.360   6.091
 9197SOL     OW28489   2.673   3.729   0.447
 9197SOL    HW128490   2.766   3.724   0.411
 9197SOL    HW228491   2.672   3.786   0.530
 9198SOL     OW28492   0.987   4.673   4.940
 9198SOL    HW128493   1.060   4.676   5.009
 9198SOL    HW228494   0.989   4.585   4.893
 9199SOL     OW28495   5.692   4.865   4.851
 9199SOL    HW128496   5.609   4.812   4.869
 9199SOL    HW228497   5.689   4.901   4.758
 9200SOL     OW28498   2.895   6.707   0.375
 9200SOL    HW128499   2.907   6.775   0.447
 9200SOL    HW228500   2.797   6.685   0.367
 9201SOL     OW28501   2.334   4.468   0.813
 9201SOL    HW128502   2.340   4.496   0.909
 9201SOL    HW228503   2.240   4.480   0.781
 9202SOL     OW28504   2.683   0.966   3.517
 9202SOL    HW128505   2.765   0.953   3.573
 9202SOL    HW228506   2.677   0.893   3.450
 9203SOL     OW28507   6.927   6.584   1.043
 9203SOL    HW128508   7.011   6.585   0.989
 9203SOL    HW228509   6.850   6.610   0.985
 9204SOL     OW28510   5.774   0.866   5.697
 9204SOL    HW128511   5.708   0.824   5.635
 9204SOL    HW228512   5.836   0.796   5.731
 9205SOL     OW28513   0.319   5.722   2.180
 9205SOL    HW128514   0.231   5.722   2.133
 9205SOL    HW228515   0.305   5.747   2.276
 9206SOL     OW28516   3.603   0.221   0.415
 9206SOL    HW128517   3.701   0.238   0.402
 9206SOL    HW228518   3.584   0.213   0.513
 9207SOL     OW28519   5.678   5.867   6.073
 9207SOL    HW128520   5.630   5.849   6.159
 9207SOL    HW228521   5.680   5.784   6.018
 9208SOL     OW28522   1.211   3.566   2.640
 9208SOL    HW128523   1.229   3.476   2.600
 9208SOL    HW228524   1.115   3.572   2.667
 9209SOL     OW28525   2.533   6.012   6.630
 9209SOL    HW128526   2.529   5.960   6.545
 9209SOL    HW228527   2.521   6.110   6.610
 9210SOL     OW28528   6.292   0.775   3.910
 9210SOL    HW128529   6.314   0.680   3.931
 9210SOL    HW228530   6.303   0.791   3.812
 9211SOL     OW28531   0.980   1.696   3.159
 9211SOL    HW128532   1.037   1.644   3.222
 9211SOL    HW228533   0.887   1.701   3.196
 9212SOL     OW28534   3.969   5.137   4.694
 9212SOL    HW128535   3.931   5.203   4.629
 9212SOL    HW228536   4.045   5.178   4.743
 9213SOL     OW28537   6.136   3.798   0.084
 9213SOL    HW128538   6.226   3.766   0.114
 9213SOL    HW228539   6.142   3.896   0.061
 9214SOL     OW28540   0.346   5.358   0.220
 9214SOL    HW128541   0.261   5.321   0.257
 9214SOL    HW228542   0.412   5.284   0.207
 9215SOL     OW28543   1.027   1.141   0.800
 9215SOL    HW128544   1.122   1.112   0.787
 9215SOL    HW228545   0.972   1.061   0.823
 9216SOL     OW28546   2.075   0.017   3.758
 9216SOL    HW128547   2.063   0.116   3.762
 9216SOL    HW228548   2.098   7.012   3.664
 9217SOL     OW28549   0.440   2.411   0.650
 9217SOL    HW128550   0.540   2.408   0.651
 9217SOL    HW228551   0.406   2.331   0.599
 9218SOL     OW28552   2.585   1.254   0.870
 9218SOL    HW128553   2.653   1.327   0.882
 9218SOL    HW228554   2.602   1.207   0.783
 9219SOL     OW28555   6.092   1.589   0.503
 9219SOL    HW128556   6.119   1.576   0.599
 9219SOL    HW228557   6.172   1.618   0.450
 9220SOL     OW28558   2.917   6.455   0.551
 9220SOL    HW128559   2.987   6.389   0.523
 9220SOL    HW228560   2.928   6.539   0.499
 9221SOL     OW28561   2.925   4.846   4.806
 9221SOL    HW128562   2.887   4.773   4.863
 9221SOL    HW228563   2.951   4.924   4.864
 9222SOL     OW28564   3.302   2.142   7.004
 9222SOL    HW128565   3.241   2.219   6.989
 9222SOL    HW228566   3.272   2.064   6.950
 9223SOL     OW28567   2.675   3.156   5.385
 9223SOL    HW128568   2.596   3.210   5.412
 9223SOL    HW228569   2.652   3.101   5.305
 9224SOL     OW28570   2.501   4.482   5.083
 9224SOL    HW128571   2.551   4.555   5.036
 9224SOL    HW228572   2.420   4.458   5.029
 9225SOL     OW28573   1.649   6.191   6.963
 9225SOL    HW128574   1.617   6.155   0.029
 9225SOL    HW228575   1.591   6.267   6.934
 9226SOL     OW28576   4.767   6.021   0.882
 9226SOL    HW128577   4.726   5.931   0.871
 9226SOL    HW228578   4.695   6.090   0.892
 9227SOL     OW28579   1.243   6.336   1.314
 9227SOL    HW128580   1.259   6.432   1.334
 9227SOL    HW228581   1.305   6.280   1.370
 9228SOL     OW28582   0.534   6.404   6.267
 9228SOL    HW128583   0.575   6.450   6.189
 9228SOL    HW228584   0.445   6.366   6.240
 9229SOL     OW28585   1.021   6.035   5.180
 9229SOL    HW128586   0.984   6.011   5.091
 9229SOL    HW228587   1.016   5.956   5.241
 9230SOL     OW28588   4.895   1.607   3.287
 9230SOL    HW128589   4.875   1.705   3.292
 9230SOL    HW228590   4.914   1.572   3.378
 9231SOL     OW28591   2.182   3.394   3.546
 9231SOL    HW128592   2.125   3.334   3.603
 9231SOL    HW228593   2.200   3.479   3.596
 9232SOL     OW28594   4.449   5.464   1.150
 9232SOL    HW128595   4.405   5.408   1.081
 9232SOL    HW228596   4.547   5.442   1.153
 9233SOL     OW28597   5.728   4.507   0.103
 9233SOL    HW128598   5.695   4.566   0.029
 9233SOL    HW228599   5.697   4.543   0.191
 9234SOL     OW28600   1.638   5.857   3.969
 9234SOL    HW128601   1.656   5.910   4.052
 9234SOL    HW228602   1.671   5.907   3.889
 9235SOL     OW28603   0.977   2.466   3.288
 9235SOL    HW128604   0.937   2.488   3.199
 9235SOL    HW228605   1.066   2.423   3.275
 9236SOL     OW28606   3.439   2.649   6.340
 9236SOL    HW128607   3.462   2.746   6.329
 9236SOL    HW228608   3.345   2.634   6.311
 9237SOL     OW28609   1.540   3.597   2.927
 9237SOL    HW128610   1.556   3.694   2.911
 9237SOL    HW228611   1.529   3.550   2.839
 9238SOL     OW28612   4.328   3.550   6.647
 9238SOL    HW128613   4.270   3.566   6.568
 9238SOL    HW228614   4.395   3.625   6.655
 9239SOL     OW28615   2.190   3.060   6.423
 9239SOL    HW128616   2.185   3.158   6.404
 9239SOL    HW228617   2.149   3.041   6.512
 9240SOL     OW28618   4.521   0.877   2.178
 9240SOL    HW128619   4.594   0.865   2.246
 9240SOL    HW228620   4.561   0.874   2.086
 9241SOL     OW28621   0.319   5.690   5.572
 9241SOL    HW128622   0.353   5.669   5.663
 9241SOL    HW228623   0.360   5.775   5.539
 9242SOL     OW28624   5.217   6.637   2.117
 9242SOL    HW128625   5.242   6.704   2.186
 9242SOL    HW228626   5.299   6.602   2.072
 9243SOL     OW28627   5.671   0.162   4.548
 9243SOL    HW128628   5.760   0.203   4.530
 9243SOL    HW228629   5.612   0.173   4.468
 9244SOL     OW28630   3.802   6.028   0.555
 9244SOL    HW128631   3.796   6.085   0.472
 9244SOL    HW228632   3.896   5.996   0.566
 9245SOL     OW28633   0.530   6.730   1.816
 9245SOL    HW128634   0.521   6.638   1.854
 9245SOL    HW228635   0.520   6.726   1.717
 9246SOL     OW28636   0.009   4.991   3.881
 9246SOL    HW128637   7.015   4.963   3.976
 9246SOL    HW228638   7.004   4.917   3.819
 9247SOL     OW28639   1.192   0.529   2.947
 9247SOL    HW128640   1.247   0.587   2.887
 9247SOL    HW228641   1.099   0.565   2.951
 9248SOL     OW28642   4.296   1.916   6.351
 9248SOL    HW128643   4.304   1.965   6.438
 9248SOL    HW228644   4.345   1.829   6.357
 9249SOL     OW28645   4.119   6.652   3.840
 9249SOL    HW128646   4.180   6.574   3.852
 9249SOL    HW228647   4.025   6.625   3.861
 9250SOL     OW28648   4.859   3.850   3.254
 9250SOL    HW128649   4.833   3.934   3.207
 9250SOL    HW228650   4.874   3.869   3.351
 9251SOL     OW28651   3.766   1.684   2.169
 9251SOL    HW128652   3.690   1.669   2.106
 9251SOL    HW228653   3.739   1.657   2.261
 9252SOL     OW28654   1.550   6.724   4.452
 9252SOL    HW128655   1.488   6.774   4.391
 9252SOL    HW228656   1.634   6.776   4.465
 9253SOL     OW28657   1.269   6.715   6.438
 9253SOL    HW128658   1.277   6.814   6.425
 9253SOL    HW228659   1.176   6.685   6.414
 9254SOL     OW28660   4.830   2.067   1.104
 9254SOL    HW128661   4.770   2.108   1.035
 9254SOL    HW228662   4.907   2.023   1.058
 9255SOL     OW28663   6.997   5.195   0.165
 9255SOL    HW128664   0.058   5.147   0.194
 9255SOL    HW228665   6.978   5.270   0.228
 9256SOL     OW28666   4.036   5.257   2.758
 9256SOL    HW128667   4.059   5.180   2.818
 9256SOL    HW228668   4.102   5.331   2.772
 9257SOL     OW28669   0.406   3.416   0.708
 9257SOL    HW128670   0.311   3.440   0.688
 9257SOL    HW228671   0.421   3.423   0.807
 9258SOL     OW28672   3.490   2.902   4.743
 9258SOL    HW128673   3.419   2.893   4.813
 9258SOL    HW228674   3.450   2.883   4.653
 9259SOL     OW28675   1.549   2.524   0.393
 9259SOL    HW128676   1.506   2.434   0.404
 9259SOL    HW228677   1.644   2.512   0.365
 9260SOL     OW28678   6.775   3.886   0.117
 9260SOL    HW128679   6.710   3.812   0.135
 9260SOL    HW228680   6.865   3.847   0.097
 9261SOL     OW28681   2.639   6.992   5.775
 9261SOL    HW128682   2.586   6.938   5.710
 9261SOL    HW228683   2.696   6.932   5.831
 9262SOL     OW28684   5.944   0.293   6.522
 9262SOL    HW128685   5.983   0.368   6.468
 9262SOL    HW228686   6.016   0.250   6.577
 9263SOL     OW28687   6.194   4.028   2.153
 9263SOL    HW128688   6.165   3.934   2.134
 9263SOL    HW228689   6.123   4.092   2.124
 9264SOL     OW28690   5.612   2.300   0.196
 9264SOL    HW128691   5.690   2.239   0.205
 9264SOL    HW228692   5.575   2.321   0.286
 9265SOL     OW28693   1.885   2.242   5.189
 9265SOL    HW128694   1.849   2.160   5.144
 9265SOL    HW228695   1.973   2.266   5.148
 9266SOL     OW28696   2.839   6.338   2.488
 9266SOL    HW128697   2.913   6.289   2.534
 9266SOL    HW228698   2.821   6.296   2.399
 9267SOL     OW28699   3.059   5.142   6.001
 9267SOL    HW128700   3.009   5.198   6.066
 9267SOL    HW228701   3.034   5.168   5.907
 9268SOL     OW28702   1.514   0.859   2.980
 9268SOL    HW128703   1.573   0.896   2.908
 9268SOL    HW228704   1.470   0.935   3.028
 9269SOL     OW28705   4.217   1.258   5.256
 9269SOL    HW128706   4.289   1.190   5.243
 9269SOL    HW228707   4.246   1.324   5.325
 9270SOL     OW28708   1.799   0.500   5.685
 9270SOL    HW128709   1.881   0.492   5.628
 9270SOL    HW228710   1.809   0.443   5.766
 9271SOL     OW28711   0.368   5.144   5.633
 9271SOL    HW128712   0.402   5.203   5.706
 9271SOL    HW228713   0.408   5.171   5.546
 9272SOL     OW28714   2.192   5.344   6.395
 9272SOL    HW128715   2.111   5.370   6.448
 9272SOL    HW228716   2.273   5.387   6.435
 9273SOL     OW28717   3.746   5.813   6.501
 9273SOL    HW128718   3.792   5.737   6.454
 9273SOL    HW228719   3.813   5.866   6.552
 9274SOL     OW28720   5.068   2.296   2.352
 9274SOL    HW128721   5.065   2.393   2.329
 9274SOL    HW228722   5.028   2.243   2.277
 9275SOL     OW28723   6.960   0.532   5.900
 9275SOL    HW128724   6.889   0.552   5.967
 9275SOL    HW228725   0.008   0.604   5.904
 9276SOL     OW28726   4.614   6.919   4.232
 9276SOL    HW128727   4.710   6.898   4.250
 9276SOL    HW228728   4.561   6.835   4.228
 9277SOL     OW28729   4.720   2.648   6.939
 9277SOL    HW128730   4.797   2.589   6.915
 9277SOL    HW228731   4.656   2.651   6.862
 9278SOL     OW28732   1.507   2.498   1.103
 9278SOL    HW128733   1.514   2.431   1.029
 9278SOL    HW228734   1.429   2.475   1.161
 9279SOL     OW28735   2.255   6.324   0.367
 9279SOL    HW128736   2.208   6.370   0.291
 9279SOL    HW228737   2.300   6.392   0.424
 9280SOL     OW28738   1.684   0.605   2.616
 9280SOL    HW128739   1.683   0.577   2.712
 9280SOL    HW228740   1.596   0.644   2.592
 9281SOL     OW28741   2.032   2.364   0.181
 9281SOL    HW128742   1.996   2.286   0.131
 9281SOL    HW228743   2.098   2.413   0.124
 9282SOL     OW28744   3.999   1.334   6.548
 9282SOL    HW128745   4.089   1.362   6.515
 9282SOL    HW228746   3.971   1.250   6.502
 9283SOL     OW28747   5.327   2.360   2.940
 9283SOL    HW128748   5.324   2.267   2.903
 9283SOL    HW228749   5.236   2.387   2.971
 9284SOL     OW28750   3.654   4.083   1.989
 9284SOL    HW128751   3.664   3.997   2.039
 9284SOL    HW228752   3.716   4.152   2.027
 9285SOL     OW28753   6.328   2.828   6.241
 9285SOL    HW128754   6.406   2.859   6.295
 9285SOL    HW228755   6.250   2.811   6.302
 9286SOL     OW28756   5.541   5.541   3.785
 9286SOL    HW128757   5.485   5.489   3.850
 9286SOL    HW228758   5.499   5.630   3.769
 9287SOL     OW28759   3.242   0.016   2.674
 9287SOL    HW128760   3.154   0.054   2.644
 9287SOL    HW228761   3.286   0.078   2.738
 9288SOL     OW28762   4.434   2.264   6.792
 9288SOL    HW128763   4.426   2.242   6.890
 9288SOL    HW228764   4.346   2.294   6.757
 9289SOL     OW28765   5.642   3.896   2.677
 9289SOL    HW128766   5.618   3.860   2.587
 9289SOL    HW228767   5.675   3.990   2.667
 9290SOL     OW28768   4.211   2.208   4.476
 9290SOL    HW128769   4.182   2.191   4.571
 9290SOL    HW228770   4.294   2.264   4.476
 9291SOL     OW28771   1.144   2.615   5.292
 9291SOL    HW128772   1.233   2.604   5.336
 9291SOL    HW228773   1.148   2.581   5.198
 9292SOL     OW28774   0.483   3.986   0.188
 9292SOL    HW128775   0.560   3.997   0.251
 9292SOL    HW228776   0.446   4.076   0.164
 9293SOL     OW28777   5.818   4.258   6.169
 9293SOL    HW128778   5.802   4.237   6.072
 9293SOL    HW228779   5.907   4.303   6.179
 9294SOL     OW28780   5.568   6.017   6.316
 9294SOL    HW128781   5.570   5.917   6.312
 9294SOL    HW228782   5.495   6.046   6.378
 9295SOL     OW28783   4.778   2.981   3.391
 9295SOL    HW128784   4.874   2.973   3.367
 9295SOL    HW228785   4.768   3.051   3.463
 9296SOL     OW28786   5.960   0.454   5.099
 9296SOL    HW128787   6.047   0.409   5.119
 9296SOL    HW228788   5.970   0.553   5.115
 9297SOL     OW28789   0.635   0.348   1.741
 9297SOL    HW128790   0.685   0.264   1.764
 9297SOL    HW228791   0.572   0.370   1.815
 9298SOL     OW28792   0.891   6.660   4.856
 9298SOL    HW128793   0.952   6.647   4.935
 9298SOL    HW228794   0.838   6.576   4.842
 9299SOL     OW28795   1.765   2.803   4.430
 9299SOL    HW128796   1.678   2.815   4.384
 9299SOL    HW228797   1.793   2.889   4.472
 9300SOL     OW28798   6.001   4.827   3.728
 9300SOL    HW128799   6.089   4.783   3.748
 9300SOL    HW228800   5.939   4.760   3.689
 9301SOL     OW28801   6.790   4.795   1.352
 9301SOL    HW128802   6.767   4.785   1.449
 9301SOL    HW228803   6.805   4.705   1.312
 9302SOL     OW28804   1.467   2.122   2.295
 9302SOL    HW128805   1.461   2.151   2.391
 9302SOL    HW228806   1.382   2.079   2.268
 9303SOL     OW28807   4.673   3.898   0.593
 9303SOL    HW128808   4.743   3.913   0.663
 9303SOL    HW228809   4.685   3.964   0.519
 9304SOL     OW28810   4.607   4.019   0.940
 9304SOL    HW128811   4.531   4.084   0.932
 9304SOL    HW228812   4.574   3.934   0.980
 9305SOL     OW28813   4.741   3.788   1.824
 9305SOL    HW128814   4.824   3.834   1.794
 9305SOL    HW228815   4.663   3.825   1.773
 9306SOL     OW28816   6.865   5.804   3.369
 9306SOL    HW128817   6.808   5.745   3.313
 9306SOL    HW228818   6.898   5.754   3.448
 9307SOL     OW28819   2.152   0.730   5.899
 9307SOL    HW128820   2.074   0.784   5.867
 9307SOL    HW228821   2.134   0.633   5.885
 9308SOL     OW28822   6.835   2.655   0.552
 9308SOL    HW128823   6.807   2.564   0.583
 9308SOL    HW228824   6.773   2.724   0.590
 9309SOL     OW28825   5.076   3.220   6.460
 9309SOL    HW128826   5.109   3.135   6.420
 9309SOL    HW228827   4.982   3.206   6.493
 9310SOL     OW28828   3.667   6.690   1.533
 9310SOL    HW128829   3.667   6.639   1.447
 9310SOL    HW228830   3.740   6.759   1.531
 9311SOL     OW28831   6.806   3.788   1.623
 9311SOL    HW128832   6.747   3.730   1.568
 9311SOL    HW228833   6.896   3.795   1.579
 9312SOL     OW28834   1.753   3.958   4.748
 9312SOL    HW128835   1.800   3.951   4.835
 9312SOL    HW228836   1.738   4.054   4.725
 9313SOL     OW28837   6.322   6.853   2.635
 9313SOL    HW128838   6.231   6.826   2.604
 9313SOL    HW228839   6.355   6.929   2.579
 9314SOL     OW28840   6.756   4.158   0.189
 9314SOL    HW128841   6.794   4.066   0.175
 9314SOL    HW228842   6.659   4.150   0.215
 9315SOL     OW28843   0.498   5.950   6.226
 9315SOL    HW128844   0.533   5.876   6.283
 9315SOL    HW228845   0.438   6.008   6.281
 9316SOL     OW28846   3.138   5.116   4.627
 9316SOL    HW128847   3.082   5.180   4.575
 9316SOL    HW228848   3.119   5.022   4.598
 9317SOL     OW28849   4.470   4.043   5.722
 9317SOL    HW128850   4.487   3.945   5.711
 9317SOL    HW228851   4.550   4.086   5.763
 9318SOL     OW28852   6.597   6.716   6.164
 9318SOL    HW128853   6.510   6.694   6.209
 9318SOL    HW228854   6.632   6.635   6.117
 9319SOL     OW28855   5.957   3.925   4.610
 9319SOL    HW128856   5.957   3.898   4.514
 9319SOL    HW228857   5.991   3.849   4.666
 9320SOL     OW28858   3.901   2.936   5.712
 9320SOL    HW128859   3.912   2.922   5.613
 9320SOL    HW228860   3.896   2.847   5.757
 9321SOL     OW28861   5.595   6.634   4.371
 9321SOL    HW128862   5.542   6.658   4.453
 9321SOL    HW228863   5.677   6.690   4.367
 9322SOL     OW28864   1.233   6.090   0.725
 9322SOL    HW128865   1.273   6.176   0.757
 9322SOL    HW228866   1.214   6.030   0.802
 9323SOL     OW28867   0.707   1.239   6.138
 9323SOL    HW128868   0.715   1.307   6.065
 9323SOL    HW228869   0.762   1.159   6.114
 9324SOL     OW28870   1.270   5.356   6.774
 9324SOL    HW128871   1.353   5.373   6.721
 9324SOL    HW228872   1.288   5.372   6.871
 9325SOL     OW28873   0.333   2.673   6.635
 9325SOL    HW128874   0.245   2.705   6.600
 9325SOL    HW228875   0.402   2.682   6.564
 9326SOL     OW28876   2.314   5.857   1.663
 9326SOL    HW128877   2.251   5.789   1.625
 9326SOL    HW228878   2.350   5.823   1.750
 9327SOL     OW28879   2.335   1.757   4.085
 9327SOL    HW128880   2.365   1.843   4.126
 9327SOL    HW228881   2.371   1.680   4.140
 9328SOL     OW28882   2.669   1.190   2.527
 9328SOL    HW128883   2.709   1.272   2.567
 9328SOL    HW228884   2.578   1.211   2.492
 9329SOL     OW28885   0.788   3.734   1.740
 9329SOL    HW128886   0.802   3.653   1.683
 9329SOL    HW228887   0.833   3.813   1.697
 9330SOL     OW28888   5.352   6.416   6.781
 9330SOL    HW128889   5.273   6.451   6.832
 9330SOL    HW228890   5.395   6.491   6.731
 9331SOL     OW28891   0.927   1.502   0.380
 9331SOL    HW128892   0.850   1.454   0.422
 9331SOL    HW228893   0.992   1.436   0.343
 9332SOL     OW28894   3.658   4.114   5.429
 9332SOL    HW128895   3.648   4.025   5.474
 9332SOL    HW228896   3.755   4.139   5.425
 9333SOL     OW28897   5.048   6.233   1.354
 9333SOL    HW128898   4.961   6.280   1.340
 9333SOL    HW228899   5.076   6.242   1.450
 9334SOL     OW28900   2.151   6.981   4.341
 9334SOL    HW128901   2.245   6.960   4.316
 9334SOL    HW228902   2.147   0.047   4.388
 9335SOL     OW28903   0.241   1.701   2.081
 9335SOL    HW128904   0.216   1.679   1.986
 9335SOL    HW228905   0.242   1.801   2.092
 9336SOL     OW28906   2.805   0.074   5.256
 9336SOL    HW128907   2.884   0.128   5.227
 9336SOL    HW228908   2.825   0.032   5.345
 9337SOL     OW28909   4.565   6.874   3.028
 9337SOL    HW128910   4.485   6.864   3.089
 9337SOL    HW228911   4.645   6.897   3.083
 9338SOL     OW28912   2.313   6.757   2.366
 9338SOL    HW128913   2.336   6.666   2.399
 9338SOL    HW228914   2.396   6.812   2.356
 9339SOL     OW28915   3.768   5.455   1.626
 9339SOL    HW128916   3.676   5.475   1.661
 9339SOL    HW228917   3.801   5.533   1.572
 9340SOL     OW28918   6.487   2.836   0.437
 9340SOL    HW128919   6.574   2.836   0.487
 9340SOL    HW228920   6.502   2.800   0.345
 9341SOL     OW28921   0.828   4.190   5.600
 9341SOL    HW128922   0.904   4.148   5.649
 9341SOL    HW228923   0.746   4.189   5.658
 9342SOL     OW28924   1.375   0.620   0.171
 9342SOL    HW128925   1.423   0.682   0.234
 9342SOL    HW228926   1.435   0.599   0.094
 9343SOL     OW28927   5.941   6.227   3.720
 9343SOL    HW128928   6.027   6.223   3.771
 9343SOL    HW228929   5.870   6.264   3.779
 9344SOL     OW28930   5.265   6.187   0.725
 9344SOL    HW128931   5.311   6.261   0.675
 9344SOL    HW228932   5.299   6.099   0.694
 9345SOL     OW28933   0.642   2.177   0.658
 9345SOL    HW128934   0.686   2.266   0.645
 9345SOL    HW228935   0.691   2.127   0.730
 9346SOL     OW28936   5.779   0.876   0.633
 9346SOL    HW128937   5.753   0.783   0.662
 9346SOL    HW228938   5.718   0.942   0.675
 9347SOL     OW28939   1.925   6.331   2.312
 9347SOL    HW128940   1.927   6.395   2.236
 9347SOL    HW228941   1.971   6.372   2.391
 9348SOL     OW28942   3.073   4.844   0.302
 9348SOL    HW128943   3.041   4.749   0.291
 9348SOL    HW228944   3.151   4.845   0.365
 9349SOL     OW28945   1.174   6.295   2.786
 9349SOL    HW128946   1.144   6.238   2.709
 9349SOL    HW228947   1.223   6.375   2.751
 9350SOL     OW28948   0.262   3.072   5.415
 9350SOL    HW128949   0.211   2.991   5.443
 9350SOL    HW228950   0.200   3.140   5.377
 9351SOL     OW28951   3.154   6.640   6.732
 9351SOL    HW128952   3.216   6.615   6.806
 9351SOL    HW228953   3.134   6.738   6.735
 9352SOL     OW28954   2.638   5.088   5.874
 9352SOL    HW128955   2.572   5.015   5.852
 9352SOL    HW228956   2.721   5.074   5.820
 9353SOL     OW28957   6.203   1.084   1.220
 9353SOL    HW128958   6.233   1.060   1.127
 9353SOL    HW228959   6.208   1.004   1.279
 9354SOL     OW28960   1.151   1.219   5.854
 9354SOL    HW128961   1.190   1.132   5.885
 9354SOL    HW228962   1.203   1.295   5.894
 9355SOL     OW28963   1.092   1.660   5.327
 9355SOL    HW128964   1.136   1.625   5.244
 9355SOL    HW228965   1.153   1.726   5.371
 9356SOL     OW28966   3.483   0.084   4.021
 9356SOL    HW128967   3.562   0.086   4.082
 9356SOL    HW228968   3.494   0.155   3.951
 9357SOL     OW28969   2.103   2.231   0.507
 9357SOL    HW128970   2.005   2.212   0.517
 9357SOL    HW228971   2.127   2.231   0.410
 9358SOL     OW28972   1.188   2.103   1.052
 9358SOL    HW128973   1.116   2.160   1.012
 9358SOL    HW228974   1.274   2.117   1.002
 9359SOL     OW28975   0.824   0.636   5.265
 9359SOL    HW128976   0.839   0.733   5.249
 9359SOL    HW228977   0.772   0.597   5.190
 9360SOL     OW28978   6.986   0.656   5.611
 9360SOL    HW128979   0.044   0.598   5.595
 9360SOL    HW228980   6.941   0.629   5.696
 9361SOL     OW28981   2.156   5.717   4.090
 9361SOL    HW128982   2.226   5.717   4.161
 9361SOL    HW228983   2.066   5.715   4.132
 9362SOL     OW28984   1.826   0.371   2.539
 9362SOL    HW128985   1.819   0.331   2.448
 9362SOL    HW228986   1.757   0.442   2.550
 9363SOL     OW28987   1.922   2.451   2.268
 9363SOL    HW128988   1.873   2.407   2.192
 9363SOL    HW228989   1.914   2.394   2.350
 9364SOL     OW28990   0.368   1.979   6.546
 9364SOL    HW128991   0.320   1.928   6.618
 9364SOL    HW228992   0.444   1.925   6.512
 9365SOL     OW28993   2.559   1.156   5.453
 9365SOL    HW128994   2.501   1.076   5.471
 9365SOL    HW228995   2.504   1.229   5.412
 9366SOL     OW28996   3.228   6.798   2.361
 9366SOL    HW128997   3.209   6.895   2.379
 9366SOL    HW228998   3.197   6.774   2.270
 9367SOL     OW28999   6.807   7.011   1.385
 9367SOL    HW129000   6.768   0.079   1.407
 9367SOL    HW229001   6.874   6.985   1.455
 9368SOL     OW29002   2.266   0.597   3.111
 9368SOL    HW129003   2.193   0.536   3.144
 9368SOL    HW229004   2.243   0.628   3.019
 9369SOL     OW29005   4.100   5.110   1.110
 9369SOL    HW129006   4.132   5.195   1.151
 9369SOL    HW229007   4.080   5.126   1.013
 9370SOL     OW29008   4.575   2.534   5.442
 9370SOL    HW129009   4.548   2.555   5.348
 9370SOL    HW229010   4.627   2.449   5.444
 9371SOL     OW29011   4.242   5.003   0.748
 9371SOL    HW129012   4.308   5.027   0.676
 9371SOL    HW229013   4.290   4.980   0.832
 9372SOL     OW29014   4.729   6.762   0.965
 9372SOL    HW129015   4.636   6.793   0.948
 9372SOL    HW229016   4.746   6.677   0.914
 9373SOL     OW29017   0.167   2.265   1.574
 9373SOL    HW129018   0.086   2.301   1.620
 9373SOL    HW229019   0.138   2.208   1.496
 9374SOL     OW29020   6.825   5.235   6.057
 9374SOL    HW129021   6.911   5.224   6.007
 9374SOL    HW229022   6.782   5.322   6.032
 9375SOL     OW29023   1.976   1.401   6.580
 9375SOL    HW129024   2.032   1.374   6.658
 9375SOL    HW229025   2.011   1.487   6.542
 9376SOL     OW29026   3.346   3.785   0.414
 9376SOL    HW129027   3.369   3.771   0.318
 9376SOL    HW229028   3.329   3.696   0.457
 9377SOL     OW29029   1.172   0.863   3.231
 9377SOL    HW129030   1.129   0.932   3.289
 9377SOL    HW229031   1.227   0.801   3.287
 9378SOL     OW29032   3.998   1.271   5.447
 9378SOL    HW129033   3.905   1.281   5.415
 9378SOL    HW229034   4.057   1.241   5.372
 9379SOL     OW29035   3.994   0.292   4.832
 9379SOL    HW129036   3.965   0.199   4.856
 9379SOL    HW229037   4.069   0.320   4.892
 9380SOL     OW29038   5.257   6.448   1.270
 9380SOL    HW129039   5.243   6.364   1.217
 9380SOL    HW229040   5.171   6.475   1.313
 9381SOL     OW29041   4.950   0.791   4.944
 9381SOL    HW129042   5.020   0.845   4.896
 9381SOL    HW229043   4.860   0.816   4.909
 9382SOL     OW29044   2.809   5.456   6.554
 9382SOL    HW129045   2.904   5.475   6.580
 9382SOL    HW229046   2.804   5.367   6.508
 9383SOL     OW29047   5.924   4.015   1.606
 9383SOL    HW129048   5.902   3.921   1.633
 9383SOL    HW229049   6.021   4.021   1.583
 9384SOL     OW29050   4.192   0.393   0.814
 9384SOL    HW129051   4.160   0.343   0.895
 9384SOL    HW229052   4.233   0.480   0.843
 9385SOL     OW29053   3.981   2.182   4.236
 9385SOL    HW129054   4.048   2.180   4.310
 9385SOL    HW229055   4.018   2.233   4.159
 9386SOL     OW29056   5.513   0.153   1.169
 9386SOL    HW129057   5.567   0.167   1.251
 9386SOL    HW229058   5.529   0.228   1.105
 9387SOL     OW29059   2.654   2.100   6.561
 9387SOL    HW129060   2.579   2.065   6.616
 9387SOL    HW229061   2.675   2.194   6.588
 9388SOL     OW29062   2.388   6.900   5.028
 9388SOL    HW129063   2.353   6.854   4.947
 9388SOL    HW229064   2.418   6.992   5.004
 9389SOL     OW29065   2.046   3.745   1.697
 9389SOL    HW129066   2.012   3.654   1.722
 9389SOL    HW229067   1.977   3.814   1.718
 9390SOL     OW29068   6.098   5.341   4.006
 9390SOL    HW129069   6.056   5.345   3.915
 9390SOL    HW229070   6.147   5.426   4.025
 9391SOL     OW29071   0.531   4.910   3.908
 9391SOL    HW129072   0.509   5.004   3.883
 9391SOL    HW229073   0.581   4.908   3.994
 9392SOL     OW29074   3.464   5.208   2.372
 9392SOL    HW129075   3.412   5.151   2.309
 9392SOL    HW229076   3.554   5.227   2.334
 9393SOL     OW29077   2.170   5.252   6.988
 9393SOL    HW129078   2.112   5.231   0.045
 9393SOL    HW229079   2.204   5.167   6.947
 9394SOL     OW29080   4.617   0.496   6.694
 9394SOL    HW129081   4.559   0.489   6.775
 9394SOL    HW229082   4.632   0.592   6.672
 9395SOL     OW29083   0.664   0.992   1.346
 9395SOL    HW129084   0.641   1.024   1.254
 9395SOL    HW229085   0.673   0.892   1.345
 9396SOL     OW29086   1.169   1.173   6.632
 9396SOL    HW129087   1.263   1.144   6.614
 9396SOL    HW229088   1.121   1.186   6.545
 9397SOL     OW29089   3.411   1.611   5.652
 9397SOL    HW129090   3.372   1.520   5.664
 9397SOL    HW229091   3.356   1.663   5.586
 9398SOL     OW29092   6.678   2.393   6.577
 9398SOL    HW129093   6.670   2.296   6.601
 9398SOL    HW229094   6.756   2.433   6.625
 9399SOL     OW29095   1.168   2.234   4.709
 9399SOL    HW129096   1.073   2.264   4.713
 9399SOL    HW229097   1.227   2.312   4.687
 9400SOL     OW29098   6.135   1.354   1.281
 9400SOL    HW129099   6.188   1.406   1.214
 9400SOL    HW229100   6.147   1.256   1.266
 9401SOL     OW29101   0.080   1.748   3.433
 9401SOL    HW129102   7.007   1.737   3.465
 9401SOL    HW229103   0.088   1.712   3.340
 9402SOL     OW29104   3.814   6.180   5.677
 9402SOL    HW129105   3.802   6.233   5.593
 9402SOL    HW229106   3.904   6.201   5.717
 9403SOL     OW29107   5.557   2.017   1.324
 9403SOL    HW129108   5.609   2.008   1.410
 9403SOL    HW229109   5.607   1.970   1.251
 9404SOL     OW29110   2.696   2.747   0.888
 9404SOL    HW129111   2.759   2.695   0.831
 9404SOL    HW229112   2.617   2.774   0.834
 9405SOL     OW29113   5.984   5.643   4.873
 9405SOL    HW129114   5.922   5.610   4.944
 9405SOL    HW229115   6.051   5.572   4.851
 9406SOL     OW29116   1.583   0.835   0.582
 9406SOL    HW129117   1.571   0.914   0.641
 9406SOL    HW229118   1.677   0.802   0.589
 9407SOL     OW29119   1.954   4.590   4.733
 9407SOL    HW129120   2.053   4.586   4.739
 9407SOL    HW229121   1.919   4.507   4.690
 9408SOL     OW29122   6.087   5.057   3.636
 9408SOL    HW129123   6.036   4.981   3.677
 9408SOL    HW229124   6.082   5.050   3.536
 9409SOL     OW29125   5.761   5.361   1.259
 9409SOL    HW129126   5.719   5.450   1.237
 9409SOL    HW229127   5.803   5.323   1.176
 9410SOL     OW29128   4.375   0.298   0.636
 9410SOL    HW129129   4.297   0.325   0.693
 9410SOL    HW229130   4.358   0.327   0.542
 9411SOL     OW29131   3.378   3.784   4.884
 9411SOL    HW129132   3.470   3.759   4.853
 9411SOL    HW229133   3.311   3.722   4.841
 9412SOL     OW29134   3.896   6.826   1.570
 9412SOL    HW129135   3.892   6.892   1.644
 9412SOL    HW229136   3.979   6.771   1.579
 9413SOL     OW29137   4.020   4.958   3.291
 9413SOL    HW129138   4.061   4.868   3.302
 9413SOL    HW229139   4.091   5.028   3.293
 9414SOL     OW29140   2.125   0.794   2.386
 9414SOL    HW129141   2.046   0.762   2.335
 9414SOL    HW229142   2.110   0.889   2.414
 9415SOL     OW29143   4.986   0.697   0.861
 9415SOL    HW129144   5.012   0.793   0.850
 9415SOL    HW229145   4.979   0.676   0.958
 9416SOL     OW29146   6.534   4.506   5.525
 9416SOL    HW129147   6.489   4.477   5.440
 9416SOL    HW229148   6.479   4.475   5.603
 9417SOL     OW29149   3.760   5.961   3.022
 9417SOL    HW129150   3.668   5.998   3.036
 9417SOL    HW229151   3.773   5.880   3.080
 9418SOL     OW29152   2.800   2.212   4.860
 9418SOL    HW129153   2.744   2.274   4.915
 9418SOL    HW229154   2.772   2.219   4.764
 9419SOL     OW29155   2.650   2.563   6.240
 9419SOL    HW129156   2.648   2.520   6.150
 9419SOL    HW229157   2.739   2.605   6.256
 9420SOL     OW29158   5.298   3.383   5.735
 9420SOL    HW129159   5.383   3.400   5.685
 9420SOL    HW229160   5.297   3.287   5.766
 9421SOL     OW29161   3.651   6.831   0.341
 9421SOL    HW129162   3.624   6.923   0.316
 9421SOL    HW229163   3.750   6.827   0.355
 9422SOL     OW29164   2.060   6.112   5.914
 9422SOL    HW129165   2.134   6.072   5.860
 9422SOL    HW229166   2.079   6.209   5.929
 9423SOL     OW29167   4.868   4.884   0.724
 9423SOL    HW129168   4.887   4.920   0.632
 9423SOL    HW229169   4.949   4.894   0.782
 9424SOL     OW29170   6.146   6.971   3.766
 9424SOL    HW129171   6.213   6.906   3.730
 9424SOL    HW229172   6.192   0.020   3.818
 9425SOL     OW29173   6.864   5.712   1.560
 9425SOL    HW129174   6.857   5.631   1.501
 9425SOL    HW229175   6.939   5.770   1.528
 9426SOL     OW29176   4.326   1.988   6.111
 9426SOL    HW129177   4.244   2.044   6.100
 9426SOL    HW229178   4.340   1.969   6.208
 9427SOL     OW29179   3.614   5.599   2.209
 9427SOL    HW129180   3.537   5.561   2.157
 9427SOL    HW229181   3.579   5.659   2.281
 9428SOL     OW29182   0.220   6.379   4.939
 9428SOL    HW129183   0.152   6.321   4.984
 9428SOL    HW229184   0.308   6.330   4.935
 9429SOL     OW29185   2.842   2.327   4.077
 9429SOL    HW129186   2.786   2.245   4.063
 9429SOL    HW229187   2.852   2.344   4.175
 9430SOL     OW29188   1.446   6.643   3.842
 9430SOL    HW129189   1.410   6.560   3.884
 9430SOL    HW229190   1.462   6.628   3.745
 9431SOL     OW29191   1.420   4.890   5.239
 9431SOL    HW129192   1.390   4.899   5.144
 9431SOL    HW229193   1.512   4.930   5.248
 9432SOL     OW29194   6.799   1.589   2.687
 9432SOL    HW129195   6.724   1.636   2.735
 9432SOL    HW229196   6.851   1.535   2.753
 9433SOL     OW29197   3.997   5.467   1.795
 9433SOL    HW129198   3.916   5.452   1.739
 9433SOL    HW229199   4.056   5.386   1.790
 9434SOL     OW29200   5.022   5.708   5.071
 9434SOL    HW129201   4.928   5.722   5.040
 9434SOL    HW229202   5.047   5.781   5.134
 9435SOL     OW29203   6.674   3.649   6.399
 9435SOL    HW129204   6.675   3.554   6.430
 9435SOL    HW229205   6.602   3.699   6.446
 9436SOL     OW29206   2.797   1.885   2.650
 9436SOL    HW129207   2.845   1.944   2.585
 9436SOL    HW229208   2.711   1.854   2.610
 9437SOL     OW29209   4.665   1.263   3.827
 9437SOL    HW129210   4.572   1.293   3.849
 9437SOL    HW229211   4.714   1.244   3.912
 9438SOL     OW29212   5.042   0.345   3.051
 9438SOL    HW129213   5.128   0.345   3.102
 9438SOL    HW229214   4.987   0.425   3.077
 9439SOL     OW29215   1.763   4.893   1.253
 9439SOL    HW129216   1.718   4.822   1.198
 9439SOL    HW229217   1.799   4.964   1.193
 9440SOL     OW29218   1.951   5.359   4.355
 9440SOL    HW129219   1.913   5.417   4.427
 9440SOL    HW229220   2.049   5.377   4.347
 9441SOL     OW29221   6.796   6.194   4.320
 9441SOL    HW129222   6.831   6.244   4.240
 9441SOL    HW229223   6.762   6.105   4.291
 9442SOL     OW29224   6.587   2.628   0.973
 9442SOL    HW129225   6.585   2.641   0.874
 9442SOL    HW229226   6.655   2.689   1.014
 9443SOL     OW29227   1.870   4.875   1.550
 9443SOL    HW129228   1.785   4.923   1.528
 9443SOL    HW229229   1.868   4.783   1.510
 9444SOL     OW29230   2.328   5.684   5.543
 9444SOL    HW129231   2.379   5.686   5.628
 9444SOL    HW229232   2.259   5.756   5.544
 9445SOL     OW29233   1.035   1.142   3.992
 9445SOL    HW129234   1.091   1.066   3.961
 9445SOL    HW229235   1.013   1.131   4.089
 9446SOL     OW29236   5.723   5.317   3.723
 9446SOL    HW129237   5.650   5.250   3.712
 9446SOL    HW229238   5.684   5.403   3.756
 9447SOL     OW29239   5.800   5.228   2.138
 9447SOL    HW129240   5.729   5.290   2.106
 9447SOL    HW229241   5.824   5.164   2.065
 9448SOL     OW29242   4.893   2.851   6.539
 9448SOL    HW129243   4.933   2.934   6.500
 9448SOL    HW229244   4.802   2.873   6.576
 9449SOL     OW29245   4.568   6.846   3.423
 9449SOL    HW129246   4.594   6.752   3.445
 9449SOL    HW229247   4.624   6.879   3.347
 9450SOL     OW29248   0.464   0.131   2.559
 9450SOL    HW129249   0.520   0.183   2.494
 9450SOL    HW229250   0.378   0.181   2.575
 9451SOL     OW29251   4.277   5.705   0.394
 9451SOL    HW129252   4.256   5.734   0.487
 9451SOL    HW229253   4.371   5.672   0.390
 9452SOL     OW29254   6.481   2.837   6.025
 9452SOL    HW129255   6.421   2.838   5.945
 9452SOL    HW229256   6.426   2.841   6.108
 9453SOL     OW29257   6.664   4.625   2.758
 9453SOL    HW129258   6.711   4.572   2.829
 9453SOL    HW229259   6.678   4.580   2.669
 9454SOL     OW29260   5.552   5.435   0.197
 9454SOL    HW129261   5.508   5.507   0.251
 9454SOL    HW229262   5.581   5.360   0.258
 9455SOL     OW29263   4.247   0.832   1.523
 9455SOL    HW129264   4.222   0.784   1.607
 9455SOL    HW229265   4.174   0.821   1.455
 9456SOL     OW29266   6.377   2.848   2.148
 9456SOL    HW129267   6.357   2.822   2.054
 9456SOL    HW229268   6.348   2.943   2.164
 9457SOL     OW29269   6.608   6.413   4.314
 9457SOL    HW129270   6.615   6.492   4.375
 9457SOL    HW229271   6.687   6.353   4.327
 9458SOL     OW29272   6.931   4.461   7.001
 9458SOL    HW129273   6.961   4.554   6.980
 9458SOL    HW229274   6.833   4.461   7.021
 9459SOL     OW29275   5.086   4.397   4.987
 9459SOL    HW129276   5.046   4.449   5.063
 9459SOL    HW229277   5.186   4.408   4.988
 9460SOL     OW29278   2.051   3.259   3.354
 9460SOL    HW129279   2.090   3.172   3.323
 9460SOL    HW229280   2.121   3.314   3.398
 9461SOL     OW29281   1.827   2.088   1.116
 9461SOL    HW129282   1.859   2.002   1.154
 9461SOL    HW229283   1.857   2.164   1.175
 9462SOL     OW29284   6.864   1.171   5.427
 9462SOL    HW129285   6.802   1.154   5.503
 9462SOL    HW229286   6.943   1.110   5.434
 9463SOL     OW29287   0.013   5.215   0.583
 9463SOL    HW129288   6.958   5.268   0.546
 9463SOL    HW229289   0.054   5.263   0.660
 9464SOL     OW29290   0.885   0.448   2.127
 9464SOL    HW129291   0.842   0.472   2.040
 9464SOL    HW229292   0.972   0.496   2.136
 9465SOL     OW29293   0.754   5.833   0.137
 9465SOL    HW129294   0.745   5.809   0.233
 9465SOL    HW229295   0.780   5.929   0.128
 9466SOL     OW29296   3.954   4.064   5.731
 9466SOL    HW129297   3.969   4.163   5.739
 9466SOL    HW229298   3.864   4.040   5.768
 9467SOL     OW29299   1.123   3.736   1.318
 9467SOL    HW129300   1.216   3.731   1.280
 9467SOL    HW229301   1.111   3.825   1.364
 9468SOL     OW29302   6.284   1.909   1.411
 9468SOL    HW129303   6.279   1.915   1.311
 9468SOL    HW229304   6.239   1.825   1.441
 9469SOL     OW29305   6.358   6.676   2.109
 9469SOL    HW129306   6.314   6.760   2.077
 9469SOL    HW229307   6.427   6.699   2.178
 9470SOL     OW29308   3.733   3.626   0.703
 9470SOL    HW129309   3.770   3.711   0.664
 9470SOL    HW229310   3.799   3.552   0.687
 9471SOL     OW29311   6.594   2.621   4.864
 9471SOL    HW129312   6.617   2.703   4.917
 9471SOL    HW229313   6.515   2.575   4.904
 9472SOL     OW29314   2.167   4.282   5.571
 9472SOL    HW129315   2.136   4.209   5.510
 9472SOL    HW229316   2.265   4.272   5.588
 9473SOL     OW29317   2.830   3.416   1.519
 9473SOL    HW129318   2.826   3.439   1.616
 9473SOL    HW229319   2.852   3.499   1.466
 9474SOL     OW29320   6.120   4.491   0.845
 9474SOL    HW129321   6.052   4.489   0.919
 9474SOL    HW229322   6.074   4.507   0.758
 9475SOL     OW29323   6.158   3.435   6.943
 9475SOL    HW129324   6.103   3.394   7.016
 9475SOL    HW229325   6.138   3.534   6.939
 9476SOL     OW29326   3.764   4.161   1.098
 9476SOL    HW129327   3.787   4.076   1.051
 9476SOL    HW229328   3.813   4.166   1.185
 9477SOL     OW29329   1.335   5.167   0.860
 9477SOL    HW129330   1.238   5.152   0.845
 9477SOL    HW229331   1.347   5.241   0.926
 9478SOL     OW29332   6.840   3.248   5.443
 9478SOL    HW129333   6.819   3.314   5.515
 9478SOL    HW229334   6.773   3.257   5.369
 9479SOL     OW29335   4.135   0.923   2.125
 9479SOL    HW129336   4.202   0.996   2.138
 9479SOL    HW229337   4.114   0.880   2.213
 9480SOL     OW29338   5.244   0.756   0.537
 9480SOL    HW129339   5.328   0.702   0.534
 9480SOL    HW229340   5.266   0.853   0.535
 9481SOL     OW29341   4.461   0.378   3.818
 9481SOL    HW129342   4.536   0.438   3.847
 9481SOL    HW229343   4.472   0.289   3.862
 9482SOL     OW29344   6.020   4.150   5.628
 9482SOL    HW129345   6.067   4.150   5.717
 9482SOL    HW229346   5.929   4.111   5.639
 9483SOL     OW29347   6.007   5.231   6.934
 9483SOL    HW129348   5.937   5.230   6.862
 9483SOL    HW229349   6.034   5.137   6.955
 9484SOL     OW29350   1.686   5.331   3.831
 9484SOL    HW129351   1.775   5.326   3.877
 9484SOL    HW229352   1.635   5.410   3.866
 9485SOL     OW29353   0.107   1.265   5.608
 9485SOL    HW129354   0.044   1.221   5.671
 9485SOL    HW229355   0.198   1.224   5.618
 9486SOL     OW29356   6.803   5.754   6.093
 9486SOL    HW129357   6.830   5.714   6.180
 9486SOL    HW229358   6.761   5.843   6.110
 9487SOL     OW29359   3.211   3.236   4.056
 9487SOL    HW129360   3.221   3.286   3.970
 9487SOL    HW229361   3.160   3.291   4.121
 9488SOL     OW29362   1.235   0.809   2.400
 9488SOL    HW129363   1.211   0.889   2.454
 9488SOL    HW229364   1.152   0.766   2.365
 9489SOL     OW29365   6.839   3.985   6.890
 9489SOL    HW129366   6.796   3.954   6.975
 9489SOL    HW229367   6.847   4.085   6.892
 9490SOL     OW29368   5.641   3.714   5.019
 9490SOL    HW129369   5.689   3.699   5.106
 9490SOL    HW229370   5.672   3.799   4.978
 9491SOL     OW29371   4.666   0.006   2.304
 9491SOL    HW129372   4.696   0.012   2.208
 9491SOL    HW229373   4.596   0.075   2.321
 9492SOL     OW29374   4.870   3.188   3.825
 9492SOL    HW129375   4.968   3.181   3.843
 9492SOL    HW229376   4.821   3.128   3.888
 9493SOL     OW29377   2.946   6.446   2.876
 9493SOL    HW129378   2.964   6.421   2.971
 9493SOL    HW229379   2.910   6.366   2.827
 9494SOL     OW29380   5.076   2.737   2.859
 9494SOL    HW129381   5.099   2.789   2.777
 9494SOL    HW229382   5.109   2.643   2.850
 9495SOL     OW29383   5.430   2.552   1.206
 9495SOL    HW129384   5.440   2.506   1.295
 9495SOL    HW229385   5.501   2.519   1.144
 9496SOL     OW29386   6.463   3.252   0.996
 9496SOL    HW129387   6.460   3.231   0.898
 9496SOL    HW229388   6.416   3.338   1.013
 9497SOL     OW29389   4.972   4.429   4.757
 9497SOL    HW129390   4.880   4.390   4.750
 9497SOL    HW229391   5.014   4.403   4.844
 9498SOL     OW29392   0.711   6.010   5.629
 9498SOL    HW129393   0.777   6.016   5.554
 9498SOL    HW229394   0.759   5.980   5.712
 9499SOL     OW29395   5.879   6.639   3.743
 9499SOL    HW129396   5.796   6.587   3.765
 9499SOL    HW229397   5.859   6.705   3.671
 9500SOL     OW29398   2.805   1.726   0.945
 9500SOL    HW129399   2.856   1.741   0.860
 9500SOL    HW229400   2.833   1.793   1.014
 9501SOL     OW29401   1.560   3.362   5.353
 9501SOL    HW129402   1.586   3.411   5.270
 9501SOL    HW229403   1.473   3.315   5.339
 9502SOL     OW29404   5.836   4.498   3.976
 9502SOL    HW129405   5.935   4.489   3.987
 9502SOL    HW229406   5.798   4.547   4.054
 9503SOL     OW29407   6.184   0.522   0.275
 9503SOL    HW129408   6.149   0.572   0.354
 9503SOL    HW229409   6.134   0.549   0.193
 9504SOL     OW29410   6.794   5.015   2.854
 9504SOL    HW129411   6.729   5.046   2.784
 9504SOL    HW229412   6.842   5.094   2.892
 9505SOL     OW29413   5.065   2.968   0.438
 9505SOL    HW129414   5.159   2.986   0.407
 9505SOL    HW229415   5.009   2.941   0.360
 9506SOL     OW29416   3.858   1.477   1.562
 9506SOL    HW129417   3.935   1.426   1.522
 9506SOL    HW229418   3.841   1.559   1.507
 9507SOL     OW29419   6.900   5.936   1.999
 9507SOL    HW129420   6.950   5.996   1.935
 9507SOL    HW229421   6.859   5.860   1.948
 9508SOL     OW29422   5.261   1.283   2.221
 9508SOL    HW129423   5.202   1.333   2.157
 9508SOL    HW229424   5.355   1.285   2.188
 9509SOL     OW29425   6.077   1.482   4.091
 9509SOL    HW129426   6.029   1.398   4.116
 9509SOL    HW229427   6.099   1.533   4.174
 9510SOL     OW29428   1.564   3.548   2.337
 9510SOL    HW129429   1.474   3.589   2.323
 9510SOL    HW229430   1.635   3.619   2.330
 9511SOL     OW29431   0.951   1.514   0.706
 9511SOL    HW129432   1.020   1.484   0.640
 9511SOL    HW229433   0.883   1.442   0.719
 9512SOL     OW29434   5.996   2.580   1.463
 9512SOL    HW129435   5.896   2.583   1.465
 9512SOL    HW229436   6.032   2.671   1.485
 9513SOL     OW29437   5.084   3.955   4.591
 9513SOL    HW129438   4.997   3.976   4.636
 9513SOL    HW229439   5.067   3.901   4.509
 9514SOL     OW29440   3.713   3.024   1.341
 9514SOL    HW129441   3.685   3.085   1.414
 9514SOL    HW229442   3.647   2.949   1.332
 9515SOL     OW29443   6.941   6.027   3.203
 9515SOL    HW129444   6.893   5.961   3.262
 9515SOL    HW229445   0.007   6.052   3.246
 9516SOL     OW29446   0.954   3.205   6.895
 9516SOL    HW129447   1.038   3.214   6.842
 9516SOL    HW229448   0.964   3.130   6.960
 9517SOL     OW29449   0.799   6.977   2.347
 9517SOL    HW129450   0.823   6.997   2.252
 9517SOL    HW229451   0.765   6.883   2.354
 9518SOL     OW29452   6.934   0.448   1.316
 9518SOL    HW129453   6.905   0.407   1.229
 9518SOL    HW229454   6.983   0.381   1.370
 9519SOL     OW29455   1.572   2.734   5.617
 9519SOL    HW129456   1.590   2.786   5.700
 9519SOL    HW229457   1.634   2.766   5.544
 9520SOL     OW29458   4.466   6.862   2.167
 9520SOL    HW129459   4.443   6.889   2.261
 9520SOL    HW229460   4.419   6.923   2.103
 9521SOL     OW29461   5.939   4.910   3.188
 9521SOL    HW129462   5.964   4.940   3.096
 9521SOL    HW229463   5.842   4.927   3.204
 9522SOL     OW29464   3.318   5.235   5.848
 9522SOL    HW129465   3.335   5.324   5.807
 9522SOL    HW229466   3.229   5.200   5.817
 9523SOL     OW29467   1.608   0.038   5.038
 9523SOL    HW129468   1.589   7.009   4.953
 9523SOL    HW229469   1.582   7.004   5.117
 9524SOL     OW29470   6.274   3.645   0.277
 9524SOL    HW129471   6.247   3.576   0.344
 9524SOL    HW229472   6.314   3.600   0.197
 9525SOL     OW29473   4.235   6.789   4.414
 9525SOL    HW129474   4.307   6.761   4.351
 9525SOL    HW229475   4.194   6.875   4.383
 9526SOL     OW29476   4.578   5.214   0.368
 9526SOL    HW129477   4.551   5.290   0.427
 9526SOL    HW229478   4.608   5.249   0.280
 9527SOL     OW29479   6.708   1.299   0.501
 9527SOL    HW129480   6.655   1.315   0.584
 9527SOL    HW229481   6.804   1.286   0.524
 9528SOL     OW29482   5.522   1.251   1.556
 9528SOL    HW129483   5.435   1.266   1.602
 9528SOL    HW229484   5.555   1.158   1.574
 9529SOL     OW29485   1.942   2.657   5.606
 9529SOL    HW129486   1.898   2.742   5.576
 9529SOL    HW229487   2.008   2.627   5.538
 9530SOL     OW29488   2.234   1.474   3.949
 9530SOL    HW129489   2.196   1.401   3.892
 9530SOL    HW229490   2.313   1.515   3.903
 9531SOL     OW29491   2.586   6.160   3.947
 9531SOL    HW129492   2.684   6.148   3.963
 9531SOL    HW229493   2.548   6.074   3.911
 9532SOL     OW29494   3.457   1.015   1.267
 9532SOL    HW129495   3.514   0.935   1.248
 9532SOL    HW229496   3.407   1.000   1.352
 9533SOL     OW29497   0.295   1.805   4.279
 9533SOL    HW129498   0.319   1.709   4.262
 9533SOL    HW229499   0.378   1.860   4.283
 9534SOL     OW29500   5.124   0.849   4.216
 9534SOL    HW129501   5.102   0.870   4.120
 9534SOL    HW229502   5.110   0.930   4.272
 9535SOL     OW29503   3.075   1.537   4.810
 9535SOL    HW129504   3.162   1.503   4.775
 9535SOL    HW229505   3.000   1.490   4.764
 9536SOL     OW29506   1.841   5.116   6.875
 9536SOL    HW129507   1.833   5.155   6.783
 9536SOL    HW229508   1.919   5.054   6.878
 9537SOL     OW29509   2.092   0.550   0.076
 9537SOL    HW129510   2.025   0.596   0.133
 9537SOL    HW229511   2.145   0.485   0.131
 9538SOL     OW29512   5.902   4.279   3.318
 9538SOL    HW129513   6.001   4.269   3.319
 9538SOL    HW229514   5.872   4.302   3.225
 9539SOL     OW29515   0.771   3.414   6.915
 9539SOL    HW129516   0.824   3.330   6.903
 9539SOL    HW229517   0.807   3.484   6.854
 9540SOL     OW29518   5.895   3.054   5.378
 9540SOL    HW129519   5.967   3.036   5.312
 9540SOL    HW229520   5.856   3.145   5.362
 9541SOL     OW29521   6.541   1.711   3.064
 9541SOL    HW129522   6.609   1.765   3.114
 9541SOL    HW229523   6.451   1.724   3.104
 9542SOL     OW29524   4.864   3.500   4.414
 9542SOL    HW129525   4.937   3.518   4.480
 9542SOL    HW229526   4.784   3.461   4.461
 9543SOL     OW29527   4.283   1.929   0.660
 9543SOL    HW129528   4.264   2.020   0.697
 9543SOL    HW229529   4.365   1.932   0.604
 9544SOL     OW29530   4.739   0.188   1.768
 9544SOL    HW129531   4.714   0.092   1.757
 9544SOL    HW229532   4.683   0.229   1.840
 9545SOL     OW29533   1.385   6.872   4.284
 9545SOL    HW129534   1.388   6.860   4.184
 9545SOL    HW229535   1.292   6.891   4.313
 9546SOL     OW29536   3.042   3.853   2.009
 9546SOL    HW129537   2.980   3.920   1.969
 9546SOL    HW229538   2.995   3.800   2.079
 9547SOL     OW29539   5.747   6.324   2.611
 9547SOL    HW129540   5.753   6.326   2.711
 9547SOL    HW229541   5.767   6.415   2.575
 9548SOL     OW29542   6.100   6.712   1.963
 9548SOL    HW129543   6.184   6.678   1.919
 9548SOL    HW229544   6.047   6.635   1.997
 9549SOL     OW29545   1.989   5.935   0.090
 9549SOL    HW129546   1.934   5.998   0.145
 9549SOL    HW229547   2.066   5.902   0.143
 9550SOL     OW29548   1.825   0.409   0.320
 9550SOL    HW129549   1.795   0.360   0.402
 9550SOL    HW229550   1.802   0.357   0.239
 9551SOL     OW29551   1.258   5.722   4.595
 9551SOL    HW129552   1.235   5.644   4.653
 9551SOL    HW229553   1.177   5.780   4.583
 9552SOL     OW29554   0.088   5.492   3.099
 9552SOL    HW129555   0.173   5.446   3.123
 9552SOL    HW229556   0.107   5.587   3.074
 9553SOL     OW29557   5.565   4.513   6.729
 9553SOL    HW129558   5.570   4.577   6.806
 9553SOL    HW229559   5.548   4.421   6.764
 9554SOL     OW29560   1.316   2.502   1.555
 9554SOL    HW129561   1.346   2.419   1.600
 9554SOL    HW229562   1.249   2.549   1.612
 9555SOL     OW29563   0.285   2.434   6.742
 9555SOL    HW129564   0.297   2.368   6.667
 9555SOL    HW229565   0.305   2.526   6.708
 9556SOL     OW29566   5.928   7.010   1.505
 9556SOL    HW129567   5.863   7.017   1.579
 9556SOL    HW229568   6.010   6.962   1.537
 9557SOL     OW29569   4.885   1.786   1.853
 9557SOL    HW129570   4.954   1.738   1.799
 9557SOL    HW229571   4.923   1.872   1.888
 9558SOL     OW29572   0.077   4.050   1.516
 9558SOL    HW129573   0.061   4.020   1.422
 9558SOL    HW229574   0.005   4.114   1.543
 9559SOL     OW29575   0.762   4.769   3.543
 9559SOL    HW129576   0.836   4.704   3.525
 9559SOL    HW229577   0.762   4.792   3.641
 9560SOL     OW29578   3.405   2.226   6.003
 9560SOL    HW129579   3.466   2.228   6.083
 9560SOL    HW229580   3.453   2.185   5.926
 9561SOL     OW29581   3.690   5.263   6.570
 9561SOL    HW129582   3.629   5.321   6.624
 9561SOL    HW229583   3.645   5.176   6.549
 9562SOL     OW29584   6.644   5.389   3.954
 9562SOL    HW129585   6.719   5.326   3.975
 9562SOL    HW229586   6.628   5.390   3.855
 9563SOL     OW29587   0.740   0.690   5.900
 9563SOL    HW129588   0.705   0.610   5.851
 9563SOL    HW229589   0.668   0.728   5.958
 9564SOL     OW29590   0.541   0.451   5.971
 9564SOL    HW129591   0.503   0.499   5.892
 9564SOL    HW229592   0.546   0.353   5.952
 9565SOL     OW29593   2.606   5.080   5.176
 9565SOL    HW129594   2.580   4.991   5.215
 9565SOL    HW229595   2.703   5.096   5.192
 9566SOL     OW29596   2.175   5.578   4.926
 9566SOL    HW129597   2.222   5.533   4.850
 9566SOL    HW229598   2.172   5.517   5.005
 9567SOL     OW29599   6.196   5.596   3.993
 9567SOL    HW129600   6.264   5.632   4.057
 9567SOL    HW229601   6.143   5.672   3.954
 9568SOL     OW29602   6.102   3.272   5.123
 9568SOL    HW129603   6.067   3.322   5.043
 9568SOL    HW229604   6.031   3.209   5.156
 9569SOL     OW29605   5.219   0.354   1.249
 9569SOL    HW129606   5.287   0.284   1.230
 9569SOL    HW229607   5.149   0.316   1.310
 9570SOL     OW29608   0.215   3.271   6.566
 9570SOL    HW129609   0.264   3.186   6.551
 9570SOL    HW229610   0.124   3.266   6.525
 9571SOL     OW29611   3.061   1.750   0.740
 9571SOL    HW129612   3.098   1.764   0.832
 9571SOL    HW229613   3.116   1.802   0.674
 9572SOL     OW29614   0.624   3.010   0.766
 9572SOL    HW129615   0.536   2.993   0.811
 9572SOL    HW229616   0.608   3.051   0.676
 9573SOL     OW29617   4.699   1.728   2.204
 9573SOL    HW129618   4.696   1.798   2.133
 9573SOL    HW229619   4.622   1.665   2.191
 9574SOL     OW29620   1.772   1.682   4.153
 9574SOL    HW129621   1.680   1.654   4.180
 9574SOL    HW229622   1.807   1.618   4.084
 9575SOL     OW29623   3.249   1.683   2.720
 9575SOL    HW129624   3.247   1.707   2.623
 9575SOL    HW229625   3.157   1.688   2.758
 9576SOL     OW29626   4.400   3.133   6.117
 9576SOL    HW129627   4.454   3.212   6.147
 9576SOL    HW229628   4.311   3.164   6.084
 9577SOL     OW29629   0.306   5.448   3.411
 9577SOL    HW129630   0.276   5.405   3.325
 9577SOL    HW229631   0.405   5.460   3.409
 9578SOL     OW29632   6.802   4.549   1.257
 9578SOL    HW129633   6.707   4.517   1.257
 9578SOL    HW229634   6.863   4.472   1.279
 9579SOL     OW29635   1.473   4.733   2.388
 9579SOL    HW129636   1.438   4.650   2.344
 9579SOL    HW229637   1.457   4.729   2.486
 9580SOL     OW29638   3.845   4.180   5.166
 9580SOL    HW129639   3.772   4.248   5.164
 9580SOL    HW229640   3.865   4.150   5.073
 9581SOL     OW29641   0.543   0.019   6.549
 9581SOL    HW129642   0.549   0.042   6.452
 9581SOL    HW229643   0.517   6.945   6.560
 9582SOL     OW29644   4.075   5.637   3.228
 9582SOL    HW129645   4.166   5.626   3.267
 9582SOL    HW229646   4.010   5.577   3.275
 9583SOL     OW29647   1.443   4.646   3.016
 9583SOL    HW129648   1.472   4.579   3.084
 9583SOL    HW229649   1.422   4.733   3.061
 9584SOL     OW29650   5.277   4.709   6.921
 9584SOL    HW129651   5.188   4.665   6.911
 9584SOL    HW229652   5.323   4.672   7.002
 9585SOL     OW29653   6.179   0.862   2.664
 9585SOL    HW129654   6.083   0.863   2.637
 9585SOL    HW229655   6.220   0.951   2.645
 9586SOL     OW29656   4.194   4.841   2.511
 9586SOL    HW129657   4.261   4.777   2.546
 9586SOL    HW229658   4.147   4.801   2.432
 9587SOL     OW29659   4.479   6.479   1.573
 9587SOL    HW129660   4.446   6.553   1.515
 9587SOL    HW229661   4.556   6.513   1.628
 9588SOL     OW29662   6.467   1.246   3.512
 9588SOL    HW129663   6.393   1.309   3.536
 9588SOL    HW229664   6.491   1.260   3.415
 9589SOL     OW29665   3.906   1.733   5.136
 9589SOL    HW129666   3.898   1.656   5.199
 9589SOL    HW229667   3.944   1.702   5.049
 9590SOL     OW29668   0.335   5.041   4.886
 9590SOL    HW129669   0.426   5.077   4.868
 9590SOL    HW229670   0.323   4.955   4.836
 9591SOL     OW29671   0.090   5.008   1.990
 9591SOL    HW129672   0.168   4.963   2.033
 9591SOL    HW229673   0.123   5.070   1.918
 9592SOL     OW29674   4.338   5.322   0.962
 9592SOL    HW129675   4.430   5.316   0.923
 9592SOL    HW229676   4.277   5.260   0.913
 9593SOL     OW29677   2.360   2.412   3.529
 9593SOL    HW129678   2.438   2.361   3.567
 9593SOL    HW229679   2.278   2.389   3.581
 9594SOL     OW29680   5.428   7.003   0.466
 9594SOL    HW129681   5.411   6.982   0.370
 9594SOL    HW229682   5.425   0.080   0.480
 9595SOL     OW29683   2.368   4.678   5.410
 9595SOL    HW129684   2.377   4.580   5.389
 9595SOL    HW229685   2.438   4.705   5.476
 9596SOL     OW29686   5.558   4.816   2.378
 9596SOL    HW129687   5.521   4.731   2.414
 9596SOL    HW229688   5.488   4.862   2.323
 9597SOL     OW29689   1.220   3.957   1.544
 9597SOL    HW129690   1.271   3.994   1.621
 9597SOL    HW229691   1.122   3.966   1.561
 9598SOL     OW29692   0.188   6.041   5.151
 9598SOL    HW129693   0.178   5.989   5.067
 9598SOL    HW229694   0.139   6.128   5.143
 9599SOL     OW29695   3.784   2.086   5.462
 9599SOL    HW129696   3.714   2.015   5.473
 9599SOL    HW229697   3.839   2.091   5.546
 9600SOL     OW29698   1.631   5.520   6.854
 9600SOL    HW129699   1.681   5.441   6.889
 9600SOL    HW229700   1.608   5.505   6.758
 9601SOL     OW29701   1.125   0.258   4.717
 9601SOL    HW129702   1.195   0.328   4.700
 9601SOL    HW229703   1.056   0.295   4.779
 9602SOL     OW29704   0.765   5.667   5.933
 9602SOL    HW129705   0.845   5.701   5.982
 9602SOL    HW229706   0.787   5.654   5.836
 9603SOL     OW29707   1.546   5.123   2.020
 9603SOL    HW129708   1.539   5.060   2.098
 9603SOL    HW229709   1.625   5.182   2.033
 9604SOL     OW29710   6.454   0.427   5.939
 9604SOL    HW129711   6.491   0.515   5.910
 9604SOL    HW229712   6.515   0.387   6.008
 9605SOL     OW29713   3.504   4.444   0.693
 9605SOL    HW129714   3.564   4.401   0.761
 9605SOL    HW229715   3.421   4.477   0.738
 9606SOL     OW29716   6.922   1.805   4.525
 9606SOL    HW129717   6.917   1.791   4.426
 9606SOL    HW229718   6.999   1.752   4.562
 9607SOL     OW29719   6.923   3.045   3.210
 9607SOL    HW129720   6.855   3.106   3.169
 9607SOL    HW229721   6.942   2.970   3.148
 9608SOL     OW29722   5.552   0.956   1.536
 9608SOL    HW129723   5.583   0.932   1.444
 9608SOL    HW229724   5.455   0.977   1.534
 9609SOL     OW29725   0.829   2.127   3.930
 9609SOL    HW129726   0.751   2.186   3.948
 9609SOL    HW229727   0.913   2.181   3.936
 9610SOL     OW29728   4.817   1.492   6.151
 9610SOL    HW129729   4.857   1.562   6.211
 9610SOL    HW229730   4.719   1.507   6.143
 9611SOL     OW29731   5.124   5.733   1.430
 9611SOL    HW129732   5.142   5.666   1.358
 9611SOL    HW229733   5.210   5.756   1.476
 9612SOL     OW29734   4.894   3.921   3.497
 9612SOL    HW129735   4.874   3.858   3.572
 9612SOL    HW229736   4.829   3.997   3.499
 9613SOL     OW29737   5.016   1.104   5.035
 9613SOL    HW129738   5.079   1.156   5.092
 9613SOL    HW229739   4.958   1.047   5.093
 9614SOL     OW29740   3.540   2.884   0.164
 9614SOL    HW129741   3.470   2.928   0.220
 9614SOL    HW229742   3.592   2.954   0.115
 9615SOL     OW29743   6.593   6.426   3.710
 9615SOL    HW129744   6.657   6.482   3.764
 9615SOL    HW229745   6.564   6.347   3.764
 9616SOL     OW29746   0.204   2.064   0.960
 9616SOL    HW129747   0.113   2.104   0.967
 9616SOL    HW229748   0.270   2.136   0.941
 9617SOL     OW29749   0.916   3.698   3.563
 9617SOL    HW129750   0.847   3.724   3.495
 9617SOL    HW229751   0.871   3.652   3.640
 9618SOL     OW29752   5.472   3.976   2.045
 9618SOL    HW129753   5.415   3.964   2.127
 9618SOL    HW229754   5.516   3.890   2.023
 9619SOL     OW29755   1.342   1.264   1.245
 9619SOL    HW129756   1.351   1.362   1.227
 9619SOL    HW229757   1.292   1.220   1.169
 9620SOL     OW29758   3.450   1.435   6.038
 9620SOL    HW129759   3.432   1.423   6.135
 9620SOL    HW229760   3.548   1.452   6.024
 9621SOL     OW29761   6.477   0.803   0.602
 9621SOL    HW129762   6.498   0.725   0.661
 9621SOL    HW229763   6.384   0.795   0.567
 9622SOL     OW29764   6.604   0.294   4.895
 9622SOL    HW129765   6.684   0.320   4.841
 9622SOL    HW229766   6.542   0.372   4.903
 9623SOL     OW29767   2.222   6.106   6.310
 9623SOL    HW129768   2.158   6.143   6.377
 9623SOL    HW229769   2.234   6.008   6.326
 9624SOL     OW29770   3.632   4.803   6.440
 9624SOL    HW129771   3.623   4.873   6.369
 9624SOL    HW229772   3.676   4.843   6.520
 9625SOL     OW29773   5.211   4.546   6.229
 9625SOL    HW129774   5.116   4.530   6.254
 9625SOL    HW229775   5.216   4.621   6.164
 9626SOL     OW29776   2.933   2.576   6.647
 9626SOL    HW129777   2.894   2.503   6.703
 9626SOL    HW229778   3.031   2.584   6.666
 9627SOL     OW29779   6.647   5.573   6.862
 9627SOL    HW129780   6.734   5.606   6.826
 9627SOL    HW229781   6.655   5.476   6.886
 9628SOL     OW29782   6.162   1.679   5.414
 9628SOL    HW129783   6.110   1.761   5.389
 9628SOL    HW229784   6.217   1.698   5.496
 9629SOL     OW29785   0.752   5.476   4.013
 9629SOL    HW129786   0.704   5.504   4.097
 9629SOL    HW229787   0.686   5.465   3.939
 9630SOL     OW29788   6.345   0.330   5.693
 9630SOL    HW129789   6.361   0.355   5.789
 9630SOL    HW229790   6.352   0.412   5.636
 9631SOL     OW29791   4.308   6.037   0.430
 9631SOL    HW129792   4.354   6.101   0.368
 9631SOL    HW229793   4.254   5.971   0.377
 9632SOL     OW29794   2.837   5.953   2.728
 9632SOL    HW129795   2.768   5.887   2.698
 9632SOL    HW229796   2.857   5.939   2.825
 9633SOL     OW29797   2.718   2.982   5.614
 9633SOL    HW129798   2.717   3.057   5.681
 9633SOL    HW229799   2.711   3.020   5.522
 9634SOL     OW29800   6.093   4.646   3.242
 9634SOL    HW129801   6.083   4.744   3.230
 9634SOL    HW229802   6.010   4.600   3.211
 9635SOL     OW29803   0.753   5.289   4.337
 9635SOL    HW129804   0.697   5.358   4.383
 9635SOL    HW229805   0.840   5.329   4.310
 9636SOL     OW29806   4.839   3.758   3.719
 9636SOL    HW129807   4.888   3.675   3.745
 9636SOL    HW229808   4.795   3.798   3.800
 9637SOL     OW29809   3.346   2.882   6.944
 9637SOL    HW129810   3.439   2.868   6.980
 9637SOL    HW229811   3.342   2.848   6.850
 9638SOL     OW29812   0.758   4.568   6.204
 9638SOL    HW129813   0.677   4.615   6.240
 9638SOL    HW229814   0.746   4.469   6.213
 9639SOL     OW29815   5.675   2.954   1.796
 9639SOL    HW129816   5.713   2.876   1.847
 9639SOL    HW229817   5.631   2.922   1.713
 9640SOL     OW29818   3.592   7.017   3.484
 9640SOL    HW129819   3.499   0.025   3.465
 9640SOL    HW229820   3.630   0.049   3.560
 9641SOL     OW29821   0.969   2.479   4.518
 9641SOL    HW129822   0.949   2.524   4.605
 9641SOL    HW229823   1.028   2.538   4.463
 9642SOL     OW29824   0.460   2.825   4.482
 9642SOL    HW129825   0.427   2.916   4.457
 9642SOL    HW229826   0.391   2.780   4.539
 9643SOL     OW29827   6.535   5.523   4.542
 9643SOL    HW129828   6.439   5.508   4.566
 9643SOL    HW229829   6.543   5.609   4.491
 9644SOL     OW29830   0.875   4.501   3.416
 9644SOL    HW129831   0.803   4.472   3.479
 9644SOL    HW229832   0.894   4.427   3.351
 9645SOL     OW29833   0.443   5.100   0.191
 9645SOL    HW129834   0.404   5.100   0.099
 9645SOL    HW229835   0.542   5.096   0.186
 9646SOL     OW29836   2.569   4.895   0.618
 9646SOL    HW129837   2.507   4.909   0.695
 9646SOL    HW229838   2.599   4.983   0.582
 9647SOL     OW29839   5.429   6.663   2.805
 9647SOL    HW129840   5.428   6.748   2.752
 9647SOL    HW229841   5.523   6.639   2.828
 9648SOL     OW29842   3.779   2.302   0.976
 9648SOL    HW129843   3.812   2.335   1.064
 9648SOL    HW229844   3.836   2.339   0.903
 9649SOL     OW29845   0.265   5.941   0.470
 9649SOL    HW129846   0.333   5.869   0.479
 9649SOL    HW229847   0.272   5.982   0.379
 9650SOL     OW29848   0.025   5.218   5.124
 9650SOL    HW129849   6.947   5.220   5.135
 9650SOL    HW229850   0.048   5.182   5.034
 9651SOL     OW29851   3.353   0.923   0.444
 9651SOL    HW129852   3.372   1.014   0.481
 9651SOL    HW229853   3.258   0.899   0.462
 9652SOL     OW29854   0.236   4.172   6.862
 9652SOL    HW129855   0.278   4.173   6.952
 9652SOL    HW229856   0.303   4.201   6.794
 9653SOL     OW29857   6.043   3.683   4.707
 9653SOL    HW129858   6.105   3.707   4.781
 9653SOL    HW229859   6.095   3.665   4.624
 9654SOL     OW29860   3.989   3.312   4.902
 9654SOL    HW129861   4.043   3.375   4.846
 9654SOL    HW229862   3.976   3.226   4.853
 9655SOL     OW29863   4.539   0.590   0.679
 9655SOL    HW129864   4.614   0.656   0.680
 9655SOL    HW229865   4.562   0.513   0.739
 9656SOL     OW29866   4.983   4.400   5.543
 9656SOL    HW129867   4.922   4.331   5.503
 9656SOL    HW229868   5.078   4.379   5.519
 9657SOL     OW29869   5.208   5.207   2.259
 9657SOL    HW129870   5.247   5.115   2.268
 9657SOL    HW229871   5.277   5.274   2.286
 9658SOL     OW29872   5.320   1.254   2.869
 9658SOL    HW129873   5.387   1.276   2.799
 9658SOL    HW229874   5.265   1.335   2.890
 9659SOL     OW29875   4.099   3.209   0.512
 9659SOL    HW129876   4.006   3.183   0.489
 9659SOL    HW229877   4.102   3.308   0.530
 9660SOL     OW29878   2.755   0.045   1.752
 9660SOL    HW129879   2.852   0.060   1.732
 9660SOL    HW229880   2.707   0.132   1.750
 9661SOL     OW29881   3.538   4.124   2.413
 9661SOL    HW129882   3.627   4.078   2.422
 9661SOL    HW229883   3.533   4.198   2.481
 9662SOL     OW29884   4.025   0.748   4.851
 9662SOL    HW129885   3.951   0.682   4.863
 9662SOL    HW229886   4.060   0.775   4.940
 9663SOL     OW29887   1.172   5.667   2.369
 9663SOL    HW129888   1.180   5.751   2.422
 9663SOL    HW229889   1.257   5.615   2.375
 9664SOL     OW29890   1.888   4.457   2.908
 9664SOL    HW129891   1.952   4.388   2.873
 9664SOL    HW229892   1.938   4.542   2.926
 9665SOL     OW29893   5.842   3.703   6.495
 9665SOL    HW129894   5.824   3.768   6.569
 9665SOL    HW229895   5.890   3.749   6.420
 9666SOL     OW29896   5.249   4.176   0.980
 9666SOL    HW129897   5.164   4.131   1.007
 9666SOL    HW229898   5.241   4.209   0.887
 9667SOL     OW29899   6.115   6.411   0.318
 9667SOL    HW129900   6.043   6.475   0.292
 9667SOL    HW229901   6.114   6.397   0.417
 9668SOL     OW29902   2.108   0.011   0.676
 9668SOL    HW129903   2.175   0.028   0.605
 9668SOL    HW229904   2.048   0.091   0.686
 9669SOL     OW29905   3.329   0.518   0.855
 9669SOL    HW129906   3.229   0.514   0.863
 9669SOL    HW229907   3.358   0.460   0.778
 9670SOL     OW29908   0.630   0.169   2.795
 9670SOL    HW129909   0.592   0.149   2.886
 9670SOL    HW229910   0.585   0.112   2.727
 9671SOL     OW29911   0.908   5.896   6.285
 9671SOL    HW129912   0.862   5.836   6.351
 9671SOL    HW229913   0.906   5.990   6.320
 9672SOL     OW29914   0.124   4.409   4.716
 9672SOL    HW129915   0.217   4.409   4.753
 9672SOL    HW229916   0.060   4.378   4.786
 9673SOL     OW29917   2.157   2.926   5.824
 9673SOL    HW129918   2.155   2.841   5.771
 9673SOL    HW229919   2.242   2.975   5.806
 9674SOL     OW29920   1.830   6.921   3.840
 9674SOL    HW129921   1.912   6.964   3.801
 9674SOL    HW229922   1.795   6.978   3.914
 9675SOL     OW29923   6.349   4.015   6.078
 9675SOL    HW129924   6.447   3.993   6.082
 9675SOL    HW229925   6.329   4.088   6.144
 9676SOL     OW29926   0.741   2.914   6.489
 9676SOL    HW129927   0.756   2.956   6.579
 9676SOL    HW229928   0.828   2.881   6.453
 9677SOL     OW29929   0.749   4.640   2.815
 9677SOL    HW129930   0.678   4.575   2.787
 9677SOL    HW229931   0.745   4.654   2.914
 9678SOL     OW29932   4.954   3.690   6.804
 9678SOL    HW129933   4.884   3.668   6.871
 9678SOL    HW229934   4.967   3.789   6.800
 9679SOL     OW29935   1.640   1.066   4.688
 9679SOL    HW129936   1.645   1.150   4.634
 9679SOL    HW229937   1.597   0.994   4.633
 9680SOL     OW29938   4.635   6.728   2.320
 9680SOL    HW129939   4.593   6.805   2.271
 9680SOL    HW229940   4.732   6.746   2.333
 9681SOL     OW29941   0.760   2.515   0.938
 9681SOL    HW129942   0.739   2.437   0.997
 9681SOL    HW229943   0.737   2.600   0.986
 9682SOL     OW29944   3.901   6.566   5.455
 9682SOL    HW129945   3.803   6.582   5.463
 9682SOL    HW229946   3.918   6.468   5.447
 9683SOL     OW29947   3.186   5.681   3.624
 9683SOL    HW129948   3.202   5.763   3.569
 9683SOL    HW229949   3.211   5.600   3.571
 9684SOL     OW29950   1.400   2.485   6.127
 9684SOL    HW129951   1.479   2.423   6.128
 9684SOL    HW229952   1.380   2.516   6.220
 9685SOL     OW29953   3.806   4.584   1.655
 9685SOL    HW129954   3.743   4.596   1.732
 9685SOL    HW229955   3.891   4.634   1.672
 9686SOL     OW29956   0.767   1.762   5.759
 9686SOL    HW129957   0.836   1.750   5.831
 9686SOL    HW229958   0.807   1.738   5.670
 9687SOL     OW29959   5.813   0.498   4.007
 9687SOL    HW129960   5.857   0.586   3.989
 9687SOL    HW229961   5.808   0.445   3.923
 9688SOL     OW29962   0.453   5.126   2.255
 9688SOL    HW129963   0.426   5.147   2.161
 9688SOL    HW229964   0.456   5.027   2.268
 9689SOL     OW29965   1.765   5.463   1.179
 9689SOL    HW129966   1.784   5.415   1.265
 9689SOL    HW229967   1.673   5.503   1.183
 9690SOL     OW29968   5.802   4.886   3.895
 9690SOL    HW129969   5.881   4.855   3.842
 9690SOL    HW229970   5.799   4.836   3.982
 9691SOL     OW29971   4.014   3.903   2.167
 9691SOL    HW129972   4.022   3.821   2.224
 9691SOL    HW229973   4.011   3.984   2.226
 9692SOL     OW29974   6.429   5.571   0.293
 9692SOL    HW129975   6.391   5.562   0.201
 9692SOL    HW229976   6.444   5.480   0.331
 9693SOL     OW29977   4.571   3.269   6.870
 9693SOL    HW129978   4.590   3.270   6.968
 9693SOL    HW229979   4.647   3.310   6.821
 9694SOL     OW29980   2.681   6.279   1.162
 9694SOL    HW129981   2.725   6.348   1.104
 9694SOL    HW229982   2.744   6.252   1.235
 9695SOL     OW29983   1.899   2.610   3.531
 9695SOL    HW129984   1.915   2.669   3.610
 9695SOL    HW229985   1.824   2.647   3.476
 9696SOL     OW29986   5.175   4.160   3.144
 9696SOL    HW129987   5.255   4.119   3.186
 9696SOL    HW229988   5.123   4.211   3.213
 9697SOL     OW29989   6.548   0.019   2.600
 9697SOL    HW129990   6.563   0.092   2.667
 9697SOL    HW229991   6.630   0.008   2.544
 9698SOL     OW29992   6.870   2.921   0.857
 9698SOL    HW129993   6.782   2.962   0.879
 9698SOL    HW229994   6.883   2.837   0.909
 9699SOL     OW29995   1.553   6.681   2.145
 9699SOL    HW129996   1.575   6.585   2.125
 9699SOL    HW229997   1.568   6.698   2.242
 9700SOL     OW29998   5.885   0.618   5.752
 9700SOL    HW129999   5.961   0.664   5.799
 9700SOL    HW230000   5.919   0.575   5.669
 9701SOL     OW30001   6.187   4.012   6.443
 9701SOL    HW130002   6.173   4.016   6.542
 9701SOL    HW230003   6.105   3.976   6.399
 9702SOL     OW30004   2.943   3.470   2.058
 9702SOL    HW130005   2.883   3.482   2.137
 9702SOL    HW230006   3.038   3.465   2.089
 9703SOL     OW30007   6.902   4.424   2.832
 9703SOL    HW130008   6.838   4.367   2.883
 9703SOL    HW230009   6.967   4.467   2.895
 9704SOL     OW30010   0.923   5.052   2.315
 9704SOL    HW130011   0.992   5.119   2.288
 9704SOL    HW230012   0.834   5.096   2.323
 9705SOL     OW30013   0.143   4.076   5.568
 9705SOL    HW130014   0.079   4.066   5.644
 9705SOL    HW230015   0.180   4.169   5.568
 9706SOL     OW30016   0.425   6.876   2.802
 9706SOL    HW130017   0.344   6.934   2.814
 9706SOL    HW230018   0.459   6.885   2.709
 9707SOL     OW30019   0.960   4.832   1.479
 9707SOL    HW130020   0.914   4.911   1.520
 9707SOL    HW230021   0.950   4.752   1.538
 9708SOL     OW30022   2.851   1.135   1.824
 9708SOL    HW130023   2.925   1.094   1.877
 9708SOL    HW230024   2.800   1.199   1.883
 9709SOL     OW30025   4.031   1.207   2.592
 9709SOL    HW130026   4.012   1.109   2.600
 9709SOL    HW230027   4.080   1.225   2.507
 9710SOL     OW30028   4.884   4.387   4.112
 9710SOL    HW130029   4.791   4.352   4.101
 9710SOL    HW230030   4.881   4.484   4.134
 9711SOL     OW30031   3.318   0.160   6.902
 9711SOL    HW130032   3.416   0.178   6.912
 9711SOL    HW230033   3.267   0.244   6.918
 9712SOL     OW30034   4.690   6.920   5.641
 9712SOL    HW130035   4.721   6.867   5.563
 9712SOL    HW230036   4.594   6.947   5.627
 9713SOL     OW30037   0.953   0.902   3.080
 9713SOL    HW130038   1.039   0.899   3.132
 9713SOL    HW230039   0.942   0.818   3.028
 9714SOL     OW30040   2.312   2.733   3.941
 9714SOL    HW130041   2.305   2.807   4.007
 9714SOL    HW230042   2.232   2.673   3.949
 9715SOL     OW30043   0.211   1.445   6.428
 9715SOL    HW130044   0.195   1.517   6.362
 9715SOL    HW230045   0.289   1.389   6.399
 9716SOL     OW30046   1.661   6.628   0.517
 9716SOL    HW130047   1.754   6.615   0.482
 9716SOL    HW230048   1.595   6.593   0.451
 9717SOL     OW30049   4.503   1.969   5.923
 9717SOL    HW130050   4.492   2.044   5.858
 9717SOL    HW230051   4.426   1.969   5.988
 9718SOL     OW30052   2.787   2.296   6.122
 9718SOL    HW130053   2.814   2.236   6.047
 9718SOL    HW230054   2.740   2.243   6.192
 9719SOL     OW30055   4.263   6.749   5.746
 9719SOL    HW130056   4.333   6.705   5.690
 9719SOL    HW230057   4.179   6.758   5.692
 9720SOL     OW30058   2.227   2.315   1.806
 9720SOL    HW130059   2.143   2.357   1.840
 9720SOL    HW230060   2.300   2.383   1.805
 9721SOL     OW30061   0.371   1.922   1.375
 9721SOL    HW130062   0.278   1.934   1.409
 9721SOL    HW230063   0.379   1.833   1.329
 9722SOL     OW30064   3.580   2.973   5.629
 9722SOL    HW130065   3.637   2.911   5.682
 9722SOL    HW230066   3.484   2.960   5.654
 9723SOL     OW30067   5.996   1.253   4.803
 9723SOL    HW130068   5.993   1.153   4.806
 9723SOL    HW230069   5.958   1.290   4.888
 9724SOL     OW30070   1.621   5.006   1.473
 9724SOL    HW130071   1.639   4.987   1.376
 9724SOL    HW230072   1.561   4.936   1.510
 9725SOL     OW30073   5.449   5.561   4.131
 9725SOL    HW130074   5.434   5.659   4.116
 9725SOL    HW230075   5.547   5.541   4.126
 9726SOL     OW30076   6.947   0.085   3.347
 9726SOL    HW130077   6.884   0.161   3.329
 9726SOL    HW230078   6.945   0.021   3.271
 9727SOL     OW30079   6.423   2.900   1.286
 9727SOL    HW130080   6.380   2.958   1.355
 9727SOL    HW230081   6.482   2.955   1.228
 9728SOL     OW30082   5.208   1.593   5.374
 9728SOL    HW130083   5.280   1.591   5.443
 9728SOL    HW230084   5.239   1.646   5.295
 9729SOL     OW30085   0.053   3.715   2.493
 9729SOL    HW130086   0.024   3.621   2.475
 9729SOL    HW230087   0.144   3.730   2.456
 9730SOL     OW30088   0.827   5.899   3.872
 9730SOL    HW130089   0.890   5.953   3.816
 9730SOL    HW230090   0.759   5.856   3.812
 9731SOL     OW30091   6.120   1.685   1.492
 9731SOL    HW130092   6.104   1.587   1.498
 9731SOL    HW230093   6.044   1.734   1.536
 9732SOL     OW30094   0.196   2.480   3.113
 9732SOL    HW130095   0.227   2.407   3.052
 9732SOL    HW230096   0.123   2.445   3.173
 9733SOL     OW30097   5.392   5.882   6.782
 9733SOL    HW130098   5.390   5.982   6.790
 9733SOL    HW230099   5.445   5.844   6.858
 9734SOL     OW30100   3.960   3.529   0.007
 9734SOL    HW130101   3.891   3.516   6.957
 9734SOL    HW230102   4.045   3.561   6.987
 9735SOL     OW30103   1.316   1.618   0.164
 9735SOL    HW130104   1.278   1.625   0.256
 9735SOL    HW230105   1.276   1.689   0.106
 9736SOL     OW30106   5.362   2.838   6.364
 9736SOL    HW130107   5.461   2.826   6.371
 9736SOL    HW230108   5.316   2.762   6.410
 9737SOL     OW30109   5.149   3.435   5.308
 9737SOL    HW130110   5.246   3.431   5.283
 9737SOL    HW230111   5.094   3.393   5.236
 9738SOL     OW30112   2.602   6.170   1.527
 9738SOL    HW130113   2.600   6.266   1.554
 9738SOL    HW230114   2.578   6.112   1.605
 9739SOL     OW30115   5.588   6.210   0.781
 9739SOL    HW130116   5.565   6.268   0.860
 9739SOL    HW230117   5.554   6.118   0.797
 9740SOL     OW30118   6.395   0.813   0.917
 9740SOL    HW130119   6.456   0.741   0.884
 9740SOL    HW230120   6.319   0.772   0.969
 9741SOL     OW30121   2.428   2.447   2.877
 9741SOL    HW130122   2.512   2.402   2.907
 9741SOL    HW230123   2.352   2.415   2.934
 9742SOL     OW30124   4.369   0.195   6.721
 9742SOL    HW130125   4.307   0.194   6.642
 9742SOL    HW230126   4.462   0.214   6.689
 9743SOL     OW30127   6.178   3.850   4.152
 9743SOL    HW130128   6.142   3.775   4.096
 9743SOL    HW230129   6.185   3.933   4.096
 9744SOL     OW30130   1.737   2.768   1.709
 9744SOL    HW130131   1.774   2.860   1.698
 9744SOL    HW230132   1.650   2.774   1.759
 9745SOL     OW30133   1.200   6.727   5.779
 9745SOL    HW130134   1.240   6.705   5.867
 9745SOL    HW230135   1.228   6.818   5.751
 9746SOL     OW30136   3.465   5.909   5.835
 9746SOL    HW130137   3.433   5.860   5.753
 9746SOL    HW230138   3.560   5.939   5.820
 9747SOL     OW30139   4.479   1.638   3.230
 9747SOL    HW130140   4.561   1.591   3.198
 9747SOL    HW230141   4.498   1.736   3.239
 9748SOL     OW30142   0.406   2.092   2.072
 9748SOL    HW130143   0.431   2.145   1.991
 9748SOL    HW230144   0.314   2.056   2.062
 9749SOL     OW30145   6.715   0.251   1.425
 9749SOL    HW130146   6.639   0.297   1.470
 9749SOL    HW230147   6.800   0.299   1.446
 9750SOL     OW30148   5.890   2.141   4.559
 9750SOL    HW130149   5.844   2.066   4.607
 9750SOL    HW230150   5.867   2.228   4.603
 9751SOL     OW30151   2.926   5.060   0.807
 9751SOL    HW130152   3.000   5.014   0.855
 9751SOL    HW230153   2.846   5.000   0.802
 9752SOL     OW30154   4.248   3.994   0.770
 9752SOL    HW130155   4.152   3.979   0.746
 9752SOL    HW230156   4.255   4.010   0.868
 9753SOL     OW30157   6.379   6.750   3.130
 9753SOL    HW130158   6.382   6.678   3.061
 9753SOL    HW230159   6.408   6.713   3.218
 9754SOL     OW30160   3.428   0.510   1.712
 9754SOL    HW130161   3.352   0.575   1.710
 9754SOL    HW230162   3.404   0.430   1.657
 9755SOL     OW30163   2.896   4.265   1.335
 9755SOL    HW130164   2.836   4.256   1.256
 9755SOL    HW230165   2.843   4.248   1.419
 9756SOL     OW30166   4.560   6.810   0.020
 9756SOL    HW130167   4.537   6.722   0.062
 9756SOL    HW230168   4.478   6.866   0.013
 9757SOL     OW30169   5.090   4.003   3.959
 9757SOL    HW130170   5.113   4.100   3.970
 9757SOL    HW230171   5.156   3.960   3.898
 9758SOL     OW30172   3.317   1.007   1.516
 9758SOL    HW130173   3.380   0.995   1.593
 9758SOL    HW230174   3.223   0.997   1.548
 9759SOL     OW30175   6.520   1.665   1.126
 9759SOL    HW130176   6.612   1.665   1.164
 9759SOL    HW230177   6.525   1.641   1.029
 9760SOL     OW30178   4.789   1.255   6.447
 9760SOL    HW130179   4.746   1.240   6.357
 9760SOL    HW230180   4.888   1.248   6.438
 9761SOL     OW30181   0.797   2.491   1.905
 9761SOL    HW130182   0.762   2.410   1.952
 9761SOL    HW230183   0.838   2.554   1.971
 9762SOL     OW30184   3.530   1.068   5.715
 9762SOL    HW130185   3.472   1.103   5.641
 9762SOL    HW230186   3.501   0.975   5.739
 9763SOL     OW30187   5.786   1.923   1.178
 9763SOL    HW130188   5.812   1.964   1.091
 9763SOL    HW230189   5.853   1.946   1.248
 9764SOL     OW30190   0.479   2.605   3.660
 9764SOL    HW130191   0.450   2.557   3.577
 9764SOL    HW230192   0.578   2.623   3.655
 9765SOL     OW30193   6.287   2.230   0.794
 9765SOL    HW130194   6.305   2.227   0.695
 9765SOL    HW230195   6.357   2.284   0.839
 9766SOL     OW30196   0.494   2.820   2.826
 9766SOL    HW130197   0.510   2.798   2.922
 9766SOL    HW230198   0.439   2.903   2.819
 9767SOL     OW30199   3.873   1.692   4.672
 9767SOL    HW130200   3.866   1.736   4.762
 9767SOL    HW230201   3.948   1.734   4.621
 9768SOL     OW30202   4.818   3.181   6.544
 9768SOL    HW130203   4.760   3.192   6.463
 9768SOL    HW230204   4.760   3.172   6.626
 9769SOL     OW30205   3.349   1.069   5.457
 9769SOL    HW130206   3.328   0.971   5.454
 9769SOL    HW230207   3.396   1.095   5.372
 9770SOL     OW30208   2.008   3.307   5.433
 9770SOL    HW130209   2.083   3.257   5.478
 9770SOL    HW230210   1.951   3.242   5.383
 9771SOL     OW30211   3.184   0.669   1.888
 9771SOL    HW130212   3.086   0.677   1.909
 9771SOL    HW230213   3.234   0.646   1.971
 9772SOL     OW30214   0.358   0.737   1.741
 9772SOL    HW130215   0.425   0.778   1.802
 9772SOL    HW230216   0.295   0.808   1.708
 9773SOL     OW30217   4.626   6.425   2.009
 9773SOL    HW130218   4.676   6.351   1.964
 9773SOL    HW230219   4.539   6.391   2.044
 9774SOL     OW30220   1.431   5.200   5.303
 9774SOL    HW130221   1.512   5.143   5.287
 9774SOL    HW230222   1.424   5.269   5.231
 9775SOL     OW30223   1.580   1.065   3.282
 9775SOL    HW130224   1.530   1.036   3.200
 9775SOL    HW230225   1.526   1.044   3.363
 9776SOL     OW30226   1.151   5.818   1.669
 9776SOL    HW130227   1.141   5.906   1.716
 9776SOL    HW230228   1.210   5.758   1.723
 9777SOL     OW30229   4.645   2.053   5.254
 9777SOL    HW130230   4.717   2.066   5.322
 9777SOL    HW230231   4.557   2.043   5.300
 9778SOL     OW30232   1.505   3.102   2.802
 9778SOL    HW130233   1.527   3.011   2.767
 9778SOL    HW230234   1.582   3.135   2.857
 9779SOL     OW30235   2.133   1.313   2.570
 9779SOL    HW130236   2.068   1.380   2.534
 9779SOL    HW230237   2.085   1.226   2.585
 9780SOL     OW30238   1.560   1.979   1.122
 9780SOL    HW130239   1.500   2.051   1.158
 9780SOL    HW230240   1.654   2.000   1.147
 9781SOL     OW30241   1.598   1.062   2.083
 9781SOL    HW130242   1.688   1.073   2.041
 9781SOL    HW230243   1.557   1.152   2.098
 9782SOL     OW30244   0.099   2.424   6.938
 9782SOL    HW130245   0.170   2.404   6.871
 9782SOL    HW230246   0.140   2.462   7.021
 9783SOL     OW30247   4.762   1.378   2.236
 9783SOL    HW130248   4.679   1.416   2.196
 9783SOL    HW230249   4.764   1.279   2.222
 9784SOL     OW30250   2.164   1.448   0.176
 9784SOL    HW130251   2.113   1.436   0.260
 9784SOL    HW230252   2.102   1.445   0.098
 9785SOL     OW30253   1.561   3.587   4.626
 9785SOL    HW130254   1.531   3.676   4.661
 9785SOL    HW230255   1.481   3.528   4.615
 9786SOL     OW30256   2.968   4.053   0.014
 9786SOL    HW130257   2.924   4.085   6.951
 9786SOL    HW230258   2.947   4.116   0.088
 9787SOL     OW30259   2.635   3.408   1.110
 9787SOL    HW130260   2.731   3.407   1.081
 9787SOL    HW230261   2.593   3.495   1.085
 9788SOL     OW30262   2.482   6.849   3.326
 9788SOL    HW130263   2.470   6.948   3.312
 9788SOL    HW230264   2.457   6.800   3.243
 9789SOL     OW30265   4.319   1.592   0.054
 9789SOL    HW130266   4.238   1.617   0.107
 9789SOL    HW230267   4.394   1.655   0.076
 9790SOL     OW30268   4.507   5.915   4.897
 9790SOL    HW130269   4.528   5.885   4.805
 9790SOL    HW230270   4.513   5.837   4.960
 9791SOL     OW30271   0.092   0.843   0.985
 9791SOL    HW130272   0.056   0.749   0.984
 9791SOL    HW230273   0.053   0.892   1.063
 9792SOL     OW30274   3.473   3.356   0.347
 9792SOL    HW130275   3.384   3.392   0.378
 9792SOL    HW230276   3.501   3.282   0.408
 9793SOL     OW30277   5.724   0.794   1.726
 9793SOL    HW130278   5.650   0.781   1.792
 9793SOL    HW230279   5.692   0.849   1.649
 9794SOL     OW30280   4.206   5.885   5.019
 9794SOL    HW130281   4.261   5.949   4.966
 9794SOL    HW230282   4.236   5.886   5.115
 9795SOL     OW30283   1.832   3.841   3.026
 9795SOL    HW130284   1.809   3.747   3.052
 9795SOL    HW230285   1.775   3.905   3.077
 9796SOL     OW30286   4.025   3.599   5.051
 9796SOL    HW130287   4.120   3.607   5.083
 9796SOL    HW230288   3.997   3.503   5.053
 9797SOL     OW30289   3.459   5.223   0.281
 9797SOL    HW130290   3.389   5.215   0.211
 9797SOL    HW230291   3.424   5.188   0.368
 9798SOL     OW30292   0.239   4.141   6.337
 9798SOL    HW130293   0.199   4.071   6.396
 9798SOL    HW230294   0.270   4.218   6.393
 9799SOL     OW30295   3.493   6.838   6.534
 9799SOL    HW130296   3.516   6.935   6.537
 9799SOL    HW230297   3.479   6.804   6.627
 9800SOL     OW30298   6.975   4.277   4.552
 9800SOL    HW130299   6.896   4.234   4.597
 9800SOL    HW230300   7.016   4.344   4.614
 9801SOL     OW30301   3.719   6.561   0.920
 9801SOL    HW130302   3.682   6.561   0.827
 9801SOL    HW230303   3.694   6.646   0.966
 9802SOL     OW30304   4.155   2.533   0.511
 9802SOL    HW130305   4.210   2.602   0.559
 9802SOL    HW230306   4.104   2.577   0.437
 9803SOL     OW30307   2.961   3.780   0.382
 9803SOL    HW130308   2.972   3.747   0.289
 9803SOL    HW230309   2.963   3.880   0.383
 9804SOL     OW30310   1.155   3.859   2.739
 9804SOL    HW130311   1.195   3.947   2.766
 9804SOL    HW230312   1.222   3.806   2.688
 9805SOL     OW30313   6.738   4.735   4.988
 9805SOL    HW130314   6.792   4.735   4.904
 9805SOL    HW230315   6.800   4.739   5.067
 9806SOL     OW30316   3.234   0.927   0.043
 9806SOL    HW130317   3.272   0.920   6.972
 9806SOL    HW230318   3.286   0.995   0.096
 9807SOL     OW30319   3.520   3.179   4.681
 9807SOL    HW130320   3.509   3.080   4.688
 9807SOL    HW230321   3.535   3.218   4.771
 9808SOL     OW30322   2.498   5.826   2.547
 9808SOL    HW130323   2.537   5.802   2.459
 9808SOL    HW230324   2.458   5.918   2.542
 9809SOL     OW30325   6.547   3.475   1.179
 9809SOL    HW130326   6.584   3.404   1.239
 9809SOL    HW230327   6.450   3.457   1.163
 9810SOL     OW30328   4.145   2.934   1.289
 9810SOL    HW130329   4.068   2.974   1.240
 9810SOL    HW230330   4.231   2.954   1.241
 9811SOL     OW30331   5.196   3.429   4.225
 9811SOL    HW130332   5.283   3.469   4.199
 9811SOL    HW230333   5.123   3.466   4.167
 9812SOL     OW30334   3.006   5.100   6.674
 9812SOL    HW130335   3.014   5.031   6.746
 9812SOL    HW230336   3.057   5.071   6.593
 9813SOL     OW30337   4.292   0.722   1.946
 9813SOL    HW130338   4.368   0.681   1.997
 9813SOL    HW230339   4.288   0.820   1.966
 9814SOL     OW30340   6.809   1.307   6.392
 9814SOL    HW130341   6.724   1.301   6.340
 9814SOL    HW230342   6.795   1.367   6.471
 9815SOL     OW30343   5.574   2.316   4.623
 9815SOL    HW130344   5.486   2.362   4.616
 9815SOL    HW230345   5.645   2.371   4.580
 9816SOL     OW30346   3.281   0.613   0.431
 9816SOL    HW130347   3.314   0.621   0.337
 9816SOL    HW230348   3.346   0.654   0.494
 9817SOL     OW30349   6.327   0.212   1.214
 9817SOL    HW130350   6.313   0.221   1.313
 9817SOL    HW230351   6.421   0.238   1.192
 9818SOL     OW30352   3.874   2.359   5.331
 9818SOL    HW130353   3.810   2.433   5.308
 9818SOL    HW230354   3.838   2.306   5.407
 9819SOL     OW30355   2.597   0.526   1.983
 9819SOL    HW130356   2.689   0.544   1.951
 9819SOL    HW230357   2.534   0.593   1.944
 9820SOL     OW30358   3.989   2.686   0.082
 9820SOL    HW130359   3.893   2.706   0.067
 9820SOL    HW230360   4.037   2.772   0.103
 9821SOL     OW30361   0.590   6.186   6.508
 9821SOL    HW130362   0.517   6.150   6.450
 9821SOL    HW230363   0.566   6.279   6.537
 9822SOL     OW30364   0.209   1.233   2.326
 9822SOL    HW130365   0.240   1.275   2.240
 9822SOL    HW230366   0.124   1.277   2.356
 9823SOL     OW30367   3.205   6.612   2.160
 9823SOL    HW130368   3.284   6.553   2.177
 9823SOL    HW230369   3.151   6.574   2.084
 9824SOL     OW30370   2.276   4.112   5.346
 9824SOL    HW130371   2.201   4.139   5.286
 9824SOL    HW230372   2.337   4.050   5.297
 9825SOL     OW30373   4.180   4.782   5.275
 9825SOL    HW130374   4.208   4.855   5.338
 9825SOL    HW230375   4.113   4.723   5.321
 9826SOL     OW30376   5.470   0.119   5.488
 9826SOL    HW130377   5.535   0.074   5.427
 9826SOL    HW230378   5.434   0.053   5.554
 9827SOL     OW30379   0.947   5.536   4.582
 9827SOL    HW130380   0.964   5.626   4.541
 9827SOL    HW230381   0.935   5.468   4.509
 9828SOL     OW30382   2.592   1.519   0.258
 9828SOL    HW130383   2.689   1.529   0.281
 9828SOL    HW230384   2.583   1.473   0.170
 9829SOL     OW30385   2.952   3.789   1.708
 9829SOL    HW130386   3.006   3.864   1.746
 9829SOL    HW230387   2.906   3.819   1.624
 9830SOL     OW30388   5.899   1.536   1.289
 9830SOL    HW130389   5.871   1.532   1.193
 9830SOL    HW230390   5.980   1.479   1.302
 9831SOL     OW30391   6.429   6.459   1.518
 9831SOL    HW130392   6.379   6.373   1.521
 9831SOL    HW230393   6.371   6.531   1.479
 9832SOL     OW30394   3.299   3.549   0.516
 9832SOL    HW130395   3.350   3.493   0.581
 9832SOL    HW230396   3.207   3.566   0.552
 9833SOL     OW30397   4.939   4.728   0.108
 9833SOL    HW130398   5.010   4.717   0.038
 9833SOL    HW230399   4.898   4.639   0.128
 9834SOL     OW30400   2.023   2.756   3.767
 9834SOL    HW130401   2.027   2.827   3.837
 9834SOL    HW230402   2.028   2.666   3.810
 9835SOL     OW30403   5.021   1.749   4.210
 9835SOL    HW130404   5.044   1.653   4.197
 9835SOL    HW230405   4.926   1.756   4.243
 9836SOL     OW30406   5.596   5.279   1.554
 9836SOL    HW130407   5.623   5.307   1.462
 9836SOL    HW230408   5.673   5.291   1.617
 9837SOL     OW30409   2.792   5.821   5.793
 9837SOL    HW130410   2.832   5.732   5.775
 9837SOL    HW230411   2.865   5.888   5.811
 9838SOL     OW30412   6.888   6.582   4.996
 9838SOL    HW130413   6.839   6.549   5.077
 9838SOL    HW230414   6.955   6.651   5.023
 9839SOL     OW30415   5.906   3.098   3.108
 9839SOL    HW130416   5.990   3.101   3.160
 9839SOL    HW230417   5.927   3.099   3.010
 9840SOL     OW30418   5.759   0.100   0.500
 9840SOL    HW130419   5.678   0.148   0.534
 9840SOL    HW230420   5.767   0.116   0.401
 9841SOL     OW30421   2.089   2.978   4.705
 9841SOL    HW130422   2.117   2.989   4.610
 9841SOL    HW230423   2.052   3.064   4.739
 9842SOL     OW30424   3.200   3.070   4.299
 9842SOL    HW130425   3.222   3.145   4.362
 9842SOL    HW230426   3.202   3.105   4.205
 9843SOL     OW30427   5.982   4.347   3.048
 9843SOL    HW130428   5.960   4.429   2.997
 9843SOL    HW230429   6.080   4.328   3.040
 9844SOL     OW30430   4.761   0.216   2.083
 9844SOL    HW130431   4.812   0.302   2.082
 9844SOL    HW230432   4.664   0.235   2.066
 9845SOL     OW30433   1.541   1.622   4.282
 9845SOL    HW130434   1.587   1.552   4.335
 9845SOL    HW230435   1.528   1.704   4.339
 9846SOL     OW30436   3.060   3.385   4.246
 9846SOL    HW130437   3.102   3.436   4.322
 9846SOL    HW230438   3.007   3.448   4.189
 9847SOL     OW30439   2.458   4.487   4.175
 9847SOL    HW130440   2.467   4.423   4.252
 9847SOL    HW230441   2.409   4.442   4.101
 9848SOL     OW30442   6.616   4.422   7.020
 9848SOL    HW130443   6.640   4.341   0.052
 9848SOL    HW230444   6.552   4.479   0.051
 9849SOL     OW30445   6.880   6.543   5.267
 9849SOL    HW130446   6.874   6.611   5.341
 9849SOL    HW230447   6.897   6.453   5.307
 9850SOL     OW30448   5.293   0.509   3.622
 9850SOL    HW130449   5.341   0.431   3.582
 9850SOL    HW230450   5.256   0.566   3.549
 9851SOL     OW30451   5.139   2.420   5.529
 9851SOL    HW130452   5.062   2.475   5.495
 9851SOL    HW230453   5.106   2.359   5.601
 9852SOL     OW30454   5.426   1.702   4.151
 9852SOL    HW130455   5.482   1.785   4.144
 9852SOL    HW230456   5.360   1.701   4.077
 9853SOL     OW30457   0.526   5.305   0.929
 9853SOL    HW130458   0.500   5.209   0.933
 9853SOL    HW230459   0.511   5.348   1.018
 9854SOL     OW30460   3.443   6.834   3.959
 9854SOL    HW130461   3.384   6.819   3.880
 9854SOL    HW230462   3.461   6.931   3.969
 9855SOL     OW30463   2.161   4.181   0.808
 9855SOL    HW130464   2.136   4.269   0.849
 9855SOL    HW230465   2.145   4.185   0.710
 9856SOL     OW30466   4.098   3.637   0.638
 9856SOL    HW130467   4.109   3.584   0.554
 9856SOL    HW230468   4.082   3.733   0.617
 9857SOL     OW30469   6.252   4.293   3.004
 9857SOL    HW130470   6.310   4.356   2.951
 9857SOL    HW230471   6.300   4.268   3.088
 9858SOL     OW30472   3.037   1.227   1.661
 9858SOL    HW130473   2.969   1.203   1.730
 9858SOL    HW230474   3.094   1.302   1.696
 9859SOL     OW30475   0.475   6.584   1.288
 9859SOL    HW130476   0.458   6.660   1.225
 9859SOL    HW230477   0.514   6.507   1.238
 9860SOL     OW30478   1.119   1.001   2.564
 9860SOL    HW130479   1.107   0.924   2.627
 9860SOL    HW230480   1.089   1.086   2.609
 9861SOL     OW30481   2.997   6.500   3.750
 9861SOL    HW130482   2.898   6.511   3.747
 9861SOL    HW230483   3.020   6.410   3.787
 9862SOL     OW30484   0.193   1.802   1.109
 9862SOL    HW130485   0.208   1.895   1.076
 9862SOL    HW230486   0.262   1.741   1.071
 9863SOL     OW30487   3.988   0.338   0.625
 9863SOL    HW130488   4.051   0.341   0.702
 9863SOL    HW230489   3.998   0.251   0.577
 9864SOL     OW30490   4.104   5.905   3.573
 9864SOL    HW130491   4.087   5.981   3.636
 9864SOL    HW230492   4.081   5.933   3.480
 9865SOL     OW30493   1.875   3.297   3.943
 9865SOL    HW130494   1.962   3.313   3.989
 9865SOL    HW230495   1.822   3.229   3.994
 9866SOL     OW30496   3.024   4.907   3.501
 9866SOL    HW130497   3.083   4.905   3.421
 9866SOL    HW230498   2.931   4.933   3.474
 9867SOL     OW30499   3.627   6.434   6.426
 9867SOL    HW130500   3.697   6.468   6.489
 9867SOL    HW230501   3.670   6.396   6.345
 9868SOL     OW30502   1.318   5.044   5.784
 9868SOL    HW130503   1.354   4.972   5.843
 9868SOL    HW230504   1.369   5.044   5.698
 9869SOL     OW30505   1.478   4.479   2.783
 9869SOL    HW130506   1.550   4.409   2.776
 9869SOL    HW230507   1.484   4.524   2.871
 9870SOL     OW30508   4.386   5.438   1.517
 9870SOL    HW130509   4.351   5.345   1.526
 9870SOL    HW230510   4.479   5.436   1.481
 9871SOL     OW30511   2.051   2.556   5.860
 9871SOL    HW130512   1.997   2.472   5.871
 9871SOL    HW230513   2.028   2.598   5.772
 9872SOL     OW30514   1.468   3.899   2.853
 9872SOL    HW130515   1.439   3.994   2.868
 9872SOL    HW230516   1.409   3.838   2.906
 9873SOL     OW30517   1.618   1.729   0.810
 9873SOL    HW130518   1.634   1.633   0.788
 9873SOL    HW230519   1.706   1.776   0.818
 9874SOL     OW30520   1.319   3.560   4.805
 9874SOL    HW130521   1.219   3.550   4.807
 9874SOL    HW230522   1.361   3.502   4.874
 9875SOL     OW30523   1.343   1.382   3.175
 9875SOL    HW130524   1.427   1.399   3.122
 9875SOL    HW230525   1.275   1.339   3.116
 9876SOL     OW30526   6.972   5.808   2.357
 9876SOL    HW130527   0.024   5.853   2.408
 9876SOL    HW230528   6.885   5.820   2.406
 9877SOL     OW30529   4.243   0.415   1.405
 9877SOL    HW130530   4.187   0.354   1.461
 9877SOL    HW230531   4.325   0.441   1.456
 9878SOL     OW30532   6.717   1.110   5.109
 9878SOL    HW130533   6.708   1.209   5.095
 9878SOL    HW230534   6.746   1.093   5.203
 9879SOL     OW30535   4.903   5.261   4.879
 9879SOL    HW130536   4.864   5.334   4.935
 9879SOL    HW230537   4.953   5.300   4.802
 9880SOL     OW30538   1.059   2.262   3.861
 9880SOL    HW130539   1.073   2.360   3.853
 9880SOL    HW230540   1.141   2.214   3.828
 9881SOL     OW30541   0.751   1.417   5.727
 9881SOL    HW130542   0.667   1.379   5.768
 9881SOL    HW230543   0.782   1.496   5.780
 9882SOL     OW30544   2.309   2.315   3.283
 9882SOL    HW130545   2.389   2.324   3.223
 9882SOL    HW230546   2.328   2.359   3.371
 9883SOL     OW30547   2.838   1.641   2.417
 9883SOL    HW130548   2.742   1.657   2.395
 9883SOL    HW230549   2.891   1.637   2.332
 9884SOL     OW30550   3.510   0.653   3.976
 9884SOL    HW130551   3.492   0.742   3.936
 9884SOL    HW230552   3.605   0.627   3.959
 9885SOL     OW30553   6.516   3.264   4.311
 9885SOL    HW130554   6.543   3.261   4.407
 9885SOL    HW230555   6.589   3.226   4.254
 9886SOL     OW30556   0.143   2.935   1.313
 9886SOL    HW130557   0.145   2.844   1.272
 9886SOL    HW230558   0.135   2.926   1.413
 9887SOL     OW30559   4.793   6.328   5.790
 9887SOL    HW130560   4.808   6.426   5.792
 9887SOL    HW230561   4.846   6.287   5.716
 9888SOL     OW30562   6.274   4.739   5.867
 9888SOL    HW130563   6.354   4.793   5.838
 9888SOL    HW230564   6.238   4.689   5.788
 9889SOL     OW30565   0.591   5.939   0.758
 9889SOL    HW130566   0.677   5.895   0.783
 9889SOL    HW230567   0.516   5.893   0.804
 9890SOL     OW30568   0.623   2.706   0.539
 9890SOL    HW130569   0.695   2.775   0.533
 9890SOL    HW230570   0.541   2.746   0.579
 9891SOL     OW30571   5.291   1.339   1.950
 9891SOL    HW130572   5.345   1.420   1.973
 9891SOL    HW230573   5.337   1.257   1.984
 9892SOL     OW30574   0.832   0.118   6.606
 9892SOL    HW130575   0.734   0.103   6.593
 9892SOL    HW230576   0.849   0.154   6.698
 9893SOL     OW30577   2.346   0.884   0.165
 9893SOL    HW130578   2.262   0.922   0.203
 9893SOL    HW230579   2.323   0.813   0.099
 9894SOL     OW30580   2.013   0.883   1.670
 9894SOL    HW130581   2.006   0.879   1.571
 9894SOL    HW230582   1.993   0.793   1.709
 9895SOL     OW30583   4.535   3.003   5.292
 9895SOL    HW130584   4.495   2.934   5.352
 9895SOL    HW230585   4.478   3.085   5.293
 9896SOL     OW30586   6.505   6.705   5.648
 9896SOL    HW130587   6.410   6.736   5.643
 9896SOL    HW230588   6.566   6.785   5.651
 9897SOL     OW30589   5.104   4.815   4.910
 9897SOL    HW130590   5.173   4.826   4.839
 9897SOL    HW230591   5.061   4.903   4.929
 9898SOL     OW30592   2.501   0.161   6.537
 9898SOL    HW130593   2.511   0.212   6.452
 9898SOL    HW230594   2.574   0.094   6.545
 9899SOL     OW30595   0.143   4.958   0.089
 9899SOL    HW130596   0.083   4.949   0.169
 9899SOL    HW230597   0.097   4.921   0.009
 9900SOL     OW30598   2.244   4.119   3.236
 9900SOL    HW130599   2.259   4.122   3.335
 9900SOL    HW230600   2.232   4.024   3.207
 9901SOL     OW30601   2.160   3.125   5.554
 9901SOL    HW130602   2.223   3.081   5.618
 9901SOL    HW230603   2.170   3.083   5.464
 9902SOL     OW30604   2.784   4.457   0.813
 9902SOL    HW130605   2.685   4.451   0.830
 9902SOL    HW230606   2.825   4.367   0.825
 9903SOL     OW30607   5.425   1.257   5.192
 9903SOL    HW130608   5.338   1.216   5.167
 9903SOL    HW230609   5.499   1.215   5.139
 9904SOL     OW30610   6.171   2.009   0.376
 9904SOL    HW130611   6.180   2.010   0.276
 9904SOL    HW230612   6.208   2.094   0.413
 9905SOL     OW30613   4.943   0.369   0.121
 9905SOL    HW130614   4.851   0.393   0.091
 9905SOL    HW230615   4.967   0.423   0.202
 9906SOL     OW30616   2.906   3.592   4.786
 9906SOL    HW130617   2.900   3.601   4.885
 9906SOL    HW230618   2.849   3.515   4.756
 9907SOL     OW30619   1.395   6.582   1.613
 9907SOL    HW130620   1.311   6.527   1.612
 9907SOL    HW230621   1.466   6.535   1.561
 9908SOL     OW30622   5.258   3.768   1.853
 9908SOL    HW130623   5.198   3.843   1.883
 9908SOL    HW230624   5.206   3.705   1.795
 9909SOL     OW30625   2.096   0.207   5.080
 9909SOL    HW130626   2.002   0.174   5.076
 9909SOL    HW230627   2.150   0.164   5.008
 9910SOL     OW30628   6.879   4.631   3.735
 9910SOL    HW130629   6.857   4.693   3.811
 9910SOL    HW230630   6.813   4.643   3.662
 9911SOL     OW30631   2.443   6.378   2.304
 9911SOL    HW130632   2.353   6.337   2.285
 9911SOL    HW230633   2.513   6.325   2.257
 9912SOL     OW30634   4.443   0.707   6.302
 9912SOL    HW130635   4.458   0.707   6.203
 9912SOL    HW230636   4.418   0.614   6.332
 9913SOL     OW30637   5.334   3.316   0.586
 9913SOL    HW130638   5.235   3.300   0.586
 9913SOL    HW230639   5.372   3.289   0.674
 9914SOL     OW30640   6.617   3.449   4.525
 9914SOL    HW130641   6.682   3.407   4.460
 9914SOL    HW230642   6.604   3.545   4.501
 9915SOL     OW30643   4.625   1.379   3.521
 9915SOL    HW130644   4.610   1.477   3.526
 9915SOL    HW230645   4.624   1.340   3.613
 9916SOL     OW30646   1.277   2.890   1.320
 9916SOL    HW130647   1.367   2.907   1.280
 9916SOL    HW230648   1.287   2.868   1.416
 9917SOL     OW30649   5.975   4.213   5.150
 9917SOL    HW130650   5.958   4.297   5.099
 9917SOL    HW230651   6.017   4.234   5.238
 9918SOL     OW30652   4.881   3.243   2.468
 9918SOL    HW130653   4.918   3.210   2.381
 9918SOL    HW230654   4.782   3.254   2.460
 9919SOL     OW30655   5.422   5.780   0.270
 9919SOL    HW130656   5.343   5.835   0.298
 9919SOL    HW230657   5.423   5.694   0.322
 9920SOL     OW30658   4.906   1.401   2.463
 9920SOL    HW130659   4.887   1.395   2.365
 9920SOL    HW230660   5.005   1.392   2.479
 9921SOL     OW30661   4.146   5.074   6.274
 9921SOL    HW130662   4.165   4.999   6.211
 9921SOL    HW230663   4.090   5.041   6.350
 9922SOL     OW30664   6.901   6.195   1.343
 9922SOL    HW130665   6.882   6.289   1.315
 9922SOL    HW230666   6.930   6.141   1.263
 9923SOL     OW30667   5.806   4.607   0.765
 9923SOL    HW130668   5.844   4.661   0.839
 9923SOL    HW230669   5.739   4.543   0.801
 9924SOL     OW30670   1.549   4.111   4.439
 9924SOL    HW130671   1.570   4.124   4.342
 9924SOL    HW230672   1.512   4.196   4.476
 9925SOL     OW30673   4.945   2.273   4.348
 9925SOL    HW130674   4.976   2.245   4.439
 9925SOL    HW230675   4.846   2.259   4.341
 9926SOL     OW30676   3.347   5.129   1.412
 9926SOL    HW130677   3.411   5.198   1.377
 9926SOL    HW230678   3.257   5.170   1.426
 9927SOL     OW30679   5.063   0.203   4.174
 9927SOL    HW130680   5.052   0.278   4.108
 9927SOL    HW230681   5.151   0.212   4.219
 9928SOL     OW30682   4.895   4.261   2.372
 9928SOL    HW130683   4.980   4.295   2.332
 9928SOL    HW230684   4.909   4.240   2.469
 9929SOL     OW30685   0.992   3.984   3.323
 9929SOL    HW130686   1.000   4.084   3.316
 9929SOL    HW230687   1.077   3.947   3.359
 9930SOL     OW30688   6.015   1.064   3.083
 9930SOL    HW130689   6.022   1.051   3.182
 9930SOL    HW230690   6.078   1.002   3.037
 9931SOL     OW30691   1.243   5.292   5.838
 9931SOL    HW130692   1.308   5.363   5.865
 9931SOL    HW230693   1.293   5.209   5.813
 9932SOL     OW30694   0.677   6.115   4.605
 9932SOL    HW130695   0.601   6.097   4.543
 9932SOL    HW230696   0.738   6.182   4.565
 9933SOL     OW30697   6.939   6.712   3.011
 9933SOL    HW130698   6.945   6.627   3.064
 9933SOL    HW230699   6.978   6.787   3.064
 9934SOL     OW30700   0.191   2.191   5.037
 9934SOL    HW130701   0.097   2.158   5.053
 9934SOL    HW230702   0.223   2.241   5.118
 9935SOL     OW30703   2.217   0.429   5.932
 9935SOL    HW130704   2.177   0.406   6.020
 9935SOL    HW230705   2.181   0.368   5.861
 9936SOL     OW30706   1.685   3.860   3.840
 9936SOL    HW130707   1.694   3.784   3.776
 9936SOL    HW230708   1.773   3.875   3.886
 9937SOL     OW30709   6.445   2.231   6.102
 9937SOL    HW130710   6.517   2.162   6.095
 9937SOL    HW230711   6.484   2.316   6.137
 9938SOL     OW30712   6.445   6.380   2.868
 9938SOL    HW130713   6.476   6.452   2.806
 9938SOL    HW230714   6.494   6.388   2.955
 9939SOL     OW30715   3.371   3.308   3.770
 9939SOL    HW130716   3.303   3.363   3.721
 9939SOL    HW230717   3.424   3.367   3.831
 9940SOL     OW30718   0.377   1.453   1.087
 9940SOL    HW130719   0.411   1.494   1.003
 9940SOL    HW230720   0.339   1.363   1.067
 9941SOL     OW30721   3.385   5.995   4.542
 9941SOL    HW130722   3.418   5.972   4.450
 9941SOL    HW230723   3.374   5.910   4.595
 9942SOL     OW30724   2.686   5.596   4.399
 9942SOL    HW130725   2.743   5.648   4.335
 9942SOL    HW230726   2.643   5.519   4.352
 9943SOL     OW30727   0.504   6.907   4.721
 9943SOL    HW130728   0.504   7.004   4.696
 9943SOL    HW230729   0.596   6.869   4.710
 9944SOL     OW30730   1.882   4.539   6.300
 9944SOL    HW130731   1.859   4.484   6.380
 9944SOL    HW230732   1.804   4.596   6.275
 9945SOL     OW30733   0.148   6.098   6.640
 9945SOL    HW130734   0.063   6.107   6.692
 9945SOL    HW230735   0.211   6.170   6.667
 9946SOL     OW30736   5.556   0.429   4.099
 9946SOL    HW130737   5.631   0.464   4.043
 9946SOL    HW230738   5.481   0.400   4.039
 9947SOL     OW30739   6.108   4.415   4.043
 9947SOL    HW130740   6.162   4.464   3.974
 9947SOL    HW230741   6.130   4.450   4.134
 9948SOL     OW30742   5.381   3.961   3.573
 9948SOL    HW130743   5.392   4.060   3.574
 9948SOL    HW230744   5.295   3.937   3.528
 9949SOL     OW30745   6.549   5.169   1.986
 9949SOL    HW130746   6.594   5.082   1.968
 9949SOL    HW230747   6.457   5.152   2.022
 9950SOL     OW30748   3.836   6.089   0.261
 9950SOL    HW130749   3.848   6.082   0.162
 9950SOL    HW230750   3.815   6.183   0.286
 9951SOL     OW30751   6.359   2.997   3.133
 9951SOL    HW130752   6.390   2.947   3.053
 9951SOL    HW230753   6.317   3.083   3.104
 9952SOL     OW30754   0.456   4.434   6.310
 9952SOL    HW130755   0.532   4.372   6.328
 9952SOL    HW230756   0.491   4.526   6.292
 9953SOL     OW30757   5.502   3.215   4.040
 9953SOL    HW130758   5.446   3.213   3.958
 9953SOL    HW230759   5.497   3.306   4.082
 9954SOL     OW30760   4.527   0.508   5.293
 9954SOL    HW130761   4.520   0.435   5.225
 9954SOL    HW230762   4.447   0.506   5.353
 9955SOL     OW30763   0.361   4.517   4.108
 9955SOL    HW130764   0.383   4.479   4.198
 9955SOL    HW230765   0.441   4.512   4.049
 9956SOL     OW30766   1.185   6.264   0.503
 9956SOL    HW130767   1.212   6.192   0.567
 9956SOL    HW230768   1.191   6.228   0.409
 9957SOL     OW30769   5.842   5.366   2.385
 9957SOL    HW130770   5.934   5.356   2.423
 9957SOL    HW230771   5.831   5.303   2.309
 9958SOL     OW30772   3.130   4.373   1.024
 9958SOL    HW130773   3.068   4.338   0.954
 9958SOL    HW230774   3.133   4.310   1.101
 9959SOL     OW30775   3.127   4.172   1.213
 9959SOL    HW130776   3.182   4.099   1.252
 9959SOL    HW230777   3.049   4.191   1.272
 9960SOL     OW30778   0.652   0.934   2.217
 9960SOL    HW130779   0.728   0.970   2.162
 9960SOL    HW230780   0.586   1.007   2.236
 9961SOL     OW30781   2.139   3.795   4.588
 9961SOL    HW130782   2.055   3.744   4.567
 9961SOL    HW230783   2.115   3.879   4.636
 9962SOL     OW30784   5.673   6.344   4.322
 9962SOL    HW130785   5.687   6.439   4.352
 9962SOL    HW230786   5.654   6.343   4.224
 9963SOL     OW30787   3.200   2.078   0.247
 9963SOL    HW130788   3.128   2.010   0.248
 9963SOL    HW230789   3.216   2.109   0.153
 9964SOL     OW30790   5.979   6.473   4.667
 9964SOL    HW130791   6.053   6.535   4.643
 9964SOL    HW230792   5.892   6.523   4.672
 9965SOL     OW30793   5.235   6.785   1.143
 9965SOL    HW130794   5.147   6.739   1.145
 9965SOL    HW230795   5.307   6.719   1.167
 9966SOL     OW30796   6.493   1.235   2.799
 9966SOL    HW130797   6.536   1.296   2.732
 9966SOL    HW230798   6.538   1.145   2.795
 9967SOL     OW30799   1.032   5.549   0.413
 9967SOL    HW130800   0.975   5.531   0.333
 9967SOL    HW230801   1.067   5.643   0.408
 9968SOL     OW30802   4.059   3.258   3.470
 9968SOL    HW130803   4.017   3.252   3.560
 9968SOL    HW230804   4.107   3.345   3.461
 9969SOL     OW30805   1.492   3.442   1.016
 9969SOL    HW130806   1.425   3.398   0.957
 9969SOL    HW230807   1.479   3.410   1.111
 9970SOL     OW30808   6.613   4.453   2.524
 9970SOL    HW130809   6.516   4.472   2.540
 9970SOL    HW230810   6.627   4.354   2.515
 9971SOL     OW30811   2.805   6.673   6.912
 9971SOL    HW130812   2.812   6.652   6.815
 9971SOL    HW230813   2.853   6.603   6.965
 9972SOL     OW30814   0.114   5.117   1.557
 9972SOL    HW130815   0.147   5.031   1.518
 9972SOL    HW230816   0.022   5.103   1.596
 9973SOL     OW30817   5.359   6.312   3.558
 9973SOL    HW130818   5.349   6.402   3.517
 9973SOL    HW230819   5.452   6.278   3.543
 9974SOL     OW30820   2.405   0.661   4.068
 9974SOL    HW130821   2.397   0.755   4.101
 9974SOL    HW230822   2.369   0.599   4.138
 9975SOL     OW30823   7.018   4.368   0.797
 9975SOL    HW130824   0.072   4.308   0.769
 9975SOL    HW230825   6.936   4.313   0.812
 9976SOL     OW30826   3.168   6.477   4.188
 9976SOL    HW130827   3.245   6.537   4.210
 9976SOL    HW230828   3.190   6.423   4.107
 9977SOL     OW30829   6.750   4.744   3.997
 9977SOL    HW130830   6.717   4.675   4.061
 9977SOL    HW230831   6.689   4.824   4.000
 9978SOL     OW30832   6.765   2.894   4.158
 9978SOL    HW130833   6.823   2.875   4.237
 9978SOL    HW230834   6.815   2.873   4.074
 9979SOL     OW30835   1.038   3.735   4.954
 9979SOL    HW130836   1.083   3.729   4.865
 9979SOL    HW230837   1.011   3.644   4.984
 9980SOL     OW30838   2.824   6.767   4.853
 9980SOL    HW130839   2.805   6.813   4.940
 9980SOL    HW230840   2.917   6.729   4.856
 9981SOL     OW30841   3.791   2.121   3.305
 9981SOL    HW130842   3.840   2.205   3.282
 9981SOL    HW230843   3.795   2.058   3.228
 9982SOL     OW30844   6.320   7.015   2.860
 9982SOL    HW130845   6.376   0.074   2.840
 9982SOL    HW230846   6.330   6.948   2.786
 9983SOL     OW30847   6.819   0.715   1.280
 9983SOL    HW130848   6.834   0.629   1.232
 9983SOL    HW230849   6.751   0.701   1.352
 9984SOL     OW30850   3.305   0.631   6.439
 9984SOL    HW130851   3.388   0.580   6.461
 9984SOL    HW230852   3.275   0.681   6.520
 9985SOL     OW30853   1.385   1.552   1.174
 9985SOL    HW130854   1.403   1.636   1.122
 9985SOL    HW230855   1.469   1.498   1.178
 9986SOL     OW30856   5.043   4.287   4.340
 9986SOL    HW130857   5.099   4.360   4.378
 9986SOL    HW230858   4.974   4.326   4.280
 9987SOL     OW30859   0.108   4.114   5.296
 9987SOL    HW130860   0.096   4.029   5.246
 9987SOL    HW230861   0.145   4.094   5.387
 9988SOL     OW30862   6.723   1.082   3.883
 9988SOL    HW130863   6.818   1.113   3.891
 9988SOL    HW230864   6.671   1.116   3.961
 9989SOL     OW30865   1.770   2.571   4.898
 9989SOL    HW130866   1.785   2.598   4.993
 9989SOL    HW230867   1.785   2.649   4.838
 9990SOL     OW30868   1.258   4.738   1.418
 9990SOL    HW130869   1.198   4.682   1.475
 9990SOL    HW230870   1.206   4.813   1.378
 9991SOL     OW30871   3.986   1.989   3.446
 9991SOL    HW130872   3.931   2.056   3.496
 9991SOL    HW230873   3.926   1.927   3.396
 9992SOL     OW30874   6.175   5.347   6.217
 9992SOL    HW130875   6.246   5.382   6.156
 9992SOL    HW230876   6.200   5.255   6.248
 9993SOL     OW30877   1.150   0.550   2.190
 9993SOL    HW130878   1.104   0.640   2.195
 9993SOL    HW230879   1.231   0.558   2.132
 9994SOL     OW30880   6.227   4.005   3.332
 9994SOL    HW130881   6.234   4.060   3.415
 9994SOL    HW230882   6.310   4.014   3.277
 9995SOL     OW30883   5.732   1.768   4.530
 9995SOL    HW130884   5.702   1.712   4.453
 9995SOL    HW230885   5.810   1.823   4.502
 9996SOL     OW30886   2.948   3.034   0.810
 9996SOL    HW130887   2.964   2.987   0.723
 9996SOL    HW230888   3.018   3.008   0.876
 9997SOL     OW30889   2.391   0.741   4.448
 9997SOL    HW130890   2.318   0.790   4.496
 9997SOL    HW230891   2.403   0.651   4.489
 9998SOL     OW30892   6.360   6.406   4.934
 9998SOL    HW130893   6.342   6.362   4.846
 9998SOL    HW230894   6.458   6.423   4.943
 9999SOL     OW30895   0.267   0.936   5.002
 9999SOL    HW130896   0.351   0.964   5.049
 9999SOL    HW230897   0.268   0.837   4.987
10000SOL     OW30898   6.673   4.864   0.999
10000SOL    HW130899   6.598   4.817   1.046
10000SOL    HW230900   6.691   4.819   0.912
10001SOL     OW30901   3.523   0.252   3.832
10001SOL    HW130902   3.617   0.249   3.798
10001SOL    HW230903   3.474   0.328   3.789
10002SOL     OW30904   0.989   1.907   1.547
10002SOL    HW130905   0.929   1.987   1.555
10002SOL    HW230906   1.078   1.936   1.510
10003SOL     OW30907   5.354   4.089   1.530
10003SOL    HW130908   5.389   4.053   1.617
10003SOL    HW230909   5.426   4.085   1.461
10004SOL     OW30910   6.548   3.942   4.127
10004SOL    HW130911   6.617   3.869   4.127
10004SOL    HW230912   6.514   3.956   4.034
10005SOL     OW30913   4.684   0.496   3.429
10005SOL    HW130914   4.710   0.407   3.393
10005SOL    HW230915   4.766   0.546   3.457
10006SOL     OW30916   5.024   2.516   4.259
10006SOL    HW130917   5.117   2.507   4.223
10006SOL    HW230918   4.994   2.428   4.295
10007SOL     OW30919   5.114   5.471   3.787
10007SOL    HW130920   5.024   5.505   3.816
10007SOL    HW230921   5.177   5.471   3.864
10008SOL     OW30922   2.612   6.981   4.160
10008SOL    HW130923   2.619   0.039   4.100
10008SOL    HW230924   2.611   6.898   4.104
10009SOL     OW30925   1.999   4.273   1.711
10009SOL    HW130926   1.904   4.243   1.722
10009SOL    HW230927   2.005   4.338   1.635
10010SOL     OW30928   5.422   0.798   6.300
10010SOL    HW130929   5.473   0.723   6.342
10010SOL    HW230930   5.486   0.869   6.272
10011SOL     OW30931   6.998   6.675   3.586
10011SOL    HW130932   7.000   6.680   3.487
10011SOL    HW230933   6.984   6.767   3.624
10012SOL     OW30934   4.809   1.317   5.266
10012SOL    HW130935   4.809   1.304   5.365
10012SOL    HW230936   4.902   1.338   5.235
10013SOL     OW30937   1.387   0.801   1.042
10013SOL    HW130938   1.457   0.731   1.052
10013SOL    HW230939   1.382   0.830   0.947
10014SOL     OW30940   1.312   4.650   5.856
10014SOL    HW130941   1.324   4.741   5.896
10014SOL    HW230942   1.315   4.656   5.757
10015SOL     OW30943   2.614   5.952   5.986
10015SOL    HW130944   2.673   5.922   5.911
10015SOL    HW230945   2.528   5.902   5.982
10016SOL     OW30946   2.481   1.376   5.299
10016SOL    HW130947   2.559   1.439   5.301
10016SOL    HW230948   2.410   1.410   5.360
10017SOL     OW30949   6.717   2.125   3.041
10017SOL    HW130950   6.754   2.165   2.957
10017SOL    HW230951   6.630   2.170   3.063
10018SOL     OW30952   4.818   6.607   6.466
10018SOL    HW130953   4.825   6.693   6.415
10018SOL    HW230954   4.902   6.555   6.456
10019SOL     OW30955   0.993   0.807   3.590
10019SOL    HW130956   0.941   0.817   3.675
10019SOL    HW230957   0.937   0.762   3.521
10020SOL     OW30958   0.979   3.688   0.045
10020SOL    HW130959   1.009   3.728   0.132
10020SOL    HW230960   0.882   3.664   0.052
10021SOL     OW30961   4.950   3.222   1.155
10021SOL    HW130962   4.991   3.175   1.077
10021SOL    HW230963   4.892   3.158   1.205
10022SOL     OW30964   2.227   1.150   6.041
10022SOL    HW130965   2.249   1.131   5.945
10022SOL    HW230966   2.308   1.134   6.098
10023SOL     OW30967   0.399   3.202   0.086
10023SOL    HW130968   0.404   3.289   0.136
10023SOL    HW230969   0.486   3.154   0.094
10024SOL     OW30970   0.873   3.474   2.708
10024SOL    HW130971   0.856   3.552   2.768
10024SOL    HW230972   0.811   3.479   2.629
10025SOL     OW30973   1.186   1.737   0.901
10025SOL    HW130974   1.133   1.696   0.976
10025SOL    HW230975   1.277   1.762   0.935
10026SOL     OW30976   6.053   0.679   4.594
10026SOL    HW130977   6.096   0.767   4.572
10026SOL    HW230978   5.959   0.679   4.561
10027SOL     OW30979   5.657   2.914   5.930
10027SOL    HW130980   5.704   2.865   6.003
10027SOL    HW230981   5.561   2.926   5.953
10028SOL     OW30982   1.687   1.768   1.494
10028SOL    HW130983   1.602   1.817   1.474
10028SOL    HW230984   1.706   1.773   1.592
10029SOL     OW30985   4.026   1.451   4.198
10029SOL    HW130986   3.939   1.486   4.164
10029SOL    HW230987   4.011   1.371   4.255
10030SOL     OW30988   0.436   1.055   1.769
10030SOL    HW130989   0.418   1.025   1.675
10030SOL    HW230990   0.363   1.022   1.829
10031SOL     OW30991   0.305   5.097   3.038
10031SOL    HW130992   0.388   5.095   2.981
10031SOL    HW230993   0.290   5.007   3.079
10032SOL     OW30994   3.652   2.155   5.198
10032SOL    HW130995   3.698   2.164   5.286
10032SOL    HW230996   3.701   2.089   5.141
10033SOL     OW30997   5.855   2.808   3.965
10033SOL    HW130998   5.856   2.754   4.049
10033SOL    HW230999   5.784   2.878   3.972
10034SOL     OW31000   4.219   6.250   6.130
10034SOL    HW131001   4.293   6.273   6.065
10034SOL    HW231002   4.203   6.328   6.190
10035SOL     OW31003   0.515   6.442   4.599
10035SOL    HW131004   0.439   6.378   4.587
10035SOL    HW231005   0.499   6.524   4.545
10036SOL     OW31006   6.101   0.258   0.338
10036SOL    HW131007   6.127   0.355   0.337
10036SOL    HW231008   6.066   0.234   0.429
10037SOL     OW31009   0.196   6.924   1.216
10037SOL    HW131010   0.282   6.917   1.165
10037SOL    HW231011   0.174   6.835   1.256
10038SOL     OW31012   6.002   6.901   1.222
10038SOL    HW131013   6.005   6.933   1.317
10038SOL    HW231014   5.907   6.886   1.195
10039SOL     OW31015   3.892   1.063   2.988
10039SOL    HW131016   3.857   0.970   2.990
10039SOL    HW231017   3.818   1.128   3.007
10040SOL     OW31018   0.899   1.979   0.322
10040SOL    HW131019   0.946   2.034   0.391
10040SOL    HW231020   0.867   1.894   0.364
10041SOL     OW31021   0.809   6.803   7.012
10041SOL    HW131022   0.819   6.780   0.087
10041SOL    HW231023   0.741   6.876   7.002
10042SOL     OW31024   6.779   1.991   3.754
10042SOL    HW131025   6.864   1.976   3.804
10042SOL    HW231026   6.730   2.068   3.794
10043SOL     OW31027   2.502   2.796   5.680
10043SOL    HW131028   2.530   2.774   5.773
10043SOL    HW231029   2.582   2.826   5.627
10044SOL     OW31030   4.158   0.740   6.704
10044SOL    HW131031   4.129   0.789   6.621
10044SOL    HW231032   4.220   0.666   6.679
10045SOL     OW31033   2.370   0.423   1.439
10045SOL    HW131034   2.391   0.337   1.394
10045SOL    HW231035   2.329   0.406   1.529
10046SOL     OW31036   0.723   5.997   6.621
10046SOL    HW131037   0.711   6.086   6.579
10046SOL    HW231038   0.760   6.008   6.714
10047SOL     OW31039   1.457   4.291   1.115
10047SOL    HW131040   1.477   4.220   1.183
10047SOL    HW231041   1.508   4.273   1.031
10048SOL     OW31042   6.348   3.611   0.933
10048SOL    HW131043   6.312   3.549   1.003
10048SOL    HW231044   6.287   3.610   0.854
10049SOL     OW31045   6.671   2.161   4.515
10049SOL    HW131046   6.732   2.232   4.552
10049SOL    HW231047   6.582   2.167   4.560
10050SOL     OW31048   0.137   2.292   6.290
10050SOL    HW131049   0.217   2.300   6.230
10050SOL    HW231050   0.167   2.285   6.385
10051SOL     OW31051   1.677   0.487   2.877
10051SOL    HW131052   1.634   0.527   2.958
10051SOL    HW231053   1.679   0.387   2.886
10052SOL     OW31054   0.970   0.340   4.495
10052SOL    HW131055   1.033   0.372   4.424
10052SOL    HW231056   1.022   0.301   4.571
10053SOL     OW31057   6.079   5.247   2.227
10053SOL    HW131058   6.095   5.272   2.323
10053SOL    HW231059   5.982   5.231   2.213
10054SOL     OW31060   5.084   4.354   3.303
10054SOL    HW131061   5.014   4.423   3.286
10054SOL    HW231062   5.075   4.320   3.397
10055SOL     OW31063   1.912   1.764   0.011
10055SOL    HW131064   1.977   1.793   6.962
10055SOL    HW231065   1.923   1.666   0.028
10056SOL     OW31066   5.033   2.465   4.682
10056SOL    HW131067   5.069   2.381   4.641
10056SOL    HW231068   4.935   2.472   4.664
10057SOL     OW31069   5.726   4.449   4.703
10057SOL    HW131070   5.756   4.370   4.649
10057SOL    HW231071   5.651   4.495   4.656
10058SOL     OW31072   6.408   4.182   4.097
10058SOL    HW131073   6.316   4.159   4.066
10058SOL    HW231074   6.456   4.098   4.124
10059SOL     OW31075   5.461   6.044   5.812
10059SOL    HW131076   5.425   6.038   5.906
10059SOL    HW231077   5.523   6.122   5.805
10060SOL     OW31078   3.008   1.503   1.595
10060SOL    HW131079   2.943   1.486   1.669
10060SOL    HW231080   3.038   1.598   1.598
10061SOL     OW31081   4.415   0.096   3.332
10061SOL    HW131082   4.351   0.172   3.343
10061SOL    HW231083   4.365   0.013   3.307
10062SOL     OW31084   6.622   0.382   4.383
10062SOL    HW131085   6.681   0.383   4.303
10062SOL    HW231086   6.526   0.388   4.354
10063SOL     OW31087   4.318   2.298   3.339
10063SOL    HW131088   4.374   2.376   3.312
10063SOL    HW231089   4.311   2.294   3.439
10064SOL     OW31090   2.376   6.075   2.536
10064SOL    HW131091   2.295   6.095   2.480
10064SOL    HW231092   2.364   6.115   2.626
10065SOL     OW31093   6.266   2.100   1.602
10065SOL    HW131094   6.342   2.064   1.655
10065SOL    HW231095   6.250   2.041   1.522
10066SOL     OW31096   5.647   4.159   3.396
10066SOL    HW131097   5.740   4.190   3.378
10066SOL    HW231098   5.642   4.119   3.487
10067SOL     OW31099   5.536   3.292   5.001
10067SOL    HW131100   5.578   3.201   5.002
10067SOL    HW231101   5.567   3.342   4.920
10068SOL     OW31102   2.147   3.821   2.670
10068SOL    HW131103   2.175   3.870   2.587
10068SOL    HW231104   2.107   3.733   2.646
10069SOL     OW31105   2.939   5.359   1.425
10069SOL    HW131106   2.931   5.321   1.333
10069SOL    HW231107   2.912   5.291   1.492
10070SOL     OW31108   4.799   0.695   6.890
10070SOL    HW131109   4.761   0.628   6.954
10070SOL    HW231110   4.829   0.649   6.807
10071SOL     OW31111   5.046   1.397   4.958
10071SOL    HW131112   5.082   1.489   4.941
10071SOL    HW231113   5.095   1.356   5.035
10072SOL     OW31114   5.837   3.235   2.383
10072SOL    HW131115   5.754   3.181   2.369
10072SOL    HW231116   5.821   3.305   2.452
10073SOL     OW31117   5.796   5.624   5.100
10073SOL    HW131118   5.794   5.532   5.062
10073SOL    HW231119   5.750   5.687   5.038
10074SOL     OW31120   2.028   4.403   0.948
10074SOL    HW131121   1.953   4.354   0.992
10074SOL    HW231122   2.032   4.496   0.984
10075SOL     OW31123   0.687   3.333   1.248
10075SOL    HW131124   0.713   3.392   1.171
10075SOL    HW231125   0.590   3.346   1.269
10076SOL     OW31126   6.220   4.657   3.816
10076SOL    HW131127   6.297   4.684   3.758
10076SOL    HW231128   6.229   4.701   3.905
10077SOL     OW31129   4.163   3.648   6.850
10077SOL    HW131130   4.236   3.607   6.796
10077SOL    HW231131   4.202   3.708   6.920
10078SOL     OW31132   5.891   6.134   4.038
10078SOL    HW131133   5.820   6.129   3.967
10078SOL    HW231134   5.969   6.077   4.011
10079SOL     OW31135   6.391   4.932   3.003
10079SOL    HW131136   6.389   4.985   3.088
10079SOL    HW231137   6.379   4.835   3.024
10080SOL     OW31138   5.093   2.698   5.037
10080SOL    HW131139   5.037   2.720   4.956
10080SOL    HW231140   5.071   2.762   5.111
10081SOL     OW31141   1.817   5.214   0.754
10081SOL    HW131142   1.764   5.162   0.821
10081SOL    HW231143   1.783   5.193   0.662
10082SOL     OW31144   0.146   4.537   2.021
10082SOL    HW131145   0.148   4.476   1.941
10082SOL    HW231146   0.080   4.502   2.087
10083SOL     OW31147   3.386   5.856   3.017
10083SOL    HW131148   3.429   5.793   2.953
10083SOL    HW231149   3.299   5.818   3.048
10084SOL     OW31150   1.718   3.413   4.790
10084SOL    HW131151   1.799   3.446   4.743
10084SOL    HW231152   1.637   3.461   4.756
10085SOL     OW31153   3.458   6.776   1.970
10085SOL    HW131154   3.461   6.697   2.032
10085SOL    HW231155   3.509   6.852   2.010
10086SOL     OW31156   2.622   0.916   2.979
10086SOL    HW131157   2.583   0.888   2.891
10086SOL    HW231158   2.568   0.877   3.053
10087SOL     OW31159   1.550   5.578   6.323
10087SOL    HW131160   1.618   5.615   6.387
10087SOL    HW231161   1.503   5.654   6.278
10088SOL     OW31162   5.582   1.736   0.769
10088SOL    HW131163   5.554   1.731   0.865
10088SOL    HW231164   5.501   1.730   0.711
10089SOL     OW31165   3.705   6.480   3.177
10089SOL    HW131166   3.662   6.397   3.212
10089SOL    HW231167   3.642   6.557   3.189
10090SOL     OW31168   3.601   6.206   2.398
10090SOL    HW131169   3.665   6.209   2.475
10090SOL    HW231170   3.645   6.242   2.316
10091SOL     OW31171   4.999   6.172   3.057
10091SOL    HW131172   5.061   6.235   3.105
10091SOL    HW231173   5.051   6.095   3.021
10092SOL     OW31174   6.803   1.455   2.229
10092SOL    HW131175   6.885   1.439   2.174
10092SOL    HW231176   6.760   1.367   2.250
10093SOL     OW31177   4.622   4.158   6.260
10093SOL    HW131178   4.557   4.208   6.202
10093SOL    HW231179   4.712   4.158   6.217
10094SOL     OW31180   4.297   2.684   0.654
10094SOL    HW131181   4.365   2.719   0.589
10094SOL    HW231182   4.338   2.679   0.745
10095SOL     OW31183   4.439   2.652   5.235
10095SOL    HW131184   4.347   2.627   5.204
10095SOL    HW231185   4.483   2.709   5.166
10096SOL     OW31186   6.857   4.868   1.994
10096SOL    HW131187   6.936   4.930   1.997
10096SOL    HW231188   6.848   4.822   2.082
10097SOL     OW31189   0.693   0.727   1.309
10097SOL    HW131190   0.708   0.631   1.330
10097SOL    HW231191   0.765   0.760   1.247
10098SOL     OW31192   4.023   4.832   0.729
10098SOL    HW131193   4.103   4.892   0.730
10098SOL    HW231194   4.049   4.740   0.701
10099SOL     OW31195   6.770   6.315   3.276
10099SOL    HW131196   6.849   6.268   3.236
10099SOL    HW231197   6.739   6.264   3.356
10100SOL     OW31198   5.384   5.320   3.918
10100SOL    HW131199   5.432   5.280   3.997
10100SOL    HW231200   5.415   5.274   3.834
10101SOL     OW31201   6.673   1.998   6.108
10101SOL    HW131202   6.719   2.082   6.079
10101SOL    HW231203   6.733   1.919   6.093
10102SOL     OW31204   0.605   4.818   3.006
10102SOL    HW131205   0.598   4.912   3.039
10102SOL    HW231206   0.602   4.754   3.083
10103SOL     OW31207   0.283   0.861   6.946
10103SOL    HW131208   0.242   0.835   0.012
10103SOL    HW231209   0.249   0.801   6.874
10104SOL     OW31210   2.773   1.788   4.239
10104SOL    HW131211   2.776   1.850   4.318
10104SOL    HW231212   2.704   1.718   4.255
10105SOL     OW31213   3.564   1.562   3.951
10105SOL    HW131214   3.545   1.638   4.013
10105SOL    HW231215   3.482   1.506   3.941
10106SOL     OW31216   6.990   3.648   0.840
10106SOL    HW131217   6.947   3.734   0.814
10106SOL    HW231218   0.045   3.666   0.901
10107SOL     OW31219   4.573   5.582   5.324
10107SOL    HW131220   4.477   5.584   5.352
10107SOL    HW231221   4.630   5.620   5.397
10108SOL     OW31222   3.195   1.797   4.828
10108SOL    HW131223   3.176   1.699   4.834
10108SOL    HW231224   3.127   1.848   4.881
10109SOL     OW31225   1.070   3.124   0.585
10109SOL    HW131226   1.101   3.219   0.596
10109SOL    HW231227   1.145   3.070   0.546
10110SOL     OW31228   6.253   5.986   1.819
10110SOL    HW131229   6.294   5.917   1.759
10110SOL    HW231230   6.287   6.076   1.793
10111SOL     OW31231   5.930   2.446   1.833
10111SOL    HW131232   5.970   2.405   1.752
10111SOL    HW231233   5.843   2.400   1.854
10112SOL     OW31234   0.631   2.892   3.683
10112SOL    HW131235   0.641   2.845   3.771
10112SOL    HW231236   0.534   2.899   3.660
10113SOL     OW31237   6.784   0.103   6.254
10113SOL    HW131238   6.744   0.081   6.342
10113SOL    HW231239   6.723   0.073   6.181
10114SOL     OW31240   6.136   4.473   1.201
10114SOL    HW131241   6.075   4.439   1.130
10114SOL    HW231242   6.208   4.529   1.159
10115SOL     OW31243   2.852   1.774   6.572
10115SOL    HW131244   2.890   1.851   6.520
10115SOL    HW231245   2.906   1.692   6.555
10116SOL     OW31246   1.053   6.573   6.296
10116SOL    HW131247   0.976   6.523   6.336
10116SOL    HW231248   1.090   6.521   6.219
10117SOL     OW31249   0.925   4.267   1.168
10117SOL    HW131250   0.839   4.218   1.156
10117SOL    HW231251   0.913   4.362   1.139
10118SOL     OW31252   3.911   5.088   3.642
10118SOL    HW131253   3.832   5.096   3.703
10118SOL    HW231254   3.886   5.125   3.552
10119SOL     OW31255   5.776   5.604   6.836
10119SOL    HW131256   5.756   5.511   6.865
10119SOL    HW231257   5.795   5.661   6.916
10120SOL     OW31258   2.729   2.282   2.560
10120SOL    HW131259   2.645   2.332   2.582
10120SOL    HW231260   2.734   2.267   2.461
10121SOL     OW31261   6.592   5.811   2.166
10121SOL    HW131262   6.528   5.888   2.161
10121SOL    HW231263   6.677   5.835   2.118
10122SOL     OW31264   1.949   0.070   3.374
10122SOL    HW131265   1.921   7.014   3.430
10122SOL    HW231266   2.024   0.042   3.314
10123SOL     OW31267   6.080   6.680   6.466
10123SOL    HW131268   6.116   6.598   6.422
10123SOL    HW231269   6.108   6.682   6.562
10124SOL     OW31270   0.286   4.707   3.402
10124SOL    HW131271   0.224   4.783   3.418
10124SOL    HW231272   0.379   4.734   3.425
10125SOL     OW31273   1.869   2.715   4.139
10125SOL    HW131274   1.919   2.793   4.177
10125SOL    HW231275   1.840   2.655   4.214
10126SOL     OW31276   0.187   5.914   4.901
10126SOL    HW131277   0.199   5.820   4.868
10126SOL    HW231278   0.186   5.976   4.823
10127SOL     OW31279   2.850   0.681   5.024
10127SOL    HW131280   2.772   0.741   5.007
10127SOL    HW231281   2.817   0.592   5.057
10128SOL     OW31282   2.750   1.030   0.785
10128SOL    HW131283   2.829   1.022   0.846
10128SOL    HW231284   2.782   1.040   0.690
10129SOL     OW31285   6.686   1.839   5.790
10129SOL    HW131286   6.704   1.918   5.731
10129SOL    HW231287   6.610   1.787   5.752
10130SOL     OW31288   1.367   2.694   3.297
10130SOL    HW131289   1.308   2.714   3.219
10130SOL    HW231290   1.410   2.605   3.284
10131SOL     OW31291   2.638   0.856   4.999
10131SOL    HW131292   2.634   0.955   4.987
10131SOL    HW231293   2.575   0.828   5.071
10132SOL     OW31294   6.128   0.638   2.116
10132SOL    HW131295   6.092   0.685   2.036
10132SOL    HW231296   6.203   0.692   2.156
10133SOL     OW31297   4.867   5.821   1.423
10133SOL    HW131298   4.879   5.868   1.336
10133SOL    HW231299   4.955   5.783   1.453
10134SOL     OW31300   6.365   1.590   2.722
10134SOL    HW131301   6.323   1.506   2.689
10134SOL    HW231302   6.328   1.668   2.671
10135SOL     OW31303   6.652   0.110   3.236
10135SOL    HW131304   6.615   0.024   3.271
10135SOL    HW231305   6.677   0.169   3.313
10136SOL     OW31306   5.296   0.621   2.995
10136SOL    HW131307   5.283   0.571   2.909
10136SOL    HW231308   5.249   0.709   2.990
10137SOL     OW31309   6.152   6.005   2.579
10137SOL    HW131310   6.244   6.018   2.542
10137SOL    HW231311   6.136   6.071   2.652
10138SOL     OW31312   6.876   1.993   2.043
10138SOL    HW131313   6.873   1.958   2.137
10138SOL    HW231314   6.790   1.972   1.996
10139SOL     OW31315   4.168   2.388   1.200
10139SOL    HW131316   4.267   2.376   1.199
10139SOL    HW231317   4.143   2.449   1.275
10140SOL     OW31318   6.167   6.031   3.971
10140SOL    HW131319   6.198   6.115   3.928
10140SOL    HW231320   6.175   5.955   3.907
10141SOL     OW31321   1.167   2.008   5.062
10141SOL    HW131322   1.170   2.007   4.962
10141SOL    HW231323   1.194   2.098   5.096
10142SOL     OW31324   4.309   6.624   1.773
10142SOL    HW131325   4.318   6.643   1.871
10142SOL    HW231326   4.392   6.577   1.741
10143SOL     OW31327   0.282   3.059   6.910
10143SOL    HW131328   0.321   3.102   6.992
10143SOL    HW231329   0.339   3.081   6.831
10144SOL     OW31330   4.910   0.262   2.334
10144SOL    HW131331   4.944   0.352   2.306
10144SOL    HW231332   4.894   0.205   2.254
10145SOL     OW31333   6.363   0.476   5.240
10145SOL    HW131334   6.416   0.414   5.298
10145SOL    HW231335   6.424   0.546   5.202
10146SOL     OW31336   1.761   1.599   5.462
10146SOL    HW131337   1.785   1.577   5.367
10146SOL    HW231338   1.662   1.591   5.473
10147SOL     OW31339   3.872   4.528   0.304
10147SOL    HW131340   3.899   4.463   0.375
10147SOL    HW231341   3.933   4.607   0.306
10148SOL     OW31342   6.630   5.960   6.397
10148SOL    HW131343   6.628   6.050   6.440
10148SOL    HW231344   6.699   5.904   6.442
10149SOL     OW31345   3.625   2.910   4.413
10149SOL    HW131346   3.562   2.887   4.339
10149SOL    HW231347   3.717   2.925   4.376
10150SOL     OW31348   6.535   3.996   6.549
10150SOL    HW131349   6.625   3.966   6.581
10150SOL    HW231350   6.475   3.916   6.539
10151SOL     OW31351   0.152   0.310   7.002
10151SOL    HW131352   0.235   0.326   6.948
10151SOL    HW231353   0.125   0.214   6.993
10152SOL     OW31354   3.632   6.629   4.041
10152SOL    HW131355   3.676   6.673   4.120
10152SOL    HW231356   3.567   6.693   3.999
10153SOL     OW31357   4.564   4.392   0.922
10153SOL    HW131358   4.503   4.422   0.995
10153SOL    HW231359   4.534   4.302   0.889
10154SOL     OW31360   5.110   5.001   6.201
10154SOL    HW131361   5.130   4.924   6.261
10154SOL    HW231362   5.116   5.086   6.252
10155SOL     OW31363   4.667   2.524   5.098
10155SOL    HW131364   4.583   2.478   5.070
10155SOL    HW231365   4.653   2.623   5.097
10156SOL     OW31366   3.190   1.939   6.852
10156SOL    HW131367   3.192   1.970   6.757
10156SOL    HW231368   3.095   1.938   6.885
10157SOL     OW31369   0.198   6.004   2.383
10157SOL    HW131370   0.146   6.005   2.298
10157SOL    HW231371   0.289   6.043   2.368
10158SOL     OW31372   0.339   4.869   6.136
10158SOL    HW131373   0.387   4.946   6.094
10158SOL    HW231374   0.255   4.850   6.086
10159SOL     OW31375   4.025   3.085   1.719
10159SOL    HW131376   3.961   3.042   1.783
10159SOL    HW231377   4.095   3.135   1.771
10160SOL     OW31378   0.167   4.736   2.520
10160SOL    HW131379   0.159   4.640   2.493
10160SOL    HW231380   0.099   4.757   2.590
10161SOL     OW31381   6.549   2.394   0.464
10161SOL    HW131382   6.564   2.332   0.387
10161SOL    HW231383   6.453   2.424   0.465
10162SOL     OW31384   2.007   1.933   2.187
10162SOL    HW131385   2.034   1.906   2.279
10162SOL    HW231386   1.953   1.861   2.144
10163SOL     OW31387   3.920   5.366   4.881
10163SOL    HW131388   3.850   5.319   4.828
10163SOL    HW231389   3.948   5.309   4.958
10164SOL     OW31390   0.711   1.495   3.748
10164SOL    HW131391   0.695   1.587   3.712
10164SOL    HW231392   0.623   1.454   3.775
10165SOL     OW31393   2.189   3.027   3.593
10165SOL    HW131394   2.216   3.010   3.498
10165SOL    HW231395   2.137   3.112   3.599
10166SOL     OW31396   3.479   6.080   3.695
10166SOL    HW131397   3.459   5.995   3.646
10166SOL    HW231398   3.437   6.157   3.647
10167SOL     OW31399   3.710   1.214   0.388
10167SOL    HW131400   3.694   1.312   0.384
10167SOL    HW231401   3.805   1.196   0.411
10168SOL     OW31402   0.573   1.081   6.884
10168SOL    HW131403   0.582   1.011   6.955
10168SOL    HW231404   0.497   1.057   6.823
10169SOL     OW31405   4.599   5.079   2.720
10169SOL    HW131406   4.671   5.019   2.754
10169SOL    HW231407   4.572   5.050   2.628
10170SOL     OW31408   4.571   6.593   6.599
10170SOL    HW131409   4.667   6.590   6.572
10170SOL    HW231410   4.534   6.684   6.582
10171SOL     OW31411   1.653   4.406   3.067
10171SOL    HW131412   1.617   4.313   3.056
10171SOL    HW231413   1.730   4.418   3.004
10172SOL     OW31414   0.511   0.355   3.606
10172SOL    HW131415   0.572   0.288   3.649
10172SOL    HW231416   0.523   0.444   3.650
10173SOL     OW31417   4.449   2.386   4.519
10173SOL    HW131418   4.418   2.477   4.494
10173SOL    HW231419   4.504   2.391   4.603
10174SOL     OW31420   4.212   5.304   1.278
10174SOL    HW131421   4.274   5.254   1.338
10174SOL    HW231422   4.265   5.365   1.219
10175SOL     OW31423   6.884   6.689   4.378
10175SOL    HW131424   6.946   6.766   4.393
10175SOL    HW231425   6.927   6.604   4.410
10176SOL     OW31426   0.075   1.557   4.873
10176SOL    HW131427   0.067   1.636   4.813
10176SOL    HW231428   7.008   1.540   4.917
10177SOL     OW31429   3.152   0.759   5.134
10177SOL    HW131430   3.148   0.858   5.121
10177SOL    HW231431   3.064   0.719   5.108
10178SOL     OW31432   6.089   1.699   1.915
10178SOL    HW131433   6.048   1.732   1.830
10178SOL    HW231434   6.121   1.605   1.902
10179SOL     OW31435   6.917   6.048   1.102
10179SOL    HW131436   6.871   6.095   1.027
10179SOL    HW231437   6.989   5.989   1.065
10180SOL     OW31438   1.746   0.112   6.030
10180SOL    HW131439   1.672   0.100   5.964
10180SOL    HW231440   1.748   0.035   6.092
10181SOL     OW31441   0.566   3.938   2.172
10181SOL    HW131442   0.613   3.860   2.132
10181SOL    HW231443   0.491   3.967   2.111
10182SOL     OW31444   2.811   6.884   6.392
10182SOL    HW131445   2.781   6.879   6.297
10182SOL    HW231446   2.907   6.859   6.398
10183SOL     OW31447   3.753   6.082   6.841
10183SOL    HW131448   3.803   6.044   6.919
10183SOL    HW231449   3.672   6.026   6.823
10184SOL     OW31450   4.922   2.945   4.131
10184SOL    HW131451   4.953   3.037   4.157
10184SOL    HW231452   4.931   2.932   4.033
10185SOL     OW31453   2.830   4.514   1.554
10185SOL    HW131454   2.851   4.548   1.646
10185SOL    HW231455   2.810   4.416   1.558
10186SOL     OW31456   3.548   2.946   1.935
10186SOL    HW131457   3.531   3.038   1.969
10186SOL    HW231458   3.503   2.934   1.846
10187SOL     OW31459   1.271   3.100   5.066
10187SOL    HW131460   1.352   3.124   5.012
10187SOL    HW231461   1.290   3.020   5.122
10188SOL     OW31462   2.414   6.450   6.829
10188SOL    HW131463   2.509   6.434   6.853
10188SOL    HW231464   2.354   6.417   6.902
10189SOL     OW31465   2.268   1.794   5.247
10189SOL    HW131466   2.364   1.803   5.275
10189SOL    HW231467   2.222   1.882   5.259
10190SOL     OW31468   2.729   4.230   1.107
10190SOL    HW131469   2.630   4.217   1.106
10190SOL    HW231470   2.766   4.220   1.015
10191SOL     OW31471   6.189   0.354   6.875
10191SOL    HW131472   6.225   0.328   6.786
10191SOL    HW231473   6.164   0.272   6.927
10192SOL     OW31474   2.957   0.716   4.166
10192SOL    HW131475   2.886   0.657   4.203
10192SOL    HW231476   3.025   0.734   4.237
10193SOL     OW31477   3.873   3.669   3.679
10193SOL    HW131478   3.859   3.631   3.587
10193SOL    HW231479   3.969   3.660   3.704
10194SOL     OW31480   3.185   5.712   3.078
10194SOL    HW131481   3.091   5.689   3.052
10194SOL    HW231482   3.210   5.663   3.161
10195SOL     OW31483   5.405   0.132   2.477
10195SOL    HW131484   5.313   0.135   2.516
10195SOL    HW231485   5.408   0.191   2.396
10196SOL     OW31486   4.523   4.514   3.923
10196SOL    HW131487   4.508   4.507   3.825
10196SOL    HW231488   4.596   4.452   3.950
10197SOL     OW31489   5.764   1.656   2.526
10197SOL    HW131490   5.779   1.604   2.442
10197SOL    HW231491   5.852   1.672   2.571
10198SOL     OW31492   3.649   1.300   1.948
10198SOL    HW131493   3.738   1.282   1.907
10198SOL    HW231494   3.605   1.213   1.970
10199SOL     OW31495   1.475   2.005   7.006
10199SOL    HW131496   1.487   2.078   0.051
10199SOL    HW231497   1.549   1.939   7.015
10200SOL     OW31498   4.388   0.047   3.968
10200SOL    HW131499   4.482   0.063   3.940
10200SOL    HW231500   4.368   6.971   3.965
10201SOL     OW31501   0.639   5.354   3.098
10201SOL    HW131502   0.583   5.361   3.016
10201SOL    HW231503   0.691   5.438   3.110
10202SOL     OW31504   1.311   2.459   3.629
10202SOL    HW131505   1.320   2.442   3.727
10202SOL    HW231506   1.280   2.552   3.613
10203SOL     OW31507   6.159   2.485   1.266
10203SOL    HW131508   6.235   2.550   1.257
10203SOL    HW231509   6.105   2.508   1.347
10204SOL     OW31510   1.652   6.013   4.195
10204SOL    HW131511   1.609   6.097   4.228
10204SOL    HW231512   1.745   6.007   4.231
10205SOL     OW31513   3.654   6.664   1.243
10205SOL    HW131514   3.655   6.759   1.215
10205SOL    HW231515   3.740   6.620   1.219
10206SOL     OW31516   6.167   5.972   6.743
10206SOL    HW131517   6.118   5.917   6.676
10206SOL    HW231518   6.103   6.004   6.813
10207SOL     OW31519   3.575   1.568   1.998
10207SOL    HW131520   3.597   1.472   1.982
10207SOL    HW231521   3.509   1.599   1.929
10208SOL     OW31522   0.679   2.141   6.200
10208SOL    HW131523   0.612   2.136   6.274
10208SOL    HW231524   0.653   2.078   6.127
10209SOL     OW31525   4.064   6.272   0.458
10209SOL    HW131526   3.996   6.332   0.500
10209SOL    HW231527   4.036   6.177   0.467
10210SOL     OW31528   4.495   6.316   6.587
10210SOL    HW131529   4.490   6.257   6.668
10210SOL    HW231530   4.528   6.406   6.615
10211SOL     OW31531   4.006   4.892   4.573
10211SOL    HW131532   4.014   4.988   4.602
10211SOL    HW231533   4.025   4.832   4.651
10212SOL     OW31534   6.778   6.130   5.741
10212SOL    HW131535   6.810   6.092   5.655
10212SOL    HW231536   6.856   6.145   5.802
10213SOL     OW31537   3.407   0.089   4.665
10213SOL    HW131538   3.362   0.163   4.714
10213SOL    HW231539   3.495   0.121   4.629
10214SOL     OW31540   6.650   0.292   0.303
10214SOL    HW131541   6.684   0.244   0.222
10214SOL    HW231542   6.560   0.331   0.283
10215SOL     OW31543   4.746   2.494   0.368
10215SOL    HW131544   4.798   2.564   0.319
10215SOL    HW231545   4.663   2.534   0.405
10216SOL     OW31546   5.082   0.468   2.567
10216SOL    HW131547   5.005   0.530   2.553
10216SOL    HW231548   5.168   0.518   2.555
10217SOL     OW31549   2.907   2.060   6.442
10217SOL    HW131550   2.837   2.046   6.512
10217SOL    HW231551   2.862   2.076   6.354
10218SOL     OW31552   3.994   0.726   6.192
10218SOL    HW131553   4.041   0.684   6.114
10218SOL    HW231554   3.895   0.708   6.184
10219SOL     OW31555   0.246   5.290   1.053
10219SOL    HW131556   0.157   5.244   1.041
10219SOL    HW231557   0.270   5.291   1.150
10220SOL     OW31558   4.496   2.950   6.308
10220SOL    HW131559   4.416   2.898   6.340
10220SOL    HW231560   4.466   3.026   6.251
10221SOL     OW31561   1.917   0.300   5.304
10221SOL    HW131562   1.840   0.323   5.245
10221SOL    HW231563   2.000   0.294   5.249
10222SOL     OW31564   2.541   4.838   5.257
10222SOL    HW131565   2.625   4.797   5.292
10222SOL    HW231566   2.462   4.786   5.291
10223SOL     OW31567   2.303   5.815   6.003
10223SOL    HW131568   2.298   5.851   5.910
10223SOL    HW231569   2.365   5.736   6.005
10224SOL     OW31570   4.030   6.302   5.384
10224SOL    HW131571   4.076   6.374   5.436
10224SOL    HW231572   4.057   6.212   5.418
10225SOL     OW31573   4.827   0.507   4.904
10225SOL    HW131574   4.841   0.409   4.887
10225SOL    HW231575   4.898   0.541   4.965
10226SOL     OW31576   6.619   2.422   6.226
10226SOL    HW131577   6.646   2.498   6.168
10226SOL    HW231578   6.700   2.381   6.268
10227SOL     OW31579   4.456   4.857   5.254
10227SOL    HW131580   4.475   4.914   5.173
10227SOL    HW231581   4.434   4.916   5.332
10228SOL     OW31582   1.061   2.734   1.317
10228SOL    HW131583   1.021   2.713   1.228
10228SOL    HW231584   1.148   2.782   1.304
10229SOL     OW31585   2.832   0.530   1.848
10229SOL    HW131586   2.907   0.470   1.820
10229SOL    HW231587   2.867   0.601   1.909
10230SOL     OW31588   5.276   0.199   3.194
10230SOL    HW131589   5.369   0.190   3.228
10230SOL    HW231590   5.258   0.128   3.126
10231SOL     OW31591   4.834   0.052   4.842
10231SOL    HW131592   4.911   0.028   4.901
10231SOL    HW231593   4.769   0.109   4.894
10232SOL     OW31594   4.299   2.243   2.896
10232SOL    HW131595   4.329   2.333   2.866
10232SOL    HW231596   4.270   2.189   2.817
10233SOL     OW31597   5.240   6.873   5.419
10233SOL    HW131598   5.273   6.807   5.351
10233SOL    HW231599   5.227   6.962   5.376
10234SOL     OW31600   4.012   4.548   0.986
10234SOL    HW131601   3.945   4.490   0.941
10234SOL    HW231602   4.100   4.501   0.989
10235SOL     OW31603   5.104   0.020   6.871
10235SOL    HW131604   5.186   0.008   6.814
10235SOL    HW231605   5.089   0.117   6.888
10236SOL     OW31606   1.337   4.998   1.113
10236SOL    HW131607   1.404   5.068   1.088
10236SOL    HW231608   1.378   4.907   1.100
10237SOL     OW31609   6.089   2.504   3.054
10237SOL    HW131610   6.095   2.590   3.103
10237SOL    HW231611   6.077   2.521   2.956
10238SOL     OW31612   5.249   5.074   5.627
10238SOL    HW131613   5.172   5.047   5.684
10238SOL    HW231614   5.333   5.030   5.660
10239SOL     OW31615   5.406   4.034   4.069
10239SOL    HW131616   5.327   4.004   4.122
10239SOL    HW231617   5.416   3.975   3.988
10240SOL     OW31618   5.023   3.814   2.590
10240SOL    HW131619   4.996   3.726   2.630
10240SOL    HW231620   4.976   3.826   2.502
10241SOL     OW31621   1.299   2.609   2.419
10241SOL    HW131622   1.345   2.558   2.492
10241SOL    HW231623   1.347   2.593   2.332
10242SOL     OW31624   1.026   5.582   6.456
10242SOL    HW131625   1.035   5.636   6.540
10242SOL    HW231626   0.940   5.605   6.411
10243SOL     OW31627   7.008   5.656   3.867
10243SOL    HW131628   0.013   5.562   3.885
10243SOL    HW231629   6.921   5.676   3.913
10244SOL     OW31630   3.013   5.925   0.341
10244SOL    HW131631   2.917   5.936   0.365
10244SOL    HW231632   3.057   6.014   0.333
10245SOL     OW31633   4.131   3.705   0.899
10245SOL    HW131634   4.117   3.668   0.807
10245SOL    HW231635   4.195   3.782   0.895
10246SOL     OW31636   3.175   3.639   4.729
10246SOL    HW131637   3.153   3.733   4.703
10246SOL    HW231638   3.099   3.601   4.783
10247SOL     OW31639   1.167   5.335   6.490
10247SOL    HW131640   1.201   5.318   6.582
10247SOL    HW231641   1.132   5.428   6.484
10248SOL     OW31642   6.352   6.756   3.670
10248SOL    HW131643   6.442   6.800   3.659
10248SOL    HW231644   6.309   6.747   3.580
10249SOL     OW31645   4.465   1.430   5.890
10249SOL    HW131646   4.441   1.518   5.849
10249SOL    HW231647   4.396   1.406   5.959
10250SOL     OW31648   4.180   5.743   0.642
10250SOL    HW131649   4.092   5.746   0.595
10250SOL    HW231650   4.176   5.675   0.716
10251SOL     OW31651   3.805   4.520   1.243
10251SOL    HW131652   3.844   4.561   1.326
10251SOL    HW231653   3.876   4.512   1.174
10252SOL     OW31654   0.192   4.964   0.472
10252SOL    HW131655   0.138   4.906   0.412
10252SOL    HW231656   0.138   4.991   0.551
10253SOL     OW31657   5.372   4.256   0.357
10253SOL    HW131658   5.415   4.195   0.290
10253SOL    HW231659   5.436   4.329   0.382
10254SOL     OW31660   3.457   2.074   5.734
10254SOL    HW131661   3.393   1.998   5.738
10254SOL    HW231662   3.548   2.041   5.709
10255SOL     OW31663   2.943   4.870   3.935
10255SOL    HW131664   2.919   4.834   4.025
10255SOL    HW231665   3.038   4.903   3.937
10256SOL     OW31666   5.411   5.301   7.021
10256SOL    HW131667   5.455   5.341   0.080
10256SOL    HW231668   5.312   5.297   0.014
10257SOL     OW31669   1.637   4.222   4.719
10257SOL    HW131670   1.584   4.249   4.799
10257SOL    HW231671   1.591   4.253   4.636
10258SOL     OW31672   4.276   0.997   2.487
10258SOL    HW131673   4.201   0.940   2.453
10258SOL    HW231674   4.316   1.049   2.412
10259SOL     OW31675   5.663   3.384   3.817
10259SOL    HW131676   5.594   3.381   3.746
10259SOL    HW231677   5.661   3.298   3.870
10260SOL     OW31678   6.988   5.890   2.710
10260SOL    HW131679   0.017   5.973   2.732
10260SOL    HW231680   6.919   5.872   2.781
10261SOL     OW31681   1.903   0.269   2.282
10261SOL    HW131682   1.952   0.182   2.278
10261SOL    HW231683   1.809   0.255   2.252
10262SOL     OW31684   6.908   6.325   4.104
10262SOL    HW131685   6.950   6.414   4.085
10262SOL    HW231686   6.852   6.297   4.026
10263SOL     OW31687   6.928   3.621   4.721
10263SOL    HW131688   6.901   3.648   4.628
10263SOL    HW231689   6.847   3.613   4.779
10264SOL     OW31690   0.279   0.698   0.685
10264SOL    HW131691   0.235   0.627   0.630
10264SOL    HW231692   0.295   0.664   0.778
10265SOL     OW31693   5.318   2.212   4.822
10265SOL    HW131694   5.238   2.170   4.865
10265SOL    HW231695   5.391   2.145   4.814
10266SOL     OW31696   3.357   3.522   6.992
10266SOL    HW131697   3.320   3.578   6.918
10266SOL    HW231698   3.288   3.456   7.021
10267SOL     OW31699   7.015   1.041   6.500
10267SOL    HW131700   6.962   1.087   6.572
10267SOL    HW231701   0.008   1.104   6.424
10268SOL     OW31702   6.848   4.780   0.677
10268SOL    HW131703   6.932   4.771   0.731
10268SOL    HW231704   6.818   4.875   0.678
10269SOL     OW31705   4.505   1.708   5.854
10269SOL    HW131706   4.580   1.701   5.788
10269SOL    HW231707   4.499   1.802   5.888
10270SOL     OW31708   3.370   6.341   3.332
10270SOL    HW131709   3.307   6.369   3.261
10270SOL    HW231710   3.328   6.356   3.422
10271SOL     OW31711   1.476   4.680   1.257
10271SOL    HW131712   1.413   4.668   1.333
10271SOL    HW231713   1.428   4.666   1.170
10272SOL     OW31714   1.740   3.453   4.247
10272SOL    HW131715   1.724   3.466   4.149
10272SOL    HW231716   1.677   3.510   4.299
10273SOL     OW31717   4.677   6.851   3.788
10273SOL    HW131718   4.732   6.917   3.839
10273SOL    HW231719   4.728   6.823   3.706
10274SOL     OW31720   1.672   4.515   7.006
10274SOL    HW131721   1.591   4.535   0.040
10274SOL    HW231722   1.680   4.416   6.994
10275SOL     OW31723   0.069   5.727   1.874
10275SOL    HW131724   0.083   5.628   1.879
10275SOL    HW231725   0.012   5.756   1.951
10276SOL     OW31726   2.629   6.894   0.697
10276SOL    HW131727   2.615   6.924   0.603
10276SOL    HW231728   2.727   6.895   0.719
10277SOL     OW31729   6.366   5.474   1.950
10277SOL    HW131730   6.423   5.404   1.993
10277SOL    HW231731   6.425   5.541   1.904
10278SOL     OW31732   6.291   1.270   5.237
10278SOL    HW131733   6.335   1.344   5.288
10278SOL    HW231734   6.316   1.276   5.140
10279SOL     OW31735   4.053   6.411   4.088
10279SOL    HW131736   4.044   6.323   4.135
10279SOL    HW231737   3.979   6.421   4.022
10280SOL     OW31738   3.101   2.350   7.005
10280SOL    HW131739   3.049   2.302   6.935
10280SOL    HW231740   3.040   2.376   0.059
10281SOL     OW31741   4.394   1.168   4.295
10281SOL    HW131742   4.341   1.250   4.320
10281SOL    HW231743   4.401   1.108   4.375
10282SOL     OW31744   1.472   3.083   4.340
10282SOL    HW131745   1.452   3.065   4.436
10282SOL    HW231746   1.418   3.022   4.282
10283SOL     OW31747   1.458   5.416   6.589
10283SOL    HW131748   1.497   5.335   6.546
10283SOL    HW231749   1.430   5.480   6.517
10284SOL     OW31750   5.539   2.836   0.596
10284SOL    HW131751   5.454   2.788   0.576
10284SOL    HW231752   5.543   2.922   0.545
10285SOL     OW31753   4.624   1.486   0.440
10285SOL    HW131754   4.607   1.430   0.520
10285SOL    HW231755   4.577   1.447   0.361
10286SOL     OW31756   3.236   0.042   3.918
10286SOL    HW131757   3.175   0.026   3.996
10286SOL    HW231758   3.329   0.060   3.951
10287SOL     OW31759   2.084   3.792   2.315
10287SOL    HW131760   2.099   3.696   2.290
10287SOL    HW231761   1.993   3.803   2.353
10288SOL     OW31762   4.843   6.837   4.540
10288SOL    HW131763   4.860   6.766   4.608
10288SOL    HW231764   4.761   6.888   4.565
10289SOL     OW31765   2.602   1.694   2.296
10289SOL    HW131766   2.536   1.622   2.313
10289SOL    HW231767   2.595   1.725   2.201
10290SOL     OW31768   3.230   3.191   3.459
10290SOL    HW131769   3.163   3.184   3.533
10290SOL    HW231770   3.195   3.142   3.379
10291SOL     OW31771   4.265   0.128   3.593
10291SOL    HW131772   4.334   0.124   3.520
10291SOL    HW231773   4.224   0.037   3.605
10292SOL     OW31774   6.677   3.014   4.388
10292SOL    HW131775   6.651   2.996   4.293
10292SOL    HW231776   6.682   2.927   4.438
10293SOL     OW31777   1.684   4.654   3.247
10293SOL    HW131778   1.679   4.563   3.208
10293SOL    HW231779   1.778   4.673   3.275
10294SOL     OW31780   6.378   0.585   2.955
10294SOL    HW131781   6.338   0.512   2.900
10294SOL    HW231782   6.362   0.567   3.052
10295SOL     OW31783   1.742   4.059   3.218
10295SOL    HW131784   1.737   4.015   3.307
10295SOL    HW231785   1.836   4.088   3.200
10296SOL     OW31786   6.651   3.545   1.867
10296SOL    HW131787   6.721   3.615   1.880
10296SOL    HW231788   6.611   3.556   1.776
10297SOL     OW31789   3.700   4.523   5.673
10297SOL    HW131790   3.644   4.450   5.711
10297SOL    HW231791   3.641   4.601   5.650
10298SOL     OW31792   6.226   3.220   3.046
10298SOL    HW131793   6.194   3.225   2.951
10298SOL    HW231794   6.248   3.311   3.080
10299SOL     OW31795   4.328   5.329   2.220
10299SOL    HW131796   4.264   5.329   2.297
10299SOL    HW231797   4.294   5.269   2.148
10300SOL     OW31798   0.159   6.237   2.543
10300SOL    HW131799   0.140   6.149   2.500
10300SOL    HW231800   0.215   6.293   2.481
10301SOL     OW31801   4.310   1.112   1.908
10301SOL    HW131802   4.383   1.161   1.956
10301SOL    HW231803   4.223   1.130   1.952
10302SOL     OW31804   0.216   4.038   3.642
10302SOL    HW131805   0.203   3.950   3.595
10302SOL    HW231806   0.152   4.105   3.606
10303SOL     OW31807   4.802   3.811   1.163
10303SOL    HW131808   4.831   3.901   1.196
10303SOL    HW231809   4.865   3.781   1.091
10304SOL     OW31810   6.020   5.903   4.285
10304SOL    HW131811   6.074   5.957   4.220
10304SOL    HW231812   6.030   5.942   4.377
10305SOL     OW31813   1.826   5.130   1.102
10305SOL    HW131814   1.917   5.135   1.143
10305SOL    HW231815   1.791   5.223   1.087
10306SOL     OW31816   4.929   3.999   6.840
10306SOL    HW131817   4.940   4.097   6.856
10306SOL    HW231818   4.944   3.950   6.926
10307SOL     OW31819   3.075   2.285   5.948
10307SOL    HW131820   3.141   2.248   6.014
10307SOL    HW231821   3.123   2.309   5.863
10308SOL     OW31822   3.205   4.952   3.941
10308SOL    HW131823   3.222   4.965   3.843
10308SOL    HW231824   3.291   4.930   3.987
10309SOL     OW31825   0.128   6.591   3.812
10309SOL    HW131826   0.049   6.607   3.872
10309SOL    HW231827   0.109   6.631   3.722
10310SOL     OW31828   3.384   4.186   4.440
10310SOL    HW131829   3.389   4.260   4.372
10310SOL    HW231830   3.289   4.172   4.466
10311SOL     OW31831   1.634   0.069   0.345
10311SOL    HW131832   1.587   7.018   0.396
10311SOL    HW231833   1.612   0.060   0.248
10312SOL     OW31834   3.274   4.436   0.545
10312SOL    HW131835   3.358   4.440   0.599
10312SOL    HW231836   3.292   4.386   0.460
10313SOL     OW31837   6.644   5.682   3.561
10313SOL    HW131838   6.620   5.728   3.647
10313SOL    HW231839   6.602   5.732   3.485
10314SOL     OW31840   6.784   5.163   5.123
10314SOL    HW131841   6.741   5.253   5.120
10314SOL    HW231842   6.777   5.119   5.034
10315SOL     OW31843   4.138   5.546   5.506
10315SOL    HW131844   4.218   5.574   5.559
10315SOL    HW231845   4.055   5.568   5.558
10316SOL     OW31846   7.007   2.845   4.046
10316SOL    HW131847   7.017   2.755   4.089
10316SOL    HW231848   0.074   2.873   4.007
10317SOL     OW31849   6.060   4.332   5.934
10317SOL    HW131850   6.145   4.367   5.974
10317SOL    HW231851   6.046   4.373   5.844
10318SOL     OW31852   4.964   4.925   2.185
10318SOL    HW131853   4.949   5.010   2.235
10318SOL    HW231854   4.934   4.847   2.240
10319SOL     OW31855   5.849   6.533   3.478
10319SOL    HW131856   5.816   6.474   3.404
10319SOL    HW231857   5.915   6.482   3.533
10320SOL     OW31858   3.127   6.306   2.007
10320SOL    HW131859   3.058   6.378   2.014
10320SOL    HW231860   3.160   6.300   1.913
10321SOL     OW31861   4.867   6.584   5.162
10321SOL    HW131862   4.847   6.529   5.244
10321SOL    HW231863   4.785   6.589   5.104
10322SOL     OW31864   0.166   1.630   6.228
10322SOL    HW131865   0.230   1.707   6.222
10322SOL    HW231866   0.169   1.578   6.144
10323SOL     OW31867   0.420   2.047   5.307
10323SOL    HW131868   0.399   1.949   5.312
10323SOL    HW231869   0.445   2.071   5.213
10324SOL     OW31870   3.365   3.821   5.152
10324SOL    HW131871   3.375   3.919   5.170
10324SOL    HW231872   3.384   3.802   5.056
10325SOL     OW31873   0.702   3.245   3.830
10325SOL    HW131874   0.654   3.178   3.888
10325SOL    HW231875   0.729   3.323   3.886
10326SOL     OW31876   6.327   1.381   1.013
10326SOL    HW131877   6.312   1.472   1.051
10326SOL    HW231878   6.424   1.358   1.019
10327SOL     OW31879   6.356   2.021   3.714
10327SOL    HW131880   6.420   2.085   3.757
10327SOL    HW231881   6.309   2.066   3.639
10328SOL     OW31882   6.794   3.349   1.757
10328SOL    HW131883   6.867   3.399   1.710
10328SOL    HW231884   6.732   3.414   1.800
10329SOL     OW31885   2.675   5.629   2.661
10329SOL    HW131886   2.680   5.624   2.761
10329SOL    HW231887   2.598   5.686   2.634
10330SOL     OW31888   3.954   3.428   0.766
10330SOL    HW131889   4.010   3.385   0.836
10330SOL    HW231890   4.011   3.486   0.709
10331SOL     OW31891   5.134   1.950   4.395
10331SOL    HW131892   5.112   1.888   4.320
10331SOL    HW231893   5.147   1.898   4.479
10332SOL     OW31894   1.776   2.955   6.667
10332SOL    HW131895   1.686   2.987   6.693
10332SOL    HW231896   1.771   2.907   6.580
10333SOL     OW31897   0.046   4.583   5.258
10333SOL    HW131898   7.009   4.663   5.265
10333SOL    HW231899   0.142   4.612   5.258
10334SOL     OW31900   0.946   4.956   5.944
10334SOL    HW131901   0.858   5.001   5.928
10334SOL    HW231902   0.930   4.858   5.959
10335SOL     OW31903   2.678   4.889   2.578
10335SOL    HW131904   2.735   4.948   2.521
10335SOL    HW231905   2.678   4.796   2.541
10336SOL     OW31906   4.635   0.244   3.202
10336SOL    HW131907   4.702   0.183   3.244
10336SOL    HW231908   4.543   0.206   3.214
10337SOL     OW31909   1.463   3.370   5.774
10337SOL    HW131910   1.473   3.276   5.741
10337SOL    HW231911   1.548   3.400   5.817
10338SOL     OW31912   1.961   4.007   2.813
10338SOL    HW131913   1.885   3.971   2.868
10338SOL    HW231914   2.016   3.931   2.779
10339SOL     OW31915   3.526   6.597   6.825
10339SOL    HW131916   3.467   6.638   6.895
10339SOL    HW231917   3.483   6.514   6.789
10340SOL     OW31918   2.147   5.901   1.168
10340SOL    HW131919   2.144   5.807   1.203
10340SOL    HW231920   2.059   5.924   1.127
10341SOL     OW31921   6.908   2.763   1.522
10341SOL    HW131922   6.911   2.843   1.463
10341SOL    HW231923   6.961   2.780   1.605
10342SOL     OW31924   3.409   5.266   3.653
10342SOL    HW131925   3.345   5.288   3.726
10342SOL    HW231926   3.443   5.173   3.665
10343SOL     OW31927   2.799   2.311   4.351
10343SOL    HW131928   2.785   2.271   4.442
10343SOL    HW231929   2.809   2.410   4.360
10344SOL     OW31930   5.002   4.076   1.008
10344SOL    HW131931   4.956   4.140   0.947
10344SOL    HW231932   4.960   4.082   1.099
10345SOL     OW31933   2.915   2.030   6.133
10345SOL    HW131934   2.924   1.937   6.170
10345SOL    HW231935   2.989   2.047   6.069
10346SOL     OW31936   6.780   5.028   6.854
10346SOL    HW131937   6.799   5.126   6.862
10346SOL    HW231938   6.722   4.999   6.930
10347SOL     OW31939   3.903   6.688   2.469
10347SOL    HW131940   3.890   6.623   2.544
10347SOL    HW231941   3.997   6.683   2.435
10348SOL     OW31942   0.155   3.070   4.246
10348SOL    HW131943   0.094   2.996   4.274
10348SOL    HW231944   0.100   3.150   4.220
10349SOL     OW31945   6.020   1.781   0.157
10349SOL    HW131946   5.954   1.773   0.082
10349SOL    HW231947   6.093   1.843   0.131
10350SOL     OW31948   2.230   5.335   4.201
10350SOL    HW131949   2.234   5.377   4.111
10350SOL    HW231950   2.311   5.278   4.215
10351SOL     OW31951   4.202   5.844   5.331
10351SOL    HW131952   4.213   5.745   5.338
10351SOL    HW231953   4.105   5.867   5.326
10352SOL     OW31954   0.512   1.463   1.540
10352SOL    HW131955   0.525   1.368   1.512
10352SOL    HW231956   0.601   1.507   1.552
10353SOL     OW31957   5.286   2.748   3.440
10353SOL    HW131958   5.301   2.655   3.474
10353SOL    HW231959   5.333   2.761   3.353
10354SOL     OW31960   0.099   2.682   1.699
10354SOL    HW131961   0.045   2.602   1.673
10354SOL    HW231962   0.195   2.656   1.710
10355SOL     OW31963   6.411   1.723   0.627
10355SOL    HW131964   6.498   1.681   0.653
10355SOL    HW231965   6.389   1.697   0.533
10356SOL     OW31966   6.387   2.555   6.155
10356SOL    HW131967   6.391   2.647   6.196
10356SOL    HW231968   6.454   2.496   6.200
10357SOL     OW31969   0.214   6.435   6.503
10357SOL    HW131970   0.134   6.388   6.467
10357SOL    HW231971   0.217   6.425   6.602
10358SOL     OW31972   0.339   3.625   4.244
10358SOL    HW131973   0.417   3.590   4.193
10358SOL    HW231974   0.296   3.700   4.193
10359SOL     OW31975   1.060   2.762   2.009
10359SOL    HW131976   1.099   2.826   2.074
10359SOL    HW231977   0.984   2.713   2.051
10360SOL     OW31978   5.940   4.707   0.983
10360SOL    HW131979   5.906   4.620   1.018
10360SOL    HW231980   6.032   4.724   1.020
10361SOL     OW31981   5.959   1.952   3.711
10361SOL    HW131982   5.878   1.899   3.686
10361SOL    HW231983   5.942   2.049   3.691
10362SOL     OW31984   0.269   6.666   2.431
10362SOL    HW131985   0.246   6.692   2.338
10362SOL    HW231986   0.244   6.740   2.494
10363SOL     OW31987   5.401   5.150   6.388
10363SOL    HW131988   5.414   5.053   6.405
10363SOL    HW231989   5.388   5.198   6.475
10364SOL     OW31990   6.112   5.367   1.206
10364SOL    HW131991   6.153   5.282   1.237
10364SOL    HW231992   6.080   5.357   1.112
10365SOL     OW31993   6.012   6.094   6.491
10365SOL    HW131994   5.913   6.096   6.505
10365SOL    HW231995   6.052   6.179   6.526
10366SOL     OW31996   2.344   0.251   3.491
10366SOL    HW131997   2.387   0.311   3.424
10366SOL    HW231998   2.302   0.307   3.563
10367SOL     OW31999   4.079   6.202   2.396
10367SOL    HW132000   4.138   6.247   2.464
10367SOL    HW232001   4.111   6.225   2.304
10368SOL     OW32002   1.238   5.362   1.907
10368SOL    HW132003   1.225   5.276   1.856
10368SOL    HW232004   1.297   5.345   1.986
10369SOL     OW32005   2.711   0.884   5.686
10369SOL    HW132006   2.781   0.955   5.679
10369SOL    HW232007   2.631   0.921   5.732
10370SOL     OW32008   2.241   2.094   6.884
10370SOL    HW132009   2.205   2.187   6.875
10370SOL    HW232010   2.207   2.052   6.968
10371SOL     OW32011   3.967   5.482   2.432
10371SOL    HW132012   3.988   5.560   2.492
10371SOL    HW232013   3.873   5.453   2.447
10372SOL     OW32014   1.022   6.215   1.342
10372SOL    HW132015   1.009   6.142   1.275
10372SOL    HW232016   1.112   6.258   1.328
10373SOL     OW32017   6.564   0.668   5.296
10373SOL    HW132018   6.524   0.701   5.381
10373SOL    HW232019   6.653   0.625   5.315
10374SOL     OW32020   2.162   5.355   2.219
10374SOL    HW132021   2.253   5.316   2.230
10374SOL    HW232022   2.126   5.383   2.308
10375SOL     OW32023   2.521   5.791   6.450
10375SOL    HW132024   2.589   5.755   6.515
10375SOL    HW232025   2.568   5.840   6.377
10376SOL     OW32026   2.110   4.657   3.931
10376SOL    HW132027   2.116   4.720   3.854
10376SOL    HW232028   2.197   4.654   3.979
10377SOL     OW32029   3.201   1.056   3.875
10377SOL    HW132030   3.191   0.956   3.874
10377SOL    HW232031   3.119   1.097   3.916
10378SOL     OW32032   6.773   6.975   5.331
10378SOL    HW132033   6.772   6.932   5.422
10378SOL    HW232034   6.681   6.978   5.294
10379SOL     OW32035   0.924   5.183   3.039
10379SOL    HW132036   0.930   5.186   3.139
10379SOL    HW232037   0.950   5.272   3.002
10380SOL     OW32038   3.160   1.355   4.128
10380SOL    HW132039   3.114   1.271   4.157
10380SOL    HW232040   3.093   1.429   4.123
10381SOL     OW32041   2.315   6.786   3.642
10381SOL    HW132042   2.285   6.751   3.731
10381SOL    HW232043   2.395   6.844   3.654
10382SOL     OW32044   4.076   5.924   2.381
10382SOL    HW132045   4.075   6.023   2.363
10382SOL    HW232046   4.078   5.908   2.480
10383SOL     OW32047   0.473   6.846   0.108
10383SOL    HW132048   0.466   6.944   0.087
10383SOL    HW232049   0.446   6.830   0.203
10384SOL     OW32050   5.471   5.409   1.218
10384SOL    HW132051   5.459   5.311   1.233
10384SOL    HW232052   5.500   5.425   1.124
10385SOL     OW32053   3.761   4.287   6.443
10385SOL    HW132054   3.681   4.239   6.480
10385SOL    HW232055   3.769   4.269   6.345
10386SOL     OW32056   0.141   0.436   2.164
10386SOL    HW132057   0.080   0.358   2.148
10386SOL    HW232058   0.230   0.403   2.196
10387SOL     OW32059   5.707   0.939   2.019
10387SOL    HW132060   5.723   0.967   2.114
10387SOL    HW232061   5.616   0.899   2.012
10388SOL     OW32062   0.959   0.002   4.570
10388SOL    HW132063   0.917   0.091   4.554
10388SOL    HW232064   1.014   0.006   4.654
10389SOL     OW32065   0.449   3.914   0.523
10389SOL    HW132066   0.503   3.921   0.439
10389SOL    HW232067   0.489   3.974   0.593
10390SOL     OW32068   1.689   2.302   2.438
10390SOL    HW132069   1.748   2.296   2.518
10390SOL    HW232070   1.659   2.210   2.412
10391SOL     OW32071   6.334   0.103   3.454
10391SOL    HW132072   6.301   0.190   3.490
10391SOL    HW232073   6.352   0.113   3.356
10392SOL     OW32074   5.861   3.514   4.002
10392SOL    HW132075   5.923   3.492   4.077
10392SOL    HW232076   5.847   3.432   3.946
10393SOL     OW32077   1.780   2.524   1.200
10393SOL    HW132078   1.683   2.512   1.179
10393SOL    HW232079   1.793   2.610   1.250
10394SOL     OW32080   3.059   5.979   3.601
10394SOL    HW132081   2.986   6.033   3.558
10394SOL    HW232082   3.038   5.966   3.698
10395SOL     OW32083   0.602   1.210   1.486
10395SOL    HW132084   0.658   1.144   1.436
10395SOL    HW232085   0.533   1.162   1.540
10396SOL     OW32086   3.395   1.828   5.082
10396SOL    HW132087   3.413   1.888   5.005
10396SOL    HW232088   3.323   1.868   5.140
10397SOL     OW32089   4.855   1.622   3.937
10397SOL    HW132090   4.790   1.698   3.948
10397SOL    HW232091   4.833   1.550   4.003
10398SOL     OW32092   4.732   2.870   2.684
10398SOL    HW132093   4.718   2.849   2.587
10398SOL    HW232094   4.780   2.957   2.693
10399SOL     OW32095   1.088   3.282   1.938
10399SOL    HW132096   1.061   3.216   1.867
10399SOL    HW232097   1.045   3.370   1.919
10400SOL     OW32098   2.339   6.458   0.601
10400SOL    HW132099   2.389   6.533   0.645
10400SOL    HW232100   2.344   6.377   0.659
10401SOL     OW32101   6.360   1.083   5.462
10401SOL    HW132102   6.300   1.004   5.472
10401SOL    HW232103   6.338   1.132   5.378
10402SOL     OW32104   6.412   4.381   5.315
10402SOL    HW132105   6.488   4.323   5.287
10402SOL    HW232106   6.328   4.327   5.319
10403SOL     OW32107   3.565   6.968   1.249
10403SOL    HW132108   3.570   0.005   1.168
10403SOL    HW232109   3.608   7.016   1.326
10404SOL     OW32110   0.462   5.276   5.379
10404SOL    HW132111   0.423   5.234   5.297
10404SOL    HW232112   0.515   5.357   5.353
10405SOL     OW32113   0.393   1.325   6.980
10405SOL    HW132114   0.485   1.314   6.942
10405SOL    HW232115   0.338   1.245   6.959
10406SOL     OW32116   1.548   5.409   1.007
10406SOL    HW132117   1.644   5.425   1.031
10406SOL    HW232118   1.522   5.469   0.932
10407SOL     OW32119   2.015   5.564   0.061
10407SOL    HW132120   2.002   5.576   6.984
10407SOL    HW232121   2.098   5.612   0.089
10408SOL     OW32122   4.478   0.533   6.954
10408SOL    HW132123   4.462   0.629   6.974
10408SOL    HW232124   4.401   0.478   6.985
10409SOL     OW32125   6.580   3.772   0.283
10409SOL    HW132126   6.640   3.828   0.340
10409SOL    HW232127   6.582   3.678   0.315
10410SOL     OW32128   4.046   5.969   0.833
10410SOL    HW132129   4.096   5.928   0.909
10410SOL    HW232130   3.965   5.913   0.813
10411SOL     OW32131   1.337   5.092   4.234
10411SOL    HW132132   1.375   5.117   4.145
10411SOL    HW232133   1.365   5.160   4.302
10412SOL     OW32134   5.007   0.569   1.895
10412SOL    HW132135   4.930   0.541   1.953
10412SOL    HW232136   5.029   0.665   1.913
10413SOL     OW32137   6.050   3.144   1.485
10413SOL    HW132138   5.988   3.201   1.432
10413SOL    HW232139   6.001   3.108   1.565
10414SOL     OW32140   5.402   3.547   4.100
10414SOL    HW132141   5.437   3.583   4.014
10414SOL    HW232142   5.381   3.623   4.162
10415SOL     OW32143   0.652   0.612   0.046
10415SOL    HW132144   0.673   0.589   0.141
10415SOL    HW232145   0.729   0.588   7.009
10416SOL     OW32146   5.607   3.198   3.531
10416SOL    HW132147   5.560   3.284   3.550
10416SOL    HW232148   5.644   3.200   3.438
10417SOL     OW32149   1.718   4.012   1.965
10417SOL    HW132150   1.755   3.985   2.054
10417SOL    HW232151   1.621   3.989   1.961
10418SOL     OW32152   1.795   5.602   6.020
10418SOL    HW132153   1.803   5.510   6.057
10418SOL    HW232154   1.870   5.658   6.054
10419SOL     OW32155   1.250   0.799   6.541
10419SOL    HW132156   1.278   0.889   6.575
10419SOL    HW232157   1.150   0.795   6.537
10420SOL     OW32158   0.827   2.691   2.097
10420SOL    HW132159   0.765   2.645   2.161
10420SOL    HW232160   0.796   2.785   2.083
10421SOL     OW32161   0.753   1.832   2.813
10421SOL    HW132162   0.691   1.830   2.735
10421SOL    HW232163   0.800   1.920   2.817
10422SOL     OW32164   5.755   2.081   0.351
10422SOL    HW132165   5.788   1.993   0.318
10422SOL    HW232166   5.834   2.139   0.374
10423SOL     OW32167   4.657   5.557   2.659
10423SOL    HW132168   4.647   5.551   2.560
10423SOL    HW232169   4.677   5.467   2.697
10424SOL     OW32170   4.415   1.349   6.287
10424SOL    HW132171   4.507   1.322   6.256
10424SOL    HW232172   4.418   1.372   6.384
10425SOL     OW32173   1.855   6.898   1.771
10425SOL    HW132174   1.762   6.929   1.755
10425SOL    HW232175   1.882   6.836   1.696
10426SOL     OW32176   6.291   3.782   6.224
10426SOL    HW132177   6.319   3.693   6.187
10426SOL    HW232178   6.335   3.855   6.170
10427SOL     OW32179   4.866   1.114   1.242
10427SOL    HW132180   4.845   1.092   1.147
10427SOL    HW232181   4.868   1.213   1.253
10428SOL     OW32182   4.707   2.236   3.358
10428SOL    HW132183   4.698   2.271   3.265
10428SOL    HW232184   4.675   2.142   3.362
10429SOL     OW32185   5.480   5.413   2.528
10429SOL    HW132186   5.466   5.369   2.617
10429SOL    HW232187   5.482   5.513   2.541
10430SOL     OW32188   4.037   5.914   2.917
10430SOL    HW132189   3.960   5.961   2.959
10430SOL    HW232190   4.106   5.894   2.987
10431SOL     OW32191   3.036   1.687   5.574
10431SOL    HW132192   3.077   1.717   5.660
10431SOL    HW232193   3.015   1.589   5.579
10432SOL     OW32194   4.029   0.342   4.579
10432SOL    HW132195   4.112   0.398   4.587
10432SOL    HW232196   4.005   0.306   4.670
10433SOL     OW32197   2.510   6.017   1.743
10433SOL    HW132198   2.586   5.952   1.741
10433SOL    HW232199   2.430   5.975   1.700
10434SOL     OW32200   3.395   2.321   5.284
10434SOL    HW132201   3.400   2.237   5.230
10434SOL    HW232202   3.301   2.356   5.283
10435SOL     OW32203   5.565   5.482   6.196
10435SOL    HW132204   5.650   5.487   6.142
10435SOL    HW232205   5.537   5.386   6.205
10436SOL     OW32206   0.174   1.675   2.471
10436SOL    HW132207   0.079   1.672   2.439
10436SOL    HW232208   0.207   1.582   2.488
10437SOL     OW32209   1.016   3.002   0.042
10437SOL    HW132210   1.030   3.058   0.123
10437SOL    HW232211   0.971   2.916   0.068
10438SOL     OW32212   3.447   6.868   5.840
10438SOL    HW132213   3.446   6.796   5.910
10438SOL    HW232214   3.508   6.841   5.766
10439SOL     OW32215   3.430   0.275   5.612
10439SOL    HW132216   3.496   0.261   5.538
10439SOL    HW232217   3.383   0.189   5.631
10440SOL     OW32218   0.982   5.557   0.855
10440SOL    HW132219   1.005   5.522   0.945
10440SOL    HW232220   0.913   5.499   0.812
10441SOL     OW32221   4.114   6.638   1.063
10441SOL    HW132222   4.199   6.584   1.064
10441SOL    HW232223   4.088   6.656   0.968
10442SOL     OW32224   4.013   6.297   6.437
10442SOL    HW132225   3.954   6.337   6.366
10442SOL    HW232226   3.960   6.286   6.521
10443SOL     OW32227   6.809   2.638   5.212
10443SOL    HW132228   6.843   2.548   5.182
10443SOL    HW232229   6.771   2.687   5.133
10444SOL     OW32230   4.066   5.055   5.231
10444SOL    HW132231   4.059   4.997   5.150
10444SOL    HW232232   4.162   5.074   5.250
10445SOL     OW32233   6.470   6.298   1.963
10445SOL    HW132234   6.472   6.251   1.875
10445SOL    HW232235   6.558   6.287   2.008
10446SOL     OW32236   1.019   6.408   6.011
10446SOL    HW132237   1.100   6.362   6.045
10446SOL    HW232238   0.960   6.343   5.964
10447SOL     OW32239   5.041   2.181   6.876
10447SOL    HW132240   4.942   2.186   6.860
10447SOL    HW232241   5.063   2.093   6.919
10448SOL     OW32242   3.424   3.551   2.354
10448SOL    HW132243   3.444   3.529   2.449
10448SOL    HW232244   3.440   3.648   2.337
10449SOL     OW32245   1.491   5.409   5.045
10449SOL    HW132246   1.575   5.463   5.052
10449SOL    HW232247   1.413   5.470   5.032
10450SOL     OW32248   0.536   3.572   0.312
10450SOL    HW132249   0.491   3.498   0.362
10450SOL    HW232250   0.468   3.635   0.277
10451SOL     OW32251   2.283   4.335   2.369
10451SOL    HW132252   2.372   4.377   2.389
10451SOL    HW232253   2.298   4.244   2.330
10452SOL     OW32254   2.384   3.228   6.126
10452SOL    HW132255   2.330   3.271   6.054
10452SOL    HW232256   2.384   3.129   6.114
10453SOL     OW32257   5.160   0.811   1.935
10453SOL    HW132258   5.166   0.803   2.035
10453SOL    HW232259   5.242   0.857   1.900
10454SOL     OW32260   3.874   5.111   2.243
10454SOL    HW132261   3.893   5.209   2.244
10454SOL    HW232262   3.928   5.065   2.314
10455SOL     OW32263   1.243   4.886   3.470
10455SOL    HW132264   1.334   4.856   3.441
10455SOL    HW232265   1.174   4.835   3.419
10456SOL     OW32266   3.403   6.623   1.218
10456SOL    HW132267   3.357   6.585   1.298
10456SOL    HW232268   3.495   6.652   1.243
10457SOL     OW32269   3.765   2.927   4.748
10457SOL    HW132270   3.679   2.962   4.713
10457SOL    HW232271   3.780   2.834   4.714
10458SOL     OW32272   6.781   6.136   2.257
10458SOL    HW132273   6.786   6.132   2.356
10458SOL    HW232274   6.787   6.044   2.219
10459SOL     OW32275   0.051   5.275   1.334
10459SOL    HW132276   0.076   5.197   1.391
10459SOL    HW232277   0.006   5.243   1.250
10460SOL     OW32278   0.824   4.152   1.457
10460SOL    HW132279   0.869   4.211   1.390
10460SOL    HW232280   0.754   4.205   1.505
10461SOL     OW32281   3.544   0.501   6.501
10461SOL    HW132282   3.637   0.486   6.468
10461SOL    HW232283   3.514   0.423   6.555
10462SOL     OW32284   5.013   6.575   1.366
10462SOL    HW132285   5.043   6.617   1.451
10462SOL    HW232286   4.918   6.546   1.374
10463SOL     OW32287   4.415   3.207   0.685
10463SOL    HW132288   4.431   3.274   0.612
10463SOL    HW232289   4.500   3.195   0.737
10464SOL     OW32290   6.007   6.450   2.027
10464SOL    HW132291   5.941   6.422   2.097
10464SOL    HW232292   6.099   6.444   2.063
10465SOL     OW32293   0.214   4.876   5.097
10465SOL    HW132294   0.257   4.942   5.035
10465SOL    HW232295   0.157   4.813   5.045
10466SOL     OW32296   3.922   5.590   5.741
10466SOL    HW132297   3.878   5.507   5.707
10466SOL    HW232298   3.924   5.588   5.841
10467SOL     OW32299   4.271   1.625   4.199
10467SOL    HW132300   4.257   1.716   4.159
10467SOL    HW232301   4.183   1.578   4.204
10468SOL     OW32302   2.811   5.072   3.223
10468SOL    HW132303   2.903   5.095   3.254
10468SOL    HW232304   2.780   4.989   3.270
10469SOL     OW32305   1.135   4.596   6.071
10469SOL    HW132306   1.040   4.573   6.051
10469SOL    HW232307   1.182   4.623   5.986
10470SOL     OW32308   2.828   1.796   4.668
10470SOL    HW132309   2.815   1.837   4.577
10470SOL    HW232310   2.910   1.738   4.667
10471SOL     OW32311   4.802   4.509   6.951
10471SOL    HW132312   4.742   4.465   6.884
10471SOL    HW232313   4.747   4.554   7.021
10472SOL     OW32314   3.899   1.409   3.687
10472SOL    HW132315   3.816   1.355   3.696
10472SOL    HW232316   3.979   1.350   3.700
10473SOL     OW32317   4.965   4.747   6.637
10473SOL    HW132318   4.920   4.836   6.636
10473SOL    HW232319   5.050   4.752   6.585
10474SOL     OW32320   4.664   0.773   4.151
10474SOL    HW132321   4.674   0.808   4.058
10474SOL    HW232322   4.741   0.714   4.174
10475SOL     OW32323   3.950   6.446   1.454
10475SOL    HW132324   3.928   6.495   1.369
10475SOL    HW232325   4.048   6.453   1.473
10476SOL     OW32326   0.392   4.909   6.616
10476SOL    HW132327   0.399   4.875   6.710
10476SOL    HW232328   0.481   4.901   6.572
10477SOL     OW32329   4.774   4.692   5.266
10477SOL    HW132330   4.684   4.680   5.224
10477SOL    HW232331   4.844   4.685   5.195
10478SOL     OW32332   0.960   6.766   2.816
10478SOL    HW132333   0.897   6.701   2.860
10478SOL    HW232334   0.912   6.853   2.800
10479SOL     OW32335   0.957   3.917   2.574
10479SOL    HW132336   1.010   3.878   2.649
10479SOL    HW232337   0.860   3.905   2.591
10480SOL     OW32338   4.348   0.995   0.100
10480SOL    HW132339   4.407   0.942   0.039
10480SOL    HW232340   4.316   0.937   0.175
10481SOL     OW32341   3.190   1.686   3.635
10481SOL    HW132342   3.183   1.768   3.692
10481SOL    HW232343   3.285   1.655   3.632
10482SOL     OW32344   0.834   6.464   6.438
10482SOL    HW132345   0.809   6.406   6.516
10482SOL    HW232346   0.807   6.418   6.354
10483SOL     OW32347   1.029   6.056   1.117
10483SOL    HW132348   1.074   6.008   1.042
10483SOL    HW232349   0.990   6.142   1.083
10484SOL     OW32350   6.491   1.693   1.744
10484SOL    HW132351   6.572   1.668   1.797
10484SOL    HW232352   6.409   1.659   1.792
10485SOL     OW32353   3.618   4.212   4.915
10485SOL    HW132354   3.576   4.300   4.936
10485SOL    HW232355   3.556   4.157   4.859
10486SOL     OW32356   6.014   4.591   5.343
10486SOL    HW132357   5.944   4.621   5.408
10486SOL    HW232358   6.035   4.494   5.358
10487SOL     OW32359   5.427   3.733   2.826
10487SOL    HW132360   5.514   3.757   2.784
10487SOL    HW232361   5.396   3.809   2.883
10488SOL     OW32362   0.351   2.609   5.528
10488SOL    HW132363   0.310   2.597   5.438
10488SOL    HW232364   0.425   2.543   5.541
10489SOL     OW32365   5.931   4.593   2.941
10489SOL    HW132366   5.975   4.681   2.925
10489SOL    HW232367   5.842   4.592   2.895
10490SOL     OW32368   5.010   6.496   6.109
10490SOL    HW132369   5.074   6.533   6.041
10490SOL    HW232370   5.038   6.525   6.200
10491SOL     OW32371   2.523   1.541   5.583
10491SOL    HW132372   2.600   1.590   5.543
10491SOL    HW232373   2.545   1.512   5.676
10492SOL     OW32374   3.291   6.608   6.974
10492SOL    HW132375   3.288   6.676   0.026
10492SOL    HW232376   3.282   6.516   7.013
10493SOL     OW32377   3.482   6.313   0.695
10493SOL    HW132378   3.461   6.319   0.597
10493SOL    HW232379   3.532   6.228   0.713
10494SOL     OW32380   0.186   5.190   3.463
10494SOL    HW132381   0.129   5.151   3.536
10494SOL    HW232382   0.255   5.250   3.503
10495SOL     OW32383   6.455   6.287   6.885
10495SOL    HW132384   6.423   6.375   6.921
10495SOL    HW232385   6.454   6.219   6.958
10496SOL     OW32386   0.527   4.321   6.024
10496SOL    HW132387   0.458   4.383   6.063
10496SOL    HW232388   0.606   4.317   6.085
10497SOL     OW32389   3.955   6.457   0.200
10497SOL    HW132390   3.904   6.435   0.283
10497SOL    HW232391   4.038   6.403   0.196
10498SOL     OW32392   3.205   3.914   0.071
10498SOL    HW132393   3.135   3.980   0.043
10498SOL    HW232394   3.170   3.821   0.061
10499SOL     OW32395   4.118   4.703   3.246
10499SOL    HW132396   4.214   4.683   3.268
10499SOL    HW232397   4.095   4.664   3.157
10500SOL     OW32398   2.093   2.874   5.467
10500SOL    HW132399   2.124   2.811   5.538
10500SOL    HW232400   2.155   2.869   5.388
10501SOL     OW32401   3.813   5.069   3.129
10501SOL    HW132402   3.880   4.996   3.144
10501SOL    HW232403   3.728   5.029   3.094
10502SOL     OW32404   3.343   3.359   2.882
10502SOL    HW132405   3.269   3.376   2.817
10502SOL    HW232406   3.343   3.431   2.952
10503SOL     OW32407   6.716   6.546   0.803
10503SOL    HW132408   6.654   6.495   0.743
10503SOL    HW232409   6.662   6.594   0.872
10504SOL     OW32410   1.613   2.874   5.844
10504SOL    HW132411   1.570   2.829   5.922
10504SOL    HW232412   1.712   2.876   5.856
10505SOL     OW32413   5.772   6.339   1.846
10505SOL    HW132414   5.689   6.394   1.835
10505SOL    HW232415   5.835   6.385   1.909
10506SOL     OW32416   0.744   5.099   5.807
10506SOL    HW132417   0.681   5.026   5.834
10506SOL    HW232418   0.699   5.159   5.741
10507SOL     OW32419   1.712   6.337   6.071
10507SOL    HW132420   1.797   6.353   6.121
10507SOL    HW232421   1.726   6.261   6.007
10508SOL     OW32422   1.938   6.208   1.302
10508SOL    HW132423   1.909   6.297   1.269
10508SOL    HW232424   1.977   6.217   1.394
10509SOL     OW32425   4.901   3.638   1.984
10509SOL    HW132426   4.834   3.684   1.925
10509SOL    HW232427   4.870   3.545   2.004
10510SOL     OW32428   5.296   6.110   2.034
10510SOL    HW132429   5.198   6.117   2.014
10510SOL    HW232430   5.330   6.022   2.002
10511SOL     OW32431   3.983   1.642   0.704
10511SOL    HW132432   3.977   1.591   0.790
10511SOL    HW232433   3.908   1.709   0.700
10512SOL     OW32434   3.653   0.006   5.101
10512SOL    HW132435   3.641   0.105   5.108
10512SOL    HW232436   3.572   6.987   5.058
10513SOL     OW32437   3.769   3.344   0.434
10513SOL    HW132438   3.696   3.412   0.426
10513SOL    HW232439   3.771   3.308   0.527
10514SOL     OW32440   1.463   4.820   1.582
10514SOL    HW132441   1.433   4.829   1.677
10514SOL    HW232442   1.388   4.783   1.526
10515SOL     OW32443   2.117   3.840   5.134
10515SOL    HW132444   2.203   3.891   5.127
10515SOL    HW232445   2.135   3.743   5.116
10516SOL     OW32446   5.424   2.167   1.807
10516SOL    HW132447   5.460   2.107   1.879
10516SOL    HW232448   5.325   2.158   1.803
10517SOL     OW32449   6.960   2.267   2.340
10517SOL    HW132450   0.034   2.297   2.329
10517SOL    HW232451   6.957   2.192   2.406
10518SOL     OW32452   0.696   5.607   2.726
10518SOL    HW132453   0.650   5.524   2.758
10518SOL    HW232454   0.633   5.661   2.670
10519SOL     OW32455   1.933   6.738   0.401
10519SOL    HW132456   1.891   6.825   0.426
10519SOL    HW232457   1.996   6.709   0.474
10520SOL     OW32458   3.187   2.640   6.058
10520SOL    HW132459   3.115   2.578   6.026
10520SOL    HW232460   3.149   2.702   6.126
10521SOL     OW32461   5.952   2.061   2.534
10521SOL    HW132462   5.999   1.982   2.497
10521SOL    HW232463   5.879   2.031   2.596
10522SOL     OW32464   5.083   1.574   3.095
10522SOL    HW132465   5.058   1.577   2.998
10522SOL    HW232466   5.000   1.562   3.150
10523SOL     OW32467   0.456   4.029   1.281
10523SOL    HW132468   0.444   4.041   1.379
10523SOL    HW232469   0.375   4.063   1.233
10524SOL     OW32470   6.113   6.698   4.579
10524SOL    HW132471   6.082   6.719   4.487
10524SOL    HW232472   6.114   6.781   4.634
10525SOL     OW32473   5.218   2.233   3.311
10525SOL    HW132474   5.228   2.143   3.354
10525SOL    HW232475   5.130   2.238   3.264
10526SOL     OW32476   1.717   5.805   5.841
10526SOL    HW132477   1.747   5.728   5.897
10526SOL    HW232478   1.782   5.817   5.765
10527SOL     OW32479   0.324   6.507   5.813
10527SOL    HW132480   0.394   6.469   5.874
10527SOL    HW232481   0.309   6.603   5.836
10528SOL     OW32482   2.373   6.141   5.466
10528SOL    HW132483   2.436   6.202   5.418
10528SOL    HW232484   2.293   6.124   5.408
10529SOL     OW32485   6.861   4.942   6.589
10529SOL    HW132486   6.832   4.957   6.684
10529SOL    HW232487   6.780   4.924   6.533
10530SOL     OW32488   5.844   0.590   1.264
10530SOL    HW132489   5.844   0.501   1.220
10530SOL    HW232490   5.872   0.580   1.360
10531SOL     OW32491   3.377   1.217   6.614
10531SOL    HW132492   3.374   1.208   6.714
10531SOL    HW232493   3.468   1.245   6.585
10532SOL     OW32494   4.456   5.484   5.850
10532SOL    HW132495   4.443   5.540   5.932
10532SOL    HW232496   4.447   5.387   5.875
10533SOL     OW32497   4.433   6.597   3.854
10533SOL    HW132498   4.472   6.539   3.784
10533SOL    HW232499   4.441   6.693   3.827
10534SOL     OW32500   0.728   6.447   4.781
10534SOL    HW132501   0.778   6.361   4.773
10534SOL    HW232502   0.657   6.450   4.710
10535SOL     OW32503   4.003   1.474   2.301
10535SOL    HW132504   4.078   1.409   2.313
10535SOL    HW232505   3.937   1.462   2.375
10536SOL     OW32506   5.809   3.573   4.340
10536SOL    HW132507   5.880   3.519   4.294
10536SOL    HW232508   5.759   3.627   4.272
10537SOL     OW32509   3.082   1.433   2.922
10537SOL    HW132510   3.157   1.458   2.860
10537SOL    HW232511   3.116   1.431   3.016
10538SOL     OW32512   6.310   2.989   3.574
10538SOL    HW132513   6.384   2.926   3.596
10538SOL    HW232514   6.314   3.068   3.636
10539SOL     OW32515   6.957   0.226   1.821
10539SOL    HW132516   6.978   0.154   1.755
10539SOL    HW232517   6.945   0.313   1.773
10540SOL     OW32518   1.613   2.511   6.349
10540SOL    HW132519   1.700   2.555   6.329
10540SOL    HW232520   1.621   2.413   6.334
10541SOL     OW32521   3.800   2.650   6.316
10541SOL    HW132522   3.730   2.599   6.366
10541SOL    HW232523   3.837   2.722   6.375
10542SOL     OW32524   3.729   6.589   2.271
10542SOL    HW132525   3.639   6.625   2.296
10542SOL    HW232526   3.794   6.606   2.345
10543SOL     OW32527   1.148   2.897   4.570
10543SOL    HW132528   1.227   2.858   4.618
10543SOL    HW232529   1.113   2.829   4.505
10544SOL     OW32530   3.070   2.183   2.255
10544SOL    HW132531   3.021   2.117   2.312
10544SOL    HW232532   3.006   2.225   2.191
10545SOL     OW32533   1.091   3.357   1.130
10545SOL    HW132534   1.106   3.369   1.228
10545SOL    HW232535   1.104   3.445   1.083
10546SOL     OW32536   1.557   0.336   5.481
10546SOL    HW132537   1.621   0.301   5.548
10546SOL    HW232538   1.559   0.278   5.399
10547SOL     OW32539   3.067   5.612   6.575
10547SOL    HW132540   3.131   5.687   6.562
10547SOL    HW232541   3.068   5.585   6.672
10548SOL     OW32542   1.563   5.021   2.814
10548SOL    HW132543   1.467   4.994   2.816
10548SOL    HW232544   1.620   4.941   2.830
10549SOL     OW32545   6.877   1.283   2.546
10549SOL    HW132546   6.779   1.301   2.559
10549SOL    HW232547   6.890   1.234   2.460
10550SOL     OW32548   0.048   4.781   2.800
10550SOL    HW132549   0.084   4.874   2.813
10550SOL    HW232550   6.970   4.782   2.813
10551SOL     OW32551   4.942   0.495   4.446
10551SOL    HW132552   4.889   0.424   4.398
10551SOL    HW232553   5.029   0.457   4.476
10552SOL     OW32554   2.616   0.203   3.560
10552SOL    HW132555   2.657   0.155   3.483
10552SOL    HW232556   2.523   0.230   3.537
10553SOL     OW32557   5.559   5.671   1.444
10553SOL    HW132558   5.528   5.741   1.381
10553SOL    HW232559   5.559   5.582   1.399
10554SOL     OW32560   5.457   5.902   1.276
10554SOL    HW132561   5.363   5.930   1.294
10554SOL    HW232562   5.519   5.960   1.329
10555SOL     OW32563   3.475   3.179   2.030
10555SOL    HW132564   3.553   3.236   2.003
10555SOL    HW232565   3.452   3.197   2.126
10556SOL     OW32566   2.336   2.131   1.959
10556SOL    HW132567   2.296   2.181   1.882
10556SOL    HW232568   2.368   2.196   2.028
10557SOL     OW32569   0.665   4.076   3.004
10557SOL    HW132570   0.739   4.013   3.028
10557SOL    HW232571   0.613   4.098   3.086
10558SOL     OW32572   4.828   5.172   4.460
10558SOL    HW132573   4.921   5.154   4.427
10558SOL    HW232574   4.771   5.203   4.383
10559SOL     OW32575   3.782   5.711   1.538
10559SOL    HW132576   3.836   5.713   1.454
10559SOL    HW232577   3.688   5.736   1.518
10560SOL     OW32578   6.181   0.147   4.212
10560SOL    HW132579   6.157   0.050   4.209
10560SOL    HW232580   6.099   0.202   4.191
10561SOL     OW32581   0.764   5.745   5.458
10561SOL    HW132582   0.713   5.733   5.373
10561SOL    HW232583   0.718   5.813   5.516
10562SOL     OW32584   2.970   1.239   2.691
10562SOL    HW132585   2.928   1.198   2.772
10562SOL    HW232586   3.005   1.330   2.713
10563SOL     OW32587   1.343   5.346   2.180
10563SOL    HW132588   1.396   5.271   2.219
10563SOL    HW232589   1.357   5.428   2.235
10564SOL     OW32590   5.258   5.342   3.030
10564SOL    HW132591   5.160   5.320   3.030
10564SOL    HW232592   5.309   5.261   3.001
10565SOL     OW32593   6.705   1.042   4.637
10565SOL    HW132594   6.667   0.969   4.581
10565SOL    HW232595   6.669   1.131   4.607
10566SOL     OW32596   3.406   1.389   0.478
10566SOL    HW132597   3.316   1.390   0.520
10566SOL    HW232598   3.476   1.405   0.547
10567SOL     OW32599   3.283   1.660   6.603
10567SOL    HW132600   3.253   1.600   6.677
10567SOL    HW232601   3.301   1.752   6.639
10568SOL     OW32602   5.890   1.740   6.921
10568SOL    HW132603   5.852   1.817   6.971
10568SOL    HW232604   5.870   1.749   6.824
10569SOL     OW32605   3.839   0.495   1.507
10569SOL    HW132606   3.806   0.419   1.562
10569SOL    HW232607   3.764   0.558   1.489
10570SOL     OW32608   1.251   4.260   3.008
10570SOL    HW132609   1.212   4.328   3.069
10570SOL    HW232610   1.344   4.237   3.039
10571SOL     OW32611   0.470   3.925   4.751
10571SOL    HW132612   0.413   3.889   4.677
10571SOL    HW232613   0.461   4.025   4.753
10572SOL     OW32614   0.219   5.565   0.977
10572SOL    HW132615   0.242   5.473   1.010
10572SOL    HW232616   0.153   5.558   0.902
10573SOL     OW32617   6.004   2.223   3.417
10573SOL    HW132618   5.920   2.224   3.471
10573SOL    HW232619   5.982   2.211   3.320
10574SOL     OW32620   5.127   2.193   2.825
10574SOL    HW132621   5.153   2.099   2.850
10574SOL    HW232622   5.094   2.193   2.730
10575SOL     OW32623   5.112   6.995   2.680
10575SOL    HW132624   5.126   0.063   2.638
10575SOL    HW232625   5.023   6.958   2.652
10576SOL     OW32626   1.309   2.913   5.297
10576SOL    HW132627   1.331   2.980   5.368
10576SOL    HW232628   1.255   2.839   5.336
10577SOL     OW32629   4.509   4.517   6.503
10577SOL    HW132630   4.482   4.597   6.449
10577SOL    HW232631   4.461   4.436   6.469
10578SOL     OW32632   1.316   3.133   2.051
10578SOL    HW132633   1.286   3.046   2.090
10578SOL    HW232634   1.237   3.191   2.032
10579SOL     OW32635   0.149   3.300   0.314
10579SOL    HW132636   0.228   3.353   0.345
10579SOL    HW232637   0.161   3.275   0.218
10580SOL     OW32638   5.035   6.851   5.975
10580SOL    HW132639   4.943   6.861   6.011
10580SOL    HW232640   5.093   6.924   6.011
10581SOL     OW32641   4.091   0.449   2.621
10581SOL    HW132642   4.102   0.355   2.589
10581SOL    HW232643   4.181   0.494   2.626
10582SOL     OW32644   6.784   3.621   0.450
10582SOL    HW132645   6.852   3.569   0.503
10582SOL    HW232646   6.712   3.559   0.419
10583SOL     OW32647   3.893   2.034   5.982
10583SOL    HW132648   3.927   2.040   6.076
10583SOL    HW232649   3.877   1.938   5.959
10584SOL     OW32650   6.488   0.344   3.707
10584SOL    HW132651   6.517   0.411   3.774
10584SOL    HW232652   6.487   0.253   3.748
10585SOL     OW32653   1.453   0.965   4.985
10585SOL    HW132654   1.521   1.031   4.955
10585SOL    HW232655   1.489   0.872   4.972
10586SOL     OW32656   4.853   3.754   6.337
10586SOL    HW132657   4.906   3.727   6.256
10586SOL    HW232658   4.828   3.672   6.389
10587SOL     OW32659   2.218   5.182   5.456
10587SOL    HW132660   2.301   5.217   5.500
10587SOL    HW232661   2.166   5.128   5.523
10588SOL     OW32662   1.320   4.477   4.146
10588SOL    HW132663   1.261   4.427   4.209
10588SOL    HW232664   1.353   4.415   4.075
10589SOL     OW32665   6.086   0.770   3.340
10589SOL    HW132666   6.071   0.868   3.327
10589SOL    HW232667   6.048   0.720   3.263
10590SOL     OW32668   0.078   6.286   2.229
10590SOL    HW132669   0.045   6.194   2.209
10590SOL    HW232670   0.173   6.295   2.199
10591SOL     OW32671   0.188   4.471   2.480
10591SOL    HW132672   0.280   4.499   2.452
10591SOL    HW232673   0.140   4.432   2.402
10592SOL     OW32674   6.392   3.966   4.994
10592SOL    HW132675   6.351   3.985   4.905
10592SOL    HW232676   6.464   4.033   5.012
10593SOL     OW32677   3.839   5.490   2.998
10593SOL    HW132678   3.913   5.541   2.952
10593SOL    HW232679   3.765   5.553   3.021
10594SOL     OW32680   3.995   5.658   3.902
10594SOL    HW132681   4.052   5.673   3.822
10594SOL    HW232682   4.030   5.579   3.954
10595SOL     OW32683   5.993   5.471   0.390
10595SOL    HW132684   5.951   5.545   0.337
10595SOL    HW232685   6.033   5.404   0.328
10596SOL     OW32686   5.937   3.733   0.602
10596SOL    HW132687   5.924   3.669   0.526
10596SOL    HW232688   6.005   3.802   0.577
10597SOL     OW32689   1.075   6.637   5.062
10597SOL    HW132690   1.130   6.554   5.048
10597SOL    HW232691   1.057   6.649   5.160
10598SOL     OW32692   2.894   1.470   1.134
10598SOL    HW132693   2.838   1.540   1.179
10598SOL    HW232694   2.925   1.403   1.202
10599SOL     OW32695   0.635   1.717   0.759
10599SOL    HW132696   0.616   1.772   0.677
10599SOL    HW232697   0.729   1.732   0.788
10600SOL     OW32698   4.353   1.080   2.235
10600SOL    HW132699   4.408   1.149   2.187
10600SOL    HW232700   4.406   0.996   2.245
10601SOL     OW32701   1.727   2.017   5.400
10601SOL    HW132702   1.771   1.983   5.483
10601SOL    HW232703   1.685   2.106   5.419
10602SOL     OW32704   6.967   7.003   1.137
10602SOL    HW132705   6.894   6.990   1.204
10602SOL    HW232706   0.034   6.984   1.180
10603SOL     OW32707   5.352   0.480   2.761
10603SOL    HW132708   5.334   0.513   2.669
10603SOL    HW232709   5.408   0.397   2.758
10604SOL     OW32710   5.573   2.090   4.763
10604SOL    HW132711   5.574   2.168   4.701
10604SOL    HW232712   5.656   2.090   4.819
10605SOL     OW32713   4.750   1.780   1.059
10605SOL    HW132714   4.815   1.848   1.026
10605SOL    HW232715   4.709   1.733   0.981
10606SOL     OW32716   5.893   1.464   1.024
10606SOL    HW132717   5.974   1.422   0.985
10606SOL    HW232718   5.851   1.524   0.956
10607SOL     OW32719   2.066   5.173   1.241
10607SOL    HW132720   2.075   5.163   1.340
10607SOL    HW232721   2.130   5.242   1.208
10608SOL     OW32722   5.423   4.100   2.373
10608SOL    HW132723   5.426   4.052   2.461
10608SOL    HW232724   5.351   4.061   2.316
10609SOL     OW32725   5.841   6.272   6.795
10609SOL    HW132726   5.791   6.357   6.778
10609SOL    HW232727   5.815   6.204   6.725
10610SOL     OW32728   0.439   2.123   3.233
10610SOL    HW132729   0.433   2.041   3.291
10610SOL    HW232730   0.425   2.097   3.137
10611SOL     OW32731   4.176   5.586   6.239
10611SOL    HW132732   4.111   5.510   6.235
10611SOL    HW232733   4.209   5.598   6.332
10612SOL     OW32734   5.236   2.400   3.739
10612SOL    HW132735   5.148   2.412   3.784
10612SOL    HW232736   5.227   2.422   3.642
10613SOL     OW32737   5.512   4.982   5.728
10613SOL    HW132738   5.528   5.006   5.823
10613SOL    HW232739   5.597   4.992   5.676
10614SOL     OW32740   4.216   1.905   0.221
10614SOL    HW132741   4.159   1.923   0.141
10614SOL    HW232742   4.190   1.817   0.262
10615SOL     OW32743   3.403   2.501   5.942
10615SOL    HW132744   3.359   2.469   5.858
10615SOL    HW232745   3.337   2.554   5.995
10616SOL     OW32746   1.314   5.536   0.215
10616SOL    HW132747   1.395   5.585   0.250
10616SOL    HW232748   1.235   5.597   0.218
10617SOL     OW32749   2.267   3.403   0.004
10617SOL    HW132750   2.288   3.379   6.931
10617SOL    HW232751   2.168   3.399   0.019
10618SOL     OW32752   6.941   4.774   4.759
10618SOL    HW132753   0.016   4.766   4.785
10618SOL    HW232754   6.922   4.714   4.681
10619SOL     OW32755   1.143   2.555   0.862
10619SOL    HW132756   1.102   2.643   0.887
10619SOL    HW232757   1.241   2.557   0.880
10620SOL     OW32758   4.223   1.205   5.647
10620SOL    HW132759   4.320   1.224   5.665
10620SOL    HW232760   4.180   1.285   5.605
10621SOL     OW32761   0.668   5.013   4.732
10621SOL    HW132762   0.601   5.018   4.658
10621SOL    HW232763   0.760   5.000   4.694
10622SOL     OW32764   3.915   2.107   6.268
10622SOL    HW132765   3.951   2.045   6.338
10622SOL    HW232766   3.846   2.167   6.309
10623SOL     OW32767   5.058   4.648   5.138
10623SOL    HW132768   5.068   4.687   5.229
10623SOL    HW232769   5.108   4.704   5.072
10624SOL     OW32770   0.358   1.162   5.569
10624SOL    HW132771   0.399   1.218   5.497
10624SOL    HW232772   0.408   1.075   5.576
10625SOL     OW32773   6.168   5.664   6.747
10625SOL    HW132774   6.215   5.610   6.817
10625SOL    HW232775   6.221   5.747   6.728
10626SOL     OW32776   5.657   3.577   1.803
10626SOL    HW132777   5.618   3.623   1.883
10626SOL    HW232778   5.725   3.511   1.834
10627SOL     OW32779   5.108   5.090   4.961
10627SOL    HW132780   5.031   5.146   4.930
10627SOL    HW232781   5.143   5.127   5.047
10628SOL     OW32782   2.693   6.286   1.845
10628SOL    HW132783   2.749   6.255   1.922
10628SOL    HW232784   2.688   6.214   1.776
10629SOL     OW32785   4.559   5.871   4.167
10629SOL    HW132786   4.528   5.966   4.182
10629SOL    HW232787   4.594   5.862   4.074
10630SOL     OW32788   4.206   0.606   1.714
10630SOL    HW132789   4.261   0.545   1.657
10630SOL    HW232790   4.255   0.626   1.799
10631SOL     OW32791   3.733   6.338   2.187
10631SOL    HW132792   3.787   6.300   2.112
10631SOL    HW232793   3.746   6.437   2.191
10632SOL     OW32794   5.477   0.675   4.697
10632SOL    HW132795   5.404   0.713   4.640
10632SOL    HW232796   5.507   0.588   4.658
10633SOL     OW32797   2.966   3.326   0.402
10633SOL    HW132798   2.947   3.229   0.392
10633SOL    HW232799   2.955   3.353   0.498
10634SOL     OW32800   0.938   4.436   0.323
10634SOL    HW132801   1.025   4.461   0.281
10634SOL    HW232802   0.863   4.455   0.259
10635SOL     OW32803   2.935   4.246   6.823
10635SOL    HW132804   2.856   4.302   6.850
10635SOL    HW232805   2.913   4.195   6.739
10636SOL     OW32806   7.018   2.341   0.560
10636SOL    HW132807   0.003   2.250   0.518
10636SOL    HW232808   6.934   2.347   0.614
10637SOL     OW32809   1.830   6.985   5.659
10637SOL    HW132810   1.850   7.019   5.751
10637SOL    HW232811   1.869   6.893   5.648
10638SOL     OW32812   5.810   4.776   6.718
10638SOL    HW132813   5.879   4.706   6.704
10638SOL    HW232814   5.794   4.826   6.633
10639SOL     OW32815   6.719   5.306   6.878
10639SOL    HW132816   6.666   5.293   6.963
10639SOL    HW232817   6.669   5.264   6.802
10640SOL     OW32818   4.054   5.575   4.758
10640SOL    HW132819   4.011   5.486   4.777
10640SOL    HW232820   4.090   5.612   4.844
10641SOL     OW32821   1.213   1.395   3.891
10641SOL    HW132822   1.156   1.316   3.913
10641SOL    HW232823   1.233   1.446   3.975
10642SOL     OW32824   7.003   2.143   5.817
10642SOL    HW132825   0.013   2.214   5.754
10642SOL    HW232826   0.059   2.108   5.869
10643SOL     OW32827   3.101   5.447   4.713
10643SOL    HW132828   3.098   5.370   4.649
10643SOL    HW232829   3.060   5.419   4.800
10644SOL     OW32830   1.371   3.525   3.533
10644SOL    HW132831   1.295   3.503   3.594
10644SOL    HW232832   1.440   3.578   3.583
10645SOL     OW32833   2.060   3.243   3.724
10645SOL    HW132834   2.141   3.227   3.781
10645SOL    HW232835   1.979   3.248   3.781
10646SOL     OW32836   5.435   1.513   3.305
10646SOL    HW132837   5.375   1.584   3.344
10646SOL    HW232838   5.526   1.520   3.348
10647SOL     OW32839   4.593   5.851   4.651
10647SOL    HW132840   4.553   5.762   4.631
10647SOL    HW232841   4.659   5.875   4.579
10648SOL     OW32842   4.750   3.631   5.932
10648SOL    HW132843   4.673   3.567   5.932
10648SOL    HW232844   4.801   3.622   5.846
10649SOL     OW32845   6.144   3.238   3.340
10649SOL    HW132846   6.236   3.269   3.362
10649SOL    HW232847   6.142   3.138   3.342
10650SOL     OW32848   1.032   0.194   3.140
10650SOL    HW132849   1.020   0.099   3.113
10650SOL    HW232850   1.103   0.236   3.083
10651SOL     OW32851   2.307   5.876   5.027
10651SOL    HW132852   2.257   5.867   4.941
10651SOL    HW232853   2.318   5.785   5.069
10652SOL     OW32854   2.822   0.518   0.029
10652SOL    HW132855   2.892   0.448   0.043
10652SOL    HW232856   2.857   0.607   0.058
10653SOL     OW32857   5.948   6.190   4.608
10653SOL    HW132858   5.952   6.289   4.622
10653SOL    HW232859   5.856   6.165   4.578
10654SOL     OW32860   0.137   1.561   3.722
10654SOL    HW132861   0.192   1.567   3.639
10654SOL    HW232862   0.058   1.501   3.706
10655SOL     OW32863   6.065   4.809   0.409
10655SOL    HW132864   6.150   4.771   0.446
10655SOL    HW232865   6.068   4.805   0.309
10656SOL     OW32866   5.701   0.406   5.856
10656SOL    HW132867   5.794   0.383   5.882
10656SOL    HW232868   5.670   0.344   5.783
10657SOL     OW32869   4.322   6.881   5.358
10657SOL    HW132870   4.231   6.839   5.366
10657SOL    HW232871   4.381   6.822   5.302
10658SOL     OW32872   1.634   1.186   5.529
10658SOL    HW132873   1.547   1.215   5.488
10658SOL    HW232874   1.709   1.223   5.475
10659SOL     OW32875   0.702   5.323   6.816
10659SOL    HW132876   0.690   5.422   6.816
10659SOL    HW232877   0.625   5.281   6.767
10660SOL     OW32878   6.007   2.110   6.357
10660SOL    HW132879   6.089   2.148   6.315
10660SOL    HW232880   6.029   2.021   6.398
10661SOL     OW32881   3.546   5.656   5.567
10661SOL    HW132882   3.579   5.635   5.659
10661SOL    HW232883   3.616   5.632   5.500
10662SOL     OW32884   3.776   1.837   0.782
10662SOL    HW132885   3.814   1.848   0.874
10662SOL    HW232886   3.729   1.921   0.755
10663SOL     OW32887   6.543   3.110   3.726
10663SOL    HW132888   6.566   3.165   3.645
10663SOL    HW232889   6.535   3.170   3.805
10664SOL     OW32890   1.224   6.512   4.716
10664SOL    HW132891   1.290   6.491   4.644
10664SOL    HW232892   1.154   6.574   4.679
10665SOL     OW32893   4.390   3.474   0.567
10665SOL    HW132894   4.373   3.510   0.658
10665SOL    HW232895   4.308   3.484   0.510
10666SOL     OW32896   5.115   3.120   1.810
10666SOL    HW132897   5.050   3.065   1.862
10666SOL    HW232898   5.188   3.152   1.870
10667SOL     OW32899   5.698   2.516   4.446
10667SOL    HW132900   5.796   2.500   4.437
10667SOL    HW232901   5.657   2.520   4.355
10668SOL     OW32902   3.385   3.342   5.939
10668SOL    HW132903   3.442   3.260   5.944
10668SOL    HW232904   3.425   3.406   5.874
10669SOL     OW32905   6.591   2.849   1.680
10669SOL    HW132906   6.602   2.776   1.613
10669SOL    HW232907   6.629   2.934   1.643
10670SOL     OW32908   4.567   4.779   4.130
10670SOL    HW132909   4.566   4.850   4.200
10670SOL    HW232910   4.474   4.744   4.117
10671SOL     OW32911   1.985   3.217   4.785
10671SOL    HW132912   2.026   3.298   4.744
10671SOL    HW232913   1.950   3.240   4.877
10672SOL     OW32914   6.490   4.801   1.285
10672SOL    HW132915   6.550   4.773   1.360
10672SOL    HW232916   6.456   4.894   1.302
10673SOL     OW32917   3.072   1.052   1.933
10673SOL    HW132918   3.055   1.035   2.030
10673SOL    HW232919   3.164   1.089   1.921
10674SOL     OW32920   4.007   3.218   4.481
10674SOL    HW132921   3.971   3.138   4.433
10674SOL    HW232922   4.022   3.196   4.577
10675SOL     OW32923   3.332   6.549   5.730
10675SOL    HW132924   3.386   6.487   5.673
10675SOL    HW232925   3.308   6.631   5.676
10676SOL     OW32926   1.359   1.380   4.635
10676SOL    HW132927   1.328   1.286   4.650
10676SOL    HW232928   1.302   1.423   4.565
10677SOL     OW32929   0.036   1.685   6.775
10677SOL    HW132930   0.057   1.645   6.686
10677SOL    HW232931   0.089   1.640   6.846
10678SOL     OW32932   3.396   5.015   2.584
10678SOL    HW132933   3.342   4.937   2.554
10678SOL    HW232934   3.440   5.058   2.504
10679SOL     OW32935   5.234   3.803   0.239
10679SOL    HW132936   5.204   3.896   0.219
10679SOL    HW232937   5.165   3.737   0.207
10680SOL     OW32938   4.316   1.683   5.218
10680SOL    HW132939   4.287   1.589   5.201
10680SOL    HW232940   4.343   1.693   5.314
10681SOL     OW32941   2.917   3.313   5.406
10681SOL    HW132942   2.923   3.361   5.318
10681SOL    HW232943   2.853   3.237   5.398
10682SOL     OW32944   4.916   3.386   6.257
10682SOL    HW132945   4.845   3.383   6.187
10682SOL    HW232946   4.965   3.299   6.259
10683SOL     OW32947   1.794   0.302   3.276
10683SOL    HW132948   1.767   0.206   3.282
10683SOL    HW232949   1.726   0.359   3.323
10684SOL     OW32950   4.547   4.157   1.288
10684SOL    HW132951   4.552   4.163   1.387
10684SOL    HW232952   4.503   4.240   1.252
10685SOL     OW32953   0.952   0.624   2.466
10685SOL    HW132954   0.879   0.680   2.427
10685SOL    HW232955   0.949   0.533   2.425
10686SOL     OW32956   2.963   1.543   6.504
10686SOL    HW132957   3.012   1.502   6.581
10686SOL    HW232958   2.976   1.487   6.422
10687SOL     OW32959   0.666   2.885   3.080
10687SOL    HW132960   0.615   2.964   3.115
10687SOL    HW232961   0.614   2.802   3.098
10688SOL     OW32962   4.977   1.126   3.737
10688SOL    HW132963   4.933   1.208   3.772
10688SOL    HW232964   5.043   1.151   3.667
10689SOL     OW32965   1.669   1.313   2.834
10689SOL    HW132966   1.637   1.332   2.927
10689SOL    HW232967   1.598   1.338   2.768
10690SOL     OW32968   0.754   6.830   4.713
10690SOL    HW132969   0.817   6.907   4.711
10690SOL    HW232970   0.786   6.762   4.779
10691SOL     OW32971   3.336   6.303   1.823
10691SOL    HW132972   3.424   6.310   1.777
10691SOL    HW232973   3.332   6.369   1.898
10692SOL     OW32974   2.578   2.146   4.320
10692SOL    HW132975   2.494   2.195   4.295
10692SOL    HW232976   2.648   2.212   4.346
10693SOL     OW32977   1.497   4.467   0.498
10693SOL    HW132978   1.565   4.393   0.493
10693SOL    HW232979   1.429   4.454   0.426
10694SOL     OW32980   5.414   2.032   5.520
10694SOL    HW132981   5.407   1.973   5.600
10694SOL    HW232982   5.398   2.127   5.547
10695SOL     OW32983   4.848   4.776   1.275
10695SOL    HW132984   4.899   4.856   1.309
10695SOL    HW232985   4.896   4.736   1.197
10696SOL     OW32986   6.595   4.929   4.206
10696SOL    HW132987   6.516   4.970   4.251
10696SOL    HW232988   6.605   4.834   4.237
10697SOL     OW32989   2.608   5.131   4.663
10697SOL    HW132990   2.653   5.062   4.605
10697SOL    HW232991   2.670   5.208   4.678
10698SOL     OW32992   3.981   4.727   6.859
10698SOL    HW132993   4.045   4.664   6.903
10698SOL    HW232994   3.927   4.774   6.929
10699SOL     OW32995   4.116   4.024   1.431
10699SOL    HW132996   4.023   3.987   1.426
10699SOL    HW232997   4.181   3.948   1.436
10700SOL     OW32998   5.242   0.523   1.560
10700SOL    HW132999   5.166   0.579   1.594
10700SOL    HW233000   5.206   0.451   1.501
10701SOL     OW33001   3.365   6.319   6.429
10701SOL    HW133002   3.380   6.244   6.494
10701SOL    HW233003   3.451   6.368   6.414
10702SOL     OW33004   5.527   2.789   2.711
10702SOL    HW133005   5.555   2.827   2.799
10702SOL    HW233006   5.494   2.696   2.724
10703SOL     OW33007   0.876   2.147   5.196
10703SOL    HW133008   0.877   2.164   5.295
10703SOL    HW233009   0.882   2.048   5.180
10704SOL     OW33010   5.576   6.726   2.107
10704SOL    HW133011   5.528   6.812   2.091
10704SOL    HW233012   5.672   6.736   2.083
10705SOL     OW33013   4.783   3.258   1.502
10705SOL    HW133014   4.739   3.343   1.531
10705SOL    HW233015   4.882   3.271   1.502
10706SOL     OW33016   2.930   0.690   2.055
10706SOL    HW133017   2.844   0.736   2.074
10706SOL    HW233018   2.999   0.720   2.120
10707SOL     OW33019   4.166   6.880   3.637
10707SOL    HW133020   4.116   6.796   3.659
10707SOL    HW233021   4.263   6.867   3.657
10708SOL     OW33022   4.003   0.852   1.323
10708SOL    HW133023   3.998   0.802   1.237
10708SOL    HW233024   3.926   0.916   1.329
10709SOL     OW33025   5.683   4.162   2.678
10709SOL    HW133026   5.768   4.161   2.732
10709SOL    HW233027   5.625   4.236   2.709
10710SOL     OW33028   4.653   1.398   3.209
10710SOL    HW133029   4.659   1.418   3.307
10710SOL    HW233030   4.727   1.337   3.183
10711SOL     OW33031   2.518   6.421   3.451
10711SOL    HW133032   2.603   6.472   3.440
10711SOL    HW233033   2.498   6.410   3.549
10712SOL     OW33034   5.618   1.094   3.455
10712SOL    HW133035   5.680   1.171   3.442
10712SOL    HW233036   5.652   1.015   3.405
10713SOL     OW33037   1.031   3.885   1.039
10713SOL    HW133038   1.099   3.958   1.050
10713SOL    HW233039   1.065   3.801   1.081
10714SOL     OW33040   3.129   4.066   5.256
10714SOL    HW133041   3.108   4.069   5.354
10714SOL    HW233042   3.228   4.070   5.243
10715SOL     OW33043   5.501   0.725   2.082
10715SOL    HW133044   5.520   0.741   2.179
10715SOL    HW233045   5.508   0.627   2.062
10716SOL     OW33046   5.307   1.107   3.147
10716SOL    HW133047   5.254   1.087   3.065
10716SOL    HW233048   5.305   1.205   3.166
10717SOL     OW33049   3.678   2.487   0.679
10717SOL    HW133050   3.641   2.497   0.587
10717SOL    HW233051   3.623   2.420   0.730
10718SOL     OW33052   1.799   5.402   6.218
10718SOL    HW133053   1.710   5.446   6.233
10718SOL    HW233054   1.787   5.322   6.159
10719SOL     OW33055   0.267   4.732   5.302
10719SOL    HW133056   0.241   4.794   5.228
10719SOL    HW233057   0.320   4.782   5.370
10720SOL     OW33058   0.200   5.649   2.883
10720SOL    HW133059   0.186   5.728   2.943
10720SOL    HW233060   0.148   5.661   2.798
10721SOL     OW33061   5.006   2.467   5.949
10721SOL    HW133062   5.013   2.369   5.969
10721SOL    HW233063   5.052   2.519   6.021
10722SOL     OW33064   0.175   3.779   5.228
10722SOL    HW133065   0.081   3.812   5.237
10722SOL    HW233066   0.239   3.856   5.233
10723SOL     OW33067   5.652   6.003   0.540
10723SOL    HW133068   5.683   6.067   0.611
10723SOL    HW233069   5.726   5.938   0.519
10724SOL     OW33070   7.021   6.050   5.873
10724SOL    HW133071   6.963   6.021   5.949
10724SOL    HW233072   0.048   5.971   5.836
10725SOL     OW33073   2.498   6.628   6.331
10725SOL    HW133074   2.577   6.580   6.369
10725SOL    HW233075   2.442   6.564   6.278
10726SOL     OW33076   3.846   0.614   4.100
10726SOL    HW133077   3.922   0.645   4.157
10726SOL    HW233078   3.866   0.634   4.004
10727SOL     OW33079   2.622   6.342   6.936
10727SOL    HW133080   2.699   6.294   6.893
10727SOL    HW233081   2.610   6.307   0.007
10728SOL     OW33082   5.494   6.106   1.546
10728SOL    HW133083   5.486   6.196   1.503
10728SOL    HW233084   5.403   6.075   1.576
10729SOL     OW33085   6.163   2.296   0.539
10729SOL    HW133086   6.206   2.375   0.496
10729SOL    HW233087   6.131   2.321   0.630
10730SOL     OW33088   4.923   0.607   3.087
10730SOL    HW133089   4.910   0.689   3.032
10730SOL    HW233090   4.986   0.627   3.163
10731SOL     OW33091   3.376   6.794   0.978
10731SOL    HW133092   3.460   6.848   0.974
10731SOL    HW233093   3.375   6.740   1.062
10732SOL     OW33094   0.775   3.337   6.284
10732SOL    HW133095   0.745   3.432   6.296
10732SOL    HW233096   0.708   3.276   6.326
10733SOL     OW33097   5.481   0.558   0.221
10733SOL    HW133098   5.579   0.549   0.204
10733SOL    HW233099   5.447   0.643   0.181
10734SOL     OW33100   5.773   3.150   1.989
10734SOL    HW133101   5.855   3.113   2.031
10734SOL    HW233102   5.737   3.085   1.922
10735SOL     OW33103   0.439   5.525   2.924
10735SOL    HW133104   0.348   5.562   2.904
10735SOL    HW233105   0.496   5.597   2.965
10736SOL     OW33106   2.028   1.472   4.739
10736SOL    HW133107   2.086   1.393   4.758
10736SOL    HW233108   2.084   1.549   4.709
10737SOL     OW33109   6.695   2.128   6.641
10737SOL    HW133110   6.698   2.080   6.553
10737SOL    HW233111   6.754   2.082   6.707
10738SOL     OW33112   3.975   0.040   4.270
10738SOL    HW133113   4.066   0.001   4.266
10738SOL    HW233114   3.982   0.140   4.277
10739SOL     OW33115   2.370   1.758   2.044
10739SOL    HW133116   2.432   1.834   2.023
10739SOL    HW233117   2.399   1.677   1.993
10740SOL     OW33118   4.563   6.094   3.410
10740SOL    HW133119   4.624   6.024   3.445
10740SOL    HW233120   4.613   6.181   3.402
10741SOL     OW33121   2.459   0.353   3.240
10741SOL    HW133122   2.530   0.390   3.181
10741SOL    HW233123   2.370   0.386   3.210
10742SOL     OW33124   6.902   5.712   0.125
10742SOL    HW133125   6.874   5.808   0.114
10742SOL    HW233126   6.837   5.665   0.183
10743SOL     OW33127   2.812   1.495   5.107
10743SOL    HW133128   2.761   1.449   5.034
10743SOL    HW233129   2.887   1.547   5.068
10744SOL     OW33130   6.313   1.645   0.341
10744SOL    HW133131   6.329   1.744   0.346
10744SOL    HW233132   6.359   1.608   0.261
10745SOL     OW33133   0.147   5.830   5.802
10745SOL    HW133134   0.240   5.806   5.830
10745SOL    HW233135   0.086   5.754   5.823
10746SOL     OW33136   1.906   4.314   5.362
10746SOL    HW133137   1.841   4.346   5.431
10746SOL    HW233138   1.984   4.377   5.359
10747SOL     OW33139   3.069   2.141   4.798
10747SOL    HW133140   3.099   2.208   4.865
10747SOL    HW233141   2.970   2.148   4.784
10748SOL     OW33142   5.759   1.300   2.605
10748SOL    HW133143   5.763   1.345   2.694
10748SOL    HW233144   5.764   1.370   2.533
10749SOL     OW33145   3.077   6.973   0.338
10749SOL    HW133146   3.005   6.926   0.388
10749SOL    HW233147   3.158   6.981   0.395
10750SOL     OW33148   4.460   6.289   5.976
10750SOL    HW133149   4.526   6.215   5.966
10750SOL    HW233150   4.506   6.371   6.010
10751SOL     OW33151   2.600   5.282   3.267
10751SOL    HW133152   2.650   5.197   3.281
10751SOL    HW233153   2.503   5.268   3.289
10752SOL     OW33154   5.088   4.863   3.884
10752SOL    HW133155   5.052   4.873   3.791
10752SOL    HW233156   5.117   4.953   3.918
10753SOL     OW33157   5.892   4.244   4.193
10753SOL    HW133158   5.838   4.169   4.156
10753SOL    HW233159   5.960   4.209   4.257
10754SOL     OW33160   1.067   6.870   2.436
10754SOL    HW133161   1.146   6.891   2.379
10754SOL    HW233162   0.995   6.938   2.420
10755SOL     OW33163   6.239   5.389   1.530
10755SOL    HW133164   6.154   5.340   1.509
10755SOL    HW233165   6.223   5.456   1.602
10756SOL     OW33166   0.370   0.443   5.053
10756SOL    HW133167   0.393   0.359   5.004
10756SOL    HW233168   0.318   0.421   5.136
10757SOL     OW33169   3.272   3.305   1.842
10757SOL    HW133170   3.327   3.244   1.899
10757SOL    HW233171   3.235   3.378   1.898
10758SOL     OW33172   0.151   4.952   4.243
10758SOL    HW133173   0.159   4.940   4.342
10758SOL    HW233174   0.221   4.898   4.197
10759SOL     OW33175   6.944   1.059   6.980
10759SOL    HW133176   6.858   1.109   6.982
10759SOL    HW233177   6.927   0.962   6.963
10760SOL     OW33178   5.761   1.748   4.809
10760SOL    HW133179   5.733   1.750   4.713
10760SOL    HW233180   5.855   1.781   4.817
10761SOL     OW33181   3.010   5.194   5.720
10761SOL    HW133182   2.954   5.112   5.731
10761SOL    HW233183   3.028   5.209   5.622
10762SOL     OW33184   3.209   1.416   6.463
10762SOL    HW133185   3.261   1.342   6.505
10762SOL    HW233186   3.255   1.503   6.481
10763SOL     OW33187   4.730   5.894   3.942
10763SOL    HW133188   4.735   5.994   3.943
10763SOL    HW233189   4.820   5.856   3.962
10764SOL     OW33190   4.263   0.040   5.010
10764SOL    HW133191   4.337   0.007   5.068
10764SOL    HW233192   4.207   6.984   4.980
10765SOL     OW33193   6.817   3.552   6.889
10765SOL    HW133194   6.859   3.590   6.971
10765SOL    HW233195   6.724   3.589   6.878
10766SOL     OW33196   3.153   3.631   1.929
10766SOL    HW133197   3.207   3.602   2.009
10766SOL    HW233198   3.105   3.716   1.950
10767SOL     OW33199   4.364   2.061   2.544
10767SOL    HW133200   4.303   2.117   2.488
10767SOL    HW233201   4.372   1.969   2.504
10768SOL     OW33202   5.814   4.675   5.990
10768SOL    HW133203   5.824   4.755   6.048
10768SOL    HW233204   5.752   4.609   6.033
10769SOL     OW33205   1.831   3.313   5.015
10769SOL    HW133206   1.770   3.330   4.937
10769SOL    HW233207   1.808   3.375   5.089
10770SOL     OW33208   4.092   5.405   4.018
10770SOL    HW133209   4.095   5.316   3.972
10770SOL    HW233210   4.050   5.394   4.108
10771SOL     OW33211   2.576   1.853   4.455
10771SOL    HW133212   2.582   1.876   4.552
10771SOL    HW233213   2.564   1.937   4.402
10772SOL     OW33214   5.446   6.134   3.788
10772SOL    HW133215   5.481   6.127   3.695
10772SOL    HW233216   5.346   6.142   3.785
10773SOL     OW33217   5.767   5.139   2.962
10773SOL    HW133218   5.823   5.220   2.942
10773SOL    HW233219   5.755   5.086   2.878
10774SOL     OW33220   0.439   6.771   3.673
10774SOL    HW133221   0.434   6.860   3.627
10774SOL    HW233222   0.392   6.702   3.618
10775SOL     OW33223   0.306   3.526   1.126
10775SOL    HW133224   0.335   3.458   1.059
10775SOL    HW233225   0.336   3.497   1.217
10776SOL     OW33226   1.487   0.244   5.945
10776SOL    HW133227   1.484   0.165   5.885
10776SOL    HW233228   1.432   0.318   5.906
10777SOL     OW33229   2.370   5.590   1.535
10777SOL    HW133230   2.275   5.619   1.547
10777SOL    HW233231   2.407   5.630   1.451
10778SOL     OW33232   5.920   5.544   2.074
10778SOL    HW133233   5.988   5.516   2.142
10778SOL    HW233234   5.831   5.550   2.118
10779SOL     OW33235   5.027   2.846   3.674
10779SOL    HW133236   5.033   2.938   3.635
10779SOL    HW233237   5.013   2.780   3.600
10780SOL     OW33238   6.707   0.292   1.969
10780SOL    HW133239   6.793   0.272   1.923
10780SOL    HW233240   6.710   0.257   2.063
10781SOL     OW33241   3.177   6.848   4.384
10781SOL    HW133242   3.221   6.894   4.307
10781SOL    HW233243   3.236   6.774   4.418
10782SOL     OW33244   6.515   5.023   3.559
10782SOL    HW133245   6.462   5.085   3.617
10782SOL    HW233246   6.580   4.972   3.616
10783SOL     OW33247   6.576   2.758   3.078
10783SOL    HW133248   6.625   2.769   2.991
10783SOL    HW233249   6.508   2.685   3.068
10784SOL     OW33250   2.253   1.659   4.693
10784SOL    HW133251   2.324   1.641   4.762
10784SOL    HW233252   2.193   1.732   4.726
10785SOL     OW33253   1.041   2.840   6.039
10785SOL    HW133254   1.042   2.931   5.997
10785SOL    HW233255   1.127   2.826   6.089
10786SOL     OW33256   6.475   3.978   4.421
10786SOL    HW133257   6.501   3.968   4.325
10786SOL    HW233258   6.375   3.976   4.428
10787SOL     OW33259   2.130   2.026   6.048
10787SOL    HW133260   2.227   2.045   6.029
10787SOL    HW233261   2.094   2.095   6.111
10788SOL     OW33262   5.573   3.278   5.965
10788SOL    HW133263   5.546   3.226   5.884
10788SOL    HW233264   5.663   3.320   5.949
10789SOL     OW33265   4.778   0.924   7.010
10789SOL    HW133266   4.781   1.010   6.959
10789SOL    HW233267   4.783   0.847   6.946
10790SOL     OW33268   5.944   6.316   3.033
10790SOL    HW133269   6.024   6.367   3.063
10790SOL    HW233270   5.927   6.240   3.097
10791SOL     OW33271   0.795   6.250   2.445
10791SOL    HW133272   0.751   6.290   2.365
10791SOL    HW233273   0.863   6.313   2.482
10792SOL     OW33274   3.800   4.879   6.134
10792SOL    HW133275   3.897   4.884   6.156
10792SOL    HW233276   3.750   4.949   6.185
10793SOL     OW33277   5.697   4.087   4.507
10793SOL    HW133278   5.621   4.038   4.549
10793SOL    HW233279   5.749   4.024   4.450
10794SOL     OW33280   3.363   3.584   4.414
10794SOL    HW133281   3.301   3.661   4.430
10794SOL    HW233282   3.408   3.596   4.325
10795SOL     OW33283   0.260   5.001   2.594
10795SOL    HW133284   0.223   5.007   2.686
10795SOL    HW233285   0.269   4.905   2.568
10796SOL     OW33286   0.722   6.351   5.549
10796SOL    HW133287   0.820   6.348   5.567
10796SOL    HW233288   0.695   6.272   5.494
10797SOL     OW33289   3.966   2.673   0.365
10797SOL    HW133290   3.992   2.685   0.269
10797SOL    HW233291   3.867   2.685   0.374
10798SOL     OW33292   6.095   1.349   0.886
10798SOL    HW133293   6.190   1.358   0.916
10798SOL    HW233294   6.087   1.271   0.824
10799SOL     OW33295   5.305   1.622   0.950
10799SOL    HW133296   5.367   1.546   0.929
10799SOL    HW233297   5.289   1.676   0.867
10800SOL     OW33298   6.836   0.000   0.899
10800SOL    HW133299   6.886   0.019   0.983
10800SOL    HW233300   6.743   0.037   0.906
10801SOL     OW33301   2.043   0.584   1.695
10801SOL    HW133302   2.134   0.543   1.687
10801SOL    HW233303   1.984   0.547   1.622
10802SOL     OW33304   5.748   1.753   3.693
10802SOL    HW133305   5.738   1.689   3.769
10802SOL    HW233306   5.658   1.788   3.667
10803SOL     OW33307   2.219   5.090   5.184
10803SOL    HW133308   2.148   5.025   5.157
10803SOL    HW233309   2.212   5.109   5.282
10804SOL     OW33310   6.305   3.469   4.274
10804SOL    HW133311   6.342   3.393   4.327
10804SOL    HW233312   6.380   3.525   4.239
10805SOL     OW33313   6.693   0.091   6.866
10805SOL    HW133314   6.610   0.081   6.921
10805SOL    HW233315   6.727   0.001   6.841
10806SOL     OW33316   1.515   5.556   0.775
10806SOL    HW133317   1.578   5.632   0.756
10806SOL    HW233318   1.537   5.479   0.716
10807SOL     OW33319   3.362   5.266   4.666
10807SOL    HW133320   3.390   5.240   4.758
10807SOL    HW233321   3.282   5.212   4.639
10808SOL     OW33322   1.785   3.456   6.440
10808SOL    HW133323   1.722   3.472   6.516
10808SOL    HW233324   1.869   3.508   6.456
10809SOL     OW33325   1.205   0.639   4.908
10809SOL    HW133326   1.291   0.676   4.942
10809SOL    HW233327   1.143   0.624   4.985
10810SOL     OW33328   6.012   0.780   4.012
10810SOL    HW133329   6.102   0.817   3.992
10810SOL    HW233330   6.016   0.727   4.097
10811SOL     OW33331   5.558   6.282   4.818
10811SOL    HW133332   5.592   6.237   4.900
10811SOL    HW233333   5.514   6.216   4.758
10812SOL     OW33334   0.363   3.004   0.854
10812SOL    HW133335   0.358   2.979   0.951
10812SOL    HW233336   0.272   3.031   0.823
10813SOL     OW33337   1.163   3.884   6.997
10813SOL    HW133338   1.103   3.823   6.945
10813SOL    HW233339   1.113   3.967   7.021
10814SOL     OW33340   3.339   1.936   1.635
10814SOL    HW133341   3.394   2.004   1.684
10814SOL    HW233342   3.388   1.848   1.633
10815SOL     OW33343   4.659   0.642   4.730
10815SOL    HW133344   4.727   0.692   4.677
10815SOL    HW233345   4.705   0.585   4.799
10816SOL     OW33346   3.331   3.152   5.203
10816SOL    HW133347   3.243   3.110   5.183
10816SOL    HW233348   3.386   3.090   5.259
10817SOL     OW33349   1.317   6.096   4.371
10817SOL    HW133350   1.405   6.137   4.347
10817SOL    HW233351   1.301   6.109   4.469
10818SOL     OW33352   4.027   3.846   0.081
10818SOL    HW133353   4.003   3.771   0.141
10818SOL    HW233354   4.048   3.810   7.011
10819SOL     OW33355   6.112   5.654   5.186
10819SOL    HW133356   6.125   5.662   5.285
10819SOL    HW233357   6.020   5.621   5.167
10820SOL     OW33358   1.826   4.737   6.041
10820SOL    HW133359   1.752   4.804   6.030
10820SOL    HW233360   1.914   4.784   6.033
10821SOL     OW33361   4.312   5.369   3.768
10821SOL    HW133362   4.223   5.323   3.775
10821SOL    HW233363   4.324   5.404   3.675
10822SOL     OW33364   5.637   0.356   2.434
10822SOL    HW133365   5.611   0.374   2.529
10822SOL    HW233366   5.679   0.437   2.394
10823SOL     OW33367   5.703   6.679   2.852
10823SOL    HW133368   5.762   6.675   2.933
10823SOL    HW233369   5.739   6.746   2.788
10824SOL     OW33370   1.299   2.780   2.686
10824SOL    HW133371   1.207   2.801   2.718
10824SOL    HW233372   1.365   2.833   2.738
10825SOL     OW33373   6.885   1.608   0.559
10825SOL    HW133374   6.960   1.642   0.615
10825SOL    HW233375   6.892   1.509   0.550
10826SOL     OW33376   6.635   3.265   2.416
10826SOL    HW133377   6.686   3.228   2.338
10826SOL    HW233378   6.541   3.283   2.389
10827SOL     OW33379   6.968   3.134   4.036
10827SOL    HW133380   6.993   3.042   4.067
10827SOL    HW233381   6.930   3.129   3.944
10828SOL     OW33382   6.909   4.115   4.953
10828SOL    HW133383   6.934   4.206   4.985
10828SOL    HW233384   6.991   4.068   4.918
10829SOL     OW33385   3.736   3.201   5.775
10829SOL    HW133386   3.743   3.108   5.739
10829SOL    HW233387   3.641   3.219   5.802
10830SOL     OW33388   5.491   1.846   3.656
10830SOL    HW133389   5.457   1.890   3.739
10830SOL    HW233390   5.487   1.911   3.580
10831SOL     OW33391   4.436   6.843   3.660
10831SOL    HW133392   4.469   6.863   3.569
10831SOL    HW233393   4.513   6.832   3.723
10832SOL     OW33394   6.864   2.985   6.574
10832SOL    HW133395   6.916   2.919   6.521
10832SOL    HW233396   6.921   3.023   6.647
10833SOL     OW33397   0.814   1.369   6.331
10833SOL    HW133398   0.754   1.385   6.409
10833SOL    HW233399   0.766   1.314   6.262
10834SOL     OW33400   6.733   6.393   1.530
10834SOL    HW133401   6.760   6.351   1.443
10834SOL    HW233402   6.634   6.398   1.535
10835SOL     OW33403   6.501   2.586   5.308
10835SOL    HW133404   6.590   2.564   5.269
10835SOL    HW233405   6.494   2.550   5.400
10836SOL     OW33406   0.006   1.432   3.415
10836SOL    HW133407   0.060   1.350   3.397
10836SOL    HW233408   7.013   1.482   3.330
10837SOL     OW33409   6.895   3.104   3.786
10837SOL    HW133410   6.872   3.010   3.761
10837SOL    HW233411   6.975   3.134   3.734
10838SOL     OW33412   0.287   6.380   2.920
10838SOL    HW133413   0.294   6.426   3.009
10838SOL    HW233414   0.314   6.443   2.848
10839SOL     OW33415   4.492   2.728   0.436
10839SOL    HW133416   4.516   2.820   0.469
10839SOL    HW233417   4.445   2.736   0.348
10840SOL     OW33418   2.757   0.648   2.380
10840SOL    HW133419   2.742   0.561   2.332
10840SOL    HW233420   2.733   0.724   2.320
10841SOL     OW33421   2.116   5.332   5.174
10841SOL    HW133422   2.168   5.249   5.153
10841SOL    HW233423   2.137   5.364   5.266
10842SOL     OW33424   6.726   4.519   1.700
10842SOL    HW133425   6.785   4.584   1.747
10842SOL    HW233426   6.659   4.482   1.765
10843SOL     OW33427   2.662   1.401   1.871
10843SOL    HW133428   2.651   1.341   1.792
10843SOL    HW233429   2.750   1.449   1.865
10844SOL     OW33430   2.244   5.391   4.737
10844SOL    HW133431   2.145   5.373   4.743
10844SOL    HW233432   2.290   5.309   4.704
10845SOL     OW33433   3.974   0.660   4.425
10845SOL    HW133434   4.021   0.719   4.490
10845SOL    HW233435   4.030   0.650   4.343
10846SOL     OW33436   6.073   6.753   5.920
10846SOL    HW133437   6.074   6.654   5.929
10846SOL    HW233438   6.084   6.795   6.010
10847SOL     OW33439   3.210   6.938   6.986
10847SOL    HW133440   3.257   7.008   6.931
10847SOL    HW233441   3.112   6.952   6.981
10848SOL     OW33442   1.725   3.241   1.844
10848SOL    HW133443   1.694   3.172   1.910
10848SOL    HW233444   1.684   3.329   1.866
10849SOL     OW33445   1.797   6.394   3.822
10849SOL    HW133446   1.735   6.416   3.746
10849SOL    HW233447   1.868   6.332   3.789
10850SOL     OW33448   4.626   4.303   0.428
10850SOL    HW133449   4.675   4.220   0.402
10850SOL    HW233450   4.657   4.332   0.518
10851SOL     OW33451   1.866   4.880   0.683
10851SOL    HW133452   1.928   4.809   0.716
10851SOL    HW233453   1.826   4.929   0.760
10852SOL     OW33454   2.901   1.343   2.085
10852SOL    HW133455   2.966   1.276   2.121
10852SOL    HW233456   2.811   1.327   2.125
10853SOL     OW33457   3.827   0.962   6.408
10853SOL    HW133458   3.787   1.001   6.491
10853SOL    HW233459   3.760   0.905   6.362
10854SOL     OW33460   3.083   5.854   5.884
10854SOL    HW133461   3.099   5.855   5.786
10854SOL    HW233462   3.048   5.943   5.913
10855SOL     OW33463   4.287   1.124   6.793
10855SOL    HW133464   4.312   1.031   6.818
10855SOL    HW233465   4.355   1.188   6.829
10856SOL     OW33466   0.800   1.164   0.547
10856SOL    HW133467   0.743   1.218   0.485
10856SOL    HW233468   0.818   1.075   0.505
10857SOL     OW33469   6.742   2.514   1.714
10857SOL    HW133470   6.762   2.548   1.622
10857SOL    HW233471   6.685   2.582   1.761
10858SOL     OW33472   1.888   6.530   2.131
10858SOL    HW133473   1.912   6.619   2.168
10858SOL    HW233474   1.842   6.542   2.043
10859SOL     OW33475   1.568   4.640   3.664
10859SOL    HW133476   1.510   4.689   3.599
10859SOL    HW233477   1.663   4.643   3.632
10860SOL     OW33478   0.149   3.245   3.104
10860SOL    HW133479   0.087   3.169   3.086
10860SOL    HW233480   0.123   3.323   3.047
10861SOL     OW33481   4.350   3.212   5.307
10861SOL    HW133482   4.256   3.198   5.278
10861SOL    HW233483   4.353   3.283   5.377
10862SOL     OW33484   1.392   0.765   5.673
10862SOL    HW133485   1.441   0.771   5.760
10862SOL    HW233486   1.318   0.833   5.673
10863SOL     OW33487   2.334   6.582   4.140
10863SOL    HW133488   2.339   6.594   4.239
10863SOL    HW233489   2.275   6.504   4.118
10864SOL     OW33490   3.579   6.727   3.206
10864SOL    HW133491   3.483   6.750   3.219
10864SOL    HW233492   3.628   6.740   3.293
10865SOL     OW33493   6.619   1.004   6.309
10865SOL    HW133494   6.642   1.097   6.281
10865SOL    HW233495   6.589   0.952   6.229
10866SOL     OW33496   5.625   4.701   6.922
10866SOL    HW133497   5.685   4.724   6.846
10866SOL    HW233498   5.572   4.781   6.950
10867SOL     OW33499   2.901   1.963   0.178
10867SOL    HW133500   2.981   1.908   0.154
10867SOL    HW233501   2.833   1.906   0.224
10868SOL     OW33502   1.728   2.130   3.467
10868SOL    HW133503   1.821   2.096   3.452
10868SOL    HW233504   1.662   2.058   3.448
10869NA      NA33505   6.230   2.208   5.326
10870NA      NA33506   4.366   4.611   5.264
10871NA      NA33507   2.214   3.336   1.748
10872NA      NA33508   4.956   3.598   5.168
10873NA      NA33509   4.111   2.394   5.330
10874NA      NA33510   3.544   4.920   1.784
10875NA      NA33511   6.759   6.477   4.842
10876NA      NA33512   3.780   3.595   5.201
10877NA      NA33513   4.904   6.243   6.026
10878NA      NA33514   2.550   0.266   4.978
10879NA      NA33515   0.668   4.867   2.781
10880NA      NA33516   2.273   0.402   2.556
10881NA      NA33517   3.583   4.470   1.239
10882NA      NA33518   3.919   3.353   3.009
   7.02150   7.02150   7.02150
