Generated by trjconv : CNT in water t= 577.00000
33518
    1C        C    1   2.843   2.767   4.748
    1C        C    2   2.898   2.717   4.869
    1C        C    3   2.839   2.769   4.985
    1C        C    4   2.848   2.774   4.261
    1C        C    5   2.898   2.725   4.383
    1C        C    6   2.843   2.770   4.506
    1C        C    7   3.014   2.640   4.627
    1C        C    8   2.898   2.721   4.626
    1C        C    9   3.080   2.605   4.746
    1C        C   10   3.011   2.632   4.866
    1C        C   11   3.184   2.502   4.978
    1C        C   12   3.063   2.571   4.981
    1C        C   13   2.853   2.773   3.773
    1C        C   14   2.902   2.724   3.896
    1C        C   15   2.846   2.773   4.017
    1C        C   16   3.015   2.645   4.139
    1C        C   17   2.896   2.722   4.139
    1C        C   18   3.079   2.614   4.261
    1C        C   19   3.015   2.647   4.383
    1C        C   20   3.208   2.558   4.504
    1C        C   21   3.076   2.606   4.504
    1C        C   22   3.280   2.539   4.624
    1C        C   23   3.212   2.552   4.747
    1C        C   24   3.415   2.484   4.862
    1C        C   25   3.273   2.501   4.865
    1C        C   26   3.492   2.479   4.979
    1C        C   27   2.849   2.768   3.282
    1C        C   28   2.902   2.723   3.405
    1C        C   29   2.848   2.768   3.527
    1C        C   30   3.014   2.638   3.650
    1C        C   31   2.902   2.724   3.650
    1C        C   32   3.075   2.604   3.773
    1C        C   33   3.016   2.640   3.896
    1C        C   34   3.207   2.548   4.016
    1C        C   35   3.079   2.608   4.019
    1C        C   36   3.274   2.530   4.139
    1C        C   37   3.207   2.555   4.261
    1C        C   38   3.416   2.510   4.380
    1C        C   39   3.277   2.537   4.382
    1C        C   40   3.487   2.505   4.501
    1C        C   41   3.418   2.508   4.624
    1C        C   42   3.633   2.485   4.745
    1C        C   43   3.491   2.481   4.742
    1C        C   44   3.708   2.487   4.865
    1C        C   45   3.631   2.478   4.982
    1C        C   46   2.841   2.756   2.794
    1C        C   47   2.893   2.711   2.917
    1C        C   48   2.845   2.763   3.040
    1C        C   49   3.014   2.633   3.161
    1C        C   50   2.900   2.716   3.161
    1C        C   51   3.076   2.601   3.284
    1C        C   52   3.016   2.640   3.407
    1C        C   53   3.206   2.546   3.527
    1C        C   54   3.077   2.604   3.529
    1C        C   55   3.274   2.527   3.649
    1C        C   56   3.205   2.549   3.771
    1C        C   57   3.412   2.504   3.893
    1C        C   58   3.272   2.525   3.893
    1C        C   59   3.483   2.499   4.015
    1C        C   60   3.413   2.507   4.138
    1C        C   61   3.628   2.504   4.260
    1C        C   62   3.487   2.500   4.258
    1C        C   63   3.700   2.509   4.382
    1C        C   64   3.629   2.503   4.503
    1C        C   65   3.838   2.544   4.620
    1C        C   66   3.702   2.506   4.624
    1C        C   67   3.908   2.565   4.741
    1C        C   68   3.841   2.532   4.861
    1C        C   69   4.050   2.590   4.976
    1C        C   70   3.923   2.530   4.974
    1C        C   71   2.826   2.736   2.308
    1C        C   72   2.886   2.696   2.430
    1C        C   73   2.833   2.746   2.551
    1C        C   74   3.005   2.621   2.675
    1C        C   75   2.887   2.700   2.673
    1C        C   76   3.070   2.591   2.797
    1C        C   77   3.007   2.629   2.918
    1C        C   78   3.205   2.546   3.038
    1C        C   79   3.072   2.594   3.038
    1C        C   80   3.274   2.525   3.160
    1C        C   81   3.206   2.547   3.282
    1C        C   82   3.411   2.495   3.403
    1C        C   83   3.272   2.523   3.404
    1C        C   84   3.482   2.496   3.525
    1C        C   85   3.414   2.507   3.648
    1C        C   86   3.624   2.500   3.769
    1C        C   87   3.483   2.500   3.771
    1C        C   88   3.692   2.512   3.892
    1C        C   89   3.624   2.505   4.015
    1C        C   90   3.833   2.545   4.136
    1C        C   91   3.696   2.511   4.137
    1C        C   92   3.904   2.568   4.256
    1C        C   93   3.837   2.545   4.377
    1C        C   94   4.026   2.644   4.498
    1C        C   95   3.903   2.574   4.498
    1C        C   96   4.091   2.676   4.619
    1C        C   97   4.031   2.636   4.741
    1C        C   98   4.198   2.766   4.863
    1C        C   99   4.103   2.659   4.862
    1C        C  100   4.218   2.844   4.977
    1C        C  101   2.822   2.731   2.071
    1C        C  102   2.988   2.590   2.192
    1C        C  103   2.874   2.676   2.189
    1C        C  104   3.062   2.573   2.313
    1C        C  105   3.003   2.617   2.433
    1C        C  106   3.199   2.532   2.553
    1C        C  107   3.070   2.587   2.554
    1C        C  108   3.270   2.515   2.674
    1C        C  109   3.202   2.540   2.796
    1C        C  110   3.411   2.495   2.915
    1C        C  111   3.272   2.523   2.917
    1C        C  112   3.483   2.492   3.036
    1C        C  113   3.413   2.500   3.159
    1C        C  114   3.624   2.501   3.282
    1C        C  115   3.483   2.490   3.281
    1C        C  116   3.694   2.512   3.405
    1C        C  117   3.623   2.501   3.526
    1C        C  118   3.832   2.546   3.649
    1C        C  119   3.695   2.510   3.647
    1C        C  120   3.896   2.572   3.772
    1C        C  121   3.829   2.549   3.894
    1C        C  122   4.022   2.643   4.015
    1C        C  123   3.898   2.576   4.014
    1C        C  124   4.086   2.683   4.135
    1C        C  125   4.026   2.640   4.256
    1C        C  126   4.195   2.772   4.376
    1C        C  127   4.086   2.682   4.376
    1C        C  128   4.245   2.824   4.498
    1C        C  129   4.197   2.770   4.619
    1C        C  130   4.329   2.937   4.741
    1C        C  131   4.245   2.822   4.741
    1C        C  132   4.359   3.007   4.860
    1C        C  133   4.288   2.964   4.973
    1C        C  134   3.173   2.465   2.083
    1C        C  135   3.040   2.509   2.086
    1C        C  136   3.259   2.478   2.193
    1C        C  137   3.195   2.523   2.310
    1C        C  138   3.404   2.478   2.429
    1C        C  139   3.266   2.505   2.431
    1C        C  140   3.478   2.485   2.549
    1C        C  141   3.410   2.493   2.673
    1C        C  142   3.624   2.495   2.793
    1C        C  143   3.483   2.486   2.793
    1C        C  144   3.694   2.501   2.916
    1C        C  145   3.624   2.494   3.038
    1C        C  146   3.831   2.544   3.159
    1C        C  147   3.694   2.507   3.160
    1C        C  148   3.897   2.569   3.281
    1C        C  149   3.831   2.545   3.404
    1C        C  150   4.023   2.634   3.526
    1C        C  151   3.898   2.567   3.526
    1C        C  152   4.080   2.676   3.649
    1C        C  153   4.018   2.644   3.771
    1C        C  154   4.189   2.773   3.888
    1C        C  155   4.079   2.685   3.892
    1C        C  156   4.246   2.818   4.010
    1C        C  157   4.196   2.771   4.133
    1C        C  158   4.338   2.930   4.253
    1C        C  159   4.248   2.821   4.255
    1C        C  160   4.380   2.988   4.375
    1C        C  161   4.331   2.936   4.497
    1C        C  162   4.446   3.114   4.613
    1C        C  163   4.371   2.995   4.619
    1C        C  164   4.472   3.184   4.733
    1C        C  165   4.432   3.128   4.857
    1C        C  166   4.518   3.322   4.975
    1C        C  167   4.482   3.187   4.973
    1C        C  168   3.480   2.439   2.079
    1C        C  169   3.399   2.464   2.190
    1C        C  170   3.619   2.467   2.310
    1C        C  171   3.477   2.464   2.308
    1C        C  172   3.694   2.487   2.428
    1C        C  173   3.619   2.490   2.547
    1C        C  174   3.825   2.543   2.668
    1C        C  175   3.690   2.504   2.669
    1C        C  176   3.896   2.561   2.789
    1C        C  177   3.829   2.541   2.912
    1C        C  178   4.022   2.627   3.034
    1C        C  179   3.896   2.565   3.035
    1C        C  180   4.082   2.667   3.156
    1C        C  181   4.023   2.632   3.279
    1C        C  182   4.190   2.759   3.400
    1C        C  183   4.082   2.668   3.402
    1C        C  184   4.242   2.811   3.521
    1C        C  185   4.188   2.767   3.643
    1C        C  186   4.338   2.920   3.764
    1C        C  187   4.239   2.819   3.765
    1C        C  188   4.377   2.982   3.885
    1C        C  189   4.339   2.924   4.008
    1C        C  190   4.449   3.107   4.126
    1C        C  191   4.381   2.983   4.129
    1C        C  192   4.479   3.173   4.248
    1C        C  193   4.447   3.112   4.371
    1C        C  194   4.521   3.313   4.491
    1C        C  195   4.475   3.180   4.491
    1C        C  196   4.536   3.386   4.612
    1C        C  197   4.517   3.319   4.734
    1C        C  198   4.553   3.534   4.852
    1C        C  199   4.531   3.393   4.855
    1C        C  200   4.582   3.618   4.964
    1C        C  201   3.618   2.418   2.076
    1C        C  202   3.829   2.510   2.185
    1C        C  203   3.694   2.461   2.189
    1C        C  204   3.898   2.542   2.304
    1C        C  205   3.830   2.524   2.427
    1C        C  206   4.021   2.625   2.546
    1C        C  207   3.895   2.561   2.547
    1C        C  208   4.081   2.663   2.668
    1C        C  209   4.022   2.625   2.791
    1C        C  210   4.195   2.750   2.912
    1C        C  211   4.085   2.662   2.912
    1C        C  212   4.248   2.801   3.033
    1C        C  213   4.194   2.753   3.154
    1C        C  214   4.334   2.912   3.276
    1C        C  215   4.242   2.805   3.277
    1C        C  216   4.373   2.976   3.396
    1C        C  217   4.334   2.918   3.519
    1C        C  218   4.442   3.101   3.638
    1C        C  219   4.379   2.975   3.641
    1C        C  220   4.469   3.170   3.758
    1C        C  221   4.441   3.108   3.881
    1C        C  222   4.511   3.308   4.004
    1C        C  223   4.473   3.172   4.003
    1C        C  224   4.522   3.380   4.125
    1C        C  225   4.514   3.310   4.248
    1C        C  226   4.528   3.523   4.368
    1C        C  227   4.530   3.382   4.368
    1C        C  228   4.522   3.598   4.488
    1C        C  229   4.538   3.527   4.610
    1C        C  230   4.503   3.742   4.729
    1C        C  231   4.536   3.603   4.729
    1C        C  232   4.497   3.821   4.846
    1C        C  233   4.550   3.754   4.957
    1C        C  234   4.018   2.614   2.063
    1C        C  235   3.895   2.550   2.067
    1C        C  236   4.083   2.650   2.181
    1C        C  237   4.022   2.612   2.302
    1C        C  238   4.200   2.735   2.423
    1C        C  239   4.086   2.650   2.423
    1C        C  240   4.250   2.789   2.544
    1C        C  241   4.195   2.746   2.666
    1C        C  242   4.336   2.905   2.787
    1C        C  243   4.246   2.796   2.788
    1C        C  244   4.380   2.964   2.908
    1C        C  245   4.338   2.909   3.031
    1C        C  246   4.441   3.094   3.148
    1C        C  247   4.379   2.967   3.154
    1C        C  248   4.469   3.161   3.269
    1C        C  249   4.442   3.099   3.393
    1C        C  250   4.505   3.302   3.516
    1C        C  251   4.466   3.167   3.515
    1C        C  252   4.520   3.373   3.637
    1C        C  253   4.510   3.305   3.761
    1C        C  254   4.533   3.518   3.878
    1C        C  255   4.527   3.377   3.882
    1C        C  256   4.531   3.591   3.999
    1C        C  257   4.526   3.521   4.121
    1C        C  258   4.495   3.730   4.243
    1C        C  259   4.517   3.590   4.244
    1C        C  260   4.474   3.801   4.363
    1C        C  261   4.498   3.737   4.486
    1C        C  262   4.424   3.939   4.606
    1C        C  263   4.476   3.807   4.607
    1C        C  264   4.400   4.011   4.725
    1C        C  265   4.438   3.949   4.846
    1C        C  266   4.318   4.133   4.960
    1C        C  267   4.397   4.018   4.960
    1C        C  268   4.261   2.779   2.064
    1C        C  269   4.198   2.733   2.181
    1C        C  270   4.346   2.890   2.299
    1C        C  271   4.254   2.781   2.301
    1C        C  272   4.379   2.955   2.420
    1C        C  273   4.342   2.896   2.542
    1C        C  274   4.448   3.082   2.662
    1C        C  275   4.376   2.960   2.664
    1C        C  276   4.481   3.150   2.782
    1C        C  277   4.449   3.087   2.904
    1C        C  278   4.508   3.292   3.025
    1C        C  279   4.473   3.156   3.025
    1C        C  280   4.519   3.365   3.146
    1C        C  281   4.507   3.297   3.270
    1C        C  282   4.529   3.509   3.391
    1C        C  283   4.519   3.368   3.391
    1C        C  284   4.526   3.583   3.511
    1C        C  285   4.527   3.514   3.635
    1C        C  286   4.498   3.726   3.754
    1C        C  287   4.529   3.588   3.755
    1C        C  288   4.479   3.795   3.876
    1C        C  289   4.503   3.730   3.999
    1C        C  290   4.426   3.929   4.119
    1C        C  291   4.480   3.798   4.121
    1C        C  292   4.397   3.996   4.239
    1C        C  293   4.424   3.933   4.363
    1C        C  294   4.326   4.126   4.481
    1C        C  295   4.393   4.002   4.483
    1C        C  296   4.286   4.190   4.601
    1C        C  297   4.329   4.134   4.723
    1C        C  298   4.200   4.315   4.838
    1C        C  299   4.285   4.200   4.841
    1C        C  300   4.172   4.402   4.948
    1C        C  301   4.351   2.884   2.064
    1C        C  302   4.472   3.069   2.179
    1C        C  303   4.400   2.945   2.180
    1C        C  304   4.479   3.146   2.298
    1C        C  305   4.449   3.078   2.419
    1C        C  306   4.515   3.282   2.537
    1C        C  307   4.478   3.145   2.539
    1C        C  308   4.522   3.355   2.657
    1C        C  309   4.508   3.289   2.781
    1C        C  310   4.528   3.502   2.902
    1C        C  311   4.521   3.360   2.902
    1C        C  312   4.520   3.575   3.022
    1C        C  313   4.523   3.506   3.146
    1C        C  314   4.498   3.717   3.264
    1C        C  315   4.522   3.577   3.267
    1C        C  316   4.484   3.788   3.385
    1C        C  317   4.498   3.721   3.509
    1C        C  318   4.424   3.921   3.627
    1C        C  319   4.476   3.790   3.630
    1C        C  320   4.390   3.983   3.750
    1C        C  321   4.424   3.925   3.874
    1C        C  322   4.317   4.109   3.993
    1C        C  323   4.390   3.988   3.996
    1C        C  324   4.279   4.171   4.114
    1C        C  325   4.324   4.117   4.237
    1C        C  326   4.187   4.282   4.355
    1C        C  327   4.285   4.180   4.357
    1C        C  328   4.134   4.337   4.473
    1C        C  329   4.185   4.289   4.596
    1C        C  330   4.024   4.433   4.716
    1C        C  331   4.136   4.347   4.715
    1C        C  332   3.971   4.494   4.832
    1C        C  333   4.056   4.480   4.942
    1C        C  334   4.557   3.266   2.064
    1C        C  335   4.540   3.128   2.068
    1C        C  336   4.545   3.351   2.175
    1C        C  337   4.514   3.284   2.295
    1C        C  338   4.525   3.496   2.411
    1C        C  339   4.527   3.354   2.416
    1C        C  340   4.522   3.567   2.533
    1C        C  341   4.525   3.496   2.656
    1C        C  342   4.488   3.705   2.776
    1C        C  343   4.518   3.567   2.778
    1C        C  344   4.476   3.779   2.896
    1C        C  345   4.494   3.714   3.020
    1C        C  346   4.414   3.911   3.138
    1C        C  347   4.470   3.782   3.142
    1C        C  348   4.389   3.978   3.260
    1C        C  349   4.428   3.918   3.382
    1C        C  350   4.316   4.101   3.503
    1C        C  351   4.393   3.982   3.503
    1C        C  352   4.276   4.162   3.624
    1C        C  353   4.321   4.106   3.745
    1C        C  354   4.174   4.259   3.867
    1C        C  355   4.274   4.159   3.868
    1C        C  356   4.121   4.310   3.987
    1C        C  357   4.173   4.264   4.110
    1C        C  358   4.011   4.399   4.232
    1C        C  359   4.126   4.317   4.232
    1C        C  360   3.951   4.443   4.352
    1C        C  361   4.015   4.413   4.474
    1C        C  362   3.830   4.522   4.594
    1C        C  363   3.956   4.457   4.594
    1C        C  364   3.763   4.552   4.714
    1C        C  365   3.840   4.545   4.833
    1C        C  366   3.632   4.588   4.951
    1C        C  367   3.770   4.571   4.952
    1C        C  368   4.521   3.563   2.052
    1C        C  369   4.535   3.492   2.172
    1C        C  370   4.502   3.708   2.290
    1C        C  371   4.525   3.568   2.290
    1C        C  372   4.490   3.778   2.411
    1C        C  373   4.503   3.707   2.532
    1C        C  374   4.418   3.904   2.649
    1C        C  375   4.469   3.772   2.653
    1C        C  376   4.389   3.970   2.770
    1C        C  377   4.426   3.911   2.893
    1C        C  378   4.317   4.095   3.013
    1C        C  379   4.391   3.975   3.014
    1C        C  380   4.266   4.149   3.133
    1C        C  381   4.307   4.093   3.257
    1C        C  382   4.174   4.255   3.379
    1C        C  383   4.271   4.153   3.380
    1C        C  384   4.121   4.306   3.500
    1C        C  385   4.175   4.261   3.623
    1C        C  386   4.005   4.389   3.743
    1C        C  387   4.120   4.306   3.745
    1C        C  388   3.945   4.428   3.864
    1C        C  389   4.007   4.394   3.986
    1C        C  390   3.819   4.487   4.110
    1C        C  391   3.949   4.432   4.109
    1C        C  392   3.750   4.516   4.230
    1C        C  393   3.821   4.499   4.350
    1C        C  394   3.619   4.557   4.474
    1C        C  395   3.758   4.532   4.473
    1C        C  396   3.548   4.570   4.595
    1C        C  397   3.623   4.564   4.715
    1C        C  398   3.412   4.554   4.839
    1C        C  399   3.552   4.574   4.837
    1C        C  400   3.342   4.522   4.956
    1C        C  401   4.509   3.702   2.052
    1C        C  402   4.458   3.915   2.170
    1C        C  403   4.493   3.778   2.168
    1C        C  404   4.414   3.979   2.287
    1C        C  405   4.439   3.910   2.408
    1C        C  406   4.324   4.094   2.526
    1C        C  407   4.394   3.971   2.527
    1C        C  408   4.278   4.150   2.647
    1C        C  409   4.316   4.092   2.770
    1C        C  410   4.175   4.252   2.889
    1C        C  411   4.275   4.152   2.891
    1C        C  412   4.120   4.299   3.011
    1C        C  413   4.169   4.252   3.135
    1C        C  414   4.002   4.380   3.256
    1C        C  415   4.118   4.299   3.257
    1C        C  416   3.941   4.415   3.378
    1C        C  417   4.003   4.383   3.501
    1C        C  418   3.815   4.485   3.622
    1C        C  419   3.942   4.424   3.621
    1C        C  420   3.747   4.507   3.744
    1C        C  421   3.814   4.482   3.866
    1C        C  422   3.613   4.545   3.988
    1C        C  423   3.750   4.510   3.989
    1C        C  424   3.541   4.552   4.110
    1C        C  425   3.612   4.547   4.232
    1C        C  426   3.402   4.552   4.357
    1C        C  427   3.543   4.557   4.355
    1C        C  428   3.332   4.546   4.479
    1C        C  429   3.407   4.557   4.598
    1C        C  430   3.197   4.518   4.721
    1C        C  431   3.337   4.546   4.720
    1C        C  432   3.128   4.498   4.843
    1C        C  433   3.205   4.496   4.960
    1C        C  434   4.386   4.120   2.051
    1C        C  435   4.448   3.994   2.054
    1C        C  436   4.303   4.160   2.160
    1C        C  437   4.334   4.097   2.284
    1C        C  438   4.186   4.254   2.403
    1C        C  439   4.285   4.153   2.404
    1C        C  440   4.125   4.296   2.523
    1C        C  441   4.176   4.247   2.646
    1C        C  442   4.005   4.377   2.768
    1C        C  443   4.120   4.295   2.766
    1C        C  444   3.942   4.412   2.890
    1C        C  445   4.006   4.381   3.012
    1C        C  446   3.812   4.470   3.132
    1C        C  447   3.943   4.418   3.133
    1C        C  448   3.747   4.499   3.254
    1C        C  449   3.813   4.475   3.376
    1C        C  450   3.611   4.535   3.499
    1C        C  451   3.749   4.505   3.499
    1C        C  452   3.541   4.545   3.622
    1C        C  453   3.609   4.540   3.745
    1C        C  454   3.399   4.549   3.864
    1C        C  455   3.540   4.554   3.867
    1C        C  456   3.333   4.538   3.989
    1C        C  457   3.400   4.551   4.112
    1C        C  458   3.195   4.503   4.238
    1C        C  459   3.331   4.542   4.235
    1C        C  460   3.124   4.489   4.359
    1C        C  461   3.193   4.518   4.479
    1C        C  462   2.999   4.434   4.604
    1C        C  463   3.125   4.497   4.601
    1C        C  464   2.936   4.398   4.726
    1C        C  465   2.995   4.445   4.846
    1C        C  466   2.803   4.339   4.962
    1C        C  467   2.911   4.429   4.960
    1C        C  468   4.130   4.294   2.042
    1C        C  469   4.187   4.245   2.161
    1C        C  470   4.009   4.370   2.280
    1C        C  471   4.131   4.297   2.280
    1C        C  472   3.940   4.399   2.400
    1C        C  473   4.004   4.368   2.522
    1C        C  474   3.815   4.465   2.645
    1C        C  475   3.946   4.410   2.644
    1C        C  476   3.746   4.492   2.765
    1C        C  477   3.815   4.473   2.887
    1C        C  478   3.608   4.525   3.012
    1C        C  479   3.746   4.495   3.009
    1C        C  480   3.537   4.533   3.133
    1C        C  481   3.609   4.528   3.255
    1C        C  482   3.398   4.543   3.379
    1C        C  483   3.540   4.545   3.377
    1C        C  484   3.326   4.537   3.500
    1C        C  485   3.400   4.547   3.620
    1C        C  486   3.193   4.498   3.745
    1C        C  487   3.329   4.536   3.741
    1C        C  488   3.131   4.478   3.870
    1C        C  489   3.196   4.502   3.992
    1C        C  490   3.007   4.410   4.118
    1C        C  491   3.130   4.479   4.115
    1C        C  492   2.942   4.379   4.240
    1C        C  493   2.998   4.425   4.361
    1C        C  494   2.830   4.300   4.485
    1C        C  495   2.938   4.391   4.484
    1C        C  496   2.777   4.256   4.608
    1C        C  497   2.823   4.311   4.730
    1C        C  498   2.665   4.165   4.846
    1C        C  499   2.753   4.276   4.847
    1C        C  500   2.599   4.116   4.959
    1C        C  501   4.002   4.348   2.043
    1C        C  502   3.816   4.463   2.155
    1C        C  503   3.943   4.401   2.159
    1C        C  504   3.748   4.487   2.277
    1C        C  505   3.813   4.461   2.399
    1C        C  506   3.608   4.510   2.522
    1C        C  507   3.747   4.483   2.522
    1C        C  508   3.536   4.524   2.643
    1C        C  509   3.607   4.516   2.765
    1C        C  510   3.399   4.525   2.887
    1C        C  511   3.540   4.531   2.888
    1C        C  512   3.329   4.521   3.010
    1C        C  513   3.396   4.532   3.134
    1C        C  514   3.191   4.493   3.257
    1C        C  515   3.327   4.530   3.257
    1C        C  516   3.125   4.464   3.379
    1C        C  517   3.191   4.494   3.501
    1C        C  518   3.002   4.403   3.629
    1C        C  519   3.126   4.469   3.624
    1C        C  520   2.946   4.368   3.754
    1C        C  521   3.007   4.409   3.875
    1C        C  522   2.840   4.278   3.998
    1C        C  523   2.949   4.367   3.996
    1C        C  524   2.787   4.232   4.121
    1C        C  525   2.834   4.288   4.241
    1C        C  526   2.701   4.127   4.368
    1C        C  527   2.786   4.239   4.365
    1C        C  528   2.657   4.072   4.491
    1C        C  529   2.690   4.145   4.607
    1C        C  530   2.581   3.963   4.735
    1C        C  531   2.639   4.093   4.728
    1C        C  532   2.542   3.898   4.855
    1C        C  533   2.528   3.996   4.959
    1C        C  534   3.618   4.554   2.041
    1C        C  535   3.749   4.504   2.040
    1C        C  536   3.538   4.534   2.158
    1C        C  537   3.609   4.515   2.280
    1C        C  538   3.395   4.515   2.401
    1C        C  539   3.537   4.517   2.401
    1C        C  540   3.323   4.514   2.522
    1C        C  541   3.395   4.522   2.644
    1C        C  542   3.186   4.492   2.768
    1C        C  543   3.325   4.517   2.767
    1C        C  544   3.123   4.465   2.892
    1C        C  545   3.193   4.484   3.013
    1C        C  546   3.000   4.399   3.136
    1C        C  547   3.125   4.466   3.136
    1C        C  548   2.943   4.359   3.259
    1C        C  549   3.000   4.398   3.382
    1C        C  550   2.832   4.278   3.507
    1C        C  551   2.941   4.367   3.507
    1C        C  552   2.783   4.230   3.631
    1C        C  553   2.836   4.279   3.752
    1C        C  554   2.703   4.117   3.877
    1C        C  555   2.790   4.229   3.876
    1C        C  556   2.660   4.062   4.000
    1C        C  557   2.696   4.124   4.122
    1C        C  558   2.596   3.941   4.251
    1C        C  559   2.662   4.066   4.246
    1C        C  560   2.560   3.881   4.373
    1C        C  561   2.584   3.951   4.494
    1C        C  562   2.536   3.749   4.618
    1C        C  563   2.555   3.889   4.617
    1C        C  564   2.521   3.681   4.741
    1C        C  565   2.517   3.757   4.861
    1C        C  566   2.530   3.546   4.981
    1C        C  567   2.521   3.685   4.981
    1C        C  568   3.330   4.477   2.040
    1C        C  569   3.398   4.512   2.157
    1C        C  570   3.188   4.471   2.282
    1C        C  571   3.325   4.509   2.279
    1C        C  572   3.117   4.454   2.403
    1C        C  573   3.185   4.486   2.523
    1C        C  574   2.997   4.397   2.647
    1C        C  575   3.119   4.467   2.646
    1C        C  576   2.941   4.354   2.769
    1C        C  577   3.002   4.392   2.891
    1C        C  578   2.834   4.267   3.016
    1C        C  579   2.942   4.358   3.014
    1C        C  580   2.785   4.220   3.140
    1C        C  581   2.835   4.268   3.262
    1C        C  582   2.697   4.111   3.386
    1C        C  583   2.784   4.222   3.386
    1C        C  584   2.662   4.054   3.511
    1C        C  585   2.702   4.115   3.632
    1C        C  586   2.594   3.934   3.759
    1C        C  587   2.661   4.059   3.755
    1C        C  588   2.567   3.872   3.883
    1C        C  589   2.593   3.938   4.005
    1C        C  590   2.532   3.738   4.130
    1C        C  591   2.568   3.875   4.129
    1C        C  592   2.520   3.672   4.254
    1C        C  593   2.530   3.743   4.375
    1C        C  594   2.510   3.535   4.500
    1C        C  595   2.521   3.675   4.499
    1C        C  596   2.515   3.464   4.622
    1C        C  597   2.519   3.539   4.742
    1C        C  598   2.540   3.328   4.863
    1C        C  599   2.530   3.469   4.864
    1C        C  600   2.538   3.251   4.980
    1C        C  601   3.198   4.435   2.046
    1C        C  602   2.984   4.394   2.160
    1C        C  603   3.119   4.440   2.162
    1C        C  604   2.926   4.354   2.283
    1C        C  605   2.990   4.392   2.403
    1C        C  606   2.821   4.271   2.530
    1C        C  607   2.931   4.359   2.527
    1C        C  608   2.775   4.216   2.651
    1C        C  609   2.832   4.265   2.771
    1C        C  610   2.690   4.110   2.896
    1C        C  611   2.783   4.215   2.895
    1C        C  612   2.654   4.053   3.020
    1C        C  613   2.695   4.110   3.142
    1C        C  614   2.592   3.926   3.266
    1C        C  615   2.653   4.054   3.265
    1C        C  616   2.569   3.863   3.390
    1C        C  617   2.598   3.928   3.512
    1C        C  618   2.530   3.732   3.637
    1C        C  619   2.572   3.867   3.637
    1C        C  620   2.511   3.666   3.761
    1C        C  621   2.524   3.737   3.882
    1C        C  622   2.509   3.530   4.010
    1C        C  623   2.517   3.671   4.007
    1C        C  624   2.514   3.459   4.132
    1C        C  625   2.516   3.531   4.254
    1C        C  626   2.538   3.323   4.383
    1C        C  627   2.516   3.463   4.378
    1C        C  628   2.556   3.253   4.504
    1C        C  629   2.536   3.324   4.624
    1C        C  630   2.598   3.117   4.746
    1C        C  631   2.553   3.252   4.745
    1C        C  632   2.618   3.048   4.868
    1C        C  633   2.567   3.114   4.984
    1C        C  634   2.779   4.307   2.056
    1C        C  635   2.892   4.389   2.050
    1C        C  636   2.747   4.228   2.167
    1C        C  637   2.811   4.270   2.286
    1C        C  638   2.679   4.109   2.410
    1C        C  639   2.765   4.221   2.410
    1C        C  640   2.640   4.049   2.532
    1C        C  641   2.686   4.107   2.653
    1C        C  642   2.586   3.922   2.779
    1C        C  643   2.645   4.050   2.776
    1C        C  644   2.565   3.854   2.901
    1C        C  645   2.594   3.925   3.020
    1C        C  646   2.527   3.726   3.149
    1C        C  647   2.568   3.861   3.143
    1C        C  648   2.512   3.657   3.271
    1C        C  649   2.529   3.727   3.393
    1C        C  650   2.506   3.520   3.521
    1C        C  651   2.514   3.661   3.516
    1C        C  652   2.509   3.453   3.645
    1C        C  653   2.507   3.525   3.767
    1C        C  654   2.534   3.316   3.891
    1C        C  655   2.513   3.456   3.890
    1C        C  656   2.555   3.250   4.014
    1C        C  657   2.539   3.320   4.136
    1C        C  658   2.609   3.125   4.259
    1C        C  659   2.553   3.255   4.260
    1C        C  660   2.640   3.061   4.381
    1C        C  661   2.604   3.120   4.504
    1C        C  662   2.712   2.935   4.628
    1C        C  663   2.636   3.054   4.625
    1C        C  664   2.751   2.875   4.749
    1C        C  665   2.697   2.929   4.869
    1C        C  666   2.748   2.874   4.988
    1C        C  667   2.681   4.024   2.052
    1C        C  668   2.683   4.103   2.168
    1C        C  669   2.588   3.912   2.291
    1C        C  670   2.646   4.042   2.290
    1C        C  671   2.556   3.852   2.414
    1C        C  672   2.577   3.923   2.534
    1C        C  673   2.516   3.721   2.659
    1C        C  674   2.553   3.857   2.657
    1C        C  675   2.504   3.651   2.781
    1C        C  676   2.520   3.721   2.903
    1C        C  677   2.504   3.513   3.030
    1C        C  678   2.512   3.654   3.028
    1C        C  679   2.506   3.445   3.154
    1C        C  680   2.502   3.516   3.276
    1C        C  681   2.530   3.308   3.403
    1C        C  682   2.507   3.448   3.400
    1C        C  683   2.554   3.243   3.526
    1C        C  684   2.536   3.315   3.646
    1C        C  685   2.609   3.117   3.771
    1C        C  686   2.552   3.246   3.769
    1C        C  687   2.641   3.057   3.895
    1C        C  688   2.605   3.118   4.017
    1C        C  689   2.710   2.935   4.140
    1C        C  690   2.633   3.054   4.140
    1C        C  691   2.759   2.884   4.263
    1C        C  692   2.717   2.942   4.384
    1C        C  693   2.759   2.883   4.505
    1C        C  694   2.626   3.895   2.053
    1C        C  695   2.529   3.705   2.177
    1C        C  696   2.579   3.837   2.172
    1C        C  697   2.506   3.639   2.300
    1C        C  698   2.515   3.716   2.417
    1C        C  699   2.487   3.507   2.542
    1C        C  700   2.498   3.648   2.539
    1C        C  701   2.504   3.438   2.664
    1C        C  702   2.499   3.510   2.785
    1C        C  703   2.528   3.302   2.912
    1C        C  704   2.504   3.441   2.909
    1C        C  705   2.548   3.235   3.035
    1C        C  706   2.532   3.306   3.156
    1C        C  707   2.600   3.110   3.280
    1C        C  708   2.547   3.241   3.280
    1C        C  709   2.637   3.050   3.403
    1C        C  710   2.611   3.114   3.527
    1C        C  711   2.716   2.933   3.650
    1C        C  712   2.639   3.051   3.650
    1C        C  713   2.762   2.881   3.773
    1C        C  714   2.717   2.938   3.895
    1C        C  715   2.757   2.883   4.018
    1C        C  716   2.457   3.500   2.061
    1C        C  717   2.491   3.636   2.062
    1C        C  718   2.468   3.423   2.181
    1C        C  719   2.481   3.499   2.301
    1C        C  720   2.514   3.291   2.423
    1C        C  721   2.486   3.430   2.424
    1C        C  722   2.538   3.227   2.547
    1C        C  723   2.528   3.299   2.668
    1C        C  724   2.596   3.100   2.791
    1C        C  725   2.543   3.231   2.791
    1C        C  726   2.627   3.036   2.913
    1C        C  727   2.599   3.104   3.034
    1C        C  728   2.707   2.926   3.160
    1C        C  729   2.633   3.046   3.159
    1C        C  730   2.755   2.874   3.282
    1C        C  731   2.715   2.932   3.404
    1C        C  732   2.757   2.877   3.527
    1C        C  733   2.491   3.198   2.071
    1C        C  734   2.492   3.282   2.183
    1C        C  735   2.582   3.085   2.306
    1C        C  736   2.525   3.216   2.305
    1C        C  737   2.614   3.024   2.429
    1C        C  738   2.589   3.095   2.548
    1C        C  739   2.702   2.915   2.670
    1C        C  740   2.625   3.034   2.670
    1C        C  741   2.749   2.863   2.792
    1C        C  742   2.703   2.917   2.915
    1C        C  743   2.755   2.871   3.038
    1C        C  744   2.550   3.072   2.072
    1C        C  745   2.686   2.898   2.188
    1C        C  746   2.612   3.018   2.186
    1C        C  747   2.729   2.840   2.309
    1C        C  748   2.687   2.903   2.429
    1C        C  749   2.740   2.852   2.549
    1C        C  750   2.737   2.841   2.070
    1C        C  751   3.659   2.296   2.002
    1C        O  752   3.707   2.191   2.052
    1C        O  753   3.592   2.269   1.882
    1C        C  754   4.619   3.055   1.966
    1C        O  755   4.582   3.033   1.848
    1C        O  756   4.759   3.048   1.976
    1C        C  757   4.437   4.218   1.952
    1C        O  758   4.530   4.297   1.983
    1C        O  759   4.389   4.226   1.821
    1C        C  760   3.605   4.685   1.972
    1C        O  761   3.572   4.796   2.021
    1C        O  762   3.564   4.689   1.838
    1C        C  763   2.892   4.499   1.950
    1C        O  764   2.947   4.491   1.837
    1C        O  765   2.821   4.619   1.958
    1C        C  766   2.347   3.473   1.965
    1C        O  767   2.358   3.450   1.841
    1C        O  768   2.217   3.510   2.001
    1C        C  769   4.691   3.589   5.061
    1C        O  770   4.675   3.607   5.184
    1C        O  771   4.828   3.577   5.036
    1C        C  772   4.255   4.419   5.070
    1C        O  773   4.213   4.368   5.177
    1C        O  774   4.332   4.532   5.101
    1C        C  775   4.122   2.544   5.096
    1C        O  776   4.134   2.423   5.131
    1C        O  777   4.117   2.621   5.213
    1C        C  778   2.898   4.541   5.056
    1C        O  779   2.798   4.614   5.079
    1C        O  780   2.942   4.522   5.188
    1C        C  781   2.509   3.049   5.104
    1C        O  782   2.401   2.984   5.102
    1C        O  783   2.580   3.026   5.221
    1C        C  784   2.405   3.994   5.041
    1C        O  785   2.310   4.065   5.000
    1C        O  786   2.420   3.994   5.181
    1C        C  787   2.945   2.427   2.006
    1C        O  788   2.971   2.416   1.883
    1C        O  789   2.893   2.308   2.053
    1C        C  790   3.199   2.401   5.085
    1C        O  791   3.181   2.278   5.064
    1C        O  792   3.170   2.435   5.218
    1C        H  793   4.246   3.039   5.036
    1C        H  794   4.146   2.841   5.057
    1C        H  795   4.510   3.124   5.055
    1C        H  796   4.492   3.376   5.063
    1C        H  797   4.571   3.812   5.045
    1C        H  798   4.434   3.985   5.055
    1C        H  799   4.268   4.160   5.051
    1C        H  800   4.023   4.516   5.038
    1C        H  801   3.814   4.540   5.044
    1C        H  802   3.599   4.662   5.020
    1C        H  803   3.396   4.525   5.048
    1C        H  804   3.176   4.422   5.033
    1C        H  805   3.907   2.441   5.032
    1C        H  806   3.677   2.433   5.066
    1C        H  807   3.000   2.567   5.068
    1C        H  808   3.448   2.432   5.065
    1C        H  809   2.868   2.728   5.079
    1C        H  810   2.682   2.862   5.071
    1C        H  811   2.486   3.290   5.066
    1C        H  812   2.523   3.495   5.075
    1C        H  813   2.507   3.737   5.073
    1C        H  814   2.609   4.172   5.050
    1C        H  815   2.757   4.327   5.058
    1C        H  816   2.732   2.897   1.979
    1C        H  817   2.839   2.679   1.979
    1C        H  818   3.199   2.393   2.007
    1C        H  819   3.431   2.450   1.984
    1C        H  820   3.854   2.517   1.974
    1C        H  821   4.073   2.610   1.971
    1C        H  822   4.256   2.713   1.979
    1C        H  823   4.355   2.940   1.972
    1C        H  824   4.615   3.304   1.982
    1C        H  825   4.476   3.512   1.969
    1C        H  826   4.528   3.751   1.959
    1C        H  827   3.789   4.490   1.941
    1C        H  828   3.961   4.367   1.946
    1C        H  829   4.196   4.324   1.963
    1C        H  830   4.509   3.963   1.972
    1C        H  831   2.625   3.849   1.957
    1C        H  832   2.709   4.068   1.958
    1C        H  833   2.695   4.334   1.995
    1C        H  834   3.390   4.458   1.953
    1C        H  835   3.154   4.421   1.949
    1C        H  836   2.545   3.012   1.984
    1C        H  837   2.443   3.230   1.981
    1C        H  838   2.460   3.692   1.976
    2V3OU   H29  839   2.792   3.550   6.343
    2V3OU   C27  840   2.781   3.499   6.442
    2V3OU   H27  841   2.720   3.569   6.505
    2V3OU   H28  842   2.725   3.403   6.433
    2V3OU   O11  843   2.909   3.475   6.503
    2V3OU   C15  844   2.919   3.394   6.614
    2V3OU   C13  845   3.046   3.375   6.672
    2V3OU   C14  846   3.074   3.269   6.759
    2V3OU   C16  847   2.969   3.191   6.805
    2V3OU    H6  848   2.997   3.101   6.860
    2V3OU   C12  849   3.214   3.235   6.796
    2V3OU    O2  850   3.236   3.126   6.854
    2V3OU   C10  851   3.326   3.308   6.736
    2V3OU    C8  852   3.457   3.266   6.752
    2V3OU   O10  853   3.487   3.156   6.827
    2V3OU   H26  854   3.405   3.119   6.865
    2V3OU    C6  855   3.562   3.345   6.696
    2V3OU    C5  856   3.538   3.467   6.634
    2V3OU    C4  857   3.701   3.295   6.678
    2V3OU    H4  858   3.728   3.224   6.762
    2V3OU    H5  859   3.710   3.231   6.586
    2V3OU    C2  860   3.816   3.397   6.680
    2V3OU    O6  861   3.808   3.478   6.797
    2V3OU   H21  862   3.762   3.559   6.771
    2V3OU    C3  863   3.780   3.494   6.567
    2V3OU    H2  864   3.862   3.570   6.566
    2V3OU    H3  865   3.777   3.441   6.468
    2V3OU   C25  866   3.950   3.329   6.655
    2V3OU    O7  867   4.006   3.307   6.547
    2V3OU   C26  868   4.032   3.290   6.777
    2V3OU   H22  869   4.064   3.388   6.822
    2V3OU   H23  870   4.123   3.233   6.744
    2V3OU    O8  871   3.962   3.211   6.870
    2V3OU   H24  872   3.931   3.265   6.945
    2V3OU    C1  873   3.647   3.562   6.595
    2V3OU    H1  874   3.621   3.620   6.502
    2V3OU    O3  875   3.660   3.656   6.702
    2V3OU   C19  876   3.616   3.792   6.695
    2V3OU    H9  877   3.513   3.796   6.650
    2V3OU    O4  878   3.713   3.854   6.613
    2V3OU   C20  879   3.845   3.875   6.664
    2V3OU   H10  880   3.901   3.777   6.670
    2V3OU   C24  881   3.607   3.855   6.835
    2V3OU   H16  882   3.542   3.793   6.902
    2V3OU   H17  883   3.565   3.957   6.815
    2V3OU   C23  884   3.748   3.875   6.891
    2V3OU   H15  885   3.795   3.773   6.909
    2V3OU    N1  886   3.737   3.954   7.012
    2V3OU   H19  887   3.810   3.928   0.049
    2V3OU   H20  888   3.645   3.934   0.022
    2V3OU   C21  889   3.849   3.949   6.798
    2V3OU   H11  890   3.952   3.930   6.841
    2V3OU    O5  891   3.830   4.090   6.802
    2V3OU   H18  892   3.777   4.103   6.882
    2V3OU   C22  893   3.914   3.954   6.554
    2V3OU   H12  894   3.861   4.052   6.542
    2V3OU   H13  895   3.915   3.893   6.460
    2V3OU   H14  896   4.023   3.964   6.578
    2V3OU   C11  897   3.155   3.469   6.641
    2V3OU    O1  898   3.128   3.585   6.603
    2V3OU    C9  899   3.294   3.427   6.665
    2V3OU    C7  900   3.400   3.505   6.619
    2V3OU    O9  901   3.387   3.621   6.547
    2V3OU   H25  902   3.296   3.627   6.511
    2V3OU   C17  903   2.817   3.313   6.668
    2V3OU    H7  904   2.714   3.340   6.646
    2V3OU   C18  905   2.838   3.210   6.760
    2V3OU    H8  906   2.756   3.153   6.804
    3SOL     OW  907   2.897   3.840   5.043
    3SOL    HW1  908   2.961   3.862   4.970
    3SOL    HW2  909   2.803   3.855   5.012
    4SOL     OW  910   1.443   0.029   0.711
    4SOL    HW1  911   1.444   0.129   0.703
    4SOL    HW2  912   1.441   7.014   0.619
    5SOL     OW  913   3.977   1.904   0.882
    5SOL    HW1  914   3.975   1.929   0.785
    5SOL    HW2  915   4.071   1.881   0.909
    6SOL     OW  916   3.285   1.884   2.063
    6SOL    HW1  917   3.303   1.916   2.156
    6SOL    HW2  918   3.359   1.913   2.003
    7SOL     OW  919   2.298   2.643   4.556
    7SOL    HW1  920   2.303   2.725   4.500
    7SOL    HW2  921   2.314   2.667   4.652
    8SOL     OW  922   1.417   2.040   6.097
    8SOL    HW1  923   1.439   2.053   6.194
    8SOL    HW2  924   1.321   2.061   6.082
    9SOL     OW  925   2.394   2.358   5.636
    9SOL    HW1  926   2.347   2.274   5.664
    9SOL    HW2  927   2.342   2.402   5.563
   10SOL     OW  928   5.289   4.909   0.840
   10SOL    HW1  929   5.311   5.004   0.817
   10SOL    HW2  930   5.195   4.905   0.876
   11SOL     OW  931   3.096   1.271   0.465
   11SOL    HW1  932   3.058   1.326   0.540
   11SOL    HW2  933   3.112   1.178   0.499
   12SOL     OW  934   5.626   5.066   1.184
   12SOL    HW1  935   5.632   5.121   1.267
   12SOL    HW2  936   5.556   4.996   1.196
   13SOL     OW  937   4.113   5.283   1.611
   13SOL    HW1  938   4.040   5.224   1.646
   13SOL    HW2  939   4.130   5.357   1.675
   14SOL     OW  940   4.320   6.012   0.814
   14SOL    HW1  941   4.234   5.963   0.829
   14SOL    HW2  942   4.315   6.101   0.859
   15SOL     OW  943   0.528   0.220   6.459
   15SOL    HW1  944   0.525   0.213   6.559
   15SOL    HW2  945   0.509   0.315   6.432
   16SOL     OW  946   1.938   4.988   5.662
   16SOL    HW1  947   1.841   4.981   5.641
   16SOL    HW2  948   1.985   5.036   5.588
   17SOL     OW  949   0.084   1.899   3.928
   17SOL    HW1  950   0.009   1.959   3.900
   17SOL    HW2  951   0.089   1.896   4.028
   18SOL     OW  952   2.731   0.178   5.512
   18SOL    HW1  953   2.740   0.107   5.583
   18SOL    HW2  954   2.666   0.147   5.443
   19SOL     OW  955   4.525   6.072   3.020
   19SOL    HW1  956   4.439   6.069   3.070
   19SOL    HW2  957   4.575   5.986   3.034
   20SOL     OW  958   0.411   1.613   4.746
   20SOL    HW1  959   0.458   1.648   4.665
   20SOL    HW2  960   0.348   1.682   4.781
   21SOL     OW  961   1.991   3.059   1.811
   21SOL    HW1  962   1.951   3.020   1.729
   21SOL    HW2  963   2.062   2.998   1.846
   22SOL     OW  964   0.810   0.682   0.602
   22SOL    HW1  965   0.896   0.706   0.557
   22SOL    HW2  966   0.768   0.606   0.553
   23SOL     OW  967   0.764   5.648   0.489
   23SOL    HW1  968   0.734   5.553   0.491
   23SOL    HW2  969   0.685   5.708   0.484
   24SOL     OW  970   4.616   0.652   6.942
   24SOL    HW1  971   4.538   0.711   6.961
   24SOL    HW2  972   4.680   0.700   6.882
   25SOL     OW  973   1.270   0.814   5.598
   25SOL    HW1  974   1.355   0.846   5.641
   25SOL    HW2  975   1.199   0.883   5.608
   26SOL     OW  976   2.632   6.831   5.381
   26SOL    HW1  977   2.554   6.807   5.438
   26SOL    HW2  978   2.601   6.854   5.289
   27SOL     OW  979   6.871   0.250   2.477
   27SOL    HW1  980   6.958   0.269   2.431
   27SOL    HW2  981   6.802   0.316   2.446
   28SOL     OW  982   2.291   0.842   5.012
   28SOL    HW1  983   2.310   0.918   5.073
   28SOL    HW2  984   2.339   0.855   4.926
   29SOL     OW  985   5.696   0.710   1.280
   29SOL    HW1  986   5.621   0.675   1.336
   29SOL    HW2  987   5.704   0.656   1.197
   30SOL     OW  988   5.114   6.408   4.795
   30SOL    HW1  989   5.158   6.341   4.736
   30SOL    HW2  990   5.031   6.368   4.834
   31SOL     OW  991   6.420   4.205   4.035
   31SOL    HW1  992   6.359   4.133   4.067
   31SOL    HW2  993   6.514   4.171   4.032
   32SOL     OW  994   3.096   1.298   1.694
   32SOL    HW1  995   3.127   1.206   1.721
   32SOL    HW2  996   3.027   1.290   1.622
   33SOL     OW  997   1.897   4.264   5.175
   33SOL    HW1  998   1.992   4.232   5.180
   33SOL    HW2  999   1.857   4.262   5.267
   34SOL     OW 1000   2.881   6.845   5.139
   34SOL    HW1 1001   2.862   6.856   5.042
   34SOL    HW2 1002   2.804   6.801   5.184
   35SOL     OW 1003   1.370   3.335   4.881
   35SOL    HW1 1004   1.441   3.264   4.880
   35SOL    HW2 1005   1.351   3.362   4.975
   36SOL     OW 1006   5.275   1.330   4.042
   36SOL    HW1 1007   5.223   1.414   4.058
   36SOL    HW2 1008   5.341   1.345   3.969
   37SOL     OW 1009   1.022   5.641   4.174
   37SOL    HW1 1010   0.957   5.649   4.099
   37SOL    HW2 1011   1.105   5.595   4.142
   38SOL     OW 1012   0.823   3.187   1.883
   38SOL    HW1 1013   0.770   3.242   1.819
   38SOL    HW2 1014   0.862   3.109   1.836
   39SOL     OW 1015   6.294   5.334   1.138
   39SOL    HW1 1016   6.331   5.290   1.219
   39SOL    HW2 1017   6.342   5.420   1.121
   40SOL     OW 1018   4.148   0.896   6.378
   40SOL    HW1 1019   4.116   0.989   6.362
   40SOL    HW2 1020   4.240   0.885   6.342
   41SOL     OW 1021   0.203   3.741   1.194
   41SOL    HW1 1022   0.272   3.675   1.222
   41SOL    HW2 1023   0.247   3.818   1.148
   42SOL     OW 1024   2.800   3.553   0.869
   42SOL    HW1 1025   2.755   3.563   0.958
   42SOL    HW2 1026   2.805   3.642   0.824
   43SOL     OW 1027   4.852   0.816   3.842
   43SOL    HW1 1028   4.904   0.810   3.757
   43SOL    HW2 1029   4.825   0.911   3.858
   44SOL     OW 1030   0.093   1.044   6.819
   44SOL    HW1 1031   0.039   1.082   6.894
   44SOL    HW2 1032   0.160   1.111   6.788
   45SOL     OW 1033   1.990   3.617   6.015
   45SOL    HW1 1034   2.081   3.639   6.051
   45SOL    HW2 1035   1.958   3.693   5.958
   46SOL     OW 1036   1.075   4.718   4.249
   46SOL    HW1 1037   1.093   4.649   4.319
   46SOL    HW2 1038   1.160   4.737   4.199
   47SOL     OW 1039   0.231   4.463   6.176
   47SOL    HW1 1040   0.207   4.369   6.200
   47SOL    HW2 1041   0.148   4.512   6.147
   48SOL     OW 1042   1.146   4.031   0.281
   48SOL    HW1 1043   1.056   4.025   0.326
   48SOL    HW2 1044   1.139   4.090   0.201
   49SOL     OW 1045   3.390   0.726   0.148
   49SOL    HW1 1046   3.421   0.802   0.205
   49SOL    HW2 1047   3.458   0.653   0.149
   50SOL     OW 1048   5.089   1.658   5.552
   50SOL    HW1 1049   5.047   1.590   5.612
   50SOL    HW2 1050   5.019   1.704   5.498
   51SOL     OW 1051   1.476   6.112   2.174
   51SOL    HW1 1052   1.546   6.064   2.227
   51SOL    HW2 1053   1.517   6.190   2.126
   52SOL     OW 1054   5.319   3.296   2.989
   52SOL    HW1 1055   5.383   3.370   2.971
   52SOL    HW2 1056   5.259   3.321   3.065
   53SOL     OW 1057   3.766   6.811   1.082
   53SOL    HW1 1058   3.798   6.731   1.132
   53SOL    HW2 1059   3.792   6.894   1.132
   54SOL     OW 1060   0.949   1.522   6.008
   54SOL    HW1 1061   0.963   1.525   6.107
   54SOL    HW2 1062   0.969   1.431   5.974
   55SOL     OW 1063   2.174   3.887   6.402
   55SOL    HW1 1064   2.141   3.797   6.431
   55SOL    HW2 1065   2.264   3.877   6.360
   56SOL     OW 1066   1.475   2.196   0.043
   56SOL    HW1 1067   1.428   2.204   6.981
   56SOL    HW2 1068   1.505   2.287   0.073
   57SOL     OW 1069   4.124   5.629   1.496
   57SOL    HW1 1070   4.155   5.568   1.570
   57SOL    HW2 1071   4.057   5.581   1.440
   58SOL     OW 1072   0.408   0.490   0.101
   58SOL    HW1 1073   0.330   0.537   0.142
   58SOL    HW2 1074   0.484   0.487   0.166
   59SOL     OW 1075   4.301   3.281   0.006
   59SOL    HW1 1076   4.285   3.279   6.932
   59SOL    HW2 1077   4.219   3.315   0.052
   60SOL     OW 1078   6.366   2.397   2.517
   60SOL    HW1 1079   6.391   2.413   2.612
   60SOL    HW2 1080   6.322   2.308   2.508
   61SOL     OW 1081   1.676   5.464   2.582
   61SOL    HW1 1082   1.636   5.377   2.611
   61SOL    HW2 1083   1.731   5.449   2.500
   62SOL     OW 1084   5.124   3.387   3.173
   62SOL    HW1 1085   5.088   3.358   3.084
   62SOL    HW2 1086   5.049   3.390   3.239
   63SOL     OW 1087   4.295   0.064   6.232
   63SOL    HW1 1088   4.270   6.993   6.238
   63SOL    HW2 1089   4.226   0.114   6.180
   64SOL     OW 1090   2.110   1.870   6.795
   64SOL    HW1 1091   2.118   1.798   6.863
   64SOL    HW2 1092   2.060   1.947   6.833
   65SOL     OW 1093   0.918   5.411   5.172
   65SOL    HW1 1094   0.925   5.324   5.221
   65SOL    HW2 1095   0.933   5.395   5.074
   66SOL     OW 1096   4.490   1.284   1.470
   66SOL    HW1 1097   4.478   1.376   1.430
   66SOL    HW2 1098   4.570   1.284   1.529
   67SOL     OW 1099   6.830   3.074   2.496
   67SOL    HW1 1100   6.756   3.141   2.486
   67SOL    HW2 1101   6.850   3.062   2.593
   68SOL     OW 1102   0.606   0.966   6.319
   68SOL    HW1 1103   0.660   0.902   6.373
   68SOL    HW2 1104   0.643   0.972   6.226
   69SOL     OW 1105   1.309   0.628   6.472
   69SOL    HW1 1106   1.219   0.635   6.429
   69SOL    HW2 1107   1.381   0.633   6.402
   70SOL     OW 1108   4.639   5.162   3.251
   70SOL    HW1 1109   4.710   5.133   3.187
   70SOL    HW2 1110   4.606   5.253   3.226
   71SOL     OW 1111   5.090   1.116   5.323
   71SOL    HW1 1112   5.011   1.171   5.297
   71SOL    HW2 1113   5.069   1.019   5.310
   72SOL     OW 1114   6.778   1.932   2.765
   72SOL    HW1 1115   6.800   1.919   2.669
   72SOL    HW2 1116   6.734   1.849   2.801
   73SOL     OW 1117   2.719   0.894   1.146
   73SOL    HW1 1118   2.655   0.961   1.108
   73SOL    HW2 1119   2.740   0.825   1.077
   74SOL     OW 1120   2.520   0.817   0.345
   74SOL    HW1 1121   2.491   0.786   0.255
   74SOL    HW2 1122   2.564   0.907   0.337
   75SOL     OW 1123   2.380   2.357   1.358
   75SOL    HW1 1124   2.347   2.318   1.272
   75SOL    HW2 1125   2.415   2.285   1.417
   76SOL     OW 1126   2.982   5.293   6.463
   76SOL    HW1 1127   2.897   5.303   6.411
   76SOL    HW2 1128   3.001   5.196   6.477
   77SOL     OW 1129   0.234   4.690   4.601
   77SOL    HW1 1130   0.145   4.696   4.647
   77SOL    HW2 1131   0.294   4.629   4.653
   78SOL     OW 1132   4.847   1.237   0.727
   78SOL    HW1 1133   4.837   1.153   0.780
   78SOL    HW2 1134   4.919   1.294   0.766
   79SOL     OW 1135   1.942   4.104   4.202
   79SOL    HW1 1136   1.935   4.041   4.280
   79SOL    HW2 1137   2.015   4.073   4.141
   80SOL     OW 1138   4.015   2.262   5.382
   80SOL    HW1 1139   3.920   2.283   5.404
   80SOL    HW2 1140   4.046   2.185   5.438
   81SOL     OW 1141   2.578   4.682   2.904
   81SOL    HW1 1142   2.534   4.772   2.899
   81SOL    HW2 1143   2.600   4.650   2.812
   82SOL     OW 1144   2.643   0.600   1.444
   82SOL    HW1 1145   2.609   0.683   1.400
   82SOL    HW2 1146   2.574   0.529   1.438
   83SOL     OW 1147   6.150   2.369   3.479
   83SOL    HW1 1148   6.178   2.453   3.526
   83SOL    HW2 1149   6.231   2.319   3.449
   84SOL     OW 1150   5.022   2.360   2.872
   84SOL    HW1 1151   4.932   2.326   2.845
   84SOL    HW2 1152   5.012   2.450   2.914
   85SOL     OW 1153   2.357   5.229   3.084
   85SOL    HW1 1154   2.263   5.248   3.057
   85SOL    HW2 1155   2.420   5.279   3.024
   86SOL     OW 1156   4.458   1.126   6.437
   86SOL    HW1 1157   4.498   1.072   6.511
   86SOL    HW2 1158   4.532   1.171   6.385
   87SOL     OW 1159   2.907   2.836   6.647
   87SOL    HW1 1160   2.894   2.746   6.605
   87SOL    HW2 1161   2.976   2.829   6.720
   88SOL     OW 1162   1.150   2.155   0.772
   88SOL    HW1 1163   1.168   2.253   0.758
   88SOL    HW2 1164   1.226   2.115   0.823
   89SOL     OW 1165   4.365   3.921   5.641
   89SOL    HW1 1166   4.307   3.953   5.716
   89SOL    HW2 1167   4.421   3.844   5.672
   90SOL     OW 1168   6.641   4.428   1.728
   90SOL    HW1 1169   6.662   4.363   1.800
   90SOL    HW2 1170   6.578   4.386   1.662
   91SOL     OW 1171   5.115   5.017   0.538
   91SOL    HW1 1172   5.163   4.941   0.495
   91SOL    HW2 1173   5.176   5.097   0.542
   92SOL     OW 1174   6.381   6.209   6.825
   92SOL    HW1 1175   6.400   6.307   6.823
   92SOL    HW2 1176   6.291   6.192   6.785
   93SOL     OW 1177   2.853   3.468   2.270
   93SOL    HW1 1178   2.900   3.381   2.258
   93SOL    HW2 1179   2.809   3.470   2.360
   94SOL     OW 1180   3.553   0.866   4.435
   94SOL    HW1 1181   3.652   0.878   4.436
   94SOL    HW2 1182   3.528   0.784   4.486
   95SOL     OW 1183   1.097   6.222   4.444
   95SOL    HW1 1184   1.151   6.301   4.474
   95SOL    HW2 1185   1.147   6.138   4.464
   96SOL     OW 1186   0.090   6.566   0.015
   96SOL    HW1 1187   7.018   6.586   7.025
   96SOL    HW2 1188   0.099   6.487   0.076
   97SOL     OW 1189   3.332   4.971   4.410
   97SOL    HW1 1190   3.304   4.981   4.505
   97SOL    HW2 1191   3.253   4.987   4.350
   98SOL     OW 1192   6.533   1.948   5.190
   98SOL    HW1 1193   6.579   2.007   5.124
   98SOL    HW2 1194   6.434   1.957   5.180
   99SOL     OW 1195   4.672   4.303   4.902
   99SOL    HW1 1196   4.640   4.355   4.981
   99SOL    HW2 1197   4.603   4.308   4.829
  100SOL     OW 1198   2.260   2.134   5.460
  100SOL    HW1 1199   2.188   2.186   5.507
  100SOL    HW2 1200   2.336   2.195   5.439
  101SOL     OW 1201   5.098   2.868   2.535
  101SOL    HW1 1202   5.153   2.941   2.494
  101SOL    HW2 1203   5.001   2.893   2.529
  102SOL     OW 1204   4.354   6.273   0.946
  102SOL    HW1 1205   4.328   6.311   1.035
  102SOL    HW2 1206   4.407   6.341   0.895
  103SOL     OW 1207   2.010   2.035   0.953
  103SOL    HW1 1208   2.030   2.131   0.933
  103SOL    HW2 1209   1.915   2.015   0.929
  104SOL     OW 1210   1.013   3.561   1.435
  104SOL    HW1 1211   0.955   3.550   1.354
  104SOL    HW2 1212   0.956   3.577   1.515
  105SOL     OW 1213   0.163   2.036   4.445
  105SOL    HW1 1214   0.205   2.125   4.428
  105SOL    HW2 1215   0.130   2.033   4.539
  106SOL     OW 1216   5.161   3.765   1.486
  106SOL    HW1 1217   5.225   3.835   1.456
  106SOL    HW2 1218   5.211   3.681   1.506
  107SOL     OW 1219   4.528   0.432   2.507
  107SOL    HW1 1220   4.564   0.477   2.589
  107SOL    HW2 1221   4.596   0.366   2.474
  108SOL     OW 1222   3.630   1.284   5.281
  108SOL    HW1 1223   3.612   1.203   5.337
  108SOL    HW2 1224   3.678   1.353   5.336
  109SOL     OW 1225   2.370   1.694   4.637
  109SOL    HW1 1226   2.454   1.681   4.584
  109SOL    HW2 1227   2.391   1.746   4.720
  110SOL     OW 1228   4.442   5.101   5.666
  110SOL    HW1 1229   4.365   5.060   5.715
  110SOL    HW2 1230   4.515   5.034   5.657
  111SOL     OW 1231   6.916   3.185   0.740
  111SOL    HW1 1232   6.968   3.246   0.681
  111SOL    HW2 1233   6.885   3.234   0.821
  112SOL     OW 1234   3.573   6.456   4.543
  112SOL    HW1 1235   3.544   6.548   4.570
  112SOL    HW2 1236   3.659   6.434   4.588
  113SOL     OW 1237   1.613   5.205   2.700
  113SOL    HW1 1238   1.604   5.147   2.781
  113SOL    HW2 1239   1.523   5.242   2.677
  114SOL     OW 1240   6.860   2.534   2.013
  114SOL    HW1 1241   6.778   2.531   2.071
  114SOL    HW2 1242   6.862   2.454   1.953
  115SOL     OW 1243   4.423   1.444   3.161
  115SOL    HW1 1244   4.473   1.469   3.078
  115SOL    HW2 1245   4.426   1.520   3.225
  116SOL     OW 1246   5.964   5.860   6.553
  116SOL    HW1 1247   5.975   5.900   6.462
  116SOL    HW2 1248   5.900   5.783   6.548
  117SOL     OW 1249   2.149   1.259   0.653
  117SOL    HW1 1250   2.060   1.304   0.647
  117SOL    HW2 1251   2.172   1.243   0.748
  118SOL     OW 1252   1.310   2.270   1.546
  118SOL    HW1 1253   1.298   2.323   1.630
  118SOL    HW2 1254   1.274   2.178   1.560
  119SOL     OW 1255   5.611   5.360   4.935
  119SOL    HW1 1256   5.607   5.455   4.903
  119SOL    HW2 1257   5.664   5.356   5.019
  120SOL     OW 1258   4.492   1.676   4.252
  120SOL    HW1 1259   4.472   1.596   4.309
  120SOL    HW2 1260   4.439   1.670   4.168
  121SOL     OW 1261   0.036   5.161   5.430
  121SOL    HW1 1262   0.068   5.224   5.500
  121SOL    HW2 1263   0.016   5.072   5.472
  122SOL     OW 1264   0.686   4.842   6.155
  122SOL    HW1 1265   0.782   4.825   6.129
  122SOL    HW2 1266   0.627   4.779   6.106
  123SOL     OW 1267   0.557   2.202   0.872
  123SOL    HW1 1268   0.610   2.146   0.936
  123SOL    HW2 1269   0.565   2.298   0.898
  124SOL     OW 1270   1.736   3.736   6.743
  124SOL    HW1 1271   1.716   3.681   6.663
  124SOL    HW2 1272   1.762   3.829   6.715
  125SOL     OW 1273   4.408   3.153   1.273
  125SOL    HW1 1274   4.422   3.089   1.198
  125SOL    HW2 1275   4.343   3.224   1.245
  126SOL     OW 1276   3.668   3.398   5.244
  126SOL    HW1 1277   3.594   3.334   5.267
  126SOL    HW2 1278   3.752   3.369   5.290
  127SOL     OW 1279   0.366   4.865   5.774
  127SOL    HW1 1280   0.423   4.908   5.844
  127SOL    HW2 1281   0.295   4.929   5.744
  128SOL     OW 1282   4.925   4.409   5.965
  128SOL    HW1 1283   4.853   4.418   6.034
  128SOL    HW2 1284   4.978   4.494   5.960
  129SOL     OW 1285   0.987   5.420   2.456
  129SOL    HW1 1286   0.934   5.500   2.483
  129SOL    HW2 1287   1.079   5.427   2.492
  130SOL     OW 1288   6.619   3.656   5.197
  130SOL    HW1 1289   6.709   3.623   5.170
  130SOL    HW2 1290   6.615   3.756   5.185
  131SOL     OW 1291   0.934   3.044   2.302
  131SOL    HW1 1292   0.903   3.137   2.284
  131SOL    HW2 1293   0.967   3.003   2.217
  132SOL     OW 1294   4.031   3.537   2.341
  132SOL    HW1 1295   3.942   3.528   2.297
  132SOL    HW2 1296   4.100   3.489   2.287
  133SOL     OW 1297   4.236   4.308   5.482
  133SOL    HW1 1298   4.145   4.309   5.523
  133SOL    HW2 1299   4.255   4.217   5.444
  134SOL     OW 1300   6.914   2.246   6.942
  134SOL    HW1 1301   6.905   2.162   6.889
  134SOL    HW2 1302   7.007   2.282   6.934
  135SOL     OW 1303   4.577   5.342   4.071
  135SOL    HW1 1304   4.536   5.265   4.120
  135SOL    HW2 1305   4.514   5.373   3.999
  136SOL     OW 1306   3.761   6.084   6.349
  136SOL    HW1 1307   3.842   6.123   6.305
  136SOL    HW2 1308   3.708   6.156   6.392
  137SOL     OW 1309   2.277   4.122   0.130
  137SOL    HW1 1310   2.236   4.036   0.100
  137SOL    HW2 1311   2.209   4.175   0.181
  138SOL     OW 1312   0.769   5.846   1.323
  138SOL    HW1 1313   0.727   5.827   1.412
  138SOL    HW2 1314   0.701   5.833   1.251
  139SOL     OW 1315   0.837   6.870   1.358
  139SOL    HW1 1316   0.897   6.900   1.284
  139SOL    HW2 1317   0.888   6.874   1.444
  140SOL     OW 1318   2.579   0.059   2.471
  140SOL    HW1 1319   2.602   6.999   2.518
  140SOL    HW2 1320   2.521   0.039   2.391
  141SOL     OW 1321   2.172   1.706   7.004
  141SOL    HW1 1322   2.217   1.619   6.980
  141SOL    HW2 1323   2.207   1.737   0.067
  142SOL     OW 1324   1.616   4.651   6.197
  142SOL    HW1 1325   1.613   4.655   6.097
  142SOL    HW2 1326   1.675   4.724   6.232
  143SOL     OW 1327   5.192   6.125   2.188
  143SOL    HW1 1328   5.246   6.195   2.142
  143SOL    HW2 1329   5.135   6.078   2.122
  144SOL     OW 1330   2.254   4.985   3.315
  144SOL    HW1 1331   2.332   4.938   3.275
  144SOL    HW2 1332   2.180   4.919   3.333
  145SOL     OW 1333   6.577   6.335   3.026
  145SOL    HW1 1334   6.657   6.315   2.969
  145SOL    HW2 1335   6.501   6.276   2.997
  146SOL     OW 1336   6.681   0.966   4.526
  146SOL    HW1 1337   6.746   0.952   4.601
  146SOL    HW2 1338   6.619   1.041   4.550
  147SOL     OW 1339   6.324   6.947   5.388
  147SOL    HW1 1340   6.391   6.968   5.317
  147SOL    HW2 1341   6.357   6.871   5.444
  148SOL     OW 1342   1.901   6.776   3.585
  148SOL    HW1 1343   1.930   6.681   3.597
  148SOL    HW2 1344   1.967   6.837   3.628
  149SOL     OW 1345   1.999   2.291   4.678
  149SOL    HW1 1346   2.077   2.266   4.736
  149SOL    HW2 1347   1.938   2.351   4.730
  150SOL     OW 1348   5.347   2.873   4.650
  150SOL    HW1 1349   5.264   2.835   4.608
  150SOL    HW2 1350   5.374   2.816   4.727
  151SOL     OW 1351   5.797   2.971   1.858
  151SOL    HW1 1352   5.893   2.990   1.879
  151SOL    HW2 1353   5.792   2.905   1.783
  152SOL     OW 1354   5.958   2.243   0.360
  152SOL    HW1 1355   5.887   2.294   0.311
  152SOL    HW2 1356   5.981   2.160   0.309
  153SOL     OW 1357   2.343   1.767   3.967
  153SOL    HW1 1358   2.416   1.711   3.927
  153SOL    HW2 1359   2.262   1.710   3.983
  154SOL     OW 1360   0.308   1.521   3.474
  154SOL    HW1 1361   0.313   1.463   3.393
  154SOL    HW2 1362   0.234   1.588   3.461
  155SOL     OW 1363   5.722   4.873   3.369
  155SOL    HW1 1364   5.796   4.825   3.416
  155SOL    HW2 1365   5.733   4.860   3.270
  156SOL     OW 1366   4.163   0.229   1.180
  156SOL    HW1 1367   4.244   0.172   1.190
  156SOL    HW2 1368   4.141   0.271   1.268
  157SOL     OW 1369   4.948   0.661   0.652
  157SOL    HW1 1370   4.992   0.605   0.582
  157SOL    HW2 1371   4.910   0.743   0.610
  158SOL     OW 1372   0.835   2.389   5.679
  158SOL    HW1 1373   0.744   2.429   5.668
  158SOL    HW2 1374   0.875   2.375   5.588
  159SOL     OW 1375   0.227   5.122   6.747
  159SOL    HW1 1376   0.164   5.192   6.782
  159SOL    HW2 1377   0.216   5.113   6.648
  160SOL     OW 1378   3.842   0.124   1.760
  160SOL    HW1 1379   3.744   0.135   1.774
  160SOL    HW2 1380   3.876   0.050   1.818
  161SOL     OW 1381   6.004   6.526   0.875
  161SOL    HW1 1382   6.073   6.592   0.906
  161SOL    HW2 1383   5.926   6.528   0.937
  162SOL     OW 1384   4.416   0.301   4.879
  162SOL    HW1 1385   4.445   0.382   4.829
  162SOL    HW2 1386   4.497   0.255   4.917
  163SOL     OW 1387   1.285   3.920   3.016
  163SOL    HW1 1388   1.264   3.822   3.014
  163SOL    HW2 1389   1.327   3.944   3.103
  164SOL     OW 1390   1.929   2.144   2.495
  164SOL    HW1 1391   2.002   2.196   2.540
  164SOL    HW2 1392   1.953   2.047   2.494
  165SOL     OW 1393   0.440   5.927   4.923
  165SOL    HW1 1394   0.442   6.019   4.962
  165SOL    HW2 1395   0.389   5.866   4.984
  166SOL     OW 1396   0.793   5.141   3.618
  166SOL    HW1 1397   0.875   5.195   3.638
  166SOL    HW2 1398   0.716   5.203   3.603
  167SOL     OW 1399   0.102   1.166   3.225
  167SOL    HW1 1400   0.064   1.258   3.241
  167SOL    HW2 1401   0.030   1.098   3.240
  168SOL     OW 1402   3.305   3.880   4.257
  168SOL    HW1 1403   3.317   3.920   4.348
  168SOL    HW2 1404   3.394   3.866   4.215
  169SOL     OW 1405   5.118   2.809   6.109
  169SOL    HW1 1406   5.036   2.776   6.062
  169SOL    HW2 1407   5.199   2.765   6.070
  170SOL     OW 1408   6.727   5.563   3.034
  170SOL    HW1 1409   6.730   5.610   3.122
  170SOL    HW2 1410   6.633   5.535   3.014
  171SOL     OW 1411   3.699   2.874   0.974
  171SOL    HW1 1412   3.714   2.789   0.924
  171SOL    HW2 1413   3.620   2.922   0.935
  172SOL     OW 1414   1.585   0.693   0.342
  172SOL    HW1 1415   1.499   0.744   0.343
  172SOL    HW2 1416   1.603   0.657   0.433
  173SOL     OW 1417   5.695   0.942   5.204
  173SOL    HW1 1418   5.706   0.959   5.106
  173SOL    HW2 1419   5.709   0.845   5.223
  174SOL     OW 1420   6.773   4.460   4.686
  174SOL    HW1 1421   6.862   4.417   4.701
  174SOL    HW2 1422   6.721   4.407   4.618
  175SOL     OW 1423   0.772   5.535   2.587
  175SOL    HW1 1424   0.738   5.481   2.664
  175SOL    HW2 1425   0.752   5.632   2.604
  176SOL     OW 1426   6.094   4.060   0.796
  176SOL    HW1 1427   6.109   3.961   0.804
  176SOL    HW2 1428   6.023   4.077   0.727
  177SOL     OW 1429   5.357   2.699   3.260
  177SOL    HW1 1430   5.283   2.766   3.249
  177SOL    HW2 1431   5.370   2.649   3.175
  178SOL     OW 1432   1.648   5.050   4.942
  178SOL    HW1 1433   1.727   5.050   5.004
  178SOL    HW2 1434   1.675   5.011   4.854
  179SOL     OW 1435   3.030   4.063   1.976
  179SOL    HW1 1436   3.099   4.089   1.908
  179SOL    HW2 1437   2.970   4.141   1.994
  180SOL     OW 1438   4.279   0.576   6.048
  180SOL    HW1 1439   4.242   0.506   5.987
  180SOL    HW2 1440   4.277   0.664   6.002
  181SOL     OW 1441   3.315   6.539   5.211
  181SOL    HW1 1442   3.380   6.611   5.237
  181SOL    HW2 1443   3.260   6.570   5.134
  182SOL     OW 1444   3.189   2.955   5.685
  182SOL    HW1 1445   3.132   2.892   5.737
  182SOL    HW2 1446   3.131   3.020   5.636
  183SOL     OW 1447   1.990   1.326   3.044
  183SOL    HW1 1448   2.010   1.287   3.134
  183SOL    HW2 1449   1.918   1.273   2.999
  184SOL     OW 1450   5.845   6.789   3.827
  184SOL    HW1 1451   5.835   6.881   3.790
  184SOL    HW2 1452   5.764   6.735   3.807
  185SOL     OW 1453   0.499   5.807   5.781
  185SOL    HW1 1454   0.416   5.852   5.812
  185SOL    HW2 1455   0.475   5.727   5.725
  186SOL     OW 1456   3.406   5.646   0.184
  186SOL    HW1 1457   3.361   5.577   0.241
  186SOL    HW2 1458   3.450   5.601   0.106
  187SOL     OW 1459   3.455   5.286   0.556
  187SOL    HW1 1460   3.533   5.326   0.604
  187SOL    HW2 1461   3.384   5.261   0.622
  188SOL     OW 1462   1.336   4.006   4.131
  188SOL    HW1 1463   1.389   3.956   4.062
  188SOL    HW2 1464   1.389   4.083   4.165
  189SOL     OW 1465   6.253   3.990   5.812
  189SOL    HW1 1466   6.201   3.974   5.896
  189SOL    HW2 1467   6.189   4.003   5.736
  190SOL     OW 1468   5.872   6.206   6.885
  190SOL    HW1 1469   5.777   6.214   6.915
  190SOL    HW2 1470   5.892   6.110   6.862
  191SOL     OW 1471   2.198   3.610   6.213
  191SOL    HW1 1472   2.171   3.631   6.307
  191SOL    HW2 1473   2.221   3.696   6.166
  192SOL     OW 1474   0.940   0.114   0.916
  192SOL    HW1 1475   0.999   0.160   0.982
  192SOL    HW2 1476   0.988   0.104   0.829
  193SOL     OW 1477   2.933   6.427   1.779
  193SOL    HW1 1478   2.977   6.498   1.725
  193SOL    HW2 1479   2.874   6.469   1.848
  194SOL     OW 1480   4.479   6.378   3.493
  194SOL    HW1 1481   4.559   6.420   3.450
  194SOL    HW2 1482   4.500   6.357   3.589
  195SOL     OW 1483   3.167   1.174   1.283
  195SOL    HW1 1484   3.076   1.132   1.278
  195SOL    HW2 1485   3.227   1.116   1.338
  196SOL     OW 1486   4.253   3.040   1.489
  196SOL    HW1 1487   4.300   3.097   1.422
  196SOL    HW2 1488   4.165   3.081   1.512
  197SOL     OW 1489   0.784   6.493   1.098
  197SOL    HW1 1490   0.847   6.460   1.168
  197SOL    HW2 1491   0.766   6.421   1.031
  198SOL     OW 1492   6.129   0.288   5.671
  198SOL    HW1 1493   6.209   0.231   5.657
  198SOL    HW2 1494   6.054   0.233   5.708
  199SOL     OW 1495   1.620   1.292   3.314
  199SOL    HW1 1496   1.597   1.324   3.406
  199SOL    HW2 1497   1.687   1.354   3.273
  200SOL     OW 1498   1.671   3.626   3.429
  200SOL    HW1 1499   1.653   3.534   3.463
  200SOL    HW2 1500   1.745   3.668   3.482
  201SOL     OW 1501   4.895   1.021   6.723
  201SOL    HW1 1502   4.991   1.040   6.744
  201SOL    HW2 1503   4.841   1.104   6.735
  202SOL     OW 1504   4.311   0.686   3.241
  202SOL    HW1 1505   4.213   0.695   3.258
  202SOL    HW2 1506   4.325   0.629   3.160
  203SOL     OW 1507   5.361   3.182   0.372
  203SOL    HW1 1508   5.456   3.152   0.381
  203SOL    HW2 1509   5.358   3.266   0.318
  204SOL     OW 1510   2.315   5.808   0.903
  204SOL    HW1 1511   2.264   5.886   0.941
  204SOL    HW2 1512   2.406   5.805   0.945
  205SOL     OW 1513   5.393   0.319   1.004
  205SOL    HW1 1514   5.483   0.284   0.977
  205SOL    HW2 1515   5.385   0.313   1.104
  206SOL     OW 1516   0.285   5.535   1.632
  206SOL    HW1 1517   0.302   5.560   1.536
  206SOL    HW2 1518   0.286   5.436   1.642
  207SOL     OW 1519   6.833   2.358   5.931
  207SOL    HW1 1520   6.773   2.305   5.992
  207SOL    HW2 1521   6.795   2.357   5.838
  208SOL     OW 1522   4.804   3.567   0.961
  208SOL    HW1 1523   4.770   3.480   0.999
  208SOL    HW2 1524   4.731   3.635   0.965
  209SOL     OW 1525   6.230   0.433   4.382
  209SOL    HW1 1526   6.228   0.403   4.478
  209SOL    HW2 1527   6.317   0.480   4.364
  210SOL     OW 1528   4.707   2.145   6.911
  210SOL    HW1 1529   4.639   2.180   6.846
  210SOL    HW2 1530   4.669   2.149   7.003
  211SOL     OW 1531   0.394   3.986   2.184
  211SOL    HW1 1532   0.321   3.919   2.196
  211SOL    HW2 1533   0.473   3.959   2.238
  212SOL     OW 1534   1.335   5.484   5.108
  212SOL    HW1 1535   1.420   5.525   5.142
  212SOL    HW2 1536   1.353   5.436   5.023
  213SOL     OW 1537   4.627   2.560   1.398
  213SOL    HW1 1538   4.722   2.555   1.366
  213SOL    HW2 1539   4.616   2.503   1.479
  214SOL     OW 1540   0.437   5.504   3.993
  214SOL    HW1 1541   0.342   5.512   4.024
  214SOL    HW2 1542   0.442   5.435   3.921
  215SOL     OW 1543   3.919   3.574   3.797
  215SOL    HW1 1544   3.887   3.663   3.765
  215SOL    HW2 1545   3.851   3.533   3.857
  216SOL     OW 1546   3.839   6.469   5.142
  216SOL    HW1 1547   3.829   6.527   5.224
  216SOL    HW2 1548   3.764   6.487   5.079
  217SOL     OW 1549   6.176   1.880   4.905
  217SOL    HW1 1550   6.223   1.875   4.817
  217SOL    HW2 1551   6.225   1.944   4.965
  218SOL     OW 1552   2.917   4.116   5.905
  218SOL    HW1 1553   2.946   4.203   5.865
  218SOL    HW2 1554   2.834   4.131   5.959
  219SOL     OW 1555   3.367   6.116   6.235
  219SOL    HW1 1556   3.370   6.079   6.328
  219SOL    HW2 1557   3.430   6.193   6.227
  220SOL     OW 1558   1.107   5.160   0.317
  220SOL    HW1 1559   1.167   5.081   0.330
  220SOL    HW2 1560   1.135   5.210   0.235
  221SOL     OW 1561   6.341   4.018   4.897
  221SOL    HW1 1562   6.278   4.025   4.820
  221SOL    HW2 1563   6.427   3.977   4.866
  222SOL     OW 1564   1.800   0.286   4.225
  222SOL    HW1 1565   1.712   0.239   4.219
  222SOL    HW2 1566   1.856   0.244   4.296
  223SOL     OW 1567   5.579   5.509   2.288
  223SOL    HW1 1568   5.550   5.441   2.220
  223SOL    HW2 1569   5.504   5.573   2.305
  224SOL     OW 1570   5.133   4.488   3.165
  224SOL    HW1 1571   5.147   4.433   3.083
  224SOL    HW2 1572   5.170   4.440   3.245
  225SOL     OW 1573   4.467   5.834   2.284
  225SOL    HW1 1574   4.522   5.781   2.349
  225SOL    HW2 1575   4.470   5.931   2.309
  226SOL     OW 1576   1.569   5.854   2.486
  226SOL    HW1 1577   1.570   5.950   2.459
  226SOL    HW2 1578   1.641   5.805   2.436
  227SOL     OW 1579   0.996   4.136   3.027
  227SOL    HW1 1580   0.958   4.224   2.997
  227SOL    HW2 1581   1.078   4.116   2.973
  228SOL     OW 1582   4.103   6.149   3.429
  228SOL    HW1 1583   4.161   6.187   3.501
  228SOL    HW2 1584   4.021   6.207   3.419
  229SOL     OW 1585   5.707   6.188   2.493
  229SOL    HW1 1586   5.797   6.145   2.499
  229SOL    HW2 1587   5.640   6.132   2.541
  230SOL     OW 1588   1.437   4.743   5.719
  230SOL    HW1 1589   1.386   4.824   5.689
  230SOL    HW2 1590   1.437   4.675   5.646
  231SOL     OW 1591   0.116   1.739   6.592
  231SOL    HW1 1592   0.028   1.760   6.548
  231SOL    HW2 1593   0.172   1.685   6.531
  232SOL     OW 1594   1.898   3.109   6.474
  232SOL    HW1 1595   1.834   3.129   6.548
  232SOL    HW2 1596   1.984   3.076   6.512
  233SOL     OW 1597   3.571   6.813   0.356
  233SOL    HW1 1598   3.547   6.790   0.262
  233SOL    HW2 1599   3.657   6.769   0.381
  234SOL     OW 1600   1.603   4.946   0.091
  234SOL    HW1 1601   1.664   5.005   0.144
  234SOL    HW2 1602   1.599   4.856   0.135
  235SOL     OW 1603   3.828   3.178   5.856
  235SOL    HW1 1604   3.797   3.205   5.765
  235SOL    HW2 1605   3.928   3.166   5.854
  236SOL     OW 1606   6.891   0.209   6.589
  236SOL    HW1 1607   6.853   0.229   6.679
  236SOL    HW2 1608   6.968   0.145   6.599
  237SOL     OW 1609   6.136   6.913   2.103
  237SOL    HW1 1610   6.181   6.980   2.161
  237SOL    HW2 1611   6.102   6.837   2.158
  238SOL     OW 1612   0.659   2.011   3.380
  238SOL    HW1 1613   0.688   1.916   3.394
  238SOL    HW2 1614   0.600   2.016   3.299
  239SOL     OW 1615   6.852   4.667   6.832
  239SOL    HW1 1616   6.851   4.567   6.841
  239SOL    HW2 1617   6.888   4.692   6.742
  240SOL     OW 1618   0.029   2.803   4.101
  240SOL    HW1 1619   7.020   2.742   4.030
  240SOL    HW2 1620   0.119   2.771   4.132
  241SOL     OW 1621   6.361   2.575   4.540
  241SOL    HW1 1622   6.387   2.635   4.465
  241SOL    HW2 1623   6.417   2.595   4.620
  242SOL     OW 1624   2.800   2.118   3.389
  242SOL    HW1 1625   2.894   2.088   3.370
  242SOL    HW2 1626   2.795   2.158   3.480
  243SOL     OW 1627   4.765   1.264   6.513
  243SOL    HW1 1628   4.680   1.299   6.553
  243SOL    HW2 1629   4.838   1.331   6.526
  244SOL     OW 1630   1.106   0.760   5.934
  244SOL    HW1 1631   1.116   0.674   5.883
  244SOL    HW2 1632   1.191   0.813   5.927
  245SOL     OW 1633   4.676   2.114   4.416
  245SOL    HW1 1634   4.691   2.041   4.350
  245SOL    HW2 1635   4.759   2.167   4.428
  246SOL     OW 1636   5.960   3.757   4.538
  246SOL    HW1 1637   5.894   3.745   4.612
  246SOL    HW2 1638   5.956   3.678   4.477
  247SOL     OW 1639   2.006   0.481   3.183
  247SOL    HW1 1640   2.100   0.464   3.155
  247SOL    HW2 1641   1.985   0.425   3.264
  248SOL     OW 1642   6.852   2.784   3.275
  248SOL    HW1 1643   6.841   2.688   3.250
  248SOL    HW2 1644   6.798   2.840   3.213
  249SOL     OW 1645   2.138   6.003   4.985
  249SOL    HW1 1646   2.086   6.088   4.979
  249SOL    HW2 1647   2.114   5.944   4.907
  250SOL     OW 1648   5.402   3.108   6.790
  250SOL    HW1 1649   5.451   3.026   6.819
  250SOL    HW2 1650   5.370   3.096   6.696
  251SOL     OW 1651   2.531   0.275   1.871
  251SOL    HW1 1652   2.505   0.184   1.904
  251SOL    HW2 1653   2.559   0.332   1.948
  252SOL     OW 1654   0.052   2.606   6.845
  252SOL    HW1 1655   7.017   2.586   6.921
  252SOL    HW2 1656   7.024   2.640   6.768
  253SOL     OW 1657   2.035   4.789   5.796
  253SOL    HW1 1658   2.009   4.872   5.747
  253SOL    HW2 1659   2.128   4.799   5.832
  254SOL     OW 1660   4.731   3.389   6.742
  254SOL    HW1 1661   4.800   3.386   6.815
  254SOL    HW2 1662   4.692   3.298   6.730
  255SOL     OW 1663   4.323   2.093   2.362
  255SOL    HW1 1664   4.310   2.109   2.265
  255SOL    HW2 1665   4.236   2.065   2.403
  256SOL     OW 1666   0.457   6.170   1.417
  256SOL    HW1 1667   0.364   6.164   1.381
  256SOL    HW2 1668   0.522   6.177   1.341
  257SOL     OW 1669   3.103   6.037   6.221
  257SOL    HW1 1670   3.200   6.057   6.205
  257SOL    HW2 1671   3.077   5.956   6.170
  258SOL     OW 1672   4.877   5.171   4.856
  258SOL    HW1 1673   4.827   5.236   4.798
  258SOL    HW2 1674   4.847   5.078   4.835
  259SOL     OW 1675   0.099   1.216   2.202
  259SOL    HW1 1676   0.170   1.200   2.133
  259SOL    HW2 1677   0.109   1.150   2.276
  260SOL     OW 1678   6.398   6.763   5.840
  260SOL    HW1 1679   6.302   6.740   5.856
  260SOL    HW2 1680   6.455   6.682   5.856
  261SOL     OW 1681   0.513   1.303   3.299
  261SOL    HW1 1682   0.448   1.250   3.244
  261SOL    HW2 1683   0.530   1.391   3.253
  262SOL     OW 1684   1.654   5.332   0.901
  262SOL    HW1 1685   1.733   5.270   0.899
  262SOL    HW2 1686   1.672   5.410   0.841
  263SOL     OW 1687   1.027   5.119   4.708
  263SOL    HW1 1688   0.930   5.093   4.708
  263SOL    HW2 1689   1.059   5.125   4.803
  264SOL     OW 1690   3.468   4.064   0.899
  264SOL    HW1 1691   3.435   3.990   0.841
  264SOL    HW2 1692   3.567   4.054   0.913
  265SOL     OW 1693   4.446   5.620   4.421
  265SOL    HW1 1694   4.499   5.546   4.462
  265SOL    HW2 1695   4.499   5.663   4.348
  266SOL     OW 1696   4.544   3.602   6.961
  266SOL    HW1 1697   4.630   3.650   6.979
  266SOL    HW2 1698   4.562   3.521   6.906
  267SOL     OW 1699   2.379   1.893   6.415
  267SOL    HW1 1700   2.449   1.822   6.411
  267SOL    HW2 1701   2.379   1.935   6.505
  268SOL     OW 1702   1.486   3.914   2.848
  268SOL    HW1 1703   1.407   3.918   2.909
  268SOL    HW2 1704   1.486   3.994   2.789
  269SOL     OW 1705   3.129   1.330   6.015
  269SOL    HW1 1706   3.143   1.234   5.993
  269SOL    HW2 1707   3.040   1.360   5.980
  270SOL     OW 1708   5.801   5.141   4.881
  270SOL    HW1 1709   5.742   5.218   4.857
  270SOL    HW2 1710   5.748   5.057   4.883
  271SOL     OW 1711   2.298   1.068   0.039
  271SOL    HW1 1712   2.279   0.986   7.011
  271SOL    HW2 1713   2.396   1.075   0.057
  272SOL     OW 1714   5.714   4.463   6.923
  272SOL    HW1 1715   5.680   4.388   6.867
  272SOL    HW2 1716   5.684   4.550   6.883
  273SOL     OW 1717   0.343   6.258   4.211
  273SOL    HW1 1718   0.346   6.159   4.227
  273SOL    HW2 1719   0.415   6.283   4.146
  274SOL     OW 1720   5.230   3.053   2.426
  274SOL    HW1 1721   5.290   3.127   2.455
  274SOL    HW2 1722   5.225   3.053   2.326
  275SOL     OW 1723   5.980   5.059   5.445
  275SOL    HW1 1724   5.980   4.959   5.441
  275SOL    HW2 1725   6.022   5.088   5.531
  276SOL     OW 1726   0.888   0.473   4.904
  276SOL    HW1 1727   0.967   0.463   4.842
  276SOL    HW2 1728   0.834   0.552   4.876
  277SOL     OW 1729   4.211   3.481   5.875
  277SOL    HW1 1730   4.217   3.431   5.789
  277SOL    HW2 1731   4.155   3.428   5.940
  278SOL     OW 1732   5.939   4.851   1.901
  278SOL    HW1 1733   6.021   4.894   1.862
  278SOL    HW2 1734   5.961   4.757   1.927
  279SOL     OW 1735   0.022   3.284   4.306
  279SOL    HW1 1736   0.023   3.354   4.377
  279SOL    HW2 1737   0.061   3.199   4.342
  280SOL     OW 1738   4.471   1.113   2.867
  280SOL    HW1 1739   4.442   1.142   2.959
  280SOL    HW2 1740   4.416   1.161   2.799
  281SOL     OW 1741   5.334   5.798   5.647
  281SOL    HW1 1742   5.393   5.725   5.682
  281SOL    HW2 1743   5.244   5.791   5.691
  282SOL     OW 1744   0.135   1.972   0.021
  282SOL    HW1 1745   0.153   2.036   6.972
  282SOL    HW2 1746   0.210   1.905   0.027
  283SOL     OW 1747   6.074   4.166   2.013
  283SOL    HW1 1748   6.019   4.204   2.088
  283SOL    HW2 1749   6.142   4.104   2.050
  284SOL     OW 1750   5.592   6.745   2.705
  284SOL    HW1 1751   5.683   6.783   2.723
  284SOL    HW2 1752   5.551   6.792   2.627
  285SOL     OW 1753   4.722   6.014   6.316
  285SOL    HW1 1754   4.790   6.059   6.374
  285SOL    HW2 1755   4.634   6.011   6.363
  286SOL     OW 1756   3.568   5.495   5.488
  286SOL    HW1 1757   3.601   5.464   5.399
  286SOL    HW2 1758   3.575   5.419   5.553
  287SOL     OW 1759   3.461   6.367   0.717
  287SOL    HW1 1760   3.472   6.359   0.817
  287SOL    HW2 1761   3.515   6.294   0.673
  288SOL     OW 1762   3.801   0.910   0.632
  288SOL    HW1 1763   3.892   0.875   0.652
  288SOL    HW2 1764   3.759   0.942   0.717
  289SOL     OW 1765   5.374   4.678   5.172
  289SOL    HW1 1766   5.355   4.729   5.255
  289SOL    HW2 1767   5.337   4.585   5.181
  290SOL     OW 1768   3.004   0.858   4.884
  290SOL    HW1 1769   3.047   0.947   4.896
  290SOL    HW2 1770   2.962   0.852   4.794
  291SOL     OW 1771   5.697   1.319   4.914
  291SOL    HW1 1772   5.678   1.237   4.861
  291SOL    HW2 1773   5.765   1.375   4.866
  292SOL     OW 1774   2.007   0.632   4.124
  292SOL    HW1 1775   2.007   0.533   4.111
  292SOL    HW2 1776   1.997   0.677   4.035
  293SOL     OW 1777   5.558   1.203   3.479
  293SOL    HW1 1778   5.485   1.270   3.495
  293SOL    HW2 1779   5.647   1.247   3.492
  294SOL     OW 1780   6.497   1.038   6.664
  294SOL    HW1 1781   6.590   1.053   6.628
  294SOL    HW2 1782   6.495   1.060   6.761
  295SOL     OW 1783   0.491   0.577   5.109
  295SOL    HW1 1784   0.420   0.646   5.096
  295SOL    HW2 1785   0.504   0.560   5.206
  296SOL     OW 1786   0.072   1.371   6.634
  296SOL    HW1 1787   0.168   1.351   6.612
  296SOL    HW2 1788   0.068   1.427   6.717
  297SOL     OW 1789   4.763   4.149   3.212
  297SOL    HW1 1790   4.747   4.248   3.217
  297SOL    HW2 1791   4.766   4.121   3.117
  298SOL     OW 1792   3.668   6.796   5.038
  298SOL    HW1 1793   3.642   6.701   5.055
  298SOL    HW2 1794   3.737   6.800   4.966
  299SOL     OW 1795   0.592   1.206   6.449
  299SOL    HW1 1796   0.608   1.244   6.358
  299SOL    HW2 1797   0.595   1.106   6.445
  300SOL     OW 1798   4.187   6.247   4.526
  300SOL    HW1 1799   4.233   6.322   4.479
  300SOL    HW2 1800   4.145   6.281   4.610
  301SOL     OW 1801   6.584   6.443   5.172
  301SOL    HW1 1802   6.638   6.523   5.195
  301SOL    HW2 1803   6.537   6.410   5.254
  302SOL     OW 1804   0.807   6.908   2.083
  302SOL    HW1 1805   0.831   6.927   1.987
  302SOL    HW2 1806   0.746   6.829   2.086
  303SOL     OW 1807   4.883   5.532   2.695
  303SOL    HW1 1808   4.828   5.472   2.753
  303SOL    HW2 1809   4.943   5.477   2.637
  304SOL     OW 1810   1.304   1.351   4.681
  304SOL    HW1 1811   1.279   1.258   4.651
  304SOL    HW2 1812   1.380   1.346   4.745
  305SOL     OW 1813   3.079   1.766   1.278
  305SOL    HW1 1814   3.089   1.693   1.346
  305SOL    HW2 1815   3.061   1.724   1.188
  306SOL     OW 1816   0.456   6.550   3.034
  306SOL    HW1 1817   0.480   6.616   2.963
  306SOL    HW2 1818   0.363   6.516   3.018
  307SOL     OW 1819   3.814   4.053   4.261
  307SOL    HW1 1820   3.858   3.985   4.202
  307SOL    HW2 1821   3.861   4.141   4.250
  308SOL     OW 1822   6.132   3.112   1.570
  308SOL    HW1 1823   6.122   3.178   1.495
  308SOL    HW2 1824   6.100   3.022   1.540
  309SOL     OW 1825   1.911   4.979   0.452
  309SOL    HW1 1826   1.846   4.981   0.528
  309SOL    HW2 1827   1.998   4.941   0.484
  310SOL     OW 1828   4.788   6.462   4.884
  310SOL    HW1 1829   4.828   6.372   4.900
  310SOL    HW2 1830   4.858   6.533   4.896
  311SOL     OW 1831   1.663   6.242   1.913
  311SOL    HW1 1832   1.758   6.270   1.903
  311SOL    HW2 1833   1.612   6.266   1.830
  312SOL     OW 1834   3.278   0.760   4.093
  312SOL    HW1 1835   3.273   0.779   3.995
  312SOL    HW2 1836   3.362   0.708   4.113
  313SOL     OW 1837   3.562   3.161   3.377
  313SOL    HW1 1838   3.560   3.170   3.278
  313SOL    HW2 1839   3.497   3.225   3.418
  314SOL     OW 1840   2.078   4.360   6.217
  314SOL    HW1 1841   2.003   4.358   6.283
  314SOL    HW2 1842   2.040   4.371   6.125
  315SOL     OW 1843   5.780   0.143   4.917
  315SOL    HW1 1844   5.867   0.160   4.963
  315SOL    HW2 1845   5.705   0.148   4.983
  316SOL     OW 1846   3.991   1.008   4.578
  316SOL    HW1 1847   3.987   1.083   4.645
  316SOL    HW2 1848   4.011   0.923   4.626
  317SOL     OW 1849   0.627   1.673   1.791
  317SOL    HW1 1850   0.704   1.735   1.808
  317SOL    HW2 1851   0.614   1.613   1.870
  318SOL     OW 1852   1.046   1.513   3.621
  318SOL    HW1 1853   0.959   1.468   3.600
  318SOL    HW2 1854   1.053   1.527   3.720
  319SOL     OW 1855   0.510   1.929   2.289
  319SOL    HW1 1856   0.563   1.930   2.203
  319SOL    HW2 1857   0.431   1.988   2.280
  320SOL     OW 1858   5.180   1.191   6.372
  320SOL    HW1 1859   5.236   1.155   6.297
  320SOL    HW2 1860   5.105   1.126   6.391
  321SOL     OW 1861   4.582   3.261   1.464
  321SOL    HW1 1862   4.518   3.299   1.531
  321SOL    HW2 1863   4.531   3.217   1.390
  322SOL     OW 1864   2.774   1.838   0.398
  322SOL    HW1 1865   2.686   1.810   0.437
  322SOL    HW2 1866   2.832   1.757   0.385
  323SOL     OW 1867   0.445   4.450   2.135
  323SOL    HW1 1868   0.373   4.519   2.125
  323SOL    HW2 1869   0.403   4.361   2.152
  324SOL     OW 1870   6.134   0.186   3.561
  324SOL    HW1 1871   6.132   0.103   3.504
  324SOL    HW2 1872   6.175   0.165   3.649
  325SOL     OW 1873   6.349   2.714   0.843
  325SOL    HW1 1874   6.259   2.742   0.810
  325SOL    HW2 1875   6.407   2.690   0.766
  326SOL     OW 1876   6.138   5.812   6.131
  326SOL    HW1 1877   6.207   5.788   6.063
  326SOL    HW2 1878   6.048   5.816   6.089
  327SOL     OW 1879   4.223   6.587   6.237
  327SOL    HW1 1880   4.280   6.517   6.193
  327SOL    HW2 1881   4.207   6.563   6.332
  328SOL     OW 1882   2.320   4.138   3.673
  328SOL    HW1 1883   2.388   4.189   3.724
  328SOL    HW2 1884   2.311   4.176   3.581
  329SOL     OW 1885   2.906   3.415   2.857
  329SOL    HW1 1886   2.912   3.429   2.758
  329SOL    HW2 1887   2.872   3.499   2.900
  330SOL     OW 1888   2.144   4.219   6.595
  330SOL    HW1 1889   2.214   4.172   6.649
  330SOL    HW2 1890   2.188   4.277   6.527
  331SOL     OW 1891   5.013   5.657   4.207
  331SOL    HW1 1892   4.967   5.711   4.136
  331SOL    HW2 1893   5.083   5.600   4.165
  332SOL     OW 1894   6.314   2.244   2.893
  332SOL    HW1 1895   6.317   2.334   2.936
  332SOL    HW2 1896   6.267   2.251   2.805
  333SOL     OW 1897   2.989   6.360   3.678
  333SOL    HW1 1898   3.044   6.398   3.752
  333SOL    HW2 1899   2.958   6.268   3.702
  334SOL     OW 1900   3.777   3.403   4.200
  334SOL    HW1 1901   3.760   3.428   4.295
  334SOL    HW2 1902   3.875   3.392   4.185
  335SOL     OW 1903   4.182   1.298   0.375
  335SOL    HW1 1904   4.249   1.368   0.404
  335SOL    HW2 1905   4.213   1.255   0.290
  336SOL     OW 1906   3.792   2.094   4.746
  336SOL    HW1 1907   3.888   2.098   4.773
  336SOL    HW2 1908   3.734   2.116   4.824
  337SOL     OW 1909   1.247   1.748   5.212
  337SOL    HW1 1910   1.220   1.723   5.305
  337SOL    HW2 1911   1.186   1.703   5.147
  338SOL     OW 1912   5.562   1.443   1.949
  338SOL    HW1 1913   5.489   1.410   2.008
  338SOL    HW2 1914   5.648   1.398   1.973
  339SOL     OW 1915   3.545   5.000   5.724
  339SOL    HW1 1916   3.505   5.060   5.793
  339SOL    HW2 1917   3.601   4.930   5.769
  340SOL     OW 1918   5.760   3.781   4.749
  340SOL    HW1 1919   5.725   3.708   4.807
  340SOL    HW2 1920   5.685   3.821   4.697
  341SOL     OW 1921   6.334   0.410   1.612
  341SOL    HW1 1922   6.379   0.496   1.590
  341SOL    HW2 1923   6.359   0.382   1.704
  342SOL     OW 1924   4.822   0.968   1.800
  342SOL    HW1 1925   4.762   1.042   1.830
  342SOL    HW2 1926   4.838   0.905   1.876
  343SOL     OW 1927   5.473   0.700   1.632
  343SOL    HW1 1928   5.568   0.676   1.612
  343SOL    HW2 1929   5.412   0.642   1.579
  344SOL     OW 1930   6.309   2.867   1.354
  344SOL    HW1 1931   6.347   2.827   1.271
  344SOL    HW2 1932   6.337   2.962   1.362
  345SOL     OW 1933   0.190   3.159   3.596
  345SOL    HW1 1934   0.284   3.155   3.561
  345SOL    HW2 1935   0.178   3.242   3.650
  346SOL     OW 1936   0.902   6.912   2.805
  346SOL    HW1 1937   0.887   6.980   2.876
  346SOL    HW2 1938   0.888   6.954   2.715
  347SOL     OW 1939   1.507   4.401   1.772
  347SOL    HW1 1940   1.513   4.425   1.675
  347SOL    HW2 1941   1.430   4.449   1.814
  348SOL     OW 1942   5.788   4.772   0.942
  348SOL    HW1 1943   5.706   4.737   0.987
  348SOL    HW2 1944   5.870   4.737   0.988
  349SOL     OW 1945   6.012   5.478   0.104
  349SOL    HW1 1946   5.931   5.465   0.160
  349SOL    HW2 1947   5.991   5.454   0.009
  350SOL     OW 1948   2.430   0.264   0.725
  350SOL    HW1 1949   2.521   0.222   0.723
  350SOL    HW2 1950   2.403   0.288   0.632
  351SOL     OW 1951   3.648   4.230   1.248
  351SOL    HW1 1952   3.698   4.271   1.171
  351SOL    HW2 1953   3.653   4.131   1.243
  352SOL     OW 1954   4.070   0.659   2.215
  352SOL    HW1 1955   4.112   0.611   2.138
  352SOL    HW2 1956   4.064   0.598   2.294
  353SOL     OW 1957   2.780   5.775   0.559
  353SOL    HW1 1958   2.729   5.791   0.643
  353SOL    HW2 1959   2.836   5.855   0.537
  354SOL     OW 1960   2.115   2.100   0.334
  354SOL    HW1 1961   2.104   2.191   0.373
  354SOL    HW2 1962   2.179   2.105   0.257
  355SOL     OW 1963   0.308   2.631   2.295
  355SOL    HW1 1964   0.216   2.670   2.300
  355SOL    HW2 1965   0.341   2.637   2.200
  356SOL     OW 1966   2.945   0.523   6.131
  356SOL    HW1 1967   3.040   0.522   6.100
  356SOL    HW2 1968   2.888   0.569   6.062
  357SOL     OW 1969   6.230   5.822   4.400
  357SOL    HW1 1970   6.285   5.888   4.349
  357SOL    HW2 1971   6.138   5.819   4.361
  358SOL     OW 1972   3.324   6.172   0.056
  358SOL    HW1 1973   3.350   6.075   0.053
  358SOL    HW2 1974   3.405   6.228   0.070
  359SOL     OW 1975   1.760   2.340   0.962
  359SOL    HW1 1976   1.799   2.289   0.885
  359SOL    HW2 1977   1.818   2.417   0.985
  360SOL     OW 1978   2.015   4.171   2.970
  360SOL    HW1 1979   2.091   4.123   2.928
  360SOL    HW2 1980   2.048   4.255   3.014
  361SOL     OW 1981   6.371   3.368   2.185
  361SOL    HW1 1982   6.446   3.434   2.181
  361SOL    HW2 1983   6.408   3.275   2.174
  362SOL     OW 1984   3.954   3.599   2.991
  362SOL    HW1 1985   3.996   3.655   2.919
  362SOL    HW2 1986   3.923   3.659   3.065
  363SOL     OW 1987   4.906   4.924   0.725
  363SOL    HW1 1988   4.982   4.983   0.701
  363SOL    HW2 1989   4.843   4.916   0.648
  364SOL     OW 1990   0.896   0.430   0.239
  364SOL    HW1 1991   0.966   0.469   0.298
  364SOL    HW2 1992   0.892   0.331   0.254
  365SOL     OW 1993   4.761   0.311   4.130
  365SOL    HW1 1994   4.762   0.373   4.051
  365SOL    HW2 1995   4.677   0.256   4.128
  366SOL     OW 1996   5.024   1.825   0.427
  366SOL    HW1 1997   4.996   1.903   0.370
  366SOL    HW2 1998   5.092   1.771   0.377
  367SOL     OW 1999   6.036   0.198   6.924
  367SOL    HW1 2000   6.062   0.109   6.886
  367SOL    HW2 2001   6.080   0.271   6.871
  368SOL     OW 2002   3.051   1.730   5.810
  368SOL    HW1 2003   3.110   1.670   5.757
  368SOL    HW2 2004   2.957   1.695   5.809
  369SOL     OW 2005   5.132   3.844   0.485
  369SOL    HW1 2006   5.062   3.860   0.555
  369SOL    HW2 2007   5.089   3.807   0.403
  370SOL     OW 2008   1.936   2.187   3.505
  370SOL    HW1 2009   1.966   2.111   3.447
  370SOL    HW2 2010   1.926   2.269   3.449
  371SOL     OW 2011   2.588   4.750   0.651
  371SOL    HW1 2012   2.627   4.669   0.695
  371SOL    HW2 2013   2.492   4.734   0.630
  372SOL     OW 2014   3.050   6.401   5.818
  372SOL    HW1 2015   2.953   6.381   5.815
  372SOL    HW2 2016   3.089   6.392   5.726
  373SOL     OW 2017   5.266   4.661   2.764
  373SOL    HW1 2018   5.264   4.689   2.860
  373SOL    HW2 2019   5.246   4.564   2.757
  374SOL     OW 2020   2.538   2.419   2.139
  374SOL    HW1 2021   2.629   2.382   2.120
  374SOL    HW2 2022   2.541   2.471   2.224
  375SOL     OW 2023   0.119   5.468   3.744
  375SOL    HW1 2024   0.110   5.517   3.830
  375SOL    HW2 2025   0.209   5.486   3.705
  376SOL     OW 2026   4.596   0.786   3.597
  376SOL    HW1 2027   4.645   0.830   3.672
  376SOL    HW2 2028   4.648   0.706   3.566
  377SOL     OW 2029   2.811   3.194   6.155
  377SOL    HW1 2030   2.828   3.149   6.068
  377SOL    HW2 2031   2.787   3.125   6.224
  378SOL     OW 2032   4.489   0.911   1.666
  378SOL    HW1 2033   4.562   0.843   1.668
  378SOL    HW2 2034   4.518   0.990   1.610
  379SOL     OW 2035   3.411   3.407   0.053
  379SOL    HW1 2036   3.406   3.307   0.059
  379SOL    HW2 2037   3.341   3.447   0.111
  380SOL     OW 2038   4.959   1.743   0.089
  380SOL    HW1 2039   4.865   1.755   0.121
  380SOL    HW2 2040   5.014   1.703   0.162
  381SOL     OW 2041   0.645   3.363   2.095
  381SOL    HW1 2042   0.638   3.329   2.189
  381SOL    HW2 2043   0.719   3.314   2.048
  382SOL     OW 2044   6.188   0.384   0.750
  382SOL    HW1 2045   6.175   0.467   0.804
  382SOL    HW2 2046   6.272   0.338   0.778
  383SOL     OW 2047   4.979   3.342   0.785
  383SOL    HW1 2048   5.072   3.326   0.752
  383SOL    HW2 2049   4.977   3.426   0.840
  384SOL     OW 2050   1.040   2.370   5.156
  384SOL    HW1 2051   1.138   2.356   5.147
  384SOL    HW2 2052   1.022   2.458   5.199
  385SOL     OW 2053   4.984   2.973   6.487
  385SOL    HW1 2054   4.885   2.985   6.479
  385SOL    HW2 2055   5.003   2.909   6.562
  386SOL     OW 2056   3.244   6.072   5.294
  386SOL    HW1 2057   3.277   6.165   5.307
  386SOL    HW2 2058   3.203   6.064   5.203
  387SOL     OW 2059   2.623   6.422   3.569
  387SOL    HW1 2060   2.647   6.477   3.489
  387SOL    HW2 2061   2.555   6.354   3.543
  388SOL     OW 2062   1.561   5.708   5.831
  388SOL    HW1 2063   1.499   5.701   5.752
  388SOL    HW2 2064   1.508   5.734   5.912
  389SOL     OW 2065   3.168   2.316   0.129
  389SOL    HW1 2066   3.084   2.320   0.074
  389SOL    HW2 2067   3.221   2.236   0.103
  390SOL     OW 2068   3.134   1.449   4.152
  390SOL    HW1 2069   3.044   1.424   4.187
  390SOL    HW2 2070   3.183   1.503   4.220
  391SOL     OW 2071   0.503   1.677   0.385
  391SOL    HW1 2072   0.484   1.583   0.414
  391SOL    HW2 2073   0.452   1.741   0.443
  392SOL     OW 2074   4.120   5.503   4.538
  392SOL    HW1 2075   4.139   5.486   4.441
  392SOL    HW2 2076   4.077   5.593   4.548
  393SOL     OW 2077   6.137   3.298   5.789
  393SOL    HW1 2078   6.111   3.391   5.763
  393SOL    HW2 2079   6.231   3.280   5.762
  394SOL     OW 2080   1.726   1.144   6.543
  394SOL    HW1 2081   1.799   1.201   6.503
  394SOL    HW2 2082   1.646   1.146   6.483
  395SOL     OW 2083   0.047   3.119   1.089
  395SOL    HW1 2084   0.064   3.023   1.071
  395SOL    HW2 2085   6.985   3.146   1.049
  396SOL     OW 2086   4.011   2.939   5.879
  396SOL    HW1 2087   4.051   2.935   5.788
  396SOL    HW2 2088   3.915   2.910   5.875
  397SOL     OW 2089   4.714   0.099   6.476
  397SOL    HW1 2090   4.645   0.134   6.538
  397SOL    HW2 2091   4.671   0.037   6.410
  398SOL     OW 2092   6.402   4.124   2.849
  398SOL    HW1 2093   6.386   4.192   2.777
  398SOL    HW2 2094   6.414   4.171   2.937
  399SOL     OW 2095   3.385   5.533   1.435
  399SOL    HW1 2096   3.319   5.474   1.481
  399SOL    HW2 2097   3.431   5.591   1.503
  400SOL     OW 2098   2.676   4.285   5.680
  400SOL    HW1 2099   2.745   4.349   5.648
  400SOL    HW2 2100   2.666   4.292   5.779
  401SOL     OW 2101   6.211   1.366   1.441
  401SOL    HW1 2102   6.212   1.291   1.507
  401SOL    HW2 2103   6.241   1.332   1.351
  402SOL     OW 2104   0.553   5.633   0.674
  402SOL    HW1 2105   0.501   5.586   0.603
  402SOL    HW2 2106   0.650   5.607   0.668
  403SOL     OW 2107   4.991   4.677   0.583
  403SOL    HW1 2108   4.998   4.754   0.648
  403SOL    HW2 2109   5.019   4.708   0.492
  404SOL     OW 2110   0.139   5.904   4.795
  404SOL    HW1 2111   0.145   5.848   4.712
  404SOL    HW2 2112   0.212   5.877   4.858
  405SOL     OW 2113   1.056   1.560   1.181
  405SOL    HW1 2114   1.051   1.635   1.247
  405SOL    HW2 2115   0.966   1.517   1.173
  406SOL     OW 2116   0.949   2.629   3.754
  406SOL    HW1 2117   0.911   2.669   3.670
  406SOL    HW2 2118   1.012   2.693   3.797
  407SOL     OW 2119   3.437   2.118   3.785
  407SOL    HW1 2120   3.350   2.109   3.834
  407SOL    HW2 2121   3.423   2.096   3.688
  408SOL     OW 2122   2.292   0.320   3.712
  408SOL    HW1 2123   2.324   0.250   3.777
  408SOL    HW2 2124   2.193   0.313   3.702
  409SOL     OW 2125   6.889   4.315   4.371
  409SOL    HW1 2126   6.946   4.398   4.365
  409SOL    HW2 2127   6.830   4.322   4.452
  410SOL     OW 2128   2.611   6.680   5.966
  410SOL    HW1 2129   2.569   6.603   6.013
  410SOL    HW2 2130   2.667   6.645   5.890
  411SOL     OW 2131   0.575   4.377   5.642
  411SOL    HW1 2132   0.514   4.409   5.715
  411SOL    HW2 2133   0.655   4.436   5.638
  412SOL     OW 2134   3.477   6.318   2.503
  412SOL    HW1 2135   3.571   6.294   2.525
  412SOL    HW2 2136   3.433   6.240   2.458
  413SOL     OW 2137   1.950   0.598   2.051
  413SOL    HW1 2138   1.887   0.550   1.990
  413SOL    HW2 2139   2.023   0.640   1.998
  414SOL     OW 2140   5.066   4.558   0.932
  414SOL    HW1 2141   5.033   4.517   0.847
  414SOL    HW2 2142   5.165   4.547   0.939
  415SOL     OW 2143   3.936   0.210   3.161
  415SOL    HW1 2144   4.034   0.215   3.180
  415SOL    HW2 2145   3.913   0.117   3.130
  416SOL     OW 2146   3.671   5.858   6.947
  416SOL    HW1 2147   3.684   5.914   0.004
  416SOL    HW2 2148   3.629   5.914   6.876
  417SOL     OW 2149   5.153   5.416   1.055
  417SOL    HW1 2150   5.114   5.492   1.108
  417SOL    HW2 2151   5.213   5.452   0.984
  418SOL     OW 2152   6.955   5.243   6.721
  418SOL    HW1 2153   6.979   5.184   6.799
  418SOL    HW2 2154   6.902   5.191   6.655
  419SOL     OW 2155   4.952   5.577   6.869
  419SOL    HW1 2156   4.987   5.484   6.858
  419SOL    HW2 2157   4.853   5.574   6.883
  420SOL     OW 2158   5.483   3.698   6.734
  420SOL    HW1 2159   5.490   3.667   6.829
  420SOL    HW2 2160   5.403   3.757   6.724
  421SOL     OW 2161   1.653   6.376   6.409
  421SOL    HW1 2162   1.584   6.374   6.337
  421SOL    HW2 2163   1.742   6.351   6.371
  422SOL     OW 2164   6.532   3.833   6.911
  422SOL    HW1 2165   6.462   3.762   6.901
  422SOL    HW2 2166   6.492   3.923   6.896
  423SOL     OW 2167   0.692   3.486   6.178
  423SOL    HW1 2168   0.786   3.520   6.177
  423SOL    HW2 2169   0.630   3.558   6.211
  424SOL     OW 2170   1.776   4.427   6.353
  424SOL    HW1 2171   1.727   4.487   6.289
  424SOL    HW2 2172   1.790   4.475   6.440
  425SOL     OW 2173   2.929   0.497   0.627
  425SOL    HW1 2174   3.023   0.465   0.643
  425SOL    HW2 2175   2.930   0.568   0.557
  426SOL     OW 2176   0.924   3.697   0.280
  426SOL    HW1 2177   0.877   3.609   0.276
  426SOL    HW2 2178   0.918   3.733   0.373
  427SOL     OW 2179   3.652   3.538   0.042
  427SOL    HW1 2180   3.572   3.479   0.032
  427SOL    HW2 2181   3.706   3.535   6.984
  428SOL     OW 2182   4.081   1.415   4.680
  428SOL    HW1 2183   4.120   1.494   4.729
  428SOL    HW2 2184   4.023   1.448   4.606
  429SOL     OW 2185   3.535   6.418   0.132
  429SOL    HW1 2186   3.561   6.389   0.224
  429SOL    HW2 2187   3.455   6.477   0.137
  430SOL     OW 2188   2.785   0.592   4.581
  430SOL    HW1 2189   2.819   0.576   4.673
  430SOL    HW2 2190   2.835   0.668   4.539
  431SOL     OW 2191   3.658   0.774   6.966
  431SOL    HW1 2192   3.670   0.697   0.003
  431SOL    HW2 2193   3.697   0.857   7.007
  432SOL     OW 2194   6.373   1.479   1.053
  432SOL    HW1 2195   6.411   1.410   0.991
  432SOL    HW2 2196   6.441   1.503   1.122
  433SOL     OW 2197   3.070   6.020   5.080
  433SOL    HW1 2198   3.045   5.949   5.146
  433SOL    HW2 2199   3.019   6.104   5.101
  434SOL     OW 2200   6.491   3.390   0.807
  434SOL    HW1 2201   6.568   3.453   0.817
  434SOL    HW2 2202   6.513   3.303   0.850
  435SOL     OW 2203   3.627   3.461   0.886
  435SOL    HW1 2204   3.604   3.558   0.890
  435SOL    HW2 2205   3.554   3.408   0.930
  436SOL     OW 2206   2.374   1.429   0.854
  436SOL    HW1 2207   2.370   1.480   0.768
  436SOL    HW2 2208   2.425   1.344   0.840
  437SOL     OW 2209   6.425   6.416   6.241
  437SOL    HW1 2210   6.403   6.393   6.336
  437SOL    HW2 2211   6.348   6.390   6.182
  438SOL     OW 2212   1.271   3.352   0.708
  438SOL    HW1 2213   1.205   3.414   0.666
  438SOL    HW2 2214   1.224   3.274   0.748
  439SOL     OW 2215   6.148   4.970   1.747
  439SOL    HW1 2216   6.110   5.049   1.796
  439SOL    HW2 2217   6.247   4.978   1.744
  440SOL     OW 2218   1.157   2.902   2.738
  440SOL    HW1 2219   1.210   2.830   2.694
  440SOL    HW2 2220   1.212   2.946   2.809
  441SOL     OW 2221   0.092   1.442   3.236
  441SOL    HW1 2222   0.065   1.473   3.327
  441SOL    HW2 2223   0.144   1.514   3.191
  442SOL     OW 2224   1.231   5.223   6.195
  442SOL    HW1 2225   1.183   5.138   6.178
  442SOL    HW2 2226   1.227   5.245   6.293
  443SOL     OW 2227   0.650   4.815   5.748
  443SOL    HW1 2228   0.696   4.904   5.748
  443SOL    HW2 2229   0.552   4.828   5.734
  444SOL     OW 2230   5.339   3.141   6.491
  444SOL    HW1 2231   5.277   3.087   6.434
  444SOL    HW2 2232   5.319   3.239   6.478
  445SOL     OW 2233   1.124   3.627   3.421
  445SOL    HW1 2234   1.193   3.652   3.489
  445SOL    HW2 2235   1.138   3.533   3.392
  446SOL     OW 2236   2.028   4.769   4.158
  446SOL    HW1 2237   1.970   4.762   4.076
  446SOL    HW2 2238   1.971   4.761   4.239
  447SOL     OW 2239   0.447   6.036   0.716
  447SOL    HW1 2240   0.448   5.953   0.772
  447SOL    HW2 2241   0.490   6.017   0.627
  448SOL     OW 2242   4.238   0.299   5.348
  448SOL    HW1 2243   4.167   0.229   5.348
  448SOL    HW2 2244   4.212   0.374   5.408
  449SOL     OW 2245   5.425   0.426   4.949
  449SOL    HW1 2246   5.524   0.422   4.938
  449SOL    HW2 2247   5.400   0.514   4.990
  450SOL     OW 2248   6.732   6.289   2.813
  450SOL    HW1 2249   6.695   6.302   2.721
  450SOL    HW2 2250   6.730   6.192   2.836
  451SOL     OW 2251   6.042   3.302   3.545
  451SOL    HW1 2252   6.074   3.276   3.454
  451SOL    HW2 2253   6.116   3.348   3.594
  452SOL     OW 2254   6.630   5.330   5.679
  452SOL    HW1 2255   6.699   5.398   5.653
  452SOL    HW2 2256   6.645   5.246   5.627
  453SOL     OW 2257   3.371   1.548   6.395
  453SOL    HW1 2258   3.370   1.527   6.493
  453SOL    HW2 2259   3.398   1.643   6.382
  454SOL     OW 2260   1.013   6.187   0.578
  454SOL    HW1 2261   1.081   6.135   0.526
  454SOL    HW2 2262   1.059   6.243   0.647
  455SOL     OW 2263   5.466   1.124   5.059
  455SOL    HW1 2264   5.477   1.212   5.105
  455SOL    HW2 2265   5.556   1.087   5.036
  456SOL     OW 2266   3.965   5.224   0.081
  456SOL    HW1 2267   3.951   5.309   0.031
  456SOL    HW2 2268   3.901   5.155   0.048
  457SOL     OW 2269   0.385   4.493   1.484
  457SOL    HW1 2270   0.403   4.453   1.574
  457SOL    HW2 2271   0.319   4.567   1.493
  458SOL     OW 2272   0.841   6.126   5.386
  458SOL    HW1 2273   0.778   6.056   5.420
  458SOL    HW2 2274   0.790   6.191   5.328
  459SOL     OW 2275   1.320   0.505   3.777
  459SOL    HW1 2276   1.271   0.469   3.856
  459SOL    HW2 2277   1.255   0.532   3.706
  460SOL     OW 2278   6.665   2.360   3.064
  460SOL    HW1 2279   6.712   2.272   3.057
  460SOL    HW2 2280   6.586   2.351   3.125
  461SOL     OW 2281   5.710   4.808   5.637
  461SOL    HW1 2282   5.667   4.718   5.642
  461SOL    HW2 2283   5.800   4.799   5.595
  462SOL     OW 2284   2.709   2.339   6.914
  462SOL    HW1 2285   2.739   2.352   7.009
  462SOL    HW2 2286   2.788   2.350   6.853
  463SOL     OW 2287   6.217   5.949   2.248
  463SOL    HW1 2288   6.214   6.049   2.249
  463SOL    HW2 2289   6.307   5.918   2.279
  464SOL     OW 2290   1.779   1.623   5.878
  464SOL    HW1 2291   1.879   1.616   5.875
  464SOL    HW2 2292   1.751   1.717   5.856
  465SOL     OW 2293   0.322   3.287   6.488
  465SOL    HW1 2294   0.367   3.352   6.426
  465SOL    HW2 2295   0.313   3.199   6.442
  466SOL     OW 2296   1.871   0.389   3.583
  466SOL    HW1 2297   1.955   0.442   3.577
  466SOL    HW2 2298   1.792   0.448   3.562
  467SOL     OW 2299   1.604   1.773   5.106
  467SOL    HW1 2300   1.560   1.833   5.172
  467SOL    HW2 2301   1.702   1.771   5.123
  468SOL     OW 2302   2.935   3.620   3.183
  468SOL    HW1 2303   2.924   3.527   3.218
  468SOL    HW2 2304   2.855   3.675   3.210
  469SOL     OW 2305   3.426   6.859   6.878
  469SOL    HW1 2306   3.375   6.779   6.846
  469SOL    HW2 2307   3.523   6.848   6.856
  470SOL     OW 2308   4.651   0.027   3.224
  470SOL    HW1 2309   4.590   0.105   3.206
  470SOL    HW2 2310   4.674   0.025   3.321
  471SOL     OW 2311   2.750   2.303   4.202
  471SOL    HW1 2312   2.844   2.311   4.167
  471SOL    HW2 2313   2.708   2.220   4.165
  472SOL     OW 2314   3.944   4.374   5.245
  472SOL    HW1 2315   4.040   4.370   5.218
  472SOL    HW2 2316   3.894   4.300   5.200
  473SOL     OW 2317   0.307   4.455   3.919
  473SOL    HW1 2318   0.397   4.483   3.886
  473SOL    HW2 2319   0.255   4.535   3.948
  474SOL     OW 2320   4.873   4.559   5.624
  474SOL    HW1 2321   4.823   4.630   5.574
  474SOL    HW2 2322   4.809   4.486   5.650
  475SOL     OW 2323   2.682   6.018   0.213
  475SOL    HW1 2324   2.711   6.088   0.147
  475SOL    HW2 2325   2.589   5.988   0.192
  476SOL     OW 2326   6.330   5.968   3.038
  476SOL    HW1 2327   6.396   5.896   3.018
  476SOL    HW2 2328   6.239   5.938   3.008
  477SOL     OW 2329   2.184   4.490   4.099
  477SOL    HW1 2330   2.142   4.562   4.043
  477SOL    HW2 2331   2.217   4.417   4.039
  478SOL     OW 2332   1.486   5.041   3.593
  478SOL    HW1 2333   1.526   5.028   3.684
  478SOL    HW2 2334   1.401   5.093   3.601
  479SOL     OW 2335   4.420   2.009   2.022
  479SOL    HW1 2336   4.397   1.914   2.043
  479SOL    HW2 2337   4.350   2.070   2.061
  480SOL     OW 2338   1.748   6.368   4.005
  480SOL    HW1 2339   1.699   6.309   4.070
  480SOL    HW2 2340   1.827   6.410   4.051
  481SOL     OW 2341   2.182   0.007   1.081
  481SOL    HW1 2342   2.095   0.048   1.055
  481SOL    HW2 2343   2.257   0.068   1.057
  482SOL     OW 2344   5.328   5.503   0.581
  482SOL    HW1 2345   5.414   5.553   0.590
  482SOL    HW2 2346   5.257   5.548   0.636
  483SOL     OW 2347   5.508   2.025   2.785
  483SOL    HW1 2348   5.467   2.066   2.703
  483SOL    HW2 2349   5.529   1.929   2.767
  484SOL     OW 2350   6.501   1.935   3.998
  484SOL    HW1 2351   6.589   1.908   3.958
  484SOL    HW2 2352   6.453   1.997   3.935
  485SOL     OW 2353   3.061   6.050   1.296
  485SOL    HW1 2354   3.140   6.098   1.332
  485SOL    HW2 2355   3.000   6.025   1.371
  486SOL     OW 2356   0.550   0.816   5.945
  486SOL    HW1 2357   0.525   0.720   5.931
  486SOL    HW2 2358   0.484   0.860   6.005
  487SOL     OW 2359   6.884   2.700   6.639
  487SOL    HW1 2360   6.901   2.614   6.590
  487SOL    HW2 2361   6.810   2.750   6.595
  488SOL     OW 2362   0.944   4.959   2.519
  488SOL    HW1 2363   0.881   4.885   2.542
  488SOL    HW2 2364   0.924   5.039   2.575
  489SOL     OW 2365   3.363   5.759   6.271
  489SOL    HW1 2366   3.349   5.805   6.358
  489SOL    HW2 2367   3.459   5.732   6.262
  490SOL     OW 2368   5.295   0.119   4.270
  490SOL    HW1 2369   5.289   0.020   4.279
  490SOL    HW2 2370   5.379   0.151   4.315
  491SOL     OW 2371   0.730   2.455   3.480
  491SOL    HW1 2372   0.771   2.472   3.390
  491SOL    HW2 2373   0.726   2.541   3.531
  492SOL     OW 2374   1.798   1.365   4.738
  492SOL    HW1 2375   1.894   1.354   4.764
  492SOL    HW2 2376   1.791   1.437   4.669
  493SOL     OW 2377   6.209   4.125   4.182
  493SOL    HW1 2378   6.162   4.082   4.259
  493SOL    HW2 2379   6.163   4.211   4.158
  494SOL     OW 2380   5.831   1.163   6.547
  494SOL    HW1 2381   5.796   1.254   6.524
  494SOL    HW2 2382   5.788   1.095   6.488
  495SOL     OW 2383   4.988   4.484   0.292
  495SOL    HW1 2384   5.010   4.579   0.315
  495SOL    HW2 2385   5.040   4.423   0.351
  496SOL     OW 2386   5.721   3.536   2.532
  496SOL    HW1 2387   5.745   3.439   2.536
  496SOL    HW2 2388   5.654   3.556   2.604
  497SOL     OW 2389   4.155   6.419   4.037
  497SOL    HW1 2390   4.123   6.371   4.118
  497SOL    HW2 2391   4.229   6.367   3.994
  498SOL     OW 2392   1.164   2.745   1.091
  498SOL    HW1 2393   1.249   2.705   1.057
  498SOL    HW2 2394   1.180   2.787   1.181
  499SOL     OW 2395   3.733   1.366   4.853
  499SOL    HW1 2396   3.801   1.338   4.921
  499SOL    HW2 2397   3.693   1.454   4.880
  500SOL     OW 2398   1.489   4.593   2.797
  500SOL    HW1 2399   1.468   4.523   2.865
  500SOL    HW2 2400   1.481   4.553   2.705
  501SOL     OW 2401   0.487   5.269   6.489
  501SOL    HW1 2402   0.527   5.204   6.424
  501SOL    HW2 2403   0.449   5.347   6.438
  502SOL     OW 2404   2.281   5.167   6.440
  502SOL    HW1 2405   2.233   5.196   6.357
  502SOL    HW2 2406   2.331   5.245   6.479
  503SOL     OW 2407   6.556   5.114   4.534
  503SOL    HW1 2408   6.542   5.043   4.603
  503SOL    HW2 2409   6.629   5.086   4.472
  504SOL     OW 2410   1.374   5.251   4.428
  504SOL    HW1 2411   1.408   5.182   4.492
  504SOL    HW2 2412   1.276   5.263   4.439
  505SOL     OW 2413   3.124   6.685   4.802
  505SOL    HW1 2414   3.079   6.596   4.805
  505SOL    HW2 2415   3.224   6.672   4.806
  506SOL     OW 2416   1.808   3.160   0.752
  506SOL    HW1 2417   1.712   3.149   0.777
  506SOL    HW2 2418   1.862   3.179   0.834
  507SOL     OW 2419   3.849   2.082   4.462
  507SOL    HW1 2420   3.827   1.984   4.463
  507SOL    HW2 2421   3.830   2.121   4.552
  508SOL     OW 2422   6.579   5.082   4.235
  508SOL    HW1 2423   6.570   5.164   4.178
  508SOL    HW2 2424   6.500   5.022   4.219
  509SOL     OW 2425   4.724   3.223   1.693
  509SOL    HW1 2426   4.702   3.143   1.750
  509SOL    HW2 2427   4.683   3.212   1.603
  510SOL     OW 2428   1.102   4.527   4.426
  510SOL    HW1 2429   1.079   4.443   4.475
  510SOL    HW2 2430   1.187   4.564   4.462
  511SOL     OW 2431   0.290   5.956   1.172
  511SOL    HW1 2432   0.211   5.898   1.155
  511SOL    HW2 2433   0.320   5.997   1.085
  512SOL     OW 2434   1.835   3.427   6.150
  512SOL    HW1 2435   1.905   3.483   6.106
  512SOL    HW2 2436   1.744   3.459   6.123
  513SOL     OW 2437   0.950   5.127   4.011
  513SOL    HW1 2438   0.902   5.045   4.042
  513SOL    HW2 2439   0.894   5.208   4.030
  514SOL     OW 2440   5.398   2.034   3.622
  514SOL    HW1 2441   5.350   2.118   3.599
  514SOL    HW2 2442   5.341   1.977   3.681
  515SOL     OW 2443   2.983   5.811   6.940
  515SOL    HW1 2444   3.020   5.838   0.004
  515SOL    HW2 2445   3.021   5.871   6.869
  516SOL     OW 2446   1.222   4.500   3.773
  516SOL    HW1 2447   1.142   4.548   3.736
  516SOL    HW2 2448   1.265   4.446   3.700
  517SOL     OW 2449   4.523   0.371   6.147
  517SOL    HW1 2450   4.438   0.418   6.123
  517SOL    HW2 2451   4.542   0.300   6.079
  518SOL     OW 2452   1.865   1.290   0.059
  518SOL    HW1 2453   1.784   1.332   0.018
  518SOL    HW2 2454   1.854   1.191   0.058
  519SOL     OW 2455   0.739   6.362   0.362
  519SOL    HW1 2456   0.664   6.426   0.382
  519SOL    HW2 2457   0.807   6.408   0.305
  520SOL     OW 2458   6.008   4.656   4.174
  520SOL    HW1 2459   6.089   4.599   4.183
  520SOL    HW2 2460   6.028   4.748   4.209
  521SOL     OW 2461   6.488   0.656   0.279
  521SOL    HW1 2462   6.560   0.592   0.250
  521SOL    HW2 2463   6.416   0.659   0.210
  522SOL     OW 2464   3.497   3.979   5.738
  522SOL    HW1 2465   3.409   4.021   5.716
  522SOL    HW2 2466   3.484   3.906   5.804
  523SOL     OW 2467   6.288   6.843   3.797
  523SOL    HW1 2468   6.366   6.823   3.857
  523SOL    HW2 2469   6.317   6.838   3.702
  524SOL     OW 2470   4.007   0.292   4.605
  524SOL    HW1 2471   3.914   0.269   4.577
  524SOL    HW2 2472   4.018   0.391   4.606
  525SOL     OW 2473   3.110   2.798   6.841
  525SOL    HW1 2474   3.180   2.863   6.810
  525SOL    HW2 2475   3.091   2.813   6.938
  526SOL     OW 2476   4.426   5.803   4.755
  526SOL    HW1 2477   4.437   5.704   4.752
  526SOL    HW2 2478   4.505   5.847   4.713
  527SOL     OW 2479   0.339   1.800   0.044
  527SOL    HW1 2480   0.345   1.734   6.995
  527SOL    HW2 2481   0.317   1.752   0.130
  528SOL     OW 2482   1.752   1.959   6.160
  528SOL    HW1 2483   1.685   2.006   6.103
  528SOL    HW2 2484   1.844   1.992   6.138
  529SOL     OW 2485   6.936   5.248   4.195
  529SOL    HW1 2486   6.974   5.247   4.287
  529SOL    HW2 2487   6.859   5.311   4.191
  530SOL     OW 2488   6.782   2.648   5.173
  530SOL    HW1 2489   6.709   2.655   5.240
  530SOL    HW2 2490   6.862   2.700   5.205
  531SOL     OW 2491   6.893   0.556   6.985
  531SOL    HW1 2492   6.893   0.457   6.972
  531SOL    HW2 2493   6.858   0.600   6.902
  532SOL     OW 2494   2.126   1.104   6.025
  532SOL    HW1 2495   2.037   1.079   6.062
  532SOL    HW2 2496   2.141   1.202   6.036
  533SOL     OW 2497   4.524   0.698   4.979
  533SOL    HW1 2498   4.584   0.641   5.034
  533SOL    HW2 2499   4.579   0.750   4.913
  534SOL     OW 2500   3.100   5.398   3.360
  534SOL    HW1 2501   3.167   5.377   3.432
  534SOL    HW2 2502   3.075   5.313   3.313
  535SOL     OW 2503   5.979   4.065   1.641
  535SOL    HW1 2504   5.897   4.016   1.670
  535SOL    HW2 2505   6.015   4.023   1.558
  536SOL     OW 2506   1.924   6.174   1.214
  536SOL    HW1 2507   1.976   6.253   1.245
  536SOL    HW2 2508   1.907   6.113   1.292
  537SOL     OW 2509   2.289   6.948   2.995
  537SOL    HW1 2510   2.302   6.877   3.064
  537SOL    HW2 2511   2.277   0.011   3.040
  538SOL     OW 2512   1.721   5.170   4.072
  538SOL    HW1 2513   1.712   5.073   4.048
  538SOL    HW2 2514   1.702   5.226   3.992
  539SOL     OW 2515   1.366   5.504   1.619
  539SOL    HW1 2516   1.337   5.597   1.593
  539SOL    HW2 2517   1.465   5.503   1.633
  540SOL     OW 2518   1.840   2.913   1.091
  540SOL    HW1 2519   1.864   2.830   1.143
  540SOL    HW2 2520   1.892   2.990   1.127
  541SOL     OW 2521   4.560   5.296   5.001
  541SOL    HW1 2522   4.653   5.305   5.038
  541SOL    HW2 2523   4.547   5.205   4.963
  542SOL     OW 2524   5.613   6.745   5.989
  542SOL    HW1 2525   5.713   6.751   5.990
  542SOL    HW2 2526   5.575   6.825   5.942
  543SOL     OW 2527   5.925   0.196   1.612
  543SOL    HW1 2528   5.875   0.253   1.678
  543SOL    HW2 2529   5.876   0.110   1.599
  544SOL     OW 2530   0.844   5.889   0.702
  544SOL    HW1 2531   0.936   5.928   0.695
  544SOL    HW2 2532   0.789   5.918   0.624
  545SOL     OW 2533   3.141   1.760   3.607
  545SOL    HW1 2534   3.116   1.675   3.653
  545SOL    HW2 2535   3.102   1.838   3.656
  546SOL     OW 2536   1.780   2.477   6.909
  546SOL    HW1 2537   1.779   2.408   6.982
  546SOL    HW2 2538   1.873   2.515   6.901
  547SOL     OW 2539   2.919   2.034   0.309
  547SOL    HW1 2540   2.870   1.948   0.323
  547SOL    HW2 2541   2.867   2.109   0.350
  548SOL     OW 2542   3.178   3.783   5.549
  548SOL    HW1 2543   3.239   3.804   5.472
  548SOL    HW2 2544   3.115   3.710   5.522
  549SOL     OW 2545   0.894   4.439   0.794
  549SOL    HW1 2546   0.939   4.366   0.743
  549SOL    HW2 2547   0.868   4.513   0.731
  550SOL     OW 2548   6.977   4.382   0.576
  550SOL    HW1 2549   6.897   4.364   0.634
  550SOL    HW2 2550   6.990   4.481   0.569
  551SOL     OW 2551   0.187   0.548   0.262
  551SOL    HW1 2552   0.183   0.541   0.361
  551SOL    HW2 2553   0.175   0.643   0.234
  552SOL     OW 2554   4.715   4.903   0.516
  552SOL    HW1 2555   4.712   4.959   0.433
  552SOL    HW2 2556   4.696   4.807   0.492
  553SOL     OW 2557   1.110   2.056   1.436
  553SOL    HW1 2558   1.182   1.990   1.415
  553SOL    HW2 2559   1.076   2.097   1.351
  554SOL     OW 2560   4.634   4.986   4.552
  554SOL    HW1 2561   4.539   4.993   4.581
  554SOL    HW2 2562   4.646   5.032   4.464
  555SOL     OW 2563   1.635   4.698   5.465
  555SOL    HW1 2564   1.724   4.666   5.432
  555SOL    HW2 2565   1.587   4.623   5.510
  556SOL     OW 2566   6.247   4.239   3.078
  556SOL    HW1 2567   6.259   4.151   3.124
  556SOL    HW2 2568   6.311   4.306   3.115
  557SOL     OW 2569   6.503   5.899   5.369
  557SOL    HW1 2570   6.443   5.893   5.449
  557SOL    HW2 2571   6.598   5.897   5.399
  558SOL     OW 2572   4.220   4.014   5.854
  558SOL    HW1 2573   4.186   4.108   5.857
  558SOL    HW2 2574   4.155   3.953   5.900
  559SOL     OW 2575   6.056   4.989   6.375
  559SOL    HW1 2576   6.155   4.978   6.383
  559SOL    HW2 2577   6.013   4.966   6.462
  560SOL     OW 2578   4.469   6.430   0.752
  560SOL    HW1 2579   4.547   6.433   0.689
  560SOL    HW2 2580   4.386   6.409   0.701
  561SOL     OW 2581   5.176   7.022   1.868
  561SOL    HW1 2582   5.140   7.003   1.777
  561SOL    HW2 2583   5.231   0.080   1.865
  562SOL     OW 2584   6.380   0.160   0.796
  562SOL    HW1 2585   6.381   0.090   0.725
  562SOL    HW2 2586   6.396   0.118   0.885
  563SOL     OW 2587   2.875   0.782   5.105
  563SOL    HW1 2588   2.921   0.843   5.040
  563SOL    HW2 2589   2.886   0.818   5.197
  564SOL     OW 2590   0.868   1.172   5.502
  564SOL    HW1 2591   0.828   1.087   5.467
  564SOL    HW2 2592   0.843   1.183   5.599
  565SOL     OW 2593   4.439   3.651   5.794
  565SOL    HW1 2594   4.352   3.609   5.819
  565SOL    HW2 2595   4.465   3.718   5.863
  566SOL     OW 2596   6.765   4.592   2.061
  566SOL    HW1 2597   6.772   4.664   1.992
  566SOL    HW2 2598   6.672   4.555   2.061
  567SOL     OW 2599   3.939   3.833   5.541
  567SOL    HW1 2600   3.973   3.788   5.623
  567SOL    HW2 2601   4.013   3.880   5.494
  568SOL     OW 2602   2.415   0.886   6.665
  568SOL    HW1 2603   2.436   0.914   6.571
  568SOL    HW2 2604   2.436   0.961   6.727
  569SOL     OW 2605   1.656   4.053   6.711
  569SOL    HW1 2606   1.598   3.981   6.749
  569SOL    HW2 2607   1.603   4.136   6.698
  570SOL     OW 2608   0.047   5.653   0.358
  570SOL    HW1 2609   7.000   5.615   0.300
  570SOL    HW2 2610   0.030   5.626   0.453
  571SOL     OW 2611   4.313   6.268   2.458
  571SOL    HW1 2612   4.218   6.242   2.474
  571SOL    HW2 2613   4.318   6.367   2.443
  572SOL     OW 2614   1.165   3.977   3.849
  572SOL    HW1 2615   1.087   4.040   3.841
  572SOL    HW2 2616   1.189   3.967   3.945
  573SOL     OW 2617   3.661   2.458   6.873
  573SOL    HW1 2618   3.676   2.457   6.972
  573SOL    HW2 2619   3.594   2.528   6.849
  574SOL     OW 2620   2.631   2.068   3.725
  574SOL    HW1 2621   2.552   2.129   3.724
  574SOL    HW2 2622   2.715   2.122   3.713
  575SOL     OW 2623   4.455   2.364   6.047
  575SOL    HW1 2624   4.357   2.367   6.068
  575SOL    HW2 2625   4.474   2.284   5.990
  576SOL     OW 2626   0.981   3.668   3.164
  576SOL    HW1 2627   1.040   3.653   3.243
  576SOL    HW2 2628   0.886   3.671   3.194
  577SOL     OW 2629   4.333   2.012   3.636
  577SOL    HW1 2630   4.374   2.000   3.727
  577SOL    HW2 2631   4.391   1.969   3.567
  578SOL     OW 2632   6.853   3.994   4.447
  578SOL    HW1 2633   6.904   4.001   4.361
  578SOL    HW2 2634   6.866   4.078   4.500
  579SOL     OW 2635   4.122   3.506   0.744
  579SOL    HW1 2636   4.164   3.532   0.831
  579SOL    HW2 2637   4.028   3.478   0.759
  580SOL     OW 2638   0.255   6.959   0.269
  580SOL    HW1 2639   0.284   6.929   0.359
  580SOL    HW2 2640   0.291   0.026   0.250
  581SOL     OW 2641   3.867   3.516   3.390
  581SOL    HW1 2642   3.844   3.449   3.319
  581SOL    HW2 2643   3.929   3.474   3.456
  582SOL     OW 2644   6.976   4.080   0.371
  582SOL    HW1 2645   7.000   3.984   0.386
  582SOL    HW2 2646   0.034   4.135   0.364
  583SOL     OW 2647   2.236   6.948   6.301
  583SOL    HW1 2648   2.291   6.877   6.345
  583SOL    HW2 2649   2.140   6.935   6.323
  584SOL     OW 2650   1.496   4.862   4.323
  584SOL    HW1 2651   1.563   4.795   4.352
  584SOL    HW2 2652   1.467   4.917   4.401
  585SOL     OW 2653   5.272   1.527   5.157
  585SOL    HW1 2654   5.312   1.551   5.245
  585SOL    HW2 2655   5.340   1.480   5.101
  586SOL     OW 2656   3.155   5.347   1.107
  586SOL    HW1 2657   3.142   5.287   1.028
  586SOL    HW2 2658   3.238   5.402   1.094
  587SOL     OW 2659   2.179   2.584   6.135
  587SOL    HW1 2660   2.266   2.543   6.161
  587SOL    HW2 2661   2.189   2.630   6.046
  588SOL     OW 2662   2.107   0.236   1.960
  588SOL    HW1 2663   2.156   0.166   2.013
  588SOL    HW2 2664   2.148   0.325   1.978
  589SOL     OW 2665   4.685   4.887   1.467
  589SOL    HW1 2666   4.686   4.952   1.543
  589SOL    HW2 2667   4.766   4.828   1.473
  590SOL     OW 2668   0.040   3.870   1.819
  590SOL    HW1 2669   0.137   3.845   1.813
  590SOL    HW2 2670   7.009   3.790   1.797
  591SOL     OW 2671   2.490   0.176   3.116
  591SOL    HW1 2672   2.396   0.183   3.149
  591SOL    HW2 2673   2.520   0.264   3.080
  592SOL     OW 2674   5.252   6.889   5.874
  592SOL    HW1 2675   5.346   6.921   5.888
  592SOL    HW2 2676   5.234   6.881   5.776
  593SOL     OW 2677   0.131   0.803   4.862
  593SOL    HW1 2678   0.047   0.850   4.835
  593SOL    HW2 2679   0.184   0.861   4.924
  594SOL     OW 2680   5.419   2.265   1.481
  594SOL    HW1 2681   5.458   2.353   1.507
  594SOL    HW2 2682   5.490   2.194   1.490
  595SOL     OW 2683   3.283   0.138   4.049
  595SOL    HW1 2684   3.348   0.129   4.125
  595SOL    HW2 2685   3.256   0.234   4.039
  596SOL     OW 2686   0.718   4.667   2.181
  596SOL    HW1 2687   0.672   4.617   2.254
  596SOL    HW2 2688   0.759   4.603   2.117
  597SOL     OW 2689   4.731   1.847   5.515
  597SOL    HW1 2690   4.725   1.946   5.532
  597SOL    HW2 2691   4.808   1.830   5.452
  598SOL     OW 2692   3.521   3.270   1.815
  598SOL    HW1 2693   3.586   3.195   1.808
  598SOL    HW2 2694   3.548   3.344   1.753
  599SOL     OW 2695   5.575   5.899   3.442
  599SOL    HW1 2696   5.672   5.919   3.433
  599SOL    HW2 2697   5.524   5.956   3.377
  600SOL     OW 2698   2.649   2.138   0.201
  600SOL    HW1 2699   2.731   2.113   0.149
  600SOL    HW2 2700   2.630   2.235   0.188
  601SOL     OW 2701   1.970   4.678   2.523
  601SOL    HW1 2702   2.050   4.665   2.581
  601SOL    HW2 2703   1.958   4.775   2.504
  602SOL     OW 2704   0.191   0.556   2.521
  602SOL    HW1 2705   0.145   0.475   2.558
  602SOL    HW2 2706   0.282   0.564   2.562
  603SOL     OW 2707   4.374   1.427   2.863
  603SOL    HW1 2708   4.368   1.377   2.776
  603SOL    HW2 2709   4.281   1.451   2.893
  604SOL     OW 2710   1.175   3.282   5.871
  604SOL    HW1 2711   1.095   3.307   5.925
  604SOL    HW2 2712   1.178   3.336   5.787
  605SOL     OW 2713   5.523   0.413   4.609
  605SOL    HW1 2714   5.566   0.501   4.625
  605SOL    HW2 2715   5.428   0.416   4.640
  606SOL     OW 2716   2.506   0.050   1.998
  606SOL    HW1 2717   2.544   0.011   2.082
  606SOL    HW2 2718   2.533   7.018   1.920
  607SOL     OW 2719   3.809   0.610   4.358
  607SOL    HW1 2720   3.803   0.564   4.446
  607SOL    HW2 2721   3.905   0.622   4.332
  608SOL     OW 2722   5.764   2.795   0.738
  608SOL    HW1 2723   5.782   2.878   0.685
  608SOL    HW2 2724   5.826   2.723   0.709
  609SOL     OW 2725   3.469   4.190   4.854
  609SOL    HW1 2726   3.499   4.266   4.796
  609SOL    HW2 2727   3.514   4.198   4.944
  610SOL     OW 2728   6.262   1.827   4.656
  610SOL    HW1 2729   6.279   1.867   4.566
  610SOL    HW2 2730   6.300   1.735   4.659
  611SOL     OW 2731   6.434   6.984   0.631
  611SOL    HW1 2732   6.377   6.998   0.550
  611SOL    HW2 2733   6.454   6.887   0.641
  612SOL     OW 2734   1.749   4.570   6.606
  612SOL    HW1 2735   1.708   4.645   6.657
  612SOL    HW2 2736   1.695   4.487   6.619
  613SOL     OW 2737   3.634   1.495   6.701
  613SOL    HW1 2738   3.535   1.481   6.698
  613SOL    HW2 2739   3.656   1.586   6.666
  614SOL     OW 2740   5.128   2.856   0.881
  614SOL    HW1 2741   5.211   2.900   0.915
  614SOL    HW2 2742   5.060   2.852   0.954
  615SOL     OW 2743   5.880   6.094   0.216
  615SOL    HW1 2744   5.839   6.184   0.233
  615SOL    HW2 2745   5.956   6.105   0.152
  616SOL     OW 2746   4.538   1.847   4.743
  616SOL    HW1 2747   4.622   1.900   4.748
  616SOL    HW2 2748   4.495   1.861   4.653
  617SOL     OW 2749   6.355   6.727   5.220
  617SOL    HW1 2750   6.433   6.789   5.226
  617SOL    HW2 2751   6.293   6.743   5.298
  618SOL     OW 2752   5.494   4.732   0.772
  618SOL    HW1 2753   5.434   4.799   0.815
  618SOL    HW2 2754   5.590   4.755   0.791
  619SOL     OW 2755   1.681   0.123   6.499
  619SOL    HW1 2756   1.599   0.135   6.555
  619SOL    HW2 2757   1.746   0.065   6.547
  620SOL     OW 2758   4.901   1.917   1.817
  620SOL    HW1 2759   4.860   1.944   1.904
  620SOL    HW2 2760   4.961   1.990   1.784
  621SOL     OW 2761   1.975   6.992   6.365
  621SOL    HW1 2762   1.957   7.012   6.269
  621SOL    HW2 2763   1.909   6.924   6.398
  622SOL     OW 2764   0.579   3.109   6.314
  622SOL    HW1 2765   0.577   3.075   6.408
  622SOL    HW2 2766   0.516   3.187   6.305
  623SOL     OW 2767   6.691   1.676   2.907
  623SOL    HW1 2768   6.601   1.663   2.949
  623SOL    HW2 2769   6.740   1.589   2.904
  624SOL     OW 2770   6.481   1.125   6.081
  624SOL    HW1 2771   6.452   1.065   6.156
  624SOL    HW2 2772   6.476   1.220   6.111
  625SOL     OW 2773   2.899   1.195   1.513
  625SOL    HW1 2774   2.816   1.179   1.458
  625SOL    HW2 2775   2.924   1.111   1.562
  626SOL     OW 2776   0.263   6.144   3.696
  626SOL    HW1 2777   0.319   6.227   3.698
  626SOL    HW2 2778   0.312   6.073   3.646
  627SOL     OW 2779   6.833   4.873   6.402
  627SOL    HW1 2780   6.881   4.803   6.455
  627SOL    HW2 2781   6.779   4.830   6.330
  628SOL     OW 2782   3.969   4.307   6.747
  628SOL    HW1 2783   3.889   4.358   6.780
  628SOL    HW2 2784   3.952   4.209   6.754
  629SOL     OW 2785   1.803   6.943   6.635
  629SOL    HW1 2786   1.783   6.852   6.597
  629SOL    HW2 2787   1.751   6.956   6.719
  630SOL     OW 2788   5.864   2.104   0.765
  630SOL    HW1 2789   5.918   2.187   0.780
  630SOL    HW2 2790   5.923   2.031   0.731
  631SOL     OW 2791   1.619   3.313   2.351
  631SOL    HW1 2792   1.679   3.253   2.299
  631SOL    HW2 2793   1.620   3.404   2.311
  632SOL     OW 2794   3.371   4.586   1.366
  632SOL    HW1 2795   3.277   4.612   1.388
  632SOL    HW2 2796   3.427   4.668   1.354
  633SOL     OW 2797   1.048   6.132   6.685
  633SOL    HW1 2798   1.056   6.041   6.725
  633SOL    HW2 2799   0.988   6.188   6.742
  634SOL     OW 2800   2.890   3.185   5.502
  634SOL    HW1 2801   2.837   3.101   5.498
  634SOL    HW2 2802   2.881   3.234   5.415
  635SOL     OW 2803   6.578   6.737   6.888
  635SOL    HW1 2804   6.488   6.779   6.871
  635SOL    HW2 2805   6.608   6.759   6.981
  636SOL     OW 2806   1.908   2.138   4.465
  636SOL    HW1 2807   1.951   2.184   4.543
  636SOL    HW2 2808   1.919   2.040   4.474
  637SOL     OW 2809   6.696   1.654   2.119
  637SOL    HW1 2810   6.623   1.715   2.089
  637SOL    HW2 2811   6.760   1.639   2.044
  638SOL     OW 2812   0.089   3.477   5.234
  638SOL    HW1 2813   0.057   3.571   5.224
  638SOL    HW2 2814   0.026   3.426   5.291
  639SOL     OW 2815   6.078   3.357   1.726
  639SOL    HW1 2816   6.062   3.270   1.681
  639SOL    HW2 2817   5.994   3.412   1.722
  640SOL     OW 2818   6.179   3.550   2.655
  640SOL    HW1 2819   6.233   3.633   2.674
  640SOL    HW2 2820   6.150   3.509   2.742
  641SOL     OW 2821   2.567   5.572   4.227
  641SOL    HW1 2822   2.565   5.496   4.162
  641SOL    HW2 2823   2.657   5.576   4.271
  642SOL     OW 2824   0.877   4.783   4.575
  642SOL    HW1 2825   0.926   4.792   4.488
  642SOL    HW2 2826   0.791   4.735   4.560
  643SOL     OW 2827   4.502   4.696   0.740
  643SOL    HW1 2828   4.525   4.645   0.657
  643SOL    HW2 2829   4.586   4.712   0.793
  644SOL     OW 2830   5.959   0.766   4.422
  644SOL    HW1 2831   5.916   0.728   4.504
  644SOL    HW2 2832   5.912   0.731   4.340
  645SOL     OW 2833   4.150   6.516   2.194
  645SOL    HW1 2834   4.056   6.493   2.221
  645SOL    HW2 2835   4.209   6.512   2.275
  646SOL     OW 2836   3.876   1.924   5.342
  646SOL    HW1 2837   3.933   2.006   5.350
  646SOL    HW2 2838   3.816   1.918   5.422
  647SOL     OW 2839   2.347   2.285   6.839
  647SOL    HW1 2840   2.271   2.265   6.778
  647SOL    HW2 2841   2.419   2.216   6.826
  648SOL     OW 2842   5.359   2.251   4.191
  648SOL    HW1 2843   5.281   2.313   4.197
  648SOL    HW2 2844   5.350   2.195   4.108
  649SOL     OW 2845   3.640   5.730   0.306
  649SOL    HW1 2846   3.701   5.652   0.291
  649SOL    HW2 2847   3.545   5.703   0.289
  650SOL     OW 2848   2.709   3.697   1.317
  650SOL    HW1 2849   2.757   3.765   1.262
  650SOL    HW2 2850   2.662   3.743   1.392
  651SOL     OW 2851   0.029   1.524   2.817
  651SOL    HW1 2852   6.985   1.544   2.747
  651SOL    HW2 2853   0.059   1.610   2.860
  652SOL     OW 2854   4.111   6.624   0.738
  652SOL    HW1 2855   4.106   6.528   0.712
  652SOL    HW2 2856   4.119   6.631   0.838
  653SOL     OW 2857   1.445   0.034   3.339
  653SOL    HW1 2858   1.544   0.023   3.352
  653SOL    HW2 2859   1.425   0.129   3.315
  654SOL     OW 2860   1.143   0.232   5.842
  654SOL    HW1 2861   1.149   0.193   5.750
  654SOL    HW2 2862   1.233   0.265   5.870
  655SOL     OW 2863   1.489   4.050   1.487
  655SOL    HW1 2864   1.444   4.139   1.496
  655SOL    HW2 2865   1.559   4.054   1.416
  656SOL     OW 2866   2.189   6.946   0.061
  656SOL    HW1 2867   2.272   6.931   0.008
  656SOL    HW2 2868   2.171   0.019   0.069
  657SOL     OW 2869   4.066   3.347   4.334
  657SOL    HW1 2870   4.012   3.362   4.416
  657SOL    HW2 2871   4.038   3.261   4.291
  658SOL     OW 2872   2.210   0.229   4.976
  658SOL    HW1 2873   2.193   0.194   4.884
  658SOL    HW2 2874   2.152   0.309   4.992
  659SOL     OW 2875   1.898   5.488   6.892
  659SOL    HW1 2876   1.994   5.518   6.894
  659SOL    HW2 2877   1.866   5.484   6.797
  660SOL     OW 2878   5.523   4.410   2.220
  660SOL    HW1 2879   5.571   4.486   2.266
  660SOL    HW2 2880   5.471   4.446   2.142
  661SOL     OW 2881   4.192   5.778   4.126
  661SOL    HW1 2882   4.222   5.815   4.214
  661SOL    HW2 2883   4.098   5.744   4.134
  662SOL     OW 2884   6.491   3.502   6.618
  662SOL    HW1 2885   6.579   3.532   6.583
  662SOL    HW2 2886   6.433   3.581   6.636
  663SOL     OW 2887   1.560   4.437   5.933
  663SOL    HW1 2888   1.611   4.415   5.850
  663SOL    HW2 2889   1.462   4.435   5.913
  664SOL     OW 2890   1.760   0.234   5.830
  664SOL    HW1 2891   1.850   0.190   5.832
  664SOL    HW2 2892   1.710   0.210   5.913
  665SOL     OW 2893   2.398   4.444   2.994
  665SOL    HW1 2894   2.373   4.391   2.912
  665SOL    HW2 2895   2.443   4.528   2.967
  666SOL     OW 2896   2.969   0.358   0.219
  666SOL    HW1 2897   3.025   0.437   0.246
  666SOL    HW2 2898   2.881   0.363   0.267
  667SOL     OW 2899   1.367   2.826   2.563
  667SOL    HW1 2900   1.399   2.746   2.612
  667SOL    HW2 2901   1.437   2.857   2.499
  668SOL     OW 2902   5.447   7.002   0.298
  668SOL    HW1 2903   5.479   6.926   0.353
  668SOL    HW2 2904   5.526   0.024   0.257
  669SOL     OW 2905   6.649   5.912   3.095
  669SOL    HW1 2906   6.574   5.929   3.159
  669SOL    HW2 2907   6.736   5.925   3.142
  670SOL     OW 2908   3.536   4.174   3.434
  670SOL    HW1 2909   3.601   4.105   3.403
  670SOL    HW2 2910   3.511   4.233   3.358
  671SOL     OW 2911   1.502   0.303   6.373
  671SOL    HW1 2912   1.413   0.280   6.413
  671SOL    HW2 2913   1.573   0.246   6.414
  672SOL     OW 2914   0.943   2.144   2.924
  672SOL    HW1 2915   0.883   2.221   2.902
  672SOL    HW2 2916   0.932   2.119   3.020
  673SOL     OW 2917   4.800   0.766   6.740
  673SOL    HW1 2918   4.864   0.692   6.719
  673SOL    HW2 2919   4.850   0.852   6.748
  674SOL     OW 2920   6.740   2.297   4.141
  674SOL    HW1 2921   6.754   2.394   4.160
  674SOL    HW2 2922   6.642   2.278   4.132
  675SOL     OW 2923   5.873   6.847   3.460
  675SOL    HW1 2924   5.828   6.896   3.535
  675SOL    HW2 2925   5.820   6.860   3.376
  676SOL     OW 2926   3.092   4.867   4.847
  676SOL    HW1 2927   3.188   4.880   4.872
  676SOL    HW2 2928   3.042   4.831   4.926
  677SOL     OW 2929   4.983   6.821   0.877
  677SOL    HW1 2930   5.018   6.730   0.899
  677SOL    HW2 2931   5.058   6.880   0.847
  678SOL     OW 2932   2.504   0.728   6.360
  678SOL    HW1 2933   2.416   0.707   6.317
  678SOL    HW2 2934   2.523   0.661   6.431
  679SOL     OW 2935   6.818   0.448   2.835
  679SOL    HW1 2936   6.817   0.517   2.763
  679SOL    HW2 2937   6.828   0.357   2.795
  680SOL     OW 2938   5.983   3.493   4.356
  680SOL    HW1 2939   5.896   3.460   4.321
  680SOL    HW2 2940   6.040   3.524   4.281
  681SOL     OW 2941   1.218   5.519   2.586
  681SOL    HW1 2942   1.153   5.583   2.626
  681SOL    HW2 2943   1.282   5.568   2.527
  682SOL     OW 2944   0.359   0.193   5.927
  682SOL    HW1 2945   0.375   0.161   6.020
  682SOL    HW2 2946   0.278   0.251   5.925
  683SOL     OW 2947   5.540   1.432   1.654
  683SOL    HW1 2948   5.547   1.334   1.675
  683SOL    HW2 2949   5.540   1.484   1.740
  684SOL     OW 2950   6.609   5.868   0.032
  684SOL    HW1 2951   6.562   5.868   6.969
  684SOL    HW2 2952   6.708   5.870   0.017
  685SOL     OW 2953   5.962   0.581   4.945
  685SOL    HW1 2954   5.944   0.531   5.030
  685SOL    HW2 2955   5.987   0.675   4.967
  686SOL     OW 2956   5.559   4.701   1.390
  686SOL    HW1 2957   5.549   4.606   1.421
  686SOL    HW2 2958   5.544   4.763   1.467
  687SOL     OW 2959   5.314   2.248   6.997
  687SOL    HW1 2960   5.230   2.292   0.002
  687SOL    HW2 2961   5.297   2.151   6.982
  688SOL     OW 2962   6.419   3.012   5.317
  688SOL    HW1 2963   6.416   3.042   5.412
  688SOL    HW2 2964   6.398   3.090   5.257
  689SOL     OW 2965   5.593   4.389   4.666
  689SOL    HW1 2966   5.591   4.327   4.744
  689SOL    HW2 2967   5.688   4.403   4.637
  690SOL     OW 2968   6.658   2.106   4.753
  690SOL    HW1 2969   6.736   2.059   4.712
  690SOL    HW2 2970   6.642   2.192   4.705
  691SOL     OW 2971   0.622   3.143   7.007
  691SOL    HW1 2972   0.672   3.064   0.016
  691SOL    HW2 2973   0.553   3.113   6.941
  692SOL     OW 2974   2.638   6.958   3.719
  692SOL    HW1 2975   2.723   6.921   3.681
  692SOL    HW2 2976   2.648   6.969   3.818
  693SOL     OW 2977   5.933   1.678   3.724
  693SOL    HW1 2978   5.991   1.757   3.701
  693SOL    HW2 2979   5.976   1.627   3.799
  694SOL     OW 2980   1.290   0.455   3.031
  694SOL    HW1 2981   1.368   0.472   2.971
  694SOL    HW2 2982   1.212   0.510   3.002
  695SOL     OW 2983   4.996   5.468   6.225
  695SOL    HW1 2984   4.996   5.442   6.322
  695SOL    HW2 2985   4.938   5.548   6.211
  696SOL     OW 2986   4.983   5.524   2.314
  696SOL    HW1 2987   5.017   5.569   2.231
  696SOL    HW2 2988   5.009   5.578   2.394
  697SOL     OW 2989   1.094   3.922   3.382
  697SOL    HW1 2990   1.182   3.948   3.343
  697SOL    HW2 2991   1.095   3.824   3.404
  698SOL     OW 2992   4.941   6.612   4.109
  698SOL    HW1 2993   4.929   6.688   4.045
  698SOL    HW2 2994   5.036   6.609   4.141
  699SOL     OW 2995   2.022   5.343   6.256
  699SOL    HW1 2996   2.047   5.330   6.352
  699SOL    HW2 2997   2.030   5.256   6.208
  700SOL     OW 2998   1.835   2.100   5.267
  700SOL    HW1 2999   1.928   2.081   5.234
  700SOL    HW2 3000   1.794   2.173   5.212
  701SOL     OW 3001   1.086   4.874   5.331
  701SOL    HW1 3002   1.143   4.819   5.270
  701SOL    HW2 3003   1.010   4.818   5.365
  702SOL     OW 3004   6.044   6.233   5.322
  702SOL    HW1 3005   6.120   6.184   5.365
  702SOL    HW2 3006   6.077   6.279   5.239
  703SOL     OW 3007   5.878   3.772   6.302
  703SOL    HW1 3008   5.812   3.698   6.287
  703SOL    HW2 3009   5.961   3.735   6.344
  704SOL     OW 3010   2.061   6.759   1.903
  704SOL    HW1 3011   2.080   6.841   1.849
  704SOL    HW2 3012   2.140   6.698   1.901
  705SOL     OW 3013   0.810   1.508   3.861
  705SOL    HW1 3014   0.780   1.416   3.837
  705SOL    HW2 3015   0.898   1.503   3.909
  706SOL     OW 3016   5.823   3.308   3.698
  706SOL    HW1 3017   5.851   3.380   3.761
  706SOL    HW2 3018   5.882   3.309   3.618
  707SOL     OW 3019   4.951   3.099   2.746
  707SOL    HW1 3020   4.899   3.051   2.676
  707SOL    HW2 3021   5.049   3.078   2.735
  708SOL     OW 3022   5.162   1.566   1.993
  708SOL    HW1 3023   5.150   1.477   1.949
  708SOL    HW2 3024   5.149   1.639   1.927
  709SOL     OW 3025   1.261   4.743   6.766
  709SOL    HW1 3026   1.286   4.648   6.779
  709SOL    HW2 3027   1.325   4.802   6.814
  710SOL     OW 3028   3.239   3.382   3.184
  710SOL    HW1 3029   3.177   3.417   3.254
  710SOL    HW2 3030   3.281   3.458   3.134
  711SOL     OW 3031   0.864   1.117   4.252
  711SOL    HW1 3032   0.788   1.057   4.279
  711SOL    HW2 3033   0.912   1.077   4.174
  712SOL     OW 3034   0.095   4.368   3.353
  712SOL    HW1 3035   0.011   4.322   3.381
  712SOL    HW2 3036   0.132   4.421   3.429
  713SOL     OW 3037   2.618   3.883   5.344
  713SOL    HW1 3038   2.555   3.918   5.274
  713SOL    HW2 3039   2.662   3.960   5.391
  714SOL     OW 3040   4.804   4.897   4.806
  714SOL    HW1 3041   4.750   4.943   4.736
  714SOL    HW2 3042   4.757   4.815   4.836
  715SOL     OW 3043   6.881   0.477   6.424
  715SOL    HW1 3044   6.940   0.487   6.343
  715SOL    HW2 3045   6.909   0.396   6.475
  716SOL     OW 3046   6.427   5.301   6.799
  716SOL    HW1 3047   6.349   5.352   6.835
  716SOL    HW2 3048   6.404   5.265   6.708
  717SOL     OW 3049   6.107   2.630   5.811
  717SOL    HW1 3050   6.076   2.574   5.734
  717SOL    HW2 3051   6.040   2.702   5.830
  718SOL     OW 3052   3.625   2.853   0.594
  718SOL    HW1 3053   3.692   2.816   0.529
  718SOL    HW2 3054   3.644   2.816   0.685
  719SOL     OW 3055   6.269   4.365   6.483
  719SOL    HW1 3056   6.287   4.463   6.484
  719SOL    HW2 3057   6.355   4.314   6.488
  720SOL     OW 3058   4.206   1.131   5.778
  720SOL    HW1 3059   4.240   1.046   5.737
  720SOL    HW2 3060   4.208   1.123   5.878
  721SOL     OW 3061   1.482   0.032   5.505
  721SOL    HW1 3062   1.527   0.118   5.483
  721SOL    HW2 3063   1.441   7.018   5.423
  722SOL     OW 3064   4.648   0.951   4.890
  722SOL    HW1 3065   4.691   0.951   4.800
  722SOL    HW2 3066   4.700   1.011   4.952
  723SOL     OW 3067   0.192   3.289   1.661
  723SOL    HW1 3068   0.096   3.263   1.662
  723SOL    HW2 3069   0.245   3.223   1.714
  724SOL     OW 3070   0.459   2.552   4.318
  724SOL    HW1 3071   0.507   2.583   4.400
  724SOL    HW2 3072   0.449   2.452   4.321
  725SOL     OW 3073   2.408   5.114   2.355
  725SOL    HW1 3074   2.437   5.163   2.437
  725SOL    HW2 3075   2.483   5.112   2.289
  726SOL     OW 3076   5.551   6.130   6.123
  726SOL    HW1 3077   5.592   6.065   6.187
  726SOL    HW2 3078   5.617   6.202   6.101
  727SOL     OW 3079   1.952   4.645   4.662
  727SOL    HW1 3080   1.952   4.727   4.720
  727SOL    HW2 3081   2.034   4.646   4.605
  728SOL     OW 3082   6.136   2.357   5.982
  728SOL    HW1 3083   6.118   2.453   6.004
  728SOL    HW2 3084   6.216   2.326   6.031
  729SOL     OW 3085   3.835   1.671   0.832
  729SOL    HW1 3086   3.760   1.627   0.882
  729SOL    HW2 3087   3.852   1.761   0.871
  730SOL     OW 3088   6.105   1.327   4.141
  730SOL    HW1 3089   6.039   1.297   4.072
  730SOL    HW2 3090   6.057   1.356   4.223
  731SOL     OW 3091   0.040   1.743   3.721
  731SOL    HW1 3092   0.100   1.763   3.644
  731SOL    HW2 3093   0.064   1.802   3.798
  732SOL     OW 3094   0.736   3.714   3.255
  732SOL    HW1 3095   0.780   3.802   3.268
  732SOL    HW2 3096   0.729   3.666   3.342
  733SOL     OW 3097   4.648   4.395   4.475
  733SOL    HW1 3098   4.593   4.452   4.414
  733SOL    HW2 3099   4.596   4.374   4.557
  734SOL     OW 3100   0.823   5.968   6.469
  734SOL    HW1 3101   0.895   6.017   6.517
  734SOL    HW2 3102   0.741   6.026   6.465
  735SOL     OW 3103   3.437   4.390   6.844
  735SOL    HW1 3104   3.402   4.483   6.831
  735SOL    HW2 3105   3.366   4.334   6.887
  736SOL     OW 3106   6.149   0.906   2.309
  736SOL    HW1 3107   6.074   0.965   2.340
  736SOL    HW2 3108   6.234   0.934   2.353
  737SOL     OW 3109   5.684   3.710   0.184
  737SOL    HW1 3110   5.746   3.661   0.123
  737SOL    HW2 3111   5.689   3.670   0.276
  738SOL     OW 3112   7.020   4.013   3.961
  738SOL    HW1 3113   6.959   4.052   4.030
  738SOL    HW2 3114   0.046   4.086   3.917
  739SOL     OW 3115   4.643   6.296   6.175
  739SOL    HW1 3116   4.708   6.241   6.226
  739SOL    HW2 3117   4.564   6.240   6.148
  740SOL     OW 3118   5.655   6.898   0.126
  740SOL    HW1 3119   5.581   6.946   0.078
  740SOL    HW2 3120   5.715   6.964   0.170
  741SOL     OW 3121   2.060   0.652   3.818
  741SOL    HW1 3122   2.006   0.570   3.802
  741SOL    HW2 3123   2.156   0.634   3.793
  742SOL     OW 3124   1.321   6.310   2.937
  742SOL    HW1 3125   1.301   6.377   3.009
  742SOL    HW2 3126   1.365   6.357   2.860
  743SOL     OW 3127   1.746   3.600   2.615
  743SOL    HW1 3128   1.747   3.501   2.603
  743SOL    HW2 3129   1.802   3.642   2.543
  744SOL     OW 3130   6.437   5.246   0.877
  744SOL    HW1 3131   6.398   5.271   0.965
  744SOL    HW2 3132   6.365   5.215   0.815
  745SOL     OW 3133   1.262   6.013   2.043
  745SOL    HW1 3134   1.280   5.915   2.051
  745SOL    HW2 3135   1.336   6.064   2.087
  746SOL     OW 3136   3.213   6.750   3.207
  746SOL    HW1 3137   3.122   6.784   3.229
  746SOL    HW2 3138   3.241   6.783   3.117
  747SOL     OW 3139   0.201   4.309   0.663
  747SOL    HW1 3140   0.253   4.274   0.585
  747SOL    HW2 3141   0.105   4.320   0.637
  748SOL     OW 3142   3.326   2.887   3.537
  748SOL    HW1 3143   3.282   2.964   3.490
  748SOL    HW2 3144   3.350   2.818   3.470
  749SOL     OW 3145   5.213   2.717   5.633
  749SOL    HW1 3146   5.114   2.702   5.637
  749SOL    HW2 3147   5.232   2.814   5.651
  750SOL     OW 3148   3.376   3.789   2.027
  750SOL    HW1 3149   3.456   3.737   1.997
  750SOL    HW2 3150   3.398   3.839   2.110
  751SOL     OW 3151   5.593   1.897   0.205
  751SOL    HW1 3152   5.627   1.918   0.297
  751SOL    HW2 3153   5.561   1.802   0.203
  752SOL     OW 3154   4.703   0.408   2.051
  752SOL    HW1 3155   4.624   0.349   2.033
  752SOL    HW2 3156   4.715   0.470   1.974
  753SOL     OW 3157   3.655   1.581   1.881
  753SOL    HW1 3158   3.621   1.526   1.805
  753SOL    HW2 3159   3.591   1.576   1.957
  754SOL     OW 3160   5.587   5.148   6.480
  754SOL    HW1 3161   5.540   5.097   6.408
  754SOL    HW2 3162   5.531   5.227   6.508
  755SOL     OW 3163   5.909   5.208   2.208
  755SOL    HW1 3164   5.945   5.301   2.218
  755SOL    HW2 3165   5.858   5.202   2.122
  756SOL     OW 3166   2.463   6.589   3.715
  756SOL    HW1 3167   2.405   6.521   3.759
  756SOL    HW2 3168   2.537   6.543   3.665
  757SOL     OW 3169   6.859   0.635   4.507
  757SOL    HW1 3170   6.808   0.584   4.439
  757SOL    HW2 3171   6.903   0.714   4.464
  758SOL     OW 3172   4.099   1.576   0.770
  758SOL    HW1 3173   4.007   1.599   0.804
  758SOL    HW2 3174   4.164   1.646   0.800
  759SOL     OW 3175   2.284   0.448   1.987
  759SOL    HW1 3176   2.380   0.429   2.008
  759SOL    HW2 3177   2.279   0.520   1.918
  760SOL     OW 3178   4.544   1.648   6.083
  760SOL    HW1 3179   4.555   1.728   6.141
  760SOL    HW2 3180   4.614   1.580   6.105
  761SOL     OW 3181   5.350   0.595   6.760
  761SOL    HW1 3182   5.351   0.539   6.676
  761SOL    HW2 3183   5.408   0.675   6.746
  762SOL     OW 3184   2.481   4.544   4.986
  762SOL    HW1 3185   2.444   4.598   4.910
  762SOL    HW2 3186   2.577   4.523   4.967
  763SOL     OW 3187   6.947   5.284   0.571
  763SOL    HW1 3188   0.020   5.301   0.567
  763SOL    HW2 3189   6.920   5.225   0.495
  764SOL     OW 3190   5.961   1.171   2.634
  764SOL    HW1 3191   5.862   1.182   2.621
  764SOL    HW2 3192   6.010   1.229   2.570
  765SOL     OW 3193   1.041   6.532   2.968
  765SOL    HW1 3194   0.967   6.593   2.941
  765SOL    HW2 3195   1.016   6.437   2.950
  766SOL     OW 3196   0.131   6.338   0.183
  766SOL    HW1 3197   0.226   6.320   0.209
  766SOL    HW2 3198   0.087   6.253   0.154
  767SOL     OW 3199   5.746   6.051   1.186
  767SOL    HW1 3200   5.688   5.976   1.217
  767SOL    HW2 3201   5.799   6.086   1.264
  768SOL     OW 3202   2.750   6.735   3.921
  768SOL    HW1 3203   2.798   6.735   3.833
  768SOL    HW2 3204   2.781   6.658   3.976
  769SOL     OW 3205   3.819   0.542   0.023
  769SOL    HW1 3206   3.758   0.575   0.095
  769SOL    HW2 3207   3.897   0.495   0.064
  770SOL     OW 3208   3.297   5.156   5.017
  770SOL    HW1 3209   3.309   5.255   5.026
  770SOL    HW2 3210   3.199   5.134   5.022
  771SOL     OW 3211   0.440   6.797   4.520
  771SOL    HW1 3212   0.442   6.857   4.600
  771SOL    HW2 3213   0.444   6.702   4.549
  772SOL     OW 3214   0.602   3.128   6.634
  772SOL    HW1 3215   0.638   3.221   6.639
  772SOL    HW2 3216   0.522   3.120   6.694
  773SOL     OW 3217   6.579   3.525   2.148
  773SOL    HW1 3218   6.643   3.602   2.152
  773SOL    HW2 3219   6.630   3.440   2.157
  774SOL     OW 3220   1.061   1.307   1.511
  774SOL    HW1 3221   0.993   1.284   1.581
  774SOL    HW2 3222   1.028   1.277   1.422
  775SOL     OW 3223   1.752   2.805   3.976
  775SOL    HW1 3224   1.820   2.849   4.035
  775SOL    HW2 3225   1.695   2.744   4.031
  776SOL     OW 3226   2.336   0.560   5.443
  776SOL    HW1 3227   2.383   0.487   5.492
  776SOL    HW2 3228   2.340   0.542   5.345
  777SOL     OW 3229   4.164   6.856   6.940
  777SOL    HW1 3230   4.140   6.940   6.891
  777SOL    HW2 3231   4.173   6.875   0.012
  778SOL     OW 3232   4.781   5.787   4.904
  778SOL    HW1 3233   4.714   5.842   4.955
  778SOL    HW2 3234   4.858   5.766   4.964
  779SOL     OW 3235   0.562   0.180   1.928
  779SOL    HW1 3236   0.656   0.164   1.958
  779SOL    HW2 3237   0.529   0.266   1.967
  780SOL     OW 3238   5.659   2.256   4.969
  780SOL    HW1 3239   5.746   2.232   5.011
  780SOL    HW2 3240   5.585   2.245   5.036
  781SOL     OW 3241   1.490   3.983   0.077
  781SOL    HW1 3242   1.535   3.949   0.159
  781SOL    HW2 3243   1.504   3.919   0.002
  782SOL     OW 3244   6.889   5.467   0.860
  782SOL    HW1 3245   6.873   5.371   0.837
  782SOL    HW2 3246   6.801   5.515   0.863
  783SOL     OW 3247   1.962   5.703   0.338
  783SOL    HW1 3248   1.914   5.710   0.425
  783SOL    HW2 3249   1.914   5.757   0.269
  784SOL     OW 3250   5.348   5.510   3.096
  784SOL    HW1 3251   5.375   5.606   3.103
  784SOL    HW2 3252   5.324   5.476   3.187
  785SOL     OW 3253   6.549   2.699   3.420
  785SOL    HW1 3254   6.554   2.664   3.513
  785SOL    HW2 3255   6.587   2.791   3.417
  786SOL     OW 3256   5.824   6.561   1.066
  786SOL    HW1 3257   5.786   6.527   1.152
  786SOL    HW2 3258   5.770   6.639   1.035
  787SOL     OW 3259   4.314   1.150   0.168
  787SOL    HW1 3260   4.402   1.138   0.215
  787SOL    HW2 3261   4.331   1.188   0.077
  788SOL     OW 3262   0.423   4.473   3.630
  788SOL    HW1 3263   0.425   4.373   3.619
  788SOL    HW2 3264   0.479   4.500   3.708
  789SOL     OW 3265   5.706   3.241   0.922
  789SOL    HW1 3266   5.801   3.216   0.937
  789SOL    HW2 3267   5.700   3.307   0.847
  790SOL     OW 3268   3.068   0.629   3.905
  790SOL    HW1 3269   3.142   0.693   3.925
  790SOL    HW2 3270   3.008   0.621   3.985
  791SOL     OW 3271   3.822   1.462   4.589
  791SOL    HW1 3272   3.794   1.417   4.674
  791SOL    HW2 3273   3.755   1.533   4.566
  792SOL     OW 3274   5.692   0.900   3.894
  792SOL    HW1 3275   5.670   0.806   3.918
  792SOL    HW2 3276   5.671   0.915   3.797
  793SOL     OW 3277   0.237   0.103   6.780
  793SOL    HW1 3278   0.186   0.064   6.704
  793SOL    HW2 3279   0.216   0.053   6.864
  794SOL     OW 3280   3.367   4.968   5.233
  794SOL    HW1 3281   3.416   5.052   5.211
  794SOL    HW2 3282   3.276   4.970   5.193
  795SOL     OW 3283   4.728   5.075   0.290
  795SOL    HW1 3284   4.820   5.111   0.305
  795SOL    HW2 3285   4.686   5.120   0.211
  796SOL     OW 3286   1.079   1.703   5.870
  796SOL    HW1 3287   1.027   1.707   5.785
  796SOL    HW2 3288   1.038   1.634   5.930
  797SOL     OW 3289   6.139   2.890   5.615
  797SOL    HW1 3290   6.136   2.910   5.517
  797SOL    HW2 3291   6.183   2.802   5.631
  798SOL     OW 3292   6.282   1.118   4.502
  798SOL    HW1 3293   6.374   1.147   4.531
  798SOL    HW2 3294   6.279   1.110   4.403
  799SOL     OW 3295   0.247   3.979   3.685
  799SOL    HW1 3296   0.319   3.935   3.738
  799SOL    HW2 3297   0.171   3.916   3.672
  800SOL     OW 3298   7.021   2.513   2.311
  800SOL    HW1 3299   0.004   2.612   2.298
  800SOL    HW2 3300   6.929   2.490   2.341
  801SOL     OW 3301   0.437   3.193   3.406
  801SOL    HW1 3302   0.374   3.128   3.366
  801SOL    HW2 3303   0.527   3.184   3.362
  802SOL     OW 3304   6.792   1.451   0.598
  802SOL    HW1 3305   6.847   1.462   0.515
  802SOL    HW2 3306   6.822   1.518   0.666
  803SOL     OW 3307   2.204   0.278   4.243
  803SOL    HW1 3308   2.142   0.317   4.175
  803SOL    HW2 3309   2.155   0.266   4.330
  804SOL     OW 3310   5.680   5.975   0.590
  804SOL    HW1 3311   5.700   5.920   0.509
  804SOL    HW2 3312   5.762   5.981   0.647
  805SOL     OW 3313   2.096   2.707   6.404
  805SOL    HW1 3314   2.165   2.771   6.437
  805SOL    HW2 3315   2.120   2.676   6.312
  806SOL     OW 3316   4.257   6.294   0.502
  806SOL    HW1 3317   4.304   6.221   0.453
  806SOL    HW2 3318   4.190   6.337   0.441
  807SOL     OW 3319   0.741   6.967   3.264
  807SOL    HW1 3320   0.737   6.893   3.330
  807SOL    HW2 3321   0.701   0.025   3.304
  808SOL     OW 3322   5.689   3.671   4.403
  808SOL    HW1 3323   5.653   3.727   4.478
  808SOL    HW2 3324   5.688   3.575   4.430
  809SOL     OW 3325   0.279   5.898   5.903
  809SOL    HW1 3326   0.326   5.950   5.974
  809SOL    HW2 3327   0.180   5.899   5.920
  810SOL     OW 3328   5.879   5.474   5.954
  810SOL    HW1 3329   5.896   5.413   6.031
  810SOL    HW2 3330   5.828   5.555   5.985
  811SOL     OW 3331   3.044   4.838   2.891
  811SOL    HW1 3332   2.971   4.796   2.838
  811SOL    HW2 3333   3.056   4.788   2.977
  812SOL     OW 3334   0.103   0.276   2.629
  812SOL    HW1 3335   0.003   0.274   2.619
  812SOL    HW2 3336   0.126   0.287   2.726
  813SOL     OW 3337   4.771   5.259   1.769
  813SOL    HW1 3338   4.709   5.338   1.764
  813SOL    HW2 3339   4.764   5.218   1.860
  814SOL     OW 3340   5.100   5.642   1.485
  814SOL    HW1 3341   5.149   5.723   1.515
  814SOL    HW2 3342   5.137   5.561   1.531
  815SOL     OW 3343   1.082   1.022   0.898
  815SOL    HW1 3344   0.984   1.015   0.916
  815SOL    HW2 3345   1.099   1.102   0.840
  816SOL     OW 3346   6.123   0.310   1.477
  816SOL    HW1 3347   6.053   0.268   1.535
  816SOL    HW2 3348   6.181   0.370   1.533
  817SOL     OW 3349   0.849   2.458   2.097
  817SOL    HW1 3350   0.821   2.364   2.114
  817SOL    HW2 3351   0.915   2.486   2.168
  818SOL     OW 3352   6.095   1.160   2.925
  818SOL    HW1 3353   6.151   1.085   2.959
  818SOL    HW2 3354   6.096   1.160   2.825
  819SOL     OW 3355   0.182   5.056   2.433
  819SOL    HW1 3356   0.102   5.115   2.422
  819SOL    HW2 3357   0.260   5.096   2.384
  820SOL     OW 3358   2.843   3.042   5.939
  820SOL    HW1 3359   2.861   3.120   5.878
  820SOL    HW2 3360   2.783   2.977   5.893
  821SOL     OW 3361   1.269   4.358   0.492
  821SOL    HW1 3362   1.350   4.339   0.549
  821SOL    HW2 3363   1.293   4.343   0.396
  822SOL     OW 3364   0.593   2.931   5.052
  822SOL    HW1 3365   0.592   2.941   4.953
  822SOL    HW2 3366   0.681   2.894   5.081
  823SOL     OW 3367   3.949   3.880   1.557
  823SOL    HW1 3368   4.002   3.939   1.618
  823SOL    HW2 3369   4.011   3.828   1.499
  824SOL     OW 3370   6.126   3.322   6.508
  824SOL    HW1 3371   6.151   3.235   6.549
  824SOL    HW2 3372   6.054   3.308   6.440
  825SOL     OW 3373   1.882   3.001   1.568
  825SOL    HW1 3374   1.817   2.935   1.604
  825SOL    HW2 3375   1.833   3.077   1.526
  826SOL     OW 3376   0.799   1.867   6.787
  826SOL    HW1 3377   0.791   1.936   6.859
  826SOL    HW2 3378   0.798   1.911   6.698
  827SOL     OW 3379   3.562   4.493   1.090
  827SOL    HW1 3380   3.549   4.433   1.011
  827SOL    HW2 3381   3.628   4.564   1.066
  828SOL     OW 3382   6.024   0.972   5.317
  828SOL    HW1 3383   6.050   1.045   5.254
  828SOL    HW2 3384   6.009   1.010   5.408
  829SOL     OW 3385   3.973   4.318   5.550
  829SOL    HW1 3386   3.944   4.358   5.463
  829SOL    HW2 3387   3.922   4.233   5.566
  830SOL     OW 3388   4.694   3.358   6.427
  830SOL    HW1 3389   4.635   3.281   6.448
  830SOL    HW2 3390   4.702   3.369   6.328
  831SOL     OW 3391   5.476   0.823   5.354
  831SOL    HW1 3392   5.417   0.898   5.382
  831SOL    HW2 3393   5.532   0.851   5.276
  832SOL     OW 3394   2.336   1.312   6.156
  832SOL    HW1 3395   2.376   1.254   6.086
  832SOL    HW2 3396   2.360   1.276   6.247
  833SOL     OW 3397   1.354   0.395   4.932
  833SOL    HW1 3398   1.318   0.480   4.892
  833SOL    HW2 3399   1.339   0.395   5.030
  834SOL     OW 3400   2.978   4.348   5.780
  834SOL    HW1 3401   3.051   4.398   5.825
  834SOL    HW2 3402   2.931   4.408   5.715
  835SOL     OW 3403   3.969   1.806   2.361
  835SOL    HW1 3404   3.883   1.777   2.402
  835SOL    HW2 3405   3.957   1.895   2.318
  836SOL     OW 3406   2.287   0.904   5.931
  836SOL    HW1 3407   2.235   0.974   5.980
  836SOL    HW2 3408   2.299   0.824   5.990
  837SOL     OW 3409   4.037   2.211   4.084
  837SOL    HW1 3410   4.008   2.128   4.036
  837SOL    HW2 3411   4.137   2.216   4.084
  838SOL     OW 3412   1.052   6.744   2.511
  838SOL    HW1 3413   1.142   6.745   2.553
  838SOL    HW2 3414   0.998   6.822   2.545
  839SOL     OW 3415   2.114   1.800   2.079
  839SOL    HW1 3416   2.098   1.754   1.992
  839SOL    HW2 3417   2.045   1.870   2.093
  840SOL     OW 3418   1.559   0.954   5.704
  840SOL    HW1 3419   1.616   1.013   5.762
  840SOL    HW2 3420   1.548   0.998   5.614
  841SOL     OW 3421   0.021   3.401   0.591
  841SOL    HW1 3422   0.096   3.429   0.531
  841SOL    HW2 3423   6.962   3.392   0.538
  842SOL     OW 3424   4.091   4.749   4.284
  842SOL    HW1 3425   4.006   4.793   4.313
  842SOL    HW2 3426   4.121   4.788   4.197
  843SOL     OW 3427   6.915   3.479   1.551
  843SOL    HW1 3428   6.874   3.388   1.542
  843SOL    HW2 3429   6.924   3.520   1.460
  844SOL     OW 3430   5.912   4.608   6.205
  844SOL    HW1 3431   5.850   4.532   6.185
  844SOL    HW2 3432   5.917   4.669   6.125
  845SOL     OW 3433   1.904   4.973   5.337
  845SOL    HW1 3434   1.909   4.885   5.291
  845SOL    HW2 3435   1.808   5.002   5.344
  846SOL     OW 3436   4.332   2.080   0.322
  846SOL    HW1 3437   4.349   2.161   0.266
  846SOL    HW2 3438   4.326   1.999   0.263
  847SOL     OW 3439   4.922   4.523   1.835
  847SOL    HW1 3440   4.852   4.453   1.845
  847SOL    HW2 3441   5.002   4.498   1.889
  848SOL     OW 3442   5.547   0.108   5.528
  848SOL    HW1 3443   5.613   0.180   5.552
  848SOL    HW2 3444   5.480   0.145   5.464
  849SOL     OW 3445   0.803   6.043   4.044
  849SOL    HW1 3446   0.746   5.973   4.089
  849SOL    HW2 3447   0.766   6.134   4.065
  850SOL     OW 3448   2.694   0.736   3.427
  850SOL    HW1 3449   2.687   0.753   3.525
  850SOL    HW2 3450   2.646   0.651   3.404
  851SOL     OW 3451   6.782   1.107   5.740
  851SOL    HW1 3452   6.842   1.031   5.714
  851SOL    HW2 3453   6.687   1.076   5.738
  852SOL     OW 3454   2.991   5.078   5.284
  852SOL    HW1 3455   2.991   5.084   5.184
  852SOL    HW2 3456   2.953   4.989   5.312
  853SOL     OW 3457   0.850   4.393   0.404
  853SOL    HW1 3458   0.939   4.405   0.360
  853SOL    HW2 3459   0.812   4.304   0.378
  854SOL     OW 3460   5.972   5.245   0.846
  854SOL    HW1 3461   5.948   5.280   0.755
  854SOL    HW2 3462   6.003   5.321   0.904
  855SOL     OW 3463   4.898   0.265   0.476
  855SOL    HW1 3464   4.932   0.225   0.391
  855SOL    HW2 3465   4.825   0.331   0.454
  856SOL     OW 3466   1.601   0.723   5.063
  856SOL    HW1 3467   1.554   0.709   4.975
  856SOL    HW2 3468   1.689   0.766   5.047
  857SOL     OW 3469   5.733   4.413   1.823
  857SOL    HW1 3470   5.763   4.424   1.918
  857SOL    HW2 3471   5.813   4.413   1.763
  858SOL     OW 3472   3.394   4.037   1.879
  858SOL    HW1 3473   3.384   3.939   1.891
  858SOL    HW2 3474   3.452   4.075   1.952
  859SOL     OW 3475   0.362   4.661   0.894
  859SOL    HW1 3476   0.274   4.691   0.932
  859SOL    HW2 3477   0.435   4.719   0.929
  860SOL     OW 3478   1.744   4.422   5.666
  860SOL    HW1 3479   1.818   4.355   5.673
  860SOL    HW2 3480   1.774   4.509   5.706
  861SOL     OW 3481   4.178   4.498   6.405
  861SOL    HW1 3482   4.128   4.416   6.435
  861SOL    HW2 3483   4.240   4.528   6.477
  862SOL     OW 3484   4.578   4.386   3.666
  862SOL    HW1 3485   4.635   4.395   3.584
  862SOL    HW2 3486   4.595   4.297   3.709
  863SOL     OW 3487   6.037   2.717   1.696
  863SOL    HW1 3488   6.019   2.619   1.705
  863SOL    HW2 3489   6.088   2.749   1.776
  864SOL     OW 3490   0.362   5.835   2.269
  864SOL    HW1 3491   0.389   5.916   2.321
  864SOL    HW2 3492   0.442   5.777   2.253
  865SOL     OW 3493   1.752   1.267   4.109
  865SOL    HW1 3494   1.825   1.262   4.177
  865SOL    HW2 3495   1.781   1.222   4.025
  866SOL     OW 3496   4.326   1.057   1.387
  866SOL    HW1 3497   4.379   1.138   1.412
  866SOL    HW2 3498   4.236   1.060   1.430
  867SOL     OW 3499   2.656   2.124   6.180
  867SOL    HW1 3500   2.704   2.086   6.259
  867SOL    HW2 3501   2.594   2.197   6.211
  868SOL     OW 3502   5.149   2.457   3.847
  868SOL    HW1 3503   5.064   2.405   3.848
  868SOL    HW2 3504   5.132   2.551   3.877
  869SOL     OW 3505   6.849   3.991   0.590
  869SOL    HW1 3506   6.921   3.944   0.641
  869SOL    HW2 3507   6.890   4.057   0.526
  870SOL     OW 3508   6.229   1.547   0.444
  870SOL    HW1 3509   6.220   1.580   0.350
  870SOL    HW2 3510   6.320   1.508   0.457
  871SOL     OW 3511   0.159   4.891   0.151
  871SOL    HW1 3512   0.150   4.792   0.143
  871SOL    HW2 3513   0.171   4.931   0.061
  872SOL     OW 3514   6.920   1.931   1.560
  872SOL    HW1 3515   6.984   1.869   1.514
  872SOL    HW2 3516   6.967   1.980   1.632
  873SOL     OW 3517   3.965   6.807   4.247
  873SOL    HW1 3518   3.989   6.751   4.167
  873SOL    HW2 3519   3.980   6.754   4.330
  874SOL     OW 3520   0.982   3.951   6.542
  874SOL    HW1 3521   0.984   3.912   6.450
  874SOL    HW2 3522   0.898   3.923   6.588
  875SOL     OW 3523   6.338   6.116   6.130
  875SOL    HW1 3524   6.281   6.199   6.128
  875SOL    HW2 3525   6.297   6.049   6.192
  876SOL     OW 3526   2.840   2.174   1.281
  876SOL    HW1 3527   2.935   2.153   1.305
  876SOL    HW2 3528   2.825   2.273   1.290
  877SOL     OW 3529   5.868   5.866   6.049
  877SOL    HW1 3530   5.844   5.799   6.119
  877SOL    HW2 3531   5.793   5.873   5.983
  878SOL     OW 3532   4.110   3.567   1.034
  878SOL    HW1 3533   4.164   3.589   1.115
  878SOL    HW2 3534   4.021   3.531   1.063
  879SOL     OW 3535   5.150   3.410   3.560
  879SOL    HW1 3536   5.068   3.400   3.504
  879SOL    HW2 3537   5.213   3.335   3.542
  880SOL     OW 3538   4.012   6.497   1.578
  880SOL    HW1 3539   4.056   6.408   1.594
  880SOL    HW2 3540   4.074   6.556   1.526
  881SOL     OW 3541   5.086   5.255   3.166
  881SOL    HW1 3542   5.046   5.189   3.230
  881SOL    HW2 3543   5.013   5.303   3.118
  882SOL     OW 3544   0.800   2.011   5.235
  882SOL    HW1 3545   0.717   2.045   5.280
  882SOL    HW2 3546   0.875   2.009   5.301
  883SOL     OW 3547   2.972   4.964   0.398
  883SOL    HW1 3548   2.909   4.959   0.321
  883SOL    HW2 3549   2.934   5.025   0.468
  884SOL     OW 3550   3.779   4.871   1.302
  884SOL    HW1 3551   3.807   4.785   1.258
  884SOL    HW2 3552   3.836   4.945   1.266
  885SOL     OW 3553   4.395   6.447   6.068
  885SOL    HW1 3554   4.402   6.354   6.031
  885SOL    HW2 3555   4.485   6.477   6.098
  886SOL     OW 3556   4.294   2.299   6.566
  886SOL    HW1 3557   4.202   2.334   6.580
  886SOL    HW2 3558   4.335   2.342   6.486
  887SOL     OW 3559   6.142   6.567   4.440
  887SOL    HW1 3560   6.067   6.551   4.376
  887SOL    HW2 3561   6.202   6.487   4.441
  888SOL     OW 3562   6.263   1.132   3.348
  888SOL    HW1 3563   6.301   1.190   3.276
  888SOL    HW2 3564   6.200   1.065   3.308
  889SOL     OW 3565   0.695   0.743   4.733
  889SOL    HW1 3566   0.653   0.652   4.727
  889SOL    HW2 3567   0.675   0.794   4.649
  890SOL     OW 3568   2.169   3.163   0.859
  890SOL    HW1 3569   2.162   3.262   0.851
  890SOL    HW2 3570   2.259   3.138   0.895
  891SOL     OW 3571   5.982   3.068   5.724
  891SOL    HW1 3572   6.034   2.989   5.691
  891SOL    HW2 3573   6.046   3.138   5.758
  892SOL     OW 3574   1.646   4.660   1.869
  892SOL    HW1 3575   1.619   4.565   1.855
  892SOL    HW2 3576   1.745   4.667   1.867
  893SOL     OW 3577   1.890   6.601   2.342
  893SOL    HW1 3578   1.897   6.668   2.416
  893SOL    HW2 3579   1.824   6.634   2.274
  894SOL     OW 3580   1.152   4.956   4.536
  894SOL    HW1 3581   1.133   4.992   4.444
  894SOL    HW2 3582   1.093   5.001   4.602
  895SOL     OW 3583   2.633   1.267   4.225
  895SOL    HW1 3584   2.617   1.353   4.272
  895SOL    HW2 3585   2.621   1.191   4.289
  896SOL     OW 3586   4.715   0.057   3.512
  896SOL    HW1 3587   4.784   0.088   3.578
  896SOL    HW2 3588   4.624   0.065   3.553
  897SOL     OW 3589   6.127   1.256   6.228
  897SOL    HW1 3590   6.103   1.167   6.267
  897SOL    HW2 3591   6.152   1.244   6.132
  898SOL     OW 3592   4.903   6.137   3.465
  898SOL    HW1 3593   4.991   6.128   3.419
  898SOL    HW2 3594   4.918   6.158   3.562
  899SOL     OW 3595   1.197   5.336   0.123
  899SOL    HW1 3596   1.183   5.408   0.191
  899SOL    HW2 3597   1.292   5.339   0.091
  900SOL     OW 3598   0.453   5.747   3.382
  900SOL    HW1 3599   0.404   5.761   3.469
  900SOL    HW2 3600   0.388   5.719   3.312
  901SOL     OW 3601   6.214   1.907   3.332
  901SOL    HW1 3602   6.196   1.952   3.245
  901SOL    HW2 3603   6.311   1.919   3.356
  902SOL     OW 3604   1.404   5.950   0.027
  902SOL    HW1 3605   1.351   5.989   6.976
  902SOL    HW2 3606   1.421   5.853   0.010
  903SOL     OW 3607   1.139   4.828   6.525
  903SOL    HW1 3608   1.192   4.786   6.599
  903SOL    HW2 3609   1.117   4.922   6.550
  904SOL     OW 3610   1.689   2.013   4.013
  904SOL    HW1 3611   1.675   2.030   4.111
  904SOL    HW2 3612   1.775   2.053   3.984
  905SOL     OW 3613   5.789   3.456   3.287
  905SOL    HW1 3614   5.809   3.407   3.203
  905SOL    HW2 3615   5.873   3.494   3.325
  906SOL     OW 3616   6.727   3.108   5.490
  906SOL    HW1 3617   6.714   3.060   5.576
  906SOL    HW2 3618   6.674   3.193   5.489
  907SOL     OW 3619   7.006   3.831   2.467
  907SOL    HW1 3620   0.044   3.861   2.539
  907SOL    HW2 3621   6.927   3.892   2.465
  908SOL     OW 3622   2.777   1.403   3.533
  908SOL    HW1 3623   2.808   1.384   3.626
  908SOL    HW2 3624   2.705   1.338   3.509
  909SOL     OW 3625   3.421   6.680   2.659
  909SOL    HW1 3626   3.437   6.773   2.693
  909SOL    HW2 3627   3.324   6.668   2.641
  910SOL     OW 3628   1.154   0.910   2.036
  910SOL    HW1 3629   1.187   0.897   1.943
  910SOL    HW2 3630   1.230   0.903   2.100
  911SOL     OW 3631   0.939   2.697   0.900
  911SOL    HW1 3632   0.899   2.789   0.911
  911SOL    HW2 3633   1.029   2.695   0.943
  912SOL     OW 3634   2.078   0.721   0.455
  912SOL    HW1 3635   2.129   0.704   0.540
  912SOL    HW2 3636   2.055   0.818   0.450
  913SOL     OW 3637   1.974   1.013   1.945
  913SOL    HW1 3638   2.057   1.010   1.889
  913SOL    HW2 3639   1.999   1.027   2.041
  914SOL     OW 3640   3.246   4.935   2.351
  914SOL    HW1 3641   3.286   4.944   2.260
  914SOL    HW2 3642   3.152   4.970   2.350
  915SOL     OW 3643   2.956   2.335   0.798
  915SOL    HW1 3644   2.973   2.336   0.700
  915SOL    HW2 3645   2.948   2.429   0.832
  916SOL     OW 3646   0.348   3.473   2.251
  916SOL    HW1 3647   0.340   3.530   2.333
  916SOL    HW2 3648   0.437   3.429   2.249
  917SOL     OW 3649   3.984   0.713   5.980
  917SOL    HW1 3650   4.081   0.738   5.981
  917SOL    HW2 3651   3.937   0.762   6.054
  918SOL     OW 3652   0.065   2.278   4.885
  918SOL    HW1 3653   0.000   2.227   4.941
  918SOL    HW2 3654   0.048   2.260   4.789
  919SOL     OW 3655   0.384   0.510   1.052
  919SOL    HW1 3656   0.410   0.513   1.148
  919SOL    HW2 3657   0.420   0.591   1.005
  920SOL     OW 3658   1.243   1.845   1.979
  920SOL    HW1 3659   1.241   1.833   1.879
  920SOL    HW2 3660   1.295   1.927   2.002
  921SOL     OW 3661   4.112   4.543   0.301
  921SOL    HW1 3662   4.056   4.503   0.374
  921SOL    HW2 3663   4.082   4.508   0.213
  922SOL     OW 3664   2.275   5.813   6.715
  922SOL    HW1 3665   2.319   5.902   6.712
  922SOL    HW2 3666   2.302   5.760   6.635
  923SOL     OW 3667   3.711   1.033   0.064
  923SOL    HW1 3668   3.782   1.103   0.072
  923SOL    HW2 3669   3.638   1.052   0.130
  924SOL     OW 3670   5.676   4.977   1.877
  924SOL    HW1 3671   5.758   4.924   1.897
  924SOL    HW2 3672   5.595   4.927   1.908
  925SOL     OW 3673   5.710   2.646   1.795
  925SOL    HW1 3674   5.769   2.577   1.835
  925SOL    HW2 3675   5.630   2.603   1.753
  926SOL     OW 3676   3.627   6.022   1.654
  926SOL    HW1 3677   3.639   5.929   1.619
  926SOL    HW2 3678   3.703   6.079   1.625
  927SOL     OW 3679   5.048   5.492   5.440
  927SOL    HW1 3680   5.050   5.580   5.487
  927SOL    HW2 3681   5.016   5.505   5.346
  928SOL     OW 3682   6.976   1.539   1.295
  928SOL    HW1 3683   6.967   1.639   1.299
  928SOL    HW2 3684   0.047   1.514   1.301
  929SOL     OW 3685   0.217   2.805   1.882
  929SOL    HW1 3686   0.151   2.730   1.890
  929SOL    HW2 3687   0.199   2.873   1.953
  930SOL     OW 3688   6.358   5.211   2.778
  930SOL    HW1 3689   6.448   5.178   2.806
  930SOL    HW2 3690   6.334   5.171   2.689
  931SOL     OW 3691   0.648   2.838   1.495
  931SOL    HW1 3692   0.747   2.837   1.512
  931SOL    HW2 3693   0.606   2.760   1.541
  932SOL     OW 3694   4.188   6.403   1.178
  932SOL    HW1 3695   4.093   6.371   1.175
  932SOL    HW2 3696   4.212   6.427   1.272
  933SOL     OW 3697   0.885   6.471   3.504
  933SOL    HW1 3698   0.958   6.430   3.449
  933SOL    HW2 3699   0.908   6.464   3.601
  934SOL     OW 3700   4.247   1.631   5.309
  934SOL    HW1 3701   4.264   1.635   5.210
  934SOL    HW2 3702   4.149   1.615   5.325
  935SOL     OW 3703   1.284   3.670   4.039
  935SOL    HW1 3704   1.265   3.704   3.947
  935SOL    HW2 3705   1.239   3.582   4.053
  936SOL     OW 3706   0.910   0.829   1.893
  936SOL    HW1 3707   0.959   0.849   1.978
  936SOL    HW2 3708   0.858   0.910   1.865
  937SOL     OW 3709   4.812   2.386   3.346
  937SOL    HW1 3710   4.844   2.439   3.425
  937SOL    HW2 3711   4.840   2.291   3.356
  938SOL     OW 3712   0.691   0.867   6.639
  938SOL    HW1 3713   0.763   0.909   6.585
  938SOL    HW2 3714   0.703   0.767   6.638
  939SOL     OW 3715   6.491   0.585   4.734
  939SOL    HW1 3716   6.591   0.588   4.739
  939SOL    HW2 3717   6.455   0.544   4.818
  940SOL     OW 3718   6.056   0.036   3.156
  940SOL    HW1 3719   6.128   0.090   3.113
  940SOL    HW2 3720   6.070   0.035   3.255
  941SOL     OW 3721   5.508   3.032   4.958
  941SOL    HW1 3722   5.513   2.934   4.940
  941SOL    HW2 3723   5.480   3.080   4.875
  942SOL     OW 3724   4.755   6.401   5.496
  942SOL    HW1 3725   4.817   6.467   5.539
  942SOL    HW2 3726   4.779   6.392   5.399
  943SOL     OW 3727   5.135   2.295   0.524
  943SOL    HW1 3728   5.204   2.222   0.531
  943SOL    HW2 3729   5.113   2.329   0.615
  944SOL     OW 3730   5.068   4.888   4.543
  944SOL    HW1 3731   5.089   4.920   4.635
  944SOL    HW2 3732   4.973   4.857   4.539
  945SOL     OW 3733   5.686   3.050   6.668
  945SOL    HW1 3734   5.745   3.042   6.588
  945SOL    HW2 3735   5.647   3.142   6.671
  946SOL     OW 3736   6.519   2.647   5.996
  946SOL    HW1 3737   6.612   2.641   6.033
  946SOL    HW2 3738   6.464   2.706   6.055
  947SOL     OW 3739   0.872   2.530   6.428
  947SOL    HW1 3740   0.965   2.566   6.432
  947SOL    HW2 3741   0.812   2.587   6.483
  948SOL     OW 3742   3.548   2.050   0.670
  948SOL    HW1 3743   3.626   1.989   0.687
  948SOL    HW2 3744   3.539   2.114   0.746
  949SOL     OW 3745   5.721   5.506   5.719
  949SOL    HW1 3746   5.768   5.471   5.800
  949SOL    HW2 3747   5.760   5.594   5.693
  950SOL     OW 3748   3.742   5.315   1.180
  950SOL    HW1 3749   3.685   5.309   1.262
  950SOL    HW2 3750   3.784   5.225   1.162
  951SOL     OW 3751   0.821   2.725   3.546
  951SOL    HW1 3752   0.770   2.728   3.460
  951SOL    HW2 3753   0.763   2.761   3.620
  952SOL     OW 3754   4.958   1.356   1.075
  952SOL    HW1 3755   5.002   1.274   1.038
  952SOL    HW2 3756   4.889   1.389   1.010
  953SOL     OW 3757   3.947   6.346   5.666
  953SOL    HW1 3758   4.008   6.380   5.738
  953SOL    HW2 3759   3.952   6.406   5.586
  954SOL     OW 3760   6.331   6.603   1.143
  954SOL    HW1 3761   6.250   6.544   1.142
  954SOL    HW2 3762   6.346   6.638   1.235
  955SOL     OW 3763   1.732   6.355   3.484
  955SOL    HW1 3764   1.792   6.360   3.564
  955SOL    HW2 3765   1.687   6.265   3.482
  956SOL     OW 3766   1.715   2.814   0.848
  956SOL    HW1 3767   1.737   2.869   0.929
  956SOL    HW2 3768   1.728   2.869   0.766
  957SOL     OW 3769   1.805   5.820   4.864
  957SOL    HW1 3770   1.901   5.806   4.838
  957SOL    HW2 3771   1.745   5.783   4.793
  958SOL     OW 3772   4.484   2.684   6.454
  958SOL    HW1 3773   4.391   2.698   6.422
  958SOL    HW2 3774   4.549   2.718   6.387
  959SOL     OW 3775   1.698   4.278   0.510
  959SOL    HW1 3776   1.777   4.289   0.571
  959SOL    HW2 3777   1.704   4.345   0.436
  960SOL     OW 3778   1.581   3.990   5.803
  960SOL    HW1 3779   1.676   4.022   5.808
  960SOL    HW2 3780   1.581   3.894   5.773
  961SOL     OW 3781   3.303   6.617   6.863
  961SOL    HW1 3782   3.280   6.534   6.811
  961SOL    HW2 3783   3.250   6.619   6.947
  962SOL     OW 3784   0.987   7.022   3.515
  962SOL    HW1 3785   1.017   7.009   3.421
  962SOL    HW2 3786   1.064   7.010   3.577
  963SOL     OW 3787   5.639   0.161   2.438
  963SOL    HW1 3788   5.722   0.109   2.420
  963SOL    HW2 3789   5.618   0.160   2.535
  964SOL     OW 3790   6.193   4.582   1.638
  964SOL    HW1 3791   6.194   4.676   1.603
  964SOL    HW2 3792   6.117   4.532   1.598
  965SOL     OW 3793   2.127   1.698   0.660
  965SOL    HW1 3794   2.216   1.653   0.654
  965SOL    HW2 3795   2.067   1.664   0.588
  966SOL     OW 3796   6.008   2.699   2.080
  966SOL    HW1 3797   5.941   2.641   2.033
  966SOL    HW2 3798   5.964   2.746   2.156
  967SOL     OW 3799   0.794   5.528   2.923
  967SOL    HW1 3800   0.736   5.575   2.990
  967SOL    HW2 3801   0.883   5.509   2.963
  968SOL     OW 3802   0.363   4.249   0.462
  968SOL    HW1 3803   0.344   4.285   0.370
  968SOL    HW2 3804   0.429   4.310   0.507
  969SOL     OW 3805   3.280   6.714   6.567
  969SOL    HW1 3806   3.270   6.813   6.576
  969SOL    HW2 3807   3.294   6.674   6.658
  970SOL     OW 3808   5.586   3.723   6.265
  970SOL    HW1 3809   5.618   3.779   6.341
  970SOL    HW2 3810   5.623   3.630   6.275
  971SOL     OW 3811   0.320   2.479   0.042
  971SOL    HW1 3812   0.250   2.418   0.080
  971SOL    HW2 3813   0.282   2.571   0.034
  972SOL     OW 3814   4.559   6.798   6.460
  972SOL    HW1 3815   4.481   6.825   6.517
  972SOL    HW2 3816   4.582   6.873   6.398
  973SOL     OW 3817   6.682   3.062   6.014
  973SOL    HW1 3818   6.635   3.150   6.021
  973SOL    HW2 3819   6.661   3.007   6.095
  974SOL     OW 3820   2.453   0.376   4.263
  974SOL    HW1 3821   2.357   0.349   4.266
  974SOL    HW2 3822   2.495   0.363   4.353
  975SOL     OW 3823   2.990   6.879   4.493
  975SOL    HW1 3824   3.089   6.885   4.494
  975SOL    HW2 3825   2.962   6.783   4.496
  976SOL     OW 3826   0.270   4.850   3.786
  976SOL    HW1 3827   0.311   4.815   3.702
  976SOL    HW2 3828   0.339   4.859   3.857
  977SOL     OW 3829   1.072   2.095   1.818
  977SOL    HW1 3830   1.158   2.056   1.785
  977SOL    HW2 3831   1.002   2.023   1.819
  978SOL     OW 3832   5.973   3.006   3.592
  978SOL    HW1 3833   6.012   3.081   3.645
  978SOL    HW2 3834   5.911   3.043   3.523
  979SOL     OW 3835   6.309   1.320   2.741
  979SOL    HW1 3836   6.318   1.315   2.641
  979SOL    HW2 3837   6.309   1.228   2.779
  980SOL     OW 3838   6.365   6.412   5.340
  980SOL    HW1 3839   6.275   6.396   5.379
  980SOL    HW2 3840   6.427   6.448   5.410
  981SOL     OW 3841   6.126   3.306   0.119
  981SOL    HW1 3842   6.102   3.215   0.084
  981SOL    HW2 3843   6.166   3.297   0.210
  982SOL     OW 3844   1.709   4.488   0.275
  982SOL    HW1 3845   1.691   4.476   0.177
  982SOL    HW2 3846   1.784   4.553   0.287
  983SOL     OW 3847   5.427   1.623   3.122
  983SOL    HW1 3848   5.523   1.650   3.126
  983SOL    HW2 3849   5.404   1.569   3.203
  984SOL     OW 3850   5.172   3.132   5.478
  984SOL    HW1 3851   5.115   3.055   5.449
  984SOL    HW2 3852   5.119   3.191   5.539
  985SOL     OW 3853   2.049   4.502   0.309
  985SOL    HW1 3854   2.143   4.532   0.296
  985SOL    HW2 3855   1.996   4.575   0.353
  986SOL     OW 3856   5.080   3.893   4.963
  986SOL    HW1 3857   5.022   3.828   4.913
  986SOL    HW2 3858   5.026   3.938   5.034
  987SOL     OW 3859   3.011   0.968   3.040
  987SOL    HW1 3860   2.948   1.034   3.081
  987SOL    HW2 3861   2.989   0.876   3.073
  988SOL     OW 3862   4.079   3.059   1.238
  988SOL    HW1 3863   4.042   3.016   1.155
  988SOL    HW2 3864   4.005   3.105   1.287
  989SOL     OW 3865   0.617   1.406   4.552
  989SOL    HW1 3866   0.685   1.441   4.616
  989SOL    HW2 3867   0.660   1.388   4.464
  990SOL     OW 3868   4.482   6.055   2.472
  990SOL    HW1 3869   4.469   6.012   2.562
  990SOL    HW2 3870   4.429   6.140   2.469
  991SOL     OW 3871   5.805   1.587   5.936
  991SOL    HW1 3872   5.879   1.638   5.892
  991SOL    HW2 3873   5.796   1.616   6.031
  992SOL     OW 3874   0.175   2.586   0.765
  992SOL    HW1 3875   0.142   2.493   0.751
  992SOL    HW2 3876   0.275   2.589   0.755
  993SOL     OW 3877   4.386   6.983   4.105
  993SOL    HW1 3878   4.290   6.976   4.133
  993SOL    HW2 3879   4.445   6.963   4.184
  994SOL     OW 3880   2.932   3.274   3.954
  994SOL    HW1 3881   2.924   3.234   4.045
  994SOL    HW2 3882   2.986   3.359   3.959
  995SOL     OW 3883   1.447   1.891   5.282
  995SOL    HW1 3884   1.424   1.923   5.374
  995SOL    HW2 3885   1.369   1.842   5.243
  996SOL     OW 3886   1.381   3.403   6.760
  996SOL    HW1 3887   1.465   3.400   6.815
  996SOL    HW2 3888   1.366   3.313   6.717
  997SOL     OW 3889   6.972   1.190   0.197
  997SOL    HW1 3890   6.924   1.235   0.272
  997SOL    HW2 3891   6.906   1.144   0.137
  998SOL     OW 3892   4.839   0.367   3.143
  998SOL    HW1 3893   4.926   0.324   3.117
  998SOL    HW2 3894   4.830   0.455   3.097
  999SOL     OW 3895   6.787   5.133   0.090
  999SOL    HW1 3896   6.763   5.133   0.187
  999SOL    HW2 3897   6.704   5.142   0.035
 1000SOL     OW 3898   3.891   1.835   4.866
 1000SOL    HW1 3899   3.918   1.818   4.960
 1000SOL    HW2 3900   3.931   1.922   4.835
 1001SOL     OW 3901   4.827   0.978   4.657
 1001SOL    HW1 3902   4.831   1.078   4.654
 1001SOL    HW2 3903   4.895   0.944   4.722
 1002SOL     OW 3904   0.211   1.105   0.148
 1002SOL    HW1 3905   0.127   1.158   0.162
 1002SOL    HW2 3906   0.207   1.022   0.204
 1003SOL     OW 3907   4.188   5.151   2.641
 1003SOL    HW1 3908   4.230   5.214   2.575
 1003SOL    HW2 3909   4.099   5.121   2.606
 1004SOL     OW 3910   6.096   5.848   0.072
 1004SOL    HW1 3911   6.033   5.802   0.134
 1004SOL    HW2 3912   6.135   5.928   0.118
 1005SOL     OW 3913   5.839   6.225   3.211
 1005SOL    HW1 3914   5.834   6.241   3.112
 1005SOL    HW2 3915   5.923   6.177   3.233
 1006SOL     OW 3916   1.512   5.522   0.225
 1006SOL    HW1 3917   1.495   5.442   0.167
 1006SOL    HW2 3918   1.434   5.536   0.286
 1007SOL     OW 3919   6.206   1.713   2.696
 1007SOL    HW1 3920   6.174   1.806   2.678
 1007SOL    HW2 3921   6.214   1.663   2.609
 1008SOL     OW 3922   3.514   1.812   5.419
 1008SOL    HW1 3923   3.436   1.776   5.469
 1008SOL    HW2 3924   3.482   1.861   5.337
 1009SOL     OW 3925   3.175   6.467   5.527
 1009SOL    HW1 3926   3.096   6.408   5.517
 1009SOL    HW2 3927   3.256   6.412   5.549
 1010SOL     OW 3928   5.295   6.645   5.709
 1010SOL    HW1 3929   5.234   6.577   5.749
 1010SOL    HW2 3930   5.389   6.625   5.735
 1011SOL     OW 3931   2.918   5.226   4.492
 1011SOL    HW1 3932   2.916   5.313   4.442
 1011SOL    HW2 3933   2.825   5.192   4.503
 1012SOL     OW 3934   3.525   6.415   1.399
 1012SOL    HW1 3935   3.597   6.440   1.464
 1012SOL    HW2 3936   3.503   6.494   1.342
 1013SOL     OW 3937   0.727   0.125   0.054
 1013SOL    HW1 3938   0.659   0.058   0.086
 1013SOL    HW2 3939   0.725   0.128   6.979
 1014SOL     OW 3940   5.805   6.896   6.516
 1014SOL    HW1 3941   5.825   6.943   6.430
 1014SOL    HW2 3942   5.728   6.834   6.504
 1015SOL     OW 3943   2.638   0.778   4.943
 1015SOL    HW1 3944   2.622   0.827   5.029
 1015SOL    HW2 3945   2.550   0.755   4.901
 1016SOL     OW 3946   4.232   3.254   1.084
 1016SOL    HW1 3947   4.228   3.193   1.005
 1016SOL    HW2 3948   4.164   3.227   1.151
 1017SOL     OW 3949   4.618   6.816   6.071
 1017SOL    HW1 3950   4.639   6.728   6.027
 1017SOL    HW2 3951   4.542   6.860   6.023
 1018SOL     OW 3952   1.210   1.697   1.703
 1018SOL    HW1 3953   1.238   1.611   1.745
 1018SOL    HW2 3954   1.279   1.725   1.636
 1019SOL     OW 3955   5.173   1.388   0.779
 1019SOL    HW1 3956   5.229   1.359   0.856
 1019SOL    HW2 3957   5.178   1.488   0.770
 1020SOL     OW 3958   3.900   1.913   1.622
 1020SOL    HW1 3959   3.958   1.899   1.702
 1020SOL    HW2 3960   3.836   1.988   1.640
 1021SOL     OW 3961   6.636   1.724   1.159
 1021SOL    HW1 3962   6.585   1.665   1.221
 1021SOL    HW2 3963   6.573   1.773   1.099
 1022SOL     OW 3964   3.397   3.235   0.451
 1022SOL    HW1 3965   3.444   3.175   0.386
 1022SOL    HW2 3966   3.449   3.238   0.536
 1023SOL     OW 3967   6.519   0.779   4.401
 1023SOL    HW1 3968   6.579   0.838   4.455
 1023SOL    HW2 3969   6.573   0.730   4.332
 1024SOL     OW 3970   6.579   2.471   3.306
 1024SOL    HW1 3971   6.556   2.562   3.339
 1024SOL    HW2 3972   6.677   2.466   3.286
 1025SOL     OW 3973   2.289   4.632   1.708
 1025SOL    HW1 3974   2.233   4.594   1.782
 1025SOL    HW2 3975   2.384   4.639   1.739
 1026SOL     OW 3976   0.691   2.739   6.540
 1026SOL    HW1 3977   0.606   2.791   6.526
 1026SOL    HW2 3978   0.723   2.754   6.634
 1027SOL     OW 3979   1.881   4.810   0.938
 1027SOL    HW1 3980   1.918   4.777   1.025
 1027SOL    HW2 3981   1.950   4.800   0.866
 1028SOL     OW 3982   0.319   5.468   0.001
 1028SOL    HW1 3983   0.409   5.511   7.021
 1028SOL    HW2 3984   0.329   5.375   0.038
 1029SOL     OW 3985   4.117   0.549   4.514
 1029SOL    HW1 3986   4.196   0.572   4.571
 1029SOL    HW2 3987   4.053   0.627   4.513
 1030SOL     OW 3988   4.483   5.043   4.871
 1030SOL    HW1 3989   4.438   4.971   4.924
 1030SOL    HW2 3990   4.416   5.088   4.812
 1031SOL     OW 3991   2.443   6.285   1.148
 1031SOL    HW1 3992   2.518   6.267   1.085
 1031SOL    HW2 3993   2.470   6.256   1.240
 1032SOL     OW 3994   1.134   1.945   5.538
 1032SOL    HW1 3995   1.097   1.998   5.461
 1032SOL    HW2 3996   1.229   1.971   5.554
 1033SOL     OW 3997   2.972   0.147   1.832
 1033SOL    HW1 3998   2.911   0.223   1.855
 1033SOL    HW2 3999   3.063   0.183   1.811
 1034SOL     OW 4000   0.078   5.680   2.450
 1034SOL    HW1 4001   0.090   5.718   2.359
 1034SOL    HW2 4002   0.002   5.726   2.496
 1035SOL     OW 4003   3.345   2.007   3.214
 1035SOL    HW1 4004   3.283   2.049   3.281
 1035SOL    HW2 4005   3.354   2.068   3.135
 1036SOL     OW 4006   4.987   0.035   6.553
 1036SOL    HW1 4007   4.891   0.060   6.544
 1036SOL    HW2 4008   5.033   0.047   6.465
 1037SOL     OW 4009   4.177   1.190   6.054
 1037SOL    HW1 4010   4.271   1.161   6.070
 1037SOL    HW2 4011   4.130   1.203   6.142
 1038SOL     OW 4012   2.926   1.918   5.232
 1038SOL    HW1 4013   2.993   1.989   5.210
 1038SOL    HW2 4014   2.937   1.889   5.327
 1039SOL     OW 4015   5.259   1.769   2.619
 1039SOL    HW1 4016   5.212   1.773   2.707
 1039SOL    HW2 4017   5.223   1.840   2.559
 1040SOL     OW 4018   6.044   4.704   4.561
 1040SOL    HW1 4019   6.143   4.711   4.572
 1040SOL    HW2 4020   6.006   4.643   4.632
 1041SOL     OW 4021   1.837   6.722   4.718
 1041SOL    HW1 4022   1.821   6.802   4.660
 1041SOL    HW2 4023   1.844   6.751   4.813
 1042SOL     OW 4024   4.576   4.134   0.827
 1042SOL    HW1 4025   4.574   4.233   0.817
 1042SOL    HW2 4026   4.585   4.091   0.737
 1043SOL     OW 4027   4.000   0.378   6.357
 1043SOL    HW1 4028   4.051   0.458   6.323
 1043SOL    HW2 4029   3.921   0.409   6.410
 1044SOL     OW 4030   3.288   4.141   3.830
 1044SOL    HW1 4031   3.267   4.176   3.921
 1044SOL    HW2 4032   3.331   4.051   3.837
 1045SOL     OW 4033   2.082   1.160   2.267
 1045SOL    HW1 4034   2.087   1.063   2.294
 1045SOL    HW2 4035   2.084   1.217   2.349
 1046SOL     OW 4036   2.924   0.944   2.069
 1046SOL    HW1 4037   2.824   0.937   2.069
 1046SOL    HW2 4038   2.955   0.974   1.979
 1047SOL     OW 4039   0.209   6.608   1.996
 1047SOL    HW1 4040   0.210   6.567   2.087
 1047SOL    HW2 4041   0.261   6.551   1.933
 1048SOL     OW 4042   6.587   3.841   4.869
 1048SOL    HW1 4043   6.596   3.894   4.953
 1048SOL    HW2 4044   6.634   3.888   4.794
 1049SOL     OW 4045   0.352   3.493   5.337
 1049SOL    HW1 4046   0.263   3.515   5.299
 1049SOL    HW2 4047   0.344   3.414   5.397
 1050SOL     OW 4048   3.067   0.643   1.456
 1050SOL    HW1 4049   3.061   0.667   1.359
 1050SOL    HW2 4050   3.038   0.721   1.512
 1051SOL     OW 4051   4.790   4.281   1.940
 1051SOL    HW1 4052   4.696   4.305   1.965
 1051SOL    HW2 4053   4.794   4.184   1.918
 1052SOL     OW 4054   2.788   0.217   3.918
 1052SOL    HW1 4055   2.756   0.296   3.970
 1052SOL    HW2 4056   2.736   0.136   3.945
 1053SOL     OW 4057   3.794   5.177   3.315
 1053SOL    HW1 4058   3.704   5.216   3.334
 1053SOL    HW2 4059   3.844   5.239   3.255
 1054SOL     OW 4060   3.938   6.105   5.310
 1054SOL    HW1 4061   3.876   6.026   5.303
 1054SOL    HW2 4062   3.955   6.142   5.219
 1055SOL     OW 4063   4.076   4.951   4.490
 1055SOL    HW1 4064   4.049   4.981   4.582
 1055SOL    HW2 4065   4.143   4.877   4.498
 1056SOL     OW 4066   3.051   5.389   0.372
 1056SOL    HW1 4067   3.047   5.482   0.409
 1056SOL    HW2 4068   2.980   5.378   0.303
 1057SOL     OW 4069   3.497   3.932   1.411
 1057SOL    HW1 4070   3.433   4.006   1.427
 1057SOL    HW2 4071   3.575   3.940   1.473
 1058SOL     OW 4072   2.845   0.485   2.268
 1058SOL    HW1 4073   2.885   0.521   2.183
 1058SOL    HW2 4074   2.845   0.385   2.264
 1059SOL     OW 4075   4.302   0.005   0.849
 1059SOL    HW1 4076   4.235   6.976   0.900
 1059SOL    HW2 4077   4.357   6.969   0.792
 1060SOL     OW 4078   3.764   1.765   3.997
 1060SOL    HW1 4079   3.728   1.730   3.910
 1060SOL    HW2 4080   3.698   1.748   4.070
 1061SOL     OW 4081   2.262   5.516   1.258
 1061SOL    HW1 4082   2.281   5.460   1.339
 1061SOL    HW2 4083   2.270   5.613   1.282
 1062SOL     OW 4084   5.317   3.903   4.797
 1062SOL    HW1 4085   5.273   3.940   4.715
 1062SOL    HW2 4086   5.252   3.905   4.873
 1063SOL     OW 4087   3.936   2.453   5.907
 1063SOL    HW1 4088   3.917   2.541   5.950
 1063SOL    HW2 4089   3.899   2.379   5.964
 1064SOL     OW 4090   0.437   3.370   2.984
 1064SOL    HW1 4091   0.384   3.452   3.006
 1064SOL    HW2 4092   0.478   3.380   2.893
 1065SOL     OW 4093   4.176   5.425   6.783
 1065SOL    HW1 4094   4.115   5.348   6.769
 1065SOL    HW2 4095   4.209   5.459   6.695
 1066SOL     OW 4096   5.368   0.246   3.491
 1066SOL    HW1 4097   5.437   0.222   3.422
 1066SOL    HW2 4098   5.413   0.265   3.578
 1067SOL     OW 4099   3.334   3.944   0.533
 1067SOL    HW1 4100   3.275   3.884   0.477
 1067SOL    HW2 4101   3.341   4.033   0.488
 1068SOL     OW 4102   1.160   5.386   2.089
 1068SOL    HW1 4103   1.176   5.481   2.115
 1068SOL    HW2 4104   1.210   5.366   2.005
 1069SOL     OW 4105   3.728   3.266   2.852
 1069SOL    HW1 4106   3.753   3.169   2.848
 1069SOL    HW2 4107   3.660   3.285   2.781
 1070SOL     OW 4108   1.836   6.561   0.381
 1070SOL    HW1 4109   1.850   6.599   0.290
 1070SOL    HW2 4110   1.868   6.466   0.383
 1071SOL     OW 4111   5.008   5.795   3.619
 1071SOL    HW1 4112   5.039   5.865   3.554
 1071SOL    HW2 4113   5.027   5.825   3.712
 1072SOL     OW 4114   4.158   5.546   3.703
 1072SOL    HW1 4115   4.063   5.549   3.734
 1072SOL    HW2 4116   4.174   5.621   3.638
 1073SOL     OW 4117   3.023   5.849   3.256
 1073SOL    HW1 4118   3.027   5.948   3.240
 1073SOL    HW2 4119   2.936   5.813   3.222
 1074SOL     OW 4120   2.252   4.800   3.799
 1074SOL    HW1 4121   2.304   4.852   3.731
 1074SOL    HW2 4122   2.256   4.847   3.887
 1075SOL     OW 4123   0.764   4.593   2.599
 1075SOL    HW1 4124   0.716   4.670   2.556
 1075SOL    HW2 4125   0.744   4.592   2.697
 1076SOL     OW 4126   5.836   3.742   3.204
 1076SOL    HW1 4127   5.801   3.719   3.114
 1076SOL    HW2 4128   5.773   3.709   3.274
 1077SOL     OW 4129   4.124   0.762   1.968
 1077SOL    HW1 4130   4.089   0.757   2.062
 1077SOL    HW2 4131   4.218   0.796   1.969
 1078SOL     OW 4132   6.575   2.707   1.944
 1078SOL    HW1 4133   6.513   2.671   1.874
 1078SOL    HW2 4134   6.598   2.635   2.009
 1079SOL     OW 4135   2.030   4.563   3.326
 1079SOL    HW1 4136   2.085   4.591   3.404
 1079SOL    HW2 4137   1.966   4.491   3.354
 1080SOL     OW 4138   2.243   5.298   3.985
 1080SOL    HW1 4139   2.203   5.317   3.895
 1080SOL    HW2 4140   2.331   5.346   3.993
 1081SOL     OW 4141   1.451   0.296   0.698
 1081SOL    HW1 4142   1.512   0.330   0.627
 1081SOL    HW2 4143   1.477   0.334   0.787
 1082SOL     OW 4144   2.014   0.330   1.149
 1082SOL    HW1 4145   1.953   0.396   1.107
 1082SOL    HW2 4146   2.029   0.253   1.086
 1083SOL     OW 4147   3.710   3.080   1.792
 1083SOL    HW1 4148   3.737   3.143   1.865
 1083SOL    HW2 4149   3.792   3.047   1.745
 1084SOL     OW 4150   6.048   3.998   1.388
 1084SOL    HW1 4151   6.096   3.979   1.302
 1084SOL    HW2 4152   5.957   4.033   1.368
 1085SOL     OW 4153   1.537   5.649   4.324
 1085SOL    HW1 4154   1.449   5.621   4.286
 1085SOL    HW2 4155   1.571   5.579   4.387
 1086SOL     OW 4156   2.898   5.585   2.595
 1086SOL    HW1 4157   2.931   5.632   2.677
 1086SOL    HW2 4158   2.798   5.579   2.598
 1087SOL     OW 4159   3.985   3.183   4.915
 1087SOL    HW1 4160   3.988   3.091   4.955
 1087SOL    HW2 4161   3.897   3.197   4.870
 1088SOL     OW 4162   0.089   4.794   2.444
 1088SOL    HW1 4163   0.116   4.888   2.462
 1088SOL    HW2 4164   7.014   4.789   2.434
 1089SOL     OW 4165   6.908   0.549   3.312
 1089SOL    HW1 4166   6.835   0.482   3.328
 1089SOL    HW2 4167   6.927   0.554   3.214
 1090SOL     OW 4168   2.608   2.403   6.650
 1090SOL    HW1 4169   2.601   2.413   6.749
 1090SOL    HW2 4170   2.610   2.306   6.627
 1091SOL     OW 4171   1.482   2.328   5.985
 1091SOL    HW1 4172   1.403   2.271   5.959
 1091SOL    HW2 4173   1.455   2.390   6.059
 1092SOL     OW 4174   3.113   4.672   1.406
 1092SOL    HW1 4175   3.045   4.742   1.430
 1092SOL    HW2 4176   3.086   4.585   1.447
 1093SOL     OW 4177   0.373   2.211   1.603
 1093SOL    HW1 4178   0.319   2.211   1.687
 1093SOL    HW2 4179   0.447   2.144   1.612
 1094SOL     OW 4180   0.880   6.208   2.496
 1094SOL    HW1 4181   0.839   6.157   2.571
 1094SOL    HW2 4182   0.890   6.149   2.416
 1095SOL     OW 4183   1.590   2.834   6.018
 1095SOL    HW1 4184   1.538   2.919   6.022
 1095SOL    HW2 4185   1.528   2.757   6.005
 1096SOL     OW 4186   3.845   2.972   2.567
 1096SOL    HW1 4187   3.868   2.930   2.479
 1096SOL    HW2 4188   3.748   2.995   2.569
 1097SOL     OW 4189   3.022   5.213   5.738
 1097SOL    HW1 4190   3.115   5.210   5.703
 1097SOL    HW2 4191   2.983   5.304   5.724
 1098SOL     OW 4192   2.742   0.875   2.891
 1098SOL    HW1 4193   2.752   0.959   2.945
 1098SOL    HW2 4194   2.827   0.857   2.841
 1099SOL     OW 4195   3.068   0.605   2.494
 1099SOL    HW1 4196   3.149   0.659   2.518
 1099SOL    HW2 4197   3.038   0.630   2.402
 1100SOL     OW 4198   6.562   0.894   0.388
 1100SOL    HW1 4199   6.546   0.805   0.347
 1100SOL    HW2 4200   6.474   0.938   0.410
 1101SOL     OW 4201   6.064   4.301   0.961
 1101SOL    HW1 4202   5.984   4.265   1.010
 1101SOL    HW2 4203   6.103   4.228   0.905
 1102SOL     OW 4204   6.881   4.149   4.168
 1102SOL    HW1 4205   6.895   4.202   4.252
 1102SOL    HW2 4206   6.783   4.134   4.154
 1103SOL     OW 4207   0.513   2.637   6.989
 1103SOL    HW1 4208   0.446   2.568   7.018
 1103SOL    HW2 4209   0.529   2.701   0.039
 1104SOL     OW 4210   2.755   5.473   5.718
 1104SOL    HW1 4211   2.833   5.533   5.732
 1104SOL    HW2 4212   2.681   5.499   5.780
 1105SOL     OW 4213   3.966   6.055   0.678
 1105SOL    HW1 4214   3.922   6.082   0.593
 1105SOL    HW2 4215   4.063   6.036   0.661
 1106SOL     OW 4216   0.780   1.585   6.852
 1106SOL    HW1 4217   0.763   1.680   6.825
 1106SOL    HW2 4218   0.753   1.525   6.777
 1107SOL     OW 4219   6.768   0.180   1.273
 1107SOL    HW1 4220   6.826   0.234   1.334
 1107SOL    HW2 4221   6.701   0.129   1.328
 1108SOL     OW 4222   1.249   1.168   0.476
 1108SOL    HW1 4223   1.210   1.185   0.386
 1108SOL    HW2 4224   1.221   1.078   0.509
 1109SOL     OW 4225   4.020   1.432   3.463
 1109SOL    HW1 4226   4.080   1.512   3.467
 1109SOL    HW2 4227   4.070   1.351   3.493
 1110SOL     OW 4228   3.744   3.385   3.180
 1110SOL    HW1 4229   3.679   3.452   3.215
 1110SOL    HW2 4230   3.696   3.314   3.129
 1111SOL     OW 4231   3.775   6.597   6.573
 1111SOL    HW1 4232   3.825   6.651   6.641
 1111SOL    HW2 4233   3.703   6.654   6.532
 1112SOL     OW 4234   0.695   1.298   2.538
 1112SOL    HW1 4235   0.626   1.258   2.478
 1112SOL    HW2 4236   0.670   1.283   2.634
 1113SOL     OW 4237   6.982   4.383   1.975
 1113SOL    HW1 4238   6.925   4.454   2.017
 1113SOL    HW2 4239   6.961   4.295   2.018
 1114SOL     OW 4240   6.089   1.169   5.987
 1114SOL    HW1 4241   6.047   1.081   5.964
 1114SOL    HW2 4242   6.127   1.211   5.904
 1115SOL     OW 4243   2.171   4.875   0.500
 1115SOL    HW1 4244   2.235   4.814   0.547
 1115SOL    HW2 4245   2.221   4.929   0.432
 1116SOL     OW 4246   3.227   6.391   6.423
 1116SOL    HW1 4247   3.313   6.440   6.436
 1116SOL    HW2 4248   3.192   6.406   6.331
 1117SOL     OW 4249   3.007   2.697   0.482
 1117SOL    HW1 4250   2.909   2.681   0.474
 1117SOL    HW2 4251   3.055   2.650   0.408
 1118SOL     OW 4252   1.488   2.385   1.067
 1118SOL    HW1 4253   1.430   2.303   1.062
 1118SOL    HW2 4254   1.569   2.372   1.011
 1119SOL     OW 4255   3.038   3.108   3.762
 1119SOL    HW1 4256   3.011   3.021   3.802
 1119SOL    HW2 4257   3.028   3.181   3.830
 1120SOL     OW 4258   3.417   1.036   3.588
 1120SOL    HW1 4259   3.362   1.088   3.654
 1120SOL    HW2 4260   3.359   0.971   3.540
 1121SOL     OW 4261   4.690   4.412   3.172
 1121SOL    HW1 4262   4.595   4.435   3.191
 1121SOL    HW2 4263   4.748   4.490   3.195
 1122SOL     OW 4264   4.549   5.015   6.636
 1122SOL    HW1 4265   4.530   4.920   6.662
 1122SOL    HW2 4266   4.606   5.057   6.706
 1123SOL     OW 4267   3.439   0.219   2.227
 1123SOL    HW1 4268   3.514   0.278   2.258
 1123SOL    HW2 4269   3.403   0.168   2.306
 1124SOL     OW 4270   2.400   4.843   3.550
 1124SOL    HW1 4271   2.351   4.900   3.485
 1124SOL    HW2 4272   2.436   4.762   3.504
 1125SOL     OW 4273   3.376   4.376   5.285
 1125SOL    HW1 4274   3.315   4.354   5.361
 1125SOL    HW2 4275   3.375   4.475   5.269
 1126SOL     OW 4276   6.435   0.334   1.865
 1126SOL    HW1 4277   6.490   0.417   1.862
 1126SOL    HW2 4278   6.401   0.320   1.957
 1127SOL     OW 4279   2.397   5.385   5.737
 1127SOL    HW1 4280   2.455   5.304   5.748
 1127SOL    HW2 4281   2.305   5.356   5.711
 1128SOL     OW 4282   2.342   2.188   5.085
 1128SOL    HW1 4283   2.368   2.245   5.163
 1128SOL    HW2 4284   2.273   2.122   5.114
 1129SOL     OW 4285   4.316   5.412   6.197
 1129SOL    HW1 4286   4.378   5.482   6.233
 1129SOL    HW2 4287   4.346   5.384   6.106
 1130SOL     OW 4288   1.277   5.126   5.341
 1130SOL    HW1 4289   1.297   5.133   5.243
 1130SOL    HW2 4290   1.221   5.044   5.358
 1131SOL     OW 4291   0.089   4.197   6.157
 1131SOL    HW1 4292   0.064   4.162   6.247
 1131SOL    HW2 4293   0.023   4.165   6.089
 1132SOL     OW 4294   5.342   6.770   5.221
 1132SOL    HW1 4295   5.316   6.866   5.233
 1132SOL    HW2 4296   5.386   6.758   5.132
 1133SOL     OW 4297   6.285   1.823   6.844
 1133SOL    HW1 4298   6.262   1.760   6.918
 1133SOL    HW2 4299   6.264   1.779   6.756
 1134SOL     OW 4300   0.133   3.201   5.195
 1134SOL    HW1 4301   0.136   3.297   5.168
 1134SOL    HW2 4302   0.179   3.191   5.283
 1135SOL     OW 4303   0.084   1.931   4.217
 1135SOL    HW1 4304   0.122   1.972   4.300
 1135SOL    HW2 4305   7.018   1.894   4.237
 1136SOL     OW 4306   3.722   5.488   3.973
 1136SOL    HW1 4307   3.700   5.392   3.954
 1136SOL    HW2 4308   3.638   5.538   3.992
 1137SOL     OW 4309   0.942   0.350   6.854
 1137SOL    HW1 4310   0.861   0.291   6.858
 1137SOL    HW2 4311   0.928   0.429   6.914
 1138SOL     OW 4312   0.976   2.517   5.863
 1138SOL    HW1 4313   1.055   2.551   5.813
 1138SOL    HW2 4314   0.919   2.462   5.802
 1139SOL     OW 4315   0.244   0.036   2.643
 1139SOL    HW1 4316   0.218   0.023   2.738
 1139SOL    HW2 4317   0.196   0.116   2.606
 1140SOL     OW 4318   4.277   2.194   3.216
 1140SOL    HW1 4319   4.215   2.214   3.292
 1140SOL    HW2 4320   4.264   2.100   3.187
 1141SOL     OW 4321   0.338   6.697   5.775
 1141SOL    HW1 4322   0.422   6.679   5.825
 1141SOL    HW2 4323   0.278   6.757   5.828
 1142SOL     OW 4324   6.060   6.996   5.368
 1142SOL    HW1 4325   6.023   6.987   5.276
 1142SOL    HW2 4326   6.160   6.995   5.365
 1143SOL     OW 4327   5.240   2.845   1.658
 1143SOL    HW1 4328   5.176   2.921   1.668
 1143SOL    HW2 4329   5.308   2.850   1.731
 1144SOL     OW 4330   1.185   6.441   4.530
 1144SOL    HW1 4331   1.155   6.406   4.618
 1144SOL    HW2 4332   1.125   6.516   4.501
 1145SOL     OW 4333   2.627   5.081   5.006
 1145SOL    HW1 4334   2.625   5.145   5.083
 1145SOL    HW2 4335   2.648   4.989   5.040
 1146SOL     OW 4336   5.970   2.087   2.104
 1146SOL    HW1 4337   5.965   1.993   2.069
 1146SOL    HW2 4338   5.951   2.151   2.030
 1147SOL     OW 4339   6.661   4.243   1.920
 1147SOL    HW1 4340   6.697   4.190   1.997
 1147SOL    HW2 4341   6.570   4.210   1.897
 1148SOL     OW 4342   6.183   6.925   6.374
 1148SOL    HW1 4343   6.238   6.963   6.449
 1148SOL    HW2 4344   6.150   6.834   6.399
 1149SOL     OW 4345   4.854   3.559   2.805
 1149SOL    HW1 4346   4.865   3.640   2.748
 1149SOL    HW2 4347   4.759   3.551   2.835
 1150SOL     OW 4348   2.239   6.164   5.482
 1150SOL    HW1 4349   2.185   6.229   5.429
 1150SOL    HW2 4350   2.212   6.071   5.457
 1151SOL     OW 4351   2.361   5.494   0.054
 1151SOL    HW1 4352   2.402   5.462   0.140
 1151SOL    HW2 4353   2.432   5.497   7.008
 1152SOL     OW 4354   6.417   0.875   3.439
 1152SOL    HW1 4355   6.361   0.810   3.491
 1152SOL    HW2 4356   6.367   0.961   3.428
 1153SOL     OW 4357   2.363   4.502   2.702
 1153SOL    HW1 4358   2.291   4.569   2.722
 1153SOL    HW2 4359   2.368   4.488   2.603
 1154SOL     OW 4360   1.618   4.215   2.189
 1154SOL    HW1 4361   1.702   4.224   2.242
 1154SOL    HW2 4362   1.548   4.275   2.228
 1155SOL     OW 4363   5.034   0.646   2.041
 1155SOL    HW1 4364   5.066   0.556   2.010
 1155SOL    HW2 4365   5.111   0.709   2.046
 1156SOL     OW 4366   2.548   0.756   4.544
 1156SOL    HW1 4367   2.634   0.707   4.554
 1156SOL    HW2 4368   2.524   0.762   4.447
 1157SOL     OW 4369   1.645   3.102   3.832
 1157SOL    HW1 4370   1.739   3.077   3.853
 1157SOL    HW2 4371   1.621   3.068   3.742
 1158SOL     OW 4372   4.736   5.369   5.687
 1158SOL    HW1 4373   4.664   5.384   5.619
 1158SOL    HW2 4374   4.708   5.297   5.750
 1159SOL     OW 4375   6.117   4.521   2.968
 1159SOL    HW1 4376   6.053   4.495   2.896
 1159SOL    HW2 4377   6.159   4.439   3.007
 1160SOL     OW 4378   2.727   2.377   1.500
 1160SOL    HW1 4379   2.709   2.367   1.598
 1160SOL    HW2 4380   2.711   2.289   1.454
 1161SOL     OW 4381   3.894   0.993   3.565
 1161SOL    HW1 4382   3.954   1.047   3.507
 1161SOL    HW2 4383   3.839   1.054   3.622
 1162SOL     OW 4384   3.495   5.381   1.679
 1162SOL    HW1 4385   3.594   5.396   1.686
 1162SOL    HW2 4386   3.448   5.470   1.681
 1163SOL     OW 4387   4.739   6.434   2.594
 1163SOL    HW1 4388   4.807   6.428   2.666
 1163SOL    HW2 4389   4.752   6.519   2.543
 1164SOL     OW 4390   6.602   4.371   4.470
 1164SOL    HW1 4391   6.638   4.461   4.447
 1164SOL    HW2 4392   6.524   4.350   4.412
 1165SOL     OW 4393   0.538   5.297   1.889
 1165SOL    HW1 4394   0.628   5.296   1.932
 1165SOL    HW2 4395   0.548   5.271   1.793
 1166SOL     OW 4396   3.828   0.557   6.197
 1166SOL    HW1 4397   3.835   0.462   6.164
 1166SOL    HW2 4398   3.888   0.615   6.142
 1167SOL     OW 4399   4.800   1.610   5.143
 1167SOL    HW1 4400   4.749   1.654   5.069
 1167SOL    HW2 4401   4.866   1.545   5.104
 1168SOL     OW 4402   5.760   1.141   3.923
 1168SOL    HW1 4403   5.730   1.052   3.891
 1168SOL    HW2 4404   5.730   1.212   3.859
 1169SOL     OW 4405   1.955   2.113   0.665
 1169SOL    HW1 4406   1.917   2.204   0.650
 1169SOL    HW2 4407   2.042   2.121   0.713
 1170SOL     OW 4408   2.182   1.011   1.778
 1170SOL    HW1 4409   2.235   0.928   1.791
 1170SOL    HW2 4410   2.243   1.089   1.767
 1171SOL     OW 4411   4.506   0.407   0.909
 1171SOL    HW1 4412   4.408   0.391   0.913
 1171SOL    HW2 4413   4.550   0.337   0.853
 1172SOL     OW 4414   3.507   3.341   5.757
 1172SOL    HW1 4415   3.494   3.411   5.686
 1172SOL    HW2 4416   3.576   3.372   5.822
 1173SOL     OW 4417   5.700   5.968   6.332
 1173SOL    HW1 4418   5.724   6.030   6.407
 1173SOL    HW2 4419   5.783   5.930   6.292
 1174SOL     OW 4420   3.780   6.113   6.795
 1174SOL    HW1 4421   3.765   6.062   6.710
 1174SOL    HW2 4422   3.791   6.210   6.774
 1175SOL     OW 4423   0.335   5.295   4.692
 1175SOL    HW1 4424   0.288   5.383   4.694
 1175SOL    HW2 4425   0.344   5.260   4.786
 1176SOL     OW 4426   6.319   3.734   1.904
 1176SOL    HW1 4427   6.240   3.703   1.850
 1176SOL    HW2 4428   6.403   3.716   1.854
 1177SOL     OW 4429   6.650   3.010   5.733
 1177SOL    HW1 4430   6.657   3.014   5.833
 1177SOL    HW2 4431   6.565   3.053   5.704
 1178SOL     OW 4432   4.391   5.264   2.444
 1178SOL    HW1 4433   4.376   5.363   2.442
 1178SOL    HW2 4434   4.487   5.246   2.465
 1179SOL     OW 4435   1.425   5.204   6.002
 1179SOL    HW1 4436   1.387   5.254   6.080
 1179SOL    HW2 4437   1.517   5.238   5.982
 1180SOL     OW 4438   2.171   1.072   4.165
 1180SOL    HW1 4439   2.204   1.165   4.148
 1180SOL    HW2 4440   2.167   1.021   4.079
 1181SOL     OW 4441   1.233   4.263   2.433
 1181SOL    HW1 4442   1.311   4.286   2.491
 1181SOL    HW2 4443   1.249   4.175   2.388
 1182SOL     OW 4444   0.126   3.832   4.266
 1182SOL    HW1 4445   0.183   3.796   4.340
 1182SOL    HW2 4446   0.157   3.924   4.243
 1183SOL     OW 4447   4.078   5.960   0.925
 1183SOL    HW1 4448   4.011   5.990   0.858
 1183SOL    HW2 4449   4.071   5.861   0.936
 1184SOL     OW 4450   3.666   2.891   6.683
 1184SOL    HW1 4451   3.623   2.891   6.593
 1184SOL    HW2 4452   3.665   2.984   6.720
 1185SOL     OW 4453   2.969   1.443   6.769
 1185SOL    HW1 4454   3.045   1.385   6.798
 1185SOL    HW2 4455   2.993   1.539   6.784
 1186SOL     OW 4456   3.972   0.508   4.830
 1186SOL    HW1 4457   3.895   0.473   4.882
 1186SOL    HW2 4458   4.051   0.447   4.842
 1187SOL     OW 4459   0.332   2.318   4.770
 1187SOL    HW1 4460   0.252   2.263   4.797
 1187SOL    HW2 4461   0.316   2.413   4.796
 1188SOL     OW 4462   1.851   1.150   5.584
 1188SOL    HW1 4463   1.765   1.158   5.635
 1188SOL    HW2 4464   1.910   1.082   5.630
 1189SOL     OW 4465   0.663   1.097   1.199
 1189SOL    HW1 4466   0.723   1.092   1.278
 1189SOL    HW2 4467   0.599   1.020   1.200
 1190SOL     OW 4468   3.692   6.294   2.219
 1190SOL    HW1 4469   3.631   6.226   2.259
 1190SOL    HW2 4470   3.679   6.296   2.120
 1191SOL     OW 4471   1.858   4.285   1.864
 1191SOL    HW1 4472   1.875   4.307   1.768
 1191SOL    HW2 4473   1.779   4.223   1.869
 1192SOL     OW 4474   3.509   5.515   2.719
 1192SOL    HW1 4475   3.458   5.513   2.805
 1192SOL    HW2 4476   3.508   5.608   2.681
 1193SOL     OW 4477   2.990   1.902   3.777
 1193SOL    HW1 4478   2.986   1.871   3.872
 1193SOL    HW2 4479   3.002   2.001   3.775
 1194SOL     OW 4480   6.514   2.002   2.935
 1194SOL    HW1 4481   6.574   1.963   2.865
 1194SOL    HW2 4482   6.472   2.086   2.899
 1195SOL     OW 4483   3.535   0.210   0.216
 1195SOL    HW1 4484   3.469   0.150   0.170
 1195SOL    HW2 4485   3.628   0.173   0.204
 1196SOL     OW 4486   1.549   5.590   3.325
 1196SOL    HW1 4487   1.604   5.529   3.269
 1196SOL    HW2 4488   1.476   5.631   3.270
 1197SOL     OW 4489   3.474   5.258   6.988
 1197SOL    HW1 4490   3.498   5.164   6.964
 1197SOL    HW2 4491   3.375   5.266   7.001
 1198SOL     OW 4492   3.258   1.125   3.195
 1198SOL    HW1 4493   3.244   1.177   3.111
 1198SOL    HW2 4494   3.345   1.076   3.190
 1199SOL     OW 4495   3.270   3.717   3.787
 1199SOL    HW1 4496   3.216   3.639   3.819
 1199SOL    HW2 4497   3.209   3.786   3.749
 1200SOL     OW 4498   5.039   4.091   1.545
 1200SOL    HW1 4499   5.027   4.133   1.455
 1200SOL    HW2 4500   4.950   4.059   1.579
 1201SOL     OW 4501   1.737   2.215   5.481
 1201SOL    HW1 4502   1.771   2.152   5.412
 1201SOL    HW2 4503   1.683   2.287   5.436
 1202SOL     OW 4504   5.941   6.500   4.260
 1202SOL    HW1 4505   5.846   6.485   4.233
 1202SOL    HW2 4506   5.965   6.596   4.243
 1203SOL     OW 4507   5.843   0.079   2.065
 1203SOL    HW1 4508   5.855   0.170   2.105
 1203SOL    HW2 4509   5.898   0.072   1.981
 1204SOL     OW 4510   2.618   6.786   0.120
 1204SOL    HW1 4511   2.708   6.742   0.132
 1204SOL    HW2 4512   2.552   6.742   0.180
 1205SOL     OW 4513   0.886   2.954   6.014
 1205SOL    HW1 4514   0.790   2.949   6.040
 1205SOL    HW2 4515   0.944   2.934   6.093
 1206SOL     OW 4516   6.429   1.422   5.447
 1206SOL    HW1 4517   6.513   1.433   5.396
 1206SOL    HW2 4518   6.448   1.429   5.545
 1207SOL     OW 4519   6.353   5.875   5.936
 1207SOL    HW1 4520   6.302   5.946   5.887
 1207SOL    HW2 4521   6.446   5.908   5.954
 1208SOL     OW 4522   3.615   3.645   2.856
 1208SOL    HW1 4523   3.648   3.681   2.943
 1208SOL    HW2 4524   3.689   3.596   2.810
 1209SOL     OW 4525   6.989   3.470   4.809
 1209SOL    HW1 4526   7.006   3.376   4.838
 1209SOL    HW2 4527   6.906   3.504   4.853
 1210SOL     OW 4528   2.487   0.010   3.510
 1210SOL    HW1 4529   2.478   0.108   3.489
 1210SOL    HW2 4530   2.526   7.025   3.601
 1211SOL     OW 4531   0.070   3.701   3.407
 1211SOL    HW1 4532   0.052   3.686   3.504
 1211SOL    HW2 4533   0.120   3.786   3.395
 1212SOL     OW 4534   1.134   4.566   3.104
 1212SOL    HW1 4535   1.190   4.647   3.089
 1212SOL    HW2 4536   1.056   4.590   3.162
 1213SOL     OW 4537   5.889   3.807   5.087
 1213SOL    HW1 4538   5.948   3.853   5.020
 1213SOL    HW2 4539   5.922   3.714   5.102
 1214SOL     OW 4540   0.504   1.916   1.152
 1214SOL    HW1 4541   0.516   1.887   1.057
 1214SOL    HW2 4542   0.549   2.004   1.167
 1215SOL     OW 4543   0.801   5.890   2.014
 1215SOL    HW1 4544   0.850   5.843   1.940
 1215SOL    HW2 4545   0.704   5.895   1.992
 1216SOL     OW 4546   2.247   6.724   1.413
 1216SOL    HW1 4547   2.198   6.673   1.483
 1216SOL    HW2 4548   2.295   6.660   1.353
 1217SOL     OW 4549   1.508   2.869   3.145
 1217SOL    HW1 4550   1.542   2.779   3.169
 1217SOL    HW2 4551   1.480   2.918   3.228
 1218SOL     OW 4552   0.170   4.130   3.248
 1218SOL    HW1 4553   0.171   4.223   3.283
 1218SOL    HW2 4554   0.263   4.092   3.250
 1219SOL     OW 4555   1.822   6.055   3.142
 1219SOL    HW1 4556   1.869   6.004   3.070
 1219SOL    HW2 4557   1.754   5.997   3.186
 1220SOL     OW 4558   6.720   4.852   2.846
 1220SOL    HW1 4559   6.639   4.866   2.788
 1220SOL    HW2 4560   6.705   4.772   2.904
 1221SOL     OW 4561   4.949   4.895   6.560
 1221SOL    HW1 4562   4.881   4.822   6.564
 1221SOL    HW2 4563   4.931   4.953   6.480
 1222SOL     OW 4564   6.621   4.952   1.127
 1222SOL    HW1 4565   6.556   4.890   1.170
 1222SOL    HW2 4566   6.683   4.900   1.068
 1223SOL     OW 4567   0.624   4.696   4.455
 1223SOL    HW1 4568   0.591   4.618   4.509
 1223SOL    HW2 4569   0.605   4.679   4.358
 1224SOL     OW 4570   4.022   4.594   1.469
 1224SOL    HW1 4571   4.051   4.505   1.503
 1224SOL    HW2 4572   3.994   4.652   1.546
 1225SOL     OW 4573   5.067   1.454   6.291
 1225SOL    HW1 4574   5.005   1.485   6.363
 1225SOL    HW2 4575   5.123   1.379   6.326
 1226SOL     OW 4576   5.941   5.636   0.621
 1226SOL    HW1 4577   5.933   5.538   0.603
 1226SOL    HW2 4578   6.014   5.675   0.565
 1227SOL     OW 4579   5.975   4.469   0.319
 1227SOL    HW1 4580   6.058   4.433   0.276
 1227SOL    HW2 4581   5.912   4.501   0.248
 1228SOL     OW 4582   3.873   3.981   4.885
 1228SOL    HW1 4583   3.946   3.933   4.835
 1228SOL    HW2 4584   3.790   3.983   4.830
 1229SOL     OW 4585   1.948   5.402   1.821
 1229SOL    HW1 4586   1.936   5.478   1.884
 1229SOL    HW2 4587   1.883   5.329   1.842
 1230SOL     OW 4588   5.041   5.073   6.998
 1230SOL    HW1 4589   5.038   5.090   0.072
 1230SOL    HW2 4590   5.101   5.141   6.955
 1231SOL     OW 4591   1.778   0.314   0.843
 1231SOL    HW1 4592   1.687   0.349   0.865
 1231SOL    HW2 4593   1.804   0.344   0.751
 1232SOL     OW 4594   2.490   1.591   5.761
 1232SOL    HW1 4595   2.491   1.501   5.803
 1232SOL    HW2 4596   2.487   1.661   5.833
 1233SOL     OW 4597   0.153   5.542   4.700
 1233SOL    HW1 4598   0.234   5.597   4.680
 1233SOL    HW2 4599   0.087   5.552   4.626
 1234SOL     OW 4600   0.098   4.326   5.176
 1234SOL    HW1 4601   0.092   4.340   5.275
 1234SOL    HW2 4602   0.034   4.254   5.149
 1235SOL     OW 4603   6.223   5.444   0.613
 1235SOL    HW1 4604   6.174   5.424   0.529
 1235SOL    HW2 4605   6.203   5.538   0.642
 1236SOL     OW 4606   0.425   0.603   2.678
 1236SOL    HW1 4607   0.373   0.614   2.762
 1236SOL    HW2 4608   0.495   0.533   2.691
 1237SOL     OW 4609   0.530   0.540   4.601
 1237SOL    HW1 4610   0.566   0.470   4.538
 1237SOL    HW2 4611   0.525   0.503   4.693
 1238SOL     OW 4612   0.474   1.036   4.266
 1238SOL    HW1 4613   0.453   1.134   4.271
 1238SOL    HW2 4614   0.550   1.021   4.202
 1239SOL     OW 4615   4.993   4.962   3.608
 1239SOL    HW1 4616   4.908   4.938   3.654
 1239SOL    HW2 4617   5.005   5.061   3.609
 1240SOL     OW 4618   0.869   4.458   1.559
 1240SOL    HW1 4619   0.877   4.515   1.478
 1240SOL    HW2 4620   0.802   4.386   1.542
 1241SOL     OW 4621   3.953   5.460   6.436
 1241SOL    HW1 4622   3.864   5.444   6.392
 1241SOL    HW2 4623   4.012   5.381   6.421
 1242SOL     OW 4624   2.100   5.538   1.026
 1242SOL    HW1 4625   2.142   5.571   0.941
 1242SOL    HW2 4626   2.167   5.541   1.100
 1243SOL     OW 4627   0.685   4.117   3.825
 1243SOL    HW1 4628   0.710   4.020   3.813
 1243SOL    HW2 4629   0.705   4.145   3.918
 1244SOL     OW 4630   6.849   6.888   4.730
 1244SOL    HW1 4631   6.758   6.921   4.706
 1244SOL    HW2 4632   6.904   6.963   4.765
 1245SOL     OW 4633   4.375   0.260   1.539
 1245SOL    HW1 4634   4.352   0.163   1.546
 1245SOL    HW2 4635   4.434   0.275   1.460
 1246SOL     OW 4636   4.882   2.573   2.448
 1246SOL    HW1 4637   4.915   2.503   2.511
 1246SOL    HW2 4638   4.835   2.529   2.371
 1247SOL     OW 4639   4.803   6.686   2.331
 1247SOL    HW1 4640   4.867   6.762   2.344
 1247SOL    HW2 4641   4.851   6.599   2.344
 1248SOL     OW 4642   6.884   0.573   5.016
 1248SOL    HW1 4643   6.964   0.539   4.967
 1248SOL    HW2 4644   6.882   0.673   5.012
 1249SOL     OW 4645   6.241   6.877   6.959
 1249SOL    HW1 4646   6.190   6.920   6.885
 1249SOL    HW2 4647   6.330   6.922   6.968
 1250SOL     OW 4648   0.352   4.235   5.234
 1250SOL    HW1 4649   0.267   4.264   5.189
 1250SOL    HW2 4650   0.428   4.292   5.201
 1251SOL     OW 4651   2.047   0.841   3.537
 1251SOL    HW1 4652   2.132   0.873   3.580
 1251SOL    HW2 4653   2.037   0.884   3.447
 1252SOL     OW 4654   2.423   4.923   6.496
 1252SOL    HW1 4655   2.472   4.957   6.576
 1252SOL    HW2 4656   2.358   4.992   6.464
 1253SOL     OW 4657   2.997   5.602   0.807
 1253SOL    HW1 4658   2.985   5.700   0.824
 1253SOL    HW2 4659   2.969   5.581   0.713
 1254SOL     OW 4660   6.640   1.067   3.641
 1254SOL    HW1 4661   6.600   1.140   3.585
 1254SOL    HW2 4662   6.692   1.005   3.583
 1255SOL     OW 4663   6.007   2.008   6.109
 1255SOL    HW1 4664   5.997   1.934   6.175
 1255SOL    HW2 4665   6.103   2.037   6.106
 1256SOL     OW 4666   0.006   6.065   6.389
 1256SOL    HW1 4667   0.102   6.069   6.360
 1256SOL    HW2 4668   7.019   6.120   6.472
 1257SOL     OW 4669   0.188   6.332   2.703
 1257SOL    HW1 4670   0.166   6.311   2.798
 1257SOL    HW2 4671   0.253   6.409   2.700
 1258SOL     OW 4672   5.348   5.777   6.201
 1258SOL    HW1 4673   5.423   5.789   6.265
 1258SOL    HW2 4674   5.319   5.681   6.201
 1259SOL     OW 4675   6.210   6.732   4.658
 1259SOL    HW1 4676   6.176   6.667   4.590
 1259SOL    HW2 4677   6.133   6.768   4.711
 1260SOL     OW 4678   3.294   1.127   0.637
 1260SOL    HW1 4679   3.337   1.144   0.726
 1260SOL    HW2 4680   3.220   1.060   0.649
 1261SOL     OW 4681   0.585   4.266   5.036
 1261SOL    HW1 4682   0.560   4.340   4.973
 1261SOL    HW2 4683   0.584   4.179   4.987
 1262SOL     OW 4684   4.032   6.817   1.280
 1262SOL    HW1 4685   3.959   6.753   1.302
 1262SOL    HW2 4686   4.086   6.836   1.362
 1263SOL     OW 4687   6.781   1.493   1.020
 1263SOL    HW1 4688   6.689   1.525   1.044
 1263SOL    HW2 4689   6.847   1.530   1.085
 1264SOL     OW 4690   5.806   2.794   4.918
 1264SOL    HW1 4691   5.802   2.752   4.828
 1264SOL    HW2 4692   5.799   2.724   4.989
 1265SOL     OW 4693   5.712   4.917   4.586
 1265SOL    HW1 4694   5.643   4.970   4.536
 1265SOL    HW2 4695   5.746   4.843   4.528
 1266SOL     OW 4696   2.562   0.602   3.931
 1266SOL    HW1 4697   2.622   0.539   3.881
 1266SOL    HW2 4698   2.468   0.593   3.896
 1267SOL     OW 4699   0.209   4.619   2.074
 1267SOL    HW1 4700   0.146   4.696   2.088
 1267SOL    HW2 4701   0.186   4.573   1.988
 1268SOL     OW 4702   6.437   4.640   0.005
 1268SOL    HW1 4703   6.486   4.686   0.078
 1268SOL    HW2 4704   6.402   4.552   0.037
 1269SOL     OW 4705   1.215   3.929   6.055
 1269SOL    HW1 4706   1.131   3.982   6.043
 1269SOL    HW2 4707   1.293   3.982   6.023
 1270SOL     OW 4708   1.759   2.521   3.787
 1270SOL    HW1 4709   1.803   2.577   3.856
 1270SOL    HW2 4710   1.791   2.426   3.795
 1271SOL     OW 4711   5.442   3.801   2.873
 1271SOL    HW1 4712   5.400   3.885   2.837
 1271SOL    HW2 4713   5.385   3.765   2.947
 1272SOL     OW 4714   5.750   6.714   0.322
 1272SOL    HW1 4715   5.714   6.771   0.248
 1272SOL    HW2 4716   5.832   6.667   0.291
 1273SOL     OW 4717   2.833   6.861   4.885
 1273SOL    HW1 4718   2.795   6.787   4.831
 1273SOL    HW2 4719   2.883   6.924   4.825
 1274SOL     OW 4720   5.126   2.606   2.310
 1274SOL    HW1 4721   5.035   2.605   2.351
 1274SOL    HW2 4722   5.123   2.658   2.224
 1275SOL     OW 4723   3.246   1.136   3.808
 1275SOL    HW1 4724   3.209   1.155   3.899
 1275SOL    HW2 4725   3.239   1.218   3.752
 1276SOL     OW 4726   5.321   6.963   3.141
 1276SOL    HW1 4727   5.266   6.892   3.096
 1276SOL    HW2 4728   5.261   0.000   3.191
 1277SOL     OW 4729   0.708   1.780   4.570
 1277SOL    HW1 4730   0.613   1.802   4.547
 1277SOL    HW2 4731   0.769   1.843   4.521
 1278SOL     OW 4732   3.027   1.603   4.826
 1278SOL    HW1 4733   3.005   1.624   4.731
 1278SOL    HW2 4734   3.124   1.624   4.843
 1279SOL     OW 4735   1.708   4.982   0.656
 1279SOL    HW1 4736   1.665   4.978   0.746
 1279SOL    HW2 4737   1.721   5.077   0.628
 1280SOL     OW 4738   1.304   6.150   3.383
 1280SOL    HW1 4739   1.359   6.216   3.332
 1280SOL    HW2 4740   1.358   6.113   3.459
 1281SOL     OW 4741   0.914   6.556   4.068
 1281SOL    HW1 4742   1.009   6.579   4.091
 1281SOL    HW2 4743   0.906   6.457   4.057
 1282SOL     OW 4744   1.753   6.648   2.600
 1282SOL    HW1 4745   1.675   6.660   2.539
 1282SOL    HW2 4746   1.750   6.556   2.640
 1283SOL     OW 4747   5.339   4.096   5.545
 1283SOL    HW1 4748   5.295   4.162   5.606
 1283SOL    HW2 4749   5.341   4.132   5.452
 1284SOL     OW 4750   2.743   1.951   3.099
 1284SOL    HW1 4751   2.803   1.904   3.164
 1284SOL    HW2 4752   2.656   1.974   3.144
 1285SOL     OW 4753   6.041   2.496   5.593
 1285SOL    HW1 4754   6.025   2.398   5.604
 1285SOL    HW2 4755   5.962   2.538   5.549
 1286SOL     OW 4756   5.358   5.709   0.869
 1286SOL    HW1 4757   5.408   5.795   0.877
 1286SOL    HW2 4758   5.265   5.722   0.904
 1287SOL     OW 4759   6.167   3.228   6.045
 1287SOL    HW1 4760   6.158   3.300   6.113
 1287SOL    HW2 4761   6.124   3.256   5.960
 1288SOL     OW 4762   0.197   3.440   3.615
 1288SOL    HW1 4763   0.116   3.459   3.559
 1288SOL    HW2 4764   0.214   3.518   3.676
 1289SOL     OW 4765   0.355   5.491   2.629
 1289SOL    HW1 4766   0.280   5.471   2.693
 1289SOL    HW2 4767   0.325   5.471   2.536
 1290SOL     OW 4768   6.406   6.813   1.953
 1290SOL    HW1 4769   6.382   6.740   1.888
 1290SOL    HW2 4770   6.323   6.862   1.981
 1291SOL     OW 4771   1.942   5.816   1.696
 1291SOL    HW1 4772   1.860   5.767   1.669
 1291SOL    HW2 4773   2.020   5.785   1.642
 1292SOL     OW 4774   1.733   6.587   0.779
 1292SOL    HW1 4775   1.738   6.651   0.856
 1292SOL    HW2 4776   1.781   6.626   0.700
 1293SOL     OW 4777   6.024   1.568   6.564
 1293SOL    HW1 4778   5.969   1.640   6.607
 1293SOL    HW2 4779   5.972   1.526   6.490
 1294SOL     OW 4780   0.473   1.571   3.867
 1294SOL    HW1 4781   0.429   1.660   3.875
 1294SOL    HW2 4782   0.539   1.559   3.942
 1295SOL     OW 4783   5.021   4.416   0.659
 1295SOL    HW1 4784   4.981   4.499   0.620
 1295SOL    HW2 4785   4.953   4.342   0.656
 1296SOL     OW 4786   3.507   1.507   0.554
 1296SOL    HW1 4787   3.475   1.589   0.601
 1296SOL    HW2 4788   3.584   1.530   0.495
 1297SOL     OW 4789   6.022   1.016   6.309
 1297SOL    HW1 4790   6.086   0.990   6.381
 1297SOL    HW2 4791   6.005   0.937   6.250
 1298SOL     OW 4792   6.181   2.895   3.246
 1298SOL    HW1 4793   6.255   2.865   3.186
 1298SOL    HW2 4794   6.167   2.827   3.318
 1299SOL     OW 4795   1.767   3.700   4.875
 1299SOL    HW1 4796   1.695   3.699   4.805
 1299SOL    HW2 4797   1.814   3.789   4.873
 1300SOL     OW 4798   3.825   2.920   3.305
 1300SOL    HW1 4799   3.890   2.982   3.350
 1300SOL    HW2 4800   3.782   2.862   3.375
 1301SOL     OW 4801   1.105   1.006   1.537
 1301SOL    HW1 4802   1.032   1.063   1.498
 1301SOL    HW2 4803   1.186   1.012   1.479
 1302SOL     OW 4804   2.719   5.945   5.606
 1302SOL    HW1 4805   2.661   6.015   5.647
 1302SOL    HW2 4806   2.815   5.974   5.611
 1303SOL     OW 4807   3.054   0.400   1.181
 1303SOL    HW1 4808   2.969   0.352   1.201
 1303SOL    HW2 4809   3.125   0.371   1.244
 1304SOL     OW 4810   3.526   0.779   5.915
 1304SOL    HW1 4811   3.559   0.688   5.889
 1304SOL    HW2 4812   3.548   0.796   6.011
 1305SOL     OW 4813   5.955   6.919   4.346
 1305SOL    HW1 4814   5.884   6.859   4.383
 1305SOL    HW2 4815   5.991   6.879   4.262
 1306SOL     OW 4816   1.652   5.337   3.849
 1306SOL    HW1 4817   1.620   5.413   3.906
 1306SOL    HW2 4818   1.573   5.279   3.825
 1307SOL     OW 4819   1.276   1.082   5.070
 1307SOL    HW1 4820   1.248   1.060   5.163
 1307SOL    HW2 4821   1.233   1.017   5.007
 1308SOL     OW 4822   4.600   6.332   2.981
 1308SOL    HW1 4823   4.587   6.247   3.033
 1308SOL    HW2 4824   4.591   6.410   3.042
 1309SOL     OW 4825   6.316   2.979   4.236
 1309SOL    HW1 4826   6.275   3.058   4.189
 1309SOL    HW2 4827   6.257   2.952   4.312
 1310SOL     OW 4828   5.721   3.620   5.765
 1310SOL    HW1 4829   5.708   3.719   5.760
 1310SOL    HW2 4830   5.639   3.578   5.803
 1311SOL     OW 4831   4.539   4.591   0.499
 1311SOL    HW1 4832   4.603   4.561   0.428
 1311SOL    HW2 4833   4.450   4.610   0.457
 1312SOL     OW 4834   6.722   0.933   1.934
 1312SOL    HW1 4835   6.634   0.909   1.893
 1312SOL    HW2 4836   6.734   0.881   2.019
 1313SOL     OW 4837   3.666   4.975   4.716
 1313SOL    HW1 4838   3.712   4.889   4.694
 1313SOL    HW2 4839   3.710   5.050   4.666
 1314SOL     OW 4840   0.378   0.929   6.113
 1314SOL    HW1 4841   0.287   0.892   6.095
 1314SOL    HW2 4842   0.371   1.027   6.131
 1315SOL     OW 4843   1.661   7.011   3.961
 1315SOL    HW1 4844   1.574   0.032   3.977
 1315SOL    HW2 4845   1.707   6.997   4.049
 1316SOL     OW 4846   3.205   6.090   3.846
 1316SOL    HW1 4847   3.160   6.177   3.828
 1316SOL    HW2 4848   3.171   6.021   3.783
 1317SOL     OW 4849   0.094   3.317   4.034
 1317SOL    HW1 4850   0.071   3.318   4.132
 1317SOL    HW2 4851   0.103   3.222   4.003
 1318SOL     OW 4852   0.858   6.637   1.883
 1318SOL    HW1 4853   0.923   6.598   1.948
 1318SOL    HW2 4854   0.813   6.564   1.833
 1319SOL     OW 4855   0.446   6.298   0.747
 1319SOL    HW1 4856   0.463   6.205   0.716
 1319SOL    HW2 4857   0.509   6.361   0.701
 1320SOL     OW 4858   5.260   5.349   5.329
 1320SOL    HW1 4859   5.178   5.369   5.383
 1320SOL    HW2 4860   5.341   5.378   5.380
 1321SOL     OW 4861   3.274   1.320   0.858
 1321SOL    HW1 4862   3.276   1.395   0.792
 1321SOL    HW2 4863   3.221   1.347   0.938
 1322SOL     OW 4864   4.974   1.015   6.422
 1322SOL    HW1 4865   4.928   1.036   6.508
 1322SOL    HW2 4866   4.905   1.002   6.350
 1323SOL     OW 4867   6.432   0.911   4.074
 1323SOL    HW1 4868   6.454   0.829   4.127
 1323SOL    HW2 4869   6.378   0.974   4.130
 1324SOL     OW 4870   1.113   2.571   0.322
 1324SOL    HW1 4871   1.089   2.550   0.228
 1324SOL    HW2 4872   1.144   2.487   0.368
 1325SOL     OW 4873   4.396   4.898   4.068
 1325SOL    HW1 4874   4.335   4.863   3.997
 1325SOL    HW2 4875   4.491   4.877   4.045
 1326SOL     OW 4876   5.588   4.093   4.323
 1326SOL    HW1 4877   5.676   4.067   4.362
 1326SOL    HW2 4878   5.574   4.044   4.237
 1327SOL     OW 4879   2.835   6.107   3.712
 1327SOL    HW1 4880   2.749   6.139   3.753
 1327SOL    HW2 4881   2.816   6.062   3.624
 1328SOL     OW 4882   2.816   1.633   1.402
 1328SOL    HW1 4883   2.779   1.611   1.312
 1328SOL    HW2 4884   2.847   1.728   1.404
 1329SOL     OW 4885   1.381   5.980   1.379
 1329SOL    HW1 4886   1.354   6.004   1.472
 1329SOL    HW2 4887   1.300   5.972   1.321
 1330SOL     OW 4888   5.472   6.674   1.585
 1330SOL    HW1 4889   5.425   6.714   1.506
 1330SOL    HW2 4890   5.483   6.744   1.655
 1331SOL     OW 4891   0.761   2.257   1.826
 1331SOL    HW1 4892   0.769   2.158   1.823
 1331SOL    HW2 4893   0.851   2.298   1.837
 1332SOL     OW 4894   4.877   1.951   0.728
 1332SOL    HW1 4895   4.940   2.005   0.672
 1332SOL    HW2 4896   4.786   1.991   0.726
 1333SOL     OW 4897   4.262   3.255   5.675
 1333SOL    HW1 4898   4.349   3.288   5.640
 1333SOL    HW2 4899   4.187   3.306   5.631
 1334SOL     OW 4900   1.699   3.277   4.473
 1334SOL    HW1 4901   1.763   3.347   4.442
 1334SOL    HW2 4902   1.606   3.313   4.474
 1335SOL     OW 4903   2.032   5.096   4.009
 1335SOL    HW1 4904   2.050   5.193   3.996
 1335SOL    HW2 4905   2.118   5.046   4.012
 1336SOL     OW 4906   0.401   6.481   5.077
 1336SOL    HW1 4907   0.376   6.400   5.025
 1336SOL    HW2 4908   0.327   6.549   5.071
 1337SOL     OW 4909   3.404   6.811   6.337
 1337SOL    HW1 4910   3.503   6.806   6.352
 1337SOL    HW2 4911   3.357   6.821   6.425
 1338SOL     OW 4912   4.117   4.892   0.644
 1338SOL    HW1 4913   4.183   4.858   0.712
 1338SOL    HW2 4914   4.047   4.822   0.629
 1339SOL     OW 4915   7.019   3.760   6.677
 1339SOL    HW1 4916   0.052   3.814   6.738
 1339SOL    HW2 4917   6.923   3.785   6.691
 1340SOL     OW 4918   3.065   1.851   6.054
 1340SOL    HW1 4919   3.059   1.793   5.973
 1340SOL    HW2 4920   3.068   1.947   6.026
 1341SOL     OW 4921   5.628   1.968   4.278
 1341SOL    HW1 4922   5.577   2.017   4.348
 1341SOL    HW2 4923   5.643   1.874   4.307
 1342SOL     OW 4924   0.360   6.928   0.808
 1342SOL    HW1 4925   0.295   6.853   0.805
 1342SOL    HW2 4926   0.414   6.923   0.891
 1343SOL     OW 4927   3.492   5.817   3.398
 1343SOL    HW1 4928   3.413   5.771   3.357
 1343SOL    HW2 4929   3.478   5.916   3.394
 1344SOL     OW 4930   4.889   1.744   2.301
 1344SOL    HW1 4931   4.979   1.744   2.258
 1344SOL    HW2 4932   4.819   1.724   2.233
 1345SOL     OW 4933   6.410   5.795   2.385
 1345SOL    HW1 4934   6.482   5.864   2.373
 1345SOL    HW2 4935   6.421   5.723   2.317
 1346SOL     OW 4936   6.817   1.872   3.058
 1346SOL    HW1 4937   6.741   1.811   3.037
 1346SOL    HW2 4938   6.817   1.950   2.995
 1347SOL     OW 4939   4.519   1.466   3.638
 1347SOL    HW1 4940   4.487   1.430   3.726
 1347SOL    HW2 4941   4.547   1.390   3.579
 1348SOL     OW 4942   5.045   6.069   4.795
 1348SOL    HW1 4943   5.141   6.083   4.770
 1348SOL    HW2 4944   5.038   5.993   4.860
 1349SOL     OW 4945   5.030   2.026   0.202
 1349SOL    HW1 4946   5.130   2.035   0.203
 1349SOL    HW2 4947   5.003   1.962   0.130
 1350SOL     OW 4948   3.190   1.188   4.402
 1350SOL    HW1 4949   3.152   1.272   4.441
 1350SOL    HW2 4950   3.208   1.202   4.304
 1351SOL     OW 4951   1.353   1.432   3.938
 1351SOL    HW1 4952   1.314   1.504   3.996
 1351SOL    HW2 4953   1.452   1.443   3.932
 1352SOL     OW 4954   1.272   6.067   4.572
 1352SOL    HW1 4955   1.234   6.056   4.664
 1352SOL    HW2 4956   1.372   6.069   4.576
 1353SOL     OW 4957   2.625   3.127   5.698
 1353SOL    HW1 4958   2.690   3.200   5.719
 1353SOL    HW2 4959   2.621   3.114   5.599
 1354SOL     OW 4960   0.056   6.660   6.671
 1354SOL    HW1 4961   0.070   6.583   6.733
 1354SOL    HW2 4962   7.015   6.724   6.712
 1355SOL     OW 4963   4.600   3.240   0.278
 1355SOL    HW1 4964   4.538   3.200   0.345
 1355SOL    HW2 4965   4.624   3.333   0.306
 1356SOL     OW 4966   3.574   2.910   2.249
 1356SOL    HW1 4967   3.479   2.885   2.270
 1356SOL    HW2 4968   3.594   2.884   2.154
 1357SOL     OW 4969   3.582   2.172   5.672
 1357SOL    HW1 4970   3.484   2.180   5.691
 1357SOL    HW2 4971   3.631   2.245   5.719
 1358SOL     OW 4972   1.947   3.221   5.532
 1358SOL    HW1 4973   1.911   3.314   5.529
 1358SOL    HW2 4974   2.001   3.204   5.450
 1359SOL     OW 4975   0.557   1.687   6.638
 1359SOL    HW1 4976   0.656   1.681   6.628
 1359SOL    HW2 4977   0.513   1.618   6.581
 1360SOL     OW 4978   3.411   3.231   4.421
 1360SOL    HW1 4979   3.326   3.280   4.400
 1360SOL    HW2 4980   3.461   3.281   4.491
 1361SOL     OW 4981   0.894   6.542   0.737
 1361SOL    HW1 4982   0.879   6.625   0.791
 1361SOL    HW2 4983   0.949   6.565   0.656
 1362SOL     OW 4984   3.759   1.105   6.665
 1362SOL    HW1 4985   3.738   1.173   6.595
 1362SOL    HW2 4986   3.719   1.135   6.752
 1363SOL     OW 4987   6.596   6.359   1.001
 1363SOL    HW1 4988   6.687   6.399   0.993
 1363SOL    HW2 4989   6.530   6.413   0.949
 1364SOL     OW 4990   1.211   3.089   0.967
 1364SOL    HW1 4991   1.123   3.132   0.949
 1364SOL    HW2 4992   1.252   3.128   1.050
 1365SOL     OW 4993   1.311   3.435   6.303
 1365SOL    HW1 4994   1.357   3.512   6.347
 1365SOL    HW2 4995   1.214   3.436   6.325
 1366SOL     OW 4996   3.819   0.770   1.472
 1366SOL    HW1 4997   3.736   0.725   1.437
 1366SOL    HW2 4998   3.858   0.714   1.544
 1367SOL     OW 4999   1.363   6.883   4.412
 1367SOL    HW1 5000   1.455   6.885   4.373
 1367SOL    HW2 5001   1.296   6.897   4.340
 1368SOL     OW 5002   1.558   6.314   4.767
 1368SOL    HW1 5003   1.641   6.368   4.784
 1368SOL    HW2 5004   1.495   6.326   4.844
 1369SOL     OW 5005   2.414   5.648   3.392
 1369SOL    HW1 5006   2.357   5.728   3.371
 1369SOL    HW2 5007   2.382   5.607   3.478
 1370SOL     OW 5008   0.183   2.894   2.833
 1370SOL    HW1 5009   0.239   2.842   2.768
 1370SOL    HW2 5010   0.209   2.870   2.926
 1371SOL     OW 5011   5.882   1.798   6.591
 1371SOL    HW1 5012   5.938   1.880   6.604
 1371SOL    HW2 5013   5.785   1.823   6.587
 1372SOL     OW 5014   5.080   2.762   2.096
 1372SOL    HW1 5015   5.110   2.855   2.116
 1372SOL    HW2 5016   4.981   2.759   2.087
 1373SOL     OW 5017   4.913   2.689   1.404
 1373SOL    HW1 5018   4.932   2.634   1.322
 1373SOL    HW2 5019   4.980   2.762   1.412
 1374SOL     OW 5020   3.944   3.946   2.985
 1374SOL    HW1 5021   3.972   3.939   3.081
 1374SOL    HW2 5022   4.011   3.900   2.927
 1375SOL     OW 5023   5.298   4.171   5.297
 1375SOL    HW1 5024   5.315   4.073   5.282
 1375SOL    HW2 5025   5.275   4.214   5.210
 1376SOL     OW 5026   3.169   4.500   5.968
 1376SOL    HW1 5027   3.098   4.452   6.020
 1376SOL    HW2 5028   3.144   4.596   5.959
 1377SOL     OW 5029   0.956   1.886   3.553
 1377SOL    HW1 5030   0.936   1.799   3.507
 1377SOL    HW2 5031   0.894   1.897   3.631
 1378SOL     OW 5032   4.566   2.423   3.997
 1378SOL    HW1 5033   4.653   2.379   4.019
 1378SOL    HW2 5034   4.579   2.487   3.921
 1379SOL     OW 5035   5.198   5.679   6.652
 1379SOL    HW1 5036   5.165   5.670   6.559
 1379SOL    HW2 5037   5.125   5.656   6.716
 1380SOL     OW 5038   6.982   6.213   4.050
 1380SOL    HW1 5039   0.024   6.154   4.096
 1380SOL    HW2 5040   0.004   6.268   3.981
 1381SOL     OW 5041   0.021   2.725   6.191
 1381SOL    HW1 5042   0.099   2.666   6.167
 1381SOL    HW2 5043   0.040   2.819   6.160
 1382SOL     OW 5044   4.232   2.168   5.934
 1382SOL    HW1 5045   4.159   2.114   5.975
 1382SOL    HW2 5046   4.320   2.125   5.952
 1383SOL     OW 5047   5.739   0.546   0.750
 1383SOL    HW1 5048   5.790   0.461   0.765
 1383SOL    HW2 5049   5.798   0.613   0.704
 1384SOL     OW 5050   5.693   2.271   2.628
 1384SOL    HW1 5051   5.705   2.225   2.716
 1384SOL    HW2 5052   5.758   2.234   2.562
 1385SOL     OW 5053   6.694   6.568   1.821
 1385SOL    HW1 5054   6.793   6.565   1.805
 1385SOL    HW2 5055   6.667   6.487   1.873
 1386SOL     OW 5056   2.031   0.390   4.052
 1386SOL    HW1 5057   1.945   0.363   4.096
 1386SOL    HW2 5058   2.036   0.348   3.961
 1387SOL     OW 5059   0.950   5.790   1.822
 1387SOL    HW1 5060   1.049   5.781   1.839
 1387SOL    HW2 5061   0.917   5.707   1.778
 1388SOL     OW 5062   6.424   1.016   1.816
 1388SOL    HW1 5063   6.487   1.010   1.739
 1388SOL    HW2 5064   6.364   0.935   1.816
 1389SOL     OW 5065   6.266   1.137   1.597
 1389SOL    HW1 5066   6.213   1.119   1.680
 1389SOL    HW2 5067   6.364   1.136   1.620
 1390SOL     OW 5068   1.134   1.503   4.394
 1390SOL    HW1 5069   1.072   1.437   4.436
 1390SOL    HW2 5070   1.216   1.513   4.450
 1391SOL     OW 5071   0.690   2.722   3.296
 1391SOL    HW1 5072   0.601   2.680   3.277
 1391SOL    HW2 5073   0.693   2.813   3.253
 1392SOL     OW 5074   5.459   4.950   4.305
 1392SOL    HW1 5075   5.433   4.875   4.366
 1392SOL    HW2 5076   5.526   4.916   4.238
 1393SOL     OW 5077   3.774   5.059   6.908
 1393SOL    HW1 5078   3.706   4.986   6.899
 1393SOL    HW2 5079   3.749   5.135   6.848
 1394SOL     OW 5080   1.117   6.515   0.005
 1394SOL    HW1 5081   1.203   6.515   6.979
 1394SOL    HW2 5082   1.082   6.609   0.010
 1395SOL     OW 5083   3.980   4.824   6.415
 1395SOL    HW1 5084   4.034   4.870   6.344
 1395SOL    HW2 5085   4.023   4.838   6.504
 1396SOL     OW 5086   5.162   5.906   3.417
 1396SOL    HW1 5087   5.132   5.883   3.325
 1396SOL    HW2 5088   5.229   5.980   3.413
 1397SOL     OW 5089   5.677   6.332   5.157
 1397SOL    HW1 5090   5.697   6.234   5.166
 1397SOL    HW2 5091   5.593   6.344   5.104
 1398SOL     OW 5092   1.673   0.343   5.155
 1398SOL    HW1 5093   1.602   0.413   5.164
 1398SOL    HW2 5094   1.739   0.371   5.085
 1399SOL     OW 5095   3.458   5.214   2.455
 1399SOL    HW1 5096   3.473   5.128   2.503
 1399SOL    HW2 5097   3.479   5.203   2.358
 1400SOL     OW 5098   1.165   7.020   3.297
 1400SOL    HW1 5099   1.252   0.006   3.345
 1400SOL    HW2 5100   1.181   6.976   3.208
 1401SOL     OW 5101   6.473   2.230   4.075
 1401SOL    HW1 5102   6.453   2.178   3.992
 1401SOL    HW2 5103   6.389   2.246   4.126
 1402SOL     OW 5104   5.469   2.461   0.040
 1402SOL    HW1 5105   5.431   2.470   0.132
 1402SOL    HW2 5106   5.433   2.379   7.021
 1403SOL     OW 5107   3.711   0.687   2.204
 1403SOL    HW1 5108   3.753   0.602   2.235
 1403SOL    HW2 5109   3.663   0.730   2.281
 1404SOL     OW 5110   4.556   1.405   0.185
 1404SOL    HW1 5111   4.545   1.312   0.220
 1404SOL    HW2 5112   4.653   1.422   0.166
 1405SOL     OW 5113   3.784   2.733   1.191
 1405SOL    HW1 5114   3.742   2.775   1.110
 1405SOL    HW2 5115   3.883   2.729   1.178
 1406SOL     OW 5116   0.792   3.599   2.383
 1406SOL    HW1 5117   0.737   3.665   2.435
 1406SOL    HW2 5118   0.847   3.545   2.446
 1407SOL     OW 5119   6.850   2.818   2.356
 1407SOL    HW1 5120   6.837   2.912   2.388
 1407SOL    HW2 5121   6.832   2.755   2.432
 1408SOL     OW 5122   6.327   5.660   6.273
 1408SOL    HW1 5123   6.265   5.723   6.227
 1408SOL    HW2 5124   6.408   5.709   6.304
 1409SOL     OW 5125   0.236   1.562   4.266
 1409SOL    HW1 5126   0.273   1.523   4.351
 1409SOL    HW2 5127   0.136   1.555   4.267
 1410SOL     OW 5128   6.521   1.657   6.910
 1410SOL    HW1 5129   6.589   1.728   6.892
 1410SOL    HW2 5130   6.478   1.630   6.824
 1411SOL     OW 5131   1.832   0.909   1.110
 1411SOL    HW1 5132   1.905   0.910   1.178
 1411SOL    HW2 5133   1.787   0.820   1.111
 1412SOL     OW 5134   1.457   2.618   0.236
 1412SOL    HW1 5135   1.481   2.566   0.318
 1412SOL    HW2 5136   1.429   2.555   0.163
 1413SOL     OW 5137   3.235   0.146   3.530
 1413SOL    HW1 5138   3.255   0.111   3.621
 1413SOL    HW2 5139   3.276   0.237   3.519
 1414SOL     OW 5140   1.419   1.182   2.515
 1414SOL    HW1 5141   1.327   1.182   2.475
 1414SOL    HW2 5142   1.461   1.271   2.504
 1415SOL     OW 5143   5.972   6.605   5.203
 1415SOL    HW1 5144   5.877   6.592   5.232
 1415SOL    HW2 5145   5.987   6.556   5.117
 1416SOL     OW 5146   4.837   5.631   3.494
 1416SOL    HW1 5147   4.902   5.684   3.549
 1416SOL    HW2 5148   4.760   5.603   3.551
 1417SOL     OW 5149   3.699   2.791   6.048
 1417SOL    HW1 5150   3.635   2.820   6.119
 1417SOL    HW2 5151   3.702   2.860   5.976
 1418SOL     OW 5152   3.116   3.992   3.364
 1418SOL    HW1 5153   3.057   3.931   3.311
 1418SOL    HW2 5154   3.164   4.054   3.303
 1419SOL     OW 5155   3.221   6.568   3.779
 1419SOL    HW1 5156   3.236   6.656   3.826
 1419SOL    HW2 5157   3.220   6.494   3.846
 1420SOL     OW 5158   0.654   6.383   2.895
 1420SOL    HW1 5159   0.646   6.432   2.808
 1420SOL    HW2 5160   0.702   6.440   2.962
 1421SOL     OW 5161   3.941   0.853   3.078
 1421SOL    HW1 5162   3.954   0.903   2.992
 1421SOL    HW2 5163   3.969   0.757   3.065
 1422SOL     OW 5164   2.515   6.209   0.705
 1422SOL    HW1 5165   2.518   6.145   0.628
 1422SOL    HW2 5166   2.421   6.218   0.738
 1423SOL     OW 5167   5.333   0.837   2.312
 1423SOL    HW1 5168   5.326   0.873   2.405
 1423SOL    HW2 5169   5.375   0.906   2.253
 1424SOL     OW 5170   6.683   5.448   2.362
 1424SOL    HW1 5171   6.640   5.473   2.449
 1424SOL    HW2 5172   6.642   5.500   2.288
 1425SOL     OW 5173   2.262   0.630   4.727
 1425SOL    HW1 5174   2.322   0.707   4.747
 1425SOL    HW2 5175   2.169   0.653   4.756
 1426SOL     OW 5176   1.637   1.376   5.865
 1426SOL    HW1 5177   1.555   1.401   5.814
 1426SOL    HW2 5178   1.696   1.457   5.875
 1427SOL     OW 5179   5.330   2.314   6.045
 1427SOL    HW1 5180   5.237   2.332   6.015
 1427SOL    HW2 5181   5.366   2.236   5.994
 1428SOL     OW 5182   5.410   0.869   0.455
 1428SOL    HW1 5183   5.345   0.801   0.486
 1428SOL    HW2 5184   5.502   0.844   0.484
 1429SOL     OW 5185   5.475   6.264   0.186
 1429SOL    HW1 5186   5.490   6.217   0.273
 1429SOL    HW2 5187   5.511   6.208   0.111
 1430SOL     OW 5188   3.038   5.033   2.689
 1430SOL    HW1 5189   3.055   4.983   2.774
 1430SOL    HW2 5190   3.125   5.050   2.642
 1431SOL     OW 5191   1.962   0.142   0.934
 1431SOL    HW1 5192   1.903   0.211   0.891
 1431SOL    HW2 5193   2.025   0.106   0.866
 1432SOL     OW 5194   3.220   0.230   1.743
 1432SOL    HW1 5195   3.288   0.160   1.719
 1432SOL    HW2 5196   3.256   0.287   1.816
 1433SOL     OW 5197   5.219   0.103   3.672
 1433SOL    HW1 5198   5.243   0.144   3.584
 1433SOL    HW2 5199   5.282   0.136   3.742
 1434SOL     OW 5200   1.072   0.978   5.624
 1434SOL    HW1 5201   1.107   1.070   5.610
 1434SOL    HW2 5202   1.002   0.958   5.556
 1435SOL     OW 5203   6.990   2.343   3.427
 1435SOL    HW1 5204   6.961   2.416   3.365
 1435SOL    HW2 5205   6.961   2.366   3.520
 1436SOL     OW 5206   5.027   3.610   1.102
 1436SOL    HW1 5207   4.958   3.598   1.032
 1436SOL    HW2 5208   5.107   3.655   1.063
 1437SOL     OW 5209   4.316   0.960   2.562
 1437SOL    HW1 5210   4.313   0.915   2.651
 1437SOL    HW2 5211   4.257   0.910   2.498
 1438SOL     OW 5212   2.455   0.289   2.306
 1438SOL    HW1 5213   2.418   0.337   2.385
 1438SOL    HW2 5214   2.387   0.224   2.271
 1439SOL     OW 5215   0.535   5.614   1.699
 1439SOL    HW1 5216   0.565   5.638   1.792
 1439SOL    HW2 5217   0.442   5.576   1.703
 1440SOL     OW 5218   2.367   2.607   1.461
 1440SOL    HW1 5219   2.383   2.689   1.405
 1440SOL    HW2 5220   2.376   2.526   1.404
 1441SOL     OW 5221   5.236   5.921   6.773
 1441SOL    HW1 5222   5.227   5.836   6.721
 1441SOL    HW2 5223   5.166   5.924   6.844
 1442SOL     OW 5224   5.027   5.596   1.228
 1442SOL    HW1 5225   4.938   5.553   1.246
 1442SOL    HW2 5226   5.052   5.653   1.306
 1443SOL     OW 5227   6.874   3.034   2.027
 1443SOL    HW1 5228   6.836   3.057   1.937
 1443SOL    HW2 5229   6.817   2.964   2.070
 1444SOL     OW 5230   0.500   6.119   5.766
 1444SOL    HW1 5231   0.528   6.213   5.787
 1444SOL    HW2 5232   0.448   6.082   5.844
 1445SOL     OW 5233   0.522   2.381   1.108
 1445SOL    HW1 5234   0.469   2.381   1.193
 1445SOL    HW2 5235   0.557   2.473   1.090
 1446SOL     OW 5236   6.593   5.477   1.320
 1446SOL    HW1 5237   6.667   5.464   1.254
 1446SOL    HW2 5238   6.627   5.526   1.400
 1447SOL     OW 5239   0.074   6.550   4.160
 1447SOL    HW1 5240   0.057   6.551   4.259
 1447SOL    HW2 5241   7.015   6.525   4.112
 1448SOL     OW 5242   1.279   1.236   5.833
 1448SOL    HW1 5243   1.367   1.259   5.791
 1448SOL    HW2 5244   1.274   1.137   5.847
 1449SOL     OW 5245   1.552   2.975   2.887
 1449SOL    HW1 5246   1.586   2.934   2.972
 1449SOL    HW2 5247   1.452   2.965   2.883
 1450SOL     OW 5248   3.405   1.752   3.065
 1450SOL    HW1 5249   3.456   1.686   3.120
 1450SOL    HW2 5250   3.372   1.826   3.124
 1451SOL     OW 5251   4.140   1.582   2.427
 1451SOL    HW1 5252   4.059   1.640   2.423
 1451SOL    HW2 5253   4.122   1.496   2.381
 1452SOL     OW 5254   4.307   2.610   5.947
 1452SOL    HW1 5255   4.263   2.531   5.905
 1452SOL    HW2 5256   4.353   2.664   5.876
 1453SOL     OW 5257   1.150   3.810   5.284
 1453SOL    HW1 5258   1.069   3.782   5.335
 1453SOL    HW2 5259   1.213   3.858   5.346
 1454SOL     OW 5260   3.070   2.210   2.736
 1454SOL    HW1 5261   3.095   2.114   2.745
 1454SOL    HW2 5262   3.146   2.267   2.769
 1455SOL     OW 5263   0.170   5.352   2.113
 1455SOL    HW1 5264   0.245   5.400   2.068
 1455SOL    HW2 5265   0.134   5.408   2.188
 1456SOL     OW 5266   6.766   5.471   4.180
 1456SOL    HW1 5267   6.831   5.544   4.158
 1456SOL    HW2 5268   6.673   5.508   4.177
 1457SOL     OW 5269   1.395   5.429   5.457
 1457SOL    HW1 5270   1.346   5.416   5.371
 1457SOL    HW2 5271   1.419   5.340   5.496
 1458SOL     OW 5272   6.561   5.168   4.916
 1458SOL    HW1 5273   6.493   5.209   4.855
 1458SOL    HW2 5274   6.592   5.081   4.878
 1459SOL     OW 5275   6.408   6.166   4.941
 1459SOL    HW1 5276   6.425   6.212   5.029
 1459SOL    HW2 5277   6.352   6.085   4.956
 1460SOL     OW 5278   1.725   5.830   5.118
 1460SOL    HW1 5279   1.688   5.922   5.109
 1460SOL    HW2 5280   1.764   5.801   5.030
 1461SOL     OW 5281   6.004   3.538   3.412
 1461SOL    HW1 5282   6.095   3.537   3.372
 1461SOL    HW2 5283   6.001   3.474   3.489
 1462SOL     OW 5284   0.398   1.555   2.199
 1462SOL    HW1 5285   0.313   1.602   2.224
 1462SOL    HW2 5286   0.414   1.480   2.262
 1463SOL     OW 5287   1.459   4.939   6.871
 1463SOL    HW1 5288   1.493   4.952   6.964
 1463SOL    HW2 5289   1.422   5.025   6.837
 1464SOL     OW 5290   1.300   4.678   5.178
 1464SOL    HW1 5291   1.297   4.582   5.208
 1464SOL    HW2 5292   1.372   4.725   5.229
 1465SOL     OW 5293   1.343   2.610   5.987
 1465SOL    HW1 5294   1.291   2.599   5.902
 1465SOL    HW2 5295   1.303   2.684   6.042
 1466SOL     OW 5296   5.875   0.748   2.762
 1466SOL    HW1 5297   5.802   0.816   2.762
 1466SOL    HW2 5298   5.837   0.659   2.786
 1467SOL     OW 5299   0.267   6.867   3.701
 1467SOL    HW1 5300   0.361   6.876   3.733
 1467SOL    HW2 5301   0.206   6.920   3.760
 1468SOL     OW 5302   3.379   6.508   3.521
 1468SOL    HW1 5303   3.339   6.523   3.611
 1468SOL    HW2 5304   3.362   6.588   3.463
 1469SOL     OW 5305   5.761   4.293   3.411
 1469SOL    HW1 5306   5.717   4.354   3.477
 1469SOL    HW2 5307   5.704   4.212   3.396
 1470SOL     OW 5308   6.601   2.137   2.331
 1470SOL    HW1 5309   6.547   2.169   2.409
 1470SOL    HW2 5310   6.586   2.038   2.320
 1471SOL     OW 5311   5.104   0.141   6.774
 1471SOL    HW1 5312   5.040   0.184   6.837
 1471SOL    HW2 5313   5.055   0.108   6.693
 1472SOL     OW 5314   2.361   0.536   6.513
 1472SOL    HW1 5315   2.292   0.609   6.517
 1472SOL    HW2 5316   2.338   0.473   6.439
 1473SOL     OW 5317   1.992   5.795   3.388
 1473SOL    HW1 5318   1.987   5.894   3.401
 1473SOL    HW2 5319   2.035   5.752   3.467
 1474SOL     OW 5320   1.548   3.878   1.822
 1474SOL    HW1 5321   1.504   3.854   1.736
 1474SOL    HW2 5322   1.602   3.961   1.811
 1475SOL     OW 5323   6.268   0.119   6.571
 1475SOL    HW1 5324   6.361   0.098   6.603
 1475SOL    HW2 5325   6.260   0.218   6.556
 1476SOL     OW 5326   5.631   0.345   6.558
 1476SOL    HW1 5327   5.702   0.412   6.532
 1476SOL    HW2 5328   5.541   0.382   6.535
 1477SOL     OW 5329   3.169   4.173   1.783
 1477SOL    HW1 5330   3.173   4.271   1.766
 1477SOL    HW2 5331   3.262   4.137   1.794
 1478SOL     OW 5332   5.124   4.317   6.147
 1478SOL    HW1 5333   5.074   4.358   6.070
 1478SOL    HW2 5334   5.190   4.251   6.113
 1479SOL     OW 5335   4.640   4.840   1.178
 1479SOL    HW1 5336   4.624   4.860   1.274
 1479SOL    HW2 5337   4.714   4.773   1.169
 1480SOL     OW 5338   3.051   1.530   3.911
 1480SOL    HW1 5339   3.097   1.497   3.993
 1480SOL    HW2 5340   2.984   1.600   3.937
 1481SOL     OW 5341   4.350   1.440   5.714
 1481SOL    HW1 5342   4.378   1.424   5.619
 1481SOL    HW2 5343   4.388   1.527   5.746
 1482SOL     OW 5344   6.642   1.341   1.766
 1482SOL    HW1 5345   6.633   1.273   1.693
 1482SOL    HW2 5346   6.715   1.314   1.828
 1483SOL     OW 5347   6.489   6.929   0.154
 1483SOL    HW1 5348   6.499   6.961   0.060
 1483SOL    HW2 5349   6.519   6.833   0.160
 1484SOL     OW 5350   2.886   6.121   4.789
 1484SOL    HW1 5351   2.836   6.083   4.867
 1484SOL    HW2 5352   2.945   6.050   4.750
 1485SOL     OW 5353   5.205   4.035   3.156
 1485SOL    HW1 5354   5.148   4.061   3.234
 1485SOL    HW2 5355   5.287   4.092   3.154
 1486SOL     OW 5356   5.769   6.151   4.249
 1486SOL    HW1 5357   5.770   6.056   4.217
 1486SOL    HW2 5358   5.861   6.176   4.279
 1487SOL     OW 5359   6.032   0.850   0.002
 1487SOL    HW1 5360   5.996   0.785   6.960
 1487SOL    HW2 5361   6.049   0.938   6.981
 1488SOL     OW 5362   6.931   2.839   2.790
 1488SOL    HW1 5363   6.884   2.790   2.863
 1488SOL    HW2 5364   0.004   2.821   2.796
 1489SOL     OW 5365   3.240   5.443   6.870
 1489SOL    HW1 5366   3.208   5.398   6.954
 1489SOL    HW2 5367   3.165   5.498   6.831
 1490SOL     OW 5368   5.878   2.940   2.231
 1490SOL    HW1 5369   5.792   2.981   2.198
 1490SOL    HW2 5370   5.940   3.012   2.262
 1491SOL     OW 5371   5.434   3.045   4.434
 1491SOL    HW1 5372   5.426   2.997   4.346
 1491SOL    HW2 5373   5.384   2.994   4.504
 1492SOL     OW 5374   1.253   2.317   2.034
 1492SOL    HW1 5375   1.287   2.397   2.083
 1492SOL    HW2 5376   1.167   2.287   2.074
 1493SOL     OW 5377   5.992   2.499   6.686
 1493SOL    HW1 5378   6.002   2.427   6.754
 1493SOL    HW2 5379   5.920   2.562   6.715
 1494SOL     OW 5380   1.246   3.978   6.667
 1494SOL    HW1 5381   1.159   4.022   6.690
 1494SOL    HW2 5382   1.299   4.038   6.606
 1495SOL     OW 5383   6.585   4.302   3.810
 1495SOL    HW1 5384   6.508   4.300   3.873
 1495SOL    HW2 5385   6.671   4.293   3.861
 1496SOL     OW 5386   6.761   5.944   5.426
 1496SOL    HW1 5387   6.756   5.996   5.341
 1496SOL    HW2 5388   6.796   6.004   5.499
 1497SOL     OW 5389   4.789   2.290   2.733
 1497SOL    HW1 5390   4.701   2.333   2.714
 1497SOL    HW2 5391   4.779   2.190   2.727
 1498SOL     OW 5392   3.341   4.468   0.866
 1498SOL    HW1 5393   3.313   4.537   0.799
 1498SOL    HW2 5394   3.265   4.452   0.929
 1499SOL     OW 5395   0.808   4.319   4.293
 1499SOL    HW1 5396   0.806   4.323   4.393
 1499SOL    HW2 5397   0.861   4.396   4.258
 1500SOL     OW 5398   2.546   5.476   1.744
 1500SOL    HW1 5399   2.450   5.488   1.769
 1500SOL    HW2 5400   2.573   5.550   1.682
 1501SOL     OW 5401   5.628   1.141   1.140
 1501SOL    HW1 5402   5.566   1.216   1.163
 1501SOL    HW2 5403   5.722   1.174   1.143
 1502SOL     OW 5404   0.527   6.074   6.459
 1502SOL    HW1 5405   0.544   6.157   6.511
 1502SOL    HW2 5406   0.485   6.005   6.519
 1503SOL     OW 5407   6.527   5.487   1.910
 1503SOL    HW1 5408   6.465   5.430   1.856
 1503SOL    HW2 5409   6.611   5.503   1.857
 1504SOL     OW 5410   1.870   0.226   3.362
 1504SOL    HW1 5411   1.928   0.144   3.357
 1504SOL    HW2 5412   1.884   0.271   3.450
 1505SOL     OW 5413   6.907   4.730   4.951
 1505SOL    HW1 5414   6.952   4.761   5.034
 1505SOL    HW2 5415   6.846   4.654   4.972
 1506SOL     OW 5416   1.293   0.954   1.076
 1506SOL    HW1 5417   1.368   0.976   1.014
 1506SOL    HW2 5418   1.211   1.004   1.049
 1507SOL     OW 5419   2.348   2.077   3.417
 1507SOL    HW1 5420   2.331   2.113   3.509
 1507SOL    HW2 5421   2.310   2.139   3.349
 1508SOL     OW 5422   1.481   0.652   2.275
 1508SOL    HW1 5423   1.481   0.662   2.176
 1508SOL    HW2 5424   1.565   0.690   2.313
 1509SOL     OW 5425   4.414   1.433   4.365
 1509SOL    HW1 5426   4.437   1.336   4.353
 1509SOL    HW2 5427   4.442   1.463   4.456
 1510SOL     OW 5428   2.802   6.445   5.044
 1510SOL    HW1 5429   2.876   6.502   5.008
 1510SOL    HW2 5430   2.762   6.488   5.124
 1511SOL     OW 5431   3.703   4.168   5.510
 1511SOL    HW1 5432   3.674   4.173   5.414
 1511SOL    HW2 5433   3.648   4.232   5.564
 1512SOL     OW 5434   5.180   6.594   0.827
 1512SOL    HW1 5435   5.248   6.520   0.838
 1512SOL    HW2 5436   5.195   6.640   0.740
 1513SOL     OW 5437   3.005   0.228   5.652
 1513SOL    HW1 5438   2.987   0.313   5.603
 1513SOL    HW2 5439   3.099   0.229   5.688
 1514SOL     OW 5440   2.908   1.751   0.022
 1514SOL    HW1 5441   2.963   1.828   0.057
 1514SOL    HW2 5442   2.914   1.675   0.087
 1515SOL     OW 5443   3.543   0.992   2.687
 1515SOL    HW1 5444   3.506   0.907   2.724
 1515SOL    HW2 5445   3.505   1.007   2.596
 1516SOL     OW 5446   6.564   6.860   6.515
 1516SOL    HW1 5447   6.655   6.818   6.526
 1516SOL    HW2 5448   6.564   6.919   6.434
 1517SOL     OW 5449   2.450   6.431   2.917
 1517SOL    HW1 5450   2.504   6.478   2.847
 1517SOL    HW2 5451   2.460   6.477   3.004
 1518SOL     OW 5452   1.155   2.808   0.023
 1518SOL    HW1 5453   1.057   2.807   0.001
 1518SOL    HW2 5454   1.203   2.865   6.982
 1519SOL     OW 5455   0.600   4.201   6.709
 1519SOL    HW1 5456   0.621   4.194   6.806
 1519SOL    HW2 5457   0.645   4.281   6.671
 1520SOL     OW 5458   6.969   6.622   3.516
 1520SOL    HW1 5459   0.009   6.551   3.491
 1520SOL    HW2 5460   6.878   6.596   3.484
 1521SOL     OW 5461   1.859   4.852   6.928
 1521SOL    HW1 5462   1.848   4.951   6.927
 1521SOL    HW2 5463   1.955   4.829   6.909
 1522SOL     OW 5464   5.803   6.553   4.019
 1522SOL    HW1 5465   5.757   6.466   4.002
 1522SOL    HW2 5466   5.805   6.607   3.935
 1523SOL     OW 5467   2.490   6.124   0.432
 1523SOL    HW1 5468   2.539   6.151   0.349
 1523SOL    HW2 5469   2.496   6.025   0.444
 1524SOL     OW 5470   1.844   2.639   4.613
 1524SOL    HW1 5471   1.797   2.672   4.695
 1524SOL    HW2 5472   1.926   2.694   4.597
 1525SOL     OW 5473   5.949   4.172   6.865
 1525SOL    HW1 5474   5.909   4.142   6.779
 1525SOL    HW2 5475   6.047   4.188   6.853
 1526SOL     OW 5476   0.638   1.592   1.031
 1526SOL    HW1 5477   0.603   1.593   1.124
 1526SOL    HW2 5478   0.603   1.671   0.981
 1527SOL     OW 5479   4.929   1.187   4.306
 1527SOL    HW1 5480   4.975   1.224   4.387
 1527SOL    HW2 5481   4.841   1.233   4.294
 1528SOL     OW 5482   4.011   3.177   2.622
 1528SOL    HW1 5483   4.015   3.174   2.523
 1528SOL    HW2 5484   3.939   3.115   2.655
 1529SOL     OW 5485   4.230   0.838   5.242
 1529SOL    HW1 5486   4.182   0.751   5.245
 1529SOL    HW2 5487   4.166   0.913   5.262
 1530SOL     OW 5488   2.785   0.371   1.778
 1530SOL    HW1 5489   2.690   0.337   1.779
 1530SOL    HW2 5490   2.817   0.379   1.683
 1531SOL     OW 5491   5.392   6.024   4.499
 1531SOL    HW1 5492   5.419   6.118   4.477
 1531SOL    HW2 5493   5.400   5.968   4.417
 1532SOL     OW 5494   2.593   5.362   1.993
 1532SOL    HW1 5495   2.667   5.337   2.055
 1532SOL    HW2 5496   2.516   5.300   2.006
 1533SOL     OW 5497   5.733   6.424   1.268
 1533SOL    HW1 5498   5.635   6.444   1.263
 1533SOL    HW2 5499   5.746   6.329   1.297
 1534SOL     OW 5500   2.223   4.682   6.650
 1534SOL    HW1 5501   2.144   4.622   6.665
 1534SOL    HW2 5502   2.231   4.701   6.552
 1535SOL     OW 5503   4.904   4.632   3.503
 1535SOL    HW1 5504   4.857   4.695   3.441
 1535SOL    HW2 5505   4.861   4.636   3.593
 1536SOL     OW 5506   4.260   4.061   6.499
 1536SOL    HW1 5507   4.299   4.056   6.406
 1536SOL    HW2 5508   4.268   3.972   6.543
 1537SOL     OW 5509   3.379   5.546   2.462
 1537SOL    HW1 5510   3.324   5.622   2.497
 1537SOL    HW2 5511   3.415   5.492   2.538
 1538SOL     OW 5512   2.168   0.976   0.257
 1538SOL    HW1 5513   2.173   0.876   0.246
 1538SOL    HW2 5514   2.230   1.020   0.192
 1539SOL     OW 5515   0.022   2.939   0.746
 1539SOL    HW1 5516   0.090   2.915   0.815
 1539SOL    HW2 5517   0.001   3.036   0.753
 1540SOL     OW 5518   3.468   5.860   3.769
 1540SOL    HW1 5519   3.521   5.893   3.848
 1540SOL    HW2 5520   3.372   5.851   3.795
 1541SOL     OW 5521   4.753   2.453   5.362
 1541SOL    HW1 5522   4.682   2.481   5.298
 1541SOL    HW2 5523   4.801   2.373   5.327
 1542SOL     OW 5524   0.387   4.707   2.459
 1542SOL    HW1 5525   0.310   4.732   2.400
 1542SOL    HW2 5526   0.430   4.624   2.423
 1543SOL     OW 5527   3.373   5.211   0.833
 1543SOL    HW1 5528   3.276   5.206   0.859
 1543SOL    HW2 5529   3.398   5.130   0.781
 1544SOL     OW 5530   4.020   3.302   3.932
 1544SOL    HW1 5531   4.020   3.227   3.999
 1544SOL    HW2 5532   4.037   3.264   3.841
 1545SOL     OW 5533   6.066   5.438   1.017
 1545SOL    HW1 5534   6.150   5.396   1.050
 1545SOL    HW2 5535   5.989   5.409   1.074
 1546SOL     OW 5536   6.576   6.492   5.515
 1546SOL    HW1 5537   6.575   6.405   5.564
 1546SOL    HW2 5538   6.666   6.535   5.525
 1547SOL     OW 5539   1.509   3.107   6.165
 1547SOL    HW1 5540   1.603   3.130   6.191
 1547SOL    HW2 5541   1.459   3.191   6.143
 1548SOL     OW 5542   6.507   2.125   0.131
 1548SOL    HW1 5543   6.485   2.203   0.073
 1548SOL    HW2 5544   6.423   2.080   0.160
 1549SOL     OW 5545   4.999   0.636   4.469
 1549SOL    HW1 5546   4.923   0.596   4.418
 1549SOL    HW2 5547   4.996   0.736   4.460
 1550SOL     OW 5548   2.924   3.734   4.191
 1550SOL    HW1 5549   2.886   3.701   4.277
 1550SOL    HW2 5550   3.017   3.699   4.180
 1551SOL     OW 5551   6.909   5.354   6.101
 1551SOL    HW1 5552   6.911   5.277   6.165
 1551SOL    HW2 5553   6.817   5.394   6.100
 1552SOL     OW 5554   2.000   3.938   1.386
 1552SOL    HW1 5555   2.007   4.023   1.334
 1552SOL    HW2 5556   1.943   3.953   1.466
 1553SOL     OW 5557   1.656   2.045   5.689
 1553SOL    HW1 5558   1.694   1.957   5.661
 1553SOL    HW2 5559   1.690   2.116   5.627
 1554SOL     OW 5560   4.555   1.858   3.256
 1554SOL    HW1 5561   4.480   1.875   3.192
 1554SOL    HW2 5562   4.631   1.814   3.207
 1555SOL     OW 5563   6.212   4.778   5.289
 1555SOL    HW1 5564   6.121   4.793   5.252
 1555SOL    HW2 5565   6.277   4.763   5.214
 1556SOL     OW 5566   1.698   1.100   5.861
 1556SOL    HW1 5567   1.661   1.193   5.861
 1556SOL    HW2 5568   1.761   1.089   5.937
 1557SOL     OW 5569   1.112   1.957   5.956
 1557SOL    HW1 5570   1.049   1.929   6.028
 1557SOL    HW2 5571   1.117   1.885   5.886
 1558SOL     OW 5572   6.566   6.906   4.620
 1558SOL    HW1 5573   6.550   6.978   4.552
 1558SOL    HW2 5574   6.501   6.917   4.696
 1559SOL     OW 5575   1.489   1.101   6.365
 1559SOL    HW1 5576   1.427   1.145   6.429
 1559SOL    HW2 5577   1.515   1.165   6.293
 1560SOL     OW 5578   0.159   0.523   0.537
 1560SOL    HW1 5579   0.091   0.461   0.576
 1560SOL    HW2 5580   0.251   0.495   0.567
 1561SOL     OW 5581   5.621   6.087   1.783
 1561SOL    HW1 5582   5.621   5.988   1.775
 1561SOL    HW2 5583   5.712   6.118   1.813
 1562SOL     OW 5584   5.548   0.280   4.370
 1562SOL    HW1 5585   5.531   0.341   4.447
 1562SOL    HW2 5586   5.616   0.211   4.396
 1563SOL     OW 5587   3.106   0.106   6.238
 1563SOL    HW1 5588   3.046   0.113   6.158
 1563SOL    HW2 5589   3.168   0.029   6.226
 1564SOL     OW 5590   1.495   2.651   2.783
 1564SOL    HW1 5591   1.561   2.695   2.843
 1564SOL    HW2 5592   1.409   2.636   2.832
 1565SOL     OW 5593   6.084   5.053   1.004
 1565SOL    HW1 5594   6.026   5.008   1.071
 1565SOL    HW2 5595   6.039   5.136   0.971
 1566SOL     OW 5596   6.022   4.795   2.547
 1566SOL    HW1 5597   5.928   4.767   2.569
 1566SOL    HW2 5598   6.020   4.884   2.500
 1567SOL     OW 5599   6.965   5.812   5.630
 1567SOL    HW1 5600   6.869   5.802   5.605
 1567SOL    HW2 5601   6.972   5.846   5.724
 1568SOL     OW 5602   0.215   6.700   0.773
 1568SOL    HW1 5603   0.131   6.666   0.731
 1568SOL    HW2 5604   0.267   6.623   0.811
 1569SOL     OW 5605   3.057   5.929   5.446
 1569SOL    HW1 5606   3.117   5.988   5.392
 1569SOL    HW2 5607   3.061   5.836   5.411
 1570SOL     OW 5608   3.052   2.102   2.068
 1570SOL    HW1 5609   2.992   2.182   2.069
 1570SOL    HW2 5610   3.002   2.022   2.100
 1571SOL     OW 5611   0.082   2.865   0.284
 1571SOL    HW1 5612   7.022   2.918   0.282
 1571SOL    HW2 5613   0.084   2.808   0.366
 1572SOL     OW 5614   0.377   5.560   3.636
 1572SOL    HW1 5615   0.435   5.494   3.682
 1572SOL    HW2 5616   0.354   5.526   3.544
 1573SOL     OW 5617   4.525   6.871   0.078
 1573SOL    HW1 5618   4.526   6.804   0.152
 1573SOL    HW2 5619   4.523   6.963   0.115
 1574SOL     OW 5620   5.327   3.884   1.724
 1574SOL    HW1 5621   5.300   3.795   1.689
 1574SOL    HW2 5622   5.326   3.952   1.650
 1575SOL     OW 5623   3.915   2.490   0.511
 1575SOL    HW1 5624   4.010   2.485   0.542
 1575SOL    HW2 5625   3.887   2.401   0.474
 1576SOL     OW 5626   6.412   5.330   3.253
 1576SOL    HW1 5627   6.348   5.301   3.182
 1576SOL    HW2 5628   6.371   5.405   3.306
 1577SOL     OW 5629   1.533   0.462   0.910
 1577SOL    HW1 5630   1.530   0.473   1.009
 1577SOL    HW2 5631   1.519   0.550   0.866
 1578SOL     OW 5632   5.895   6.007   4.624
 1578SOL    HW1 5633   5.861   5.924   4.580
 1578SOL    HW2 5634   5.978   6.038   4.578
 1579SOL     OW 5635   0.141   0.870   3.392
 1579SOL    HW1 5636   0.079   0.812   3.444
 1579SOL    HW2 5637   0.094   0.909   3.314
 1580SOL     OW 5638   3.312   4.097   5.600
 1580SOL    HW1 5639   3.318   4.038   5.520
 1580SOL    HW2 5640   3.217   4.127   5.612
 1581SOL     OW 5641   5.996   3.328   4.585
 1581SOL    HW1 5642   5.980   3.371   4.497
 1581SOL    HW2 5643   6.080   3.363   4.625
 1582SOL     OW 5644   6.110   6.642   3.832
 1582SOL    HW1 5645   6.190   6.702   3.826
 1582SOL    HW2 5646   6.027   6.696   3.816
 1583SOL     OW 5647   2.122   2.908   1.429
 1583SOL    HW1 5648   2.028   2.917   1.460
 1583SOL    HW2 5649   2.153   2.995   1.390
 1584SOL     OW 5650   2.425   0.134   6.396
 1584SOL    HW1 5651   2.516   0.159   6.363
 1584SOL    HW2 5652   2.401   0.043   6.363
 1585SOL     OW 5653   5.666   0.969   6.405
 1585SOL    HW1 5654   5.682   1.060   6.367
 1585SOL    HW2 5655   5.700   0.900   6.341
 1586SOL     OW 5656   4.074   3.264   3.093
 1586SOL    HW1 5657   4.090   3.295   3.187
 1586SOL    HW2 5658   4.042   3.169   3.094
 1587SOL     OW 5659   1.848   6.907   5.919
 1587SOL    HW1 5660   1.766   6.864   5.959
 1587SOL    HW2 5661   1.833   6.923   5.822
 1588SOL     OW 5662   6.173   4.329   0.195
 1588SOL    HW1 5663   6.228   4.281   0.264
 1588SOL    HW2 5664   6.231   4.353   0.118
 1589SOL     OW 5665   5.306   4.676   3.039
 1589SOL    HW1 5666   5.220   4.637   3.074
 1589SOL    HW2 5667   5.383   4.628   3.080
 1590SOL     OW 5668   2.420   6.072   4.588
 1590SOL    HW1 5669   2.463   6.060   4.498
 1590SOL    HW2 5670   2.434   5.990   4.643
 1591SOL     OW 5671   2.339   3.273   0.373
 1591SOL    HW1 5672   2.311   3.366   0.351
 1591SOL    HW2 5673   2.305   3.210   0.303
 1592SOL     OW 5674   3.717   3.537   3.964
 1592SOL    HW1 5675   3.619   3.534   3.985
 1592SOL    HW2 5676   3.768   3.491   4.037
 1593SOL     OW 5677   1.520   4.180   4.205
 1593SOL    HW1 5678   1.598   4.174   4.142
 1593SOL    HW2 5679   1.551   4.215   4.293
 1594SOL     OW 5680   0.507   5.405   2.245
 1594SOL    HW1 5681   0.594   5.384   2.201
 1594SOL    HW2 5682   0.516   5.490   2.298
 1595SOL     OW 5683   6.557   3.475   4.687
 1595SOL    HW1 5684   6.544   3.572   4.665
 1595SOL    HW2 5685   6.628   3.437   4.628
 1596SOL     OW 5686   3.230   5.052   6.895
 1596SOL    HW1 5687   3.216   5.114   6.973
 1596SOL    HW2 5688   3.140   5.024   6.859
 1597SOL     OW 5689   2.568   6.543   1.031
 1597SOL    HW1 5690   2.634   6.546   0.956
 1597SOL    HW2 5691   2.475   6.554   0.994
 1598SOL     OW 5692   6.792   5.872   1.548
 1598SOL    HW1 5693   6.805   5.841   1.642
 1598SOL    HW2 5694   6.879   5.868   1.499
 1599SOL     OW 5695   2.576   5.426   0.236
 1599SOL    HW1 5696   2.600   5.511   0.190
 1599SOL    HW2 5697   2.598   5.434   0.334
 1600SOL     OW 5698   3.501   1.878   4.992
 1600SOL    HW1 5699   3.407   1.845   4.992
 1600SOL    HW2 5700   3.553   1.830   4.922
 1601SOL     OW 5701   1.798   5.298   4.708
 1601SOL    HW1 5702   1.865   5.232   4.742
 1601SOL    HW2 5703   1.775   5.363   4.780
 1602SOL     OW 5704   7.005   3.337   1.938
 1602SOL    HW1 5705   6.981   3.284   1.857
 1602SOL    HW2 5706   0.031   3.280   2.002
 1603SOL     OW 5707   6.059   6.837   0.492
 1603SOL    HW1 5708   6.116   6.785   0.429
 1603SOL    HW2 5709   5.999   6.774   0.542
 1604SOL     OW 5710   1.104   5.280   4.495
 1604SOL    HW1 5711   1.029   5.326   4.447
 1604SOL    HW2 5712   1.069   5.236   4.577
 1605SOL     OW 5713   4.930   4.983   2.209
 1605SOL    HW1 5714   4.943   4.973   2.308
 1605SOL    HW2 5715   4.900   4.895   2.171
 1606SOL     OW 5716   5.896   5.395   4.437
 1606SOL    HW1 5717   5.912   5.397   4.338
 1606SOL    HW2 5718   5.943   5.316   4.476
 1607SOL     OW 5719   5.635   3.600   1.719
 1607SOL    HW1 5720   5.697   3.537   1.671
 1607SOL    HW2 5721   5.677   3.627   1.806
 1608SOL     OW 5722   2.590   0.023   0.939
 1608SOL    HW1 5723   2.507   0.003   0.886
 1608SOL    HW2 5724   2.567   0.032   1.035
 1609SOL     OW 5725   5.539   1.357   5.207
 1609SOL    HW1 5726   5.551   1.453   5.232
 1609SOL    HW2 5727   5.627   1.309   5.213
 1610SOL     OW 5728   4.607   6.579   3.118
 1610SOL    HW1 5729   4.510   6.587   3.142
 1610SOL    HW2 5730   4.644   6.671   3.101
 1611SOL     OW 5731   3.963   4.110   1.698
 1611SOL    HW1 5732   4.022   4.153   1.629
 1611SOL    HW2 5733   3.895   4.176   1.729
 1612SOL     OW 5734   3.162   0.621   4.522
 1612SOL    HW1 5735   3.091   0.685   4.492
 1612SOL    HW2 5736   3.175   0.550   4.452
 1613SOL     OW 5737   2.462   0.240   1.581
 1613SOL    HW1 5738   2.472   0.250   1.681
 1613SOL    HW2 5739   2.407   0.317   1.546
 1614SOL     OW 5740   6.924   1.952   5.247
 1614SOL    HW1 5741   6.868   1.874   5.277
 1614SOL    HW2 5742   7.020   1.925   5.244
 1615SOL     OW 5743   6.979   5.622   5.357
 1615SOL    HW1 5744   6.883   5.619   5.388
 1615SOL    HW2 5745   0.007   5.553   5.405
 1616SOL     OW 5746   2.345   2.012   6.176
 1616SOL    HW1 5747   2.342   1.954   6.258
 1616SOL    HW2 5748   2.384   2.101   6.200
 1617SOL     OW 5749   3.186   1.312   3.361
 1617SOL    HW1 5750   3.271   1.364   3.365
 1617SOL    HW2 5751   3.199   1.232   3.303
 1618SOL     OW 5752   5.227   3.076   2.143
 1618SOL    HW1 5753   5.278   3.006   2.094
 1618SOL    HW2 5754   5.261   3.166   2.116
 1619SOL     OW 5755   1.444   2.890   4.831
 1619SOL    HW1 5756   1.474   2.984   4.846
 1619SOL    HW2 5757   1.388   2.859   4.908
 1620SOL     OW 5758   3.354   6.071   1.588
 1620SOL    HW1 5759   3.449   6.044   1.603
 1620SOL    HW2 5760   3.338   6.161   1.629
 1621SOL     OW 5761   2.180   2.401   1.632
 1621SOL    HW1 5762   2.240   2.471   1.592
 1621SOL    HW2 5763   2.107   2.446   1.683
 1622SOL     OW 5764   2.257   2.528   5.455
 1622SOL    HW1 5765   2.320   2.592   5.411
 1622SOL    HW2 5766   2.187   2.500   5.390
 1623SOL     OW 5767   2.309   2.010   4.542
 1623SOL    HW1 5768   2.370   1.937   4.512
 1623SOL    HW2 5769   2.214   1.978   4.541
 1624SOL     OW 5770   1.950   0.421   0.486
 1624SOL    HW1 5771   1.937   0.515   0.455
 1624SOL    HW2 5772   1.998   0.368   0.416
 1625SOL     OW 5773   1.188   6.969   1.389
 1625SOL    HW1 5774   1.162   0.013   1.322
 1625SOL    HW2 5775   1.253   7.009   1.454
 1626SOL     OW 5776   2.446   3.272   6.228
 1626SOL    HW1 5777   2.362   3.326   6.215
 1626SOL    HW2 5778   2.516   3.304   6.164
 1627SOL     OW 5779   4.764   4.404   3.477
 1627SOL    HW1 5780   4.761   4.376   3.381
 1627SOL    HW2 5781   4.812   4.491   3.485
 1628SOL     OW 5782   3.792   3.495   0.275
 1628SOL    HW1 5783   3.728   3.515   0.200
 1628SOL    HW2 5784   3.771   3.405   0.313
 1629SOL     OW 5785   2.827   2.143   2.934
 1629SOL    HW1 5786   2.781   2.057   2.957
 1629SOL    HW2 5787   2.763   2.204   2.886
 1630SOL     OW 5788   5.847   4.539   3.944
 1630SOL    HW1 5789   5.811   4.570   4.031
 1630SOL    HW2 5790   5.893   4.614   3.897
 1631SOL     OW 5791   1.010   0.438   6.030
 1631SOL    HW1 5792   1.099   0.460   6.070
 1631SOL    HW2 5793   1.013   0.346   5.991
 1632SOL     OW 5794   3.975   6.703   6.826
 1632SOL    HW1 5795   4.058   6.751   6.856
 1632SOL    HW2 5796   3.940   6.648   6.902
 1633SOL     OW 5797   6.605   3.944   2.801
 1633SOL    HW1 5798   6.526   3.982   2.848
 1633SOL    HW2 5799   6.621   3.851   2.833
 1634SOL     OW 5800   3.474   1.258   1.076
 1634SOL    HW1 5801   3.457   1.317   0.997
 1634SOL    HW2 5802   3.561   1.283   1.118
 1635SOL     OW 5803   1.548   4.128   3.172
 1635SOL    HW1 5804   1.602   4.122   3.256
 1635SOL    HW2 5805   1.606   4.111   3.093
 1636SOL     OW 5806   2.787   6.266   0.664
 1636SOL    HW1 5807   2.814   6.241   0.571
 1636SOL    HW2 5808   2.689   6.249   0.676
 1637SOL     OW 5809   0.901   2.913   2.803
 1637SOL    HW1 5810   0.992   2.944   2.775
 1637SOL    HW2 5811   0.861   2.980   2.866
 1638SOL     OW 5812   1.037   2.351   6.056
 1638SOL    HW1 5813   0.960   2.311   6.105
 1638SOL    HW2 5814   1.005   2.426   5.998
 1639SOL     OW 5815   4.086   4.989   2.830
 1639SOL    HW1 5816   4.125   5.053   2.764
 1639SOL    HW2 5817   3.986   4.989   2.821
 1640SOL     OW 5818   5.701   6.876   0.746
 1640SOL    HW1 5819   5.684   6.961   0.695
 1640SOL    HW2 5820   5.787   6.836   0.716
 1641SOL     OW 5821   6.495   2.555   4.782
 1641SOL    HW1 5822   6.577   2.589   4.828
 1641SOL    HW2 5823   6.512   2.462   4.750
 1642SOL     OW 5824   0.870   2.192   1.481
 1642SOL    HW1 5825   0.915   2.104   1.465
 1642SOL    HW2 5826   0.940   2.263   1.495
 1643SOL     OW 5827   3.693   0.061   5.732
 1643SOL    HW1 5828   3.633   0.050   5.654
 1643SOL    HW2 5829   3.765   7.017   5.729
 1644SOL     OW 5830   4.016   1.249   1.157
 1644SOL    HW1 5831   4.028   1.275   1.062
 1644SOL    HW2 5832   4.044   1.154   1.170
 1645SOL     OW 5833   2.411   5.808   5.983
 1645SOL    HW1 5834   2.449   5.875   6.047
 1645SOL    HW2 5835   2.315   5.792   6.006
 1646SOL     OW 5836   2.506   3.348   0.581
 1646SOL    HW1 5837   2.566   3.388   0.511
 1646SOL    HW2 5838   2.421   3.318   0.538
 1647SOL     OW 5839   5.748   3.632   2.265
 1647SOL    HW1 5840   5.728   3.607   2.360
 1647SOL    HW2 5841   5.782   3.552   2.216
 1648SOL     OW 5842   2.897   0.785   3.238
 1648SOL    HW1 5843   2.844   0.780   3.323
 1648SOL    HW2 5844   2.994   0.778   3.258
 1649SOL     OW 5845   2.656   0.415   4.102
 1649SOL    HW1 5846   2.580   0.381   4.157
 1649SOL    HW2 5847   2.629   0.499   4.055
 1650SOL     OW 5848   2.902   0.286   4.450
 1650SOL    HW1 5849   2.867   0.379   4.437
 1650SOL    HW2 5850   2.948   0.280   4.539
 1651SOL     OW 5851   1.544   6.681   2.445
 1651SOL    HW1 5852   1.457   6.727   2.461
 1651SOL    HW2 5853   1.529   6.583   2.432
 1652SOL     OW 5854   3.647   3.405   1.627
 1652SOL    HW1 5855   3.719   3.465   1.661
 1652SOL    HW2 5856   3.664   3.384   1.531
 1653SOL     OW 5857   0.895   4.573   1.300
 1653SOL    HW1 5858   0.886   4.562   1.201
 1653SOL    HW2 5859   0.825   4.637   1.333
 1654SOL     OW 5860   0.712   2.111   4.006
 1654SOL    HW1 5861   0.746   2.085   3.916
 1654SOL    HW2 5862   0.642   2.046   4.036
 1655SOL     OW 5863   4.495   4.315   5.390
 1655SOL    HW1 5864   4.547   4.257   5.453
 1655SOL    HW2 5865   4.403   4.329   5.426
 1656SOL     OW 5866   0.333   3.178   2.420
 1656SOL    HW1 5867   0.317   3.081   2.442
 1656SOL    HW2 5868   0.252   3.215   2.375
 1657SOL     OW 5869   0.889   0.898   5.830
 1657SOL    HW1 5870   0.944   0.818   5.853
 1657SOL    HW2 5871   0.914   0.930   5.738
 1658SOL     OW 5872   5.978   6.949   2.603
 1658SOL    HW1 5873   6.064   6.989   2.570
 1658SOL    HW2 5874   5.957   6.867   2.549
 1659SOL     OW 5875   5.281   2.727   6.748
 1659SOL    HW1 5876   5.260   2.812   6.796
 1659SOL    HW2 5877   5.215   2.656   6.774
 1660SOL     OW 5878   2.310   5.593   3.863
 1660SOL    HW1 5879   2.287   5.574   3.958
 1660SOL    HW2 5880   2.374   5.524   3.830
 1661SOL     OW 5881   2.260   0.714   3.199
 1661SOL    HW1 5882   2.330   0.767   3.152
 1661SOL    HW2 5883   2.175   0.766   3.202
 1662SOL     OW 5884   6.802   0.731   3.499
 1662SOL    HW1 5885   6.875   0.682   3.453
 1662SOL    HW2 5886   6.729   0.752   3.434
 1663SOL     OW 5887   1.521   0.385   3.454
 1663SOL    HW1 5888   1.440   0.380   3.396
 1663SOL    HW2 5889   1.597   0.423   3.400
 1664SOL     OW 5890   1.951   5.440   4.522
 1664SOL    HW1 5891   1.991   5.394   4.443
 1664SOL    HW2 5892   1.903   5.372   4.579
 1665SOL     OW 5893   6.958   1.157   4.049
 1665SOL    HW1 5894   6.863   1.188   4.039
 1665SOL    HW2 5895   6.976   1.137   4.145
 1666SOL     OW 5896   5.472   2.620   6.584
 1666SOL    HW1 5897   5.388   2.645   6.633
 1666SOL    HW2 5898   5.527   2.702   6.569
 1667SOL     OW 5899   6.983   0.558   1.414
 1667SOL    HW1 5900   6.921   0.496   1.462
 1667SOL    HW2 5901   6.941   0.588   1.329
 1668SOL     OW 5902   2.264   0.349   4.680
 1668SOL    HW1 5903   2.266   0.449   4.680
 1668SOL    HW2 5904   2.354   0.314   4.707
 1669SOL     OW 5905   5.279   6.088   6.207
 1669SOL    HW1 5906   5.257   5.990   6.204
 1669SOL    HW2 5907   5.364   6.105   6.157
 1670SOL     OW 5908   6.874   3.081   6.384
 1670SOL    HW1 5909   6.953   3.052   6.439
 1670SOL    HW2 5910   6.888   3.053   6.289
 1671SOL     OW 5911   5.601   5.088   0.655
 1671SOL    HW1 5912   5.691   5.077   0.697
 1671SOL    HW2 5913   5.563   5.178   0.679
 1672SOL     OW 5914   2.068   4.276   2.646
 1672SOL    HW1 5915   2.162   4.299   2.668
 1672SOL    HW2 5916   2.059   4.261   2.548
 1673SOL     OW 5917   6.561   3.138   3.161
 1673SOL    HW1 5918   6.463   3.156   3.159
 1673SOL    HW2 5919   6.611   3.224   3.168
 1674SOL     OW 5920   2.401   5.644   0.647
 1674SOL    HW1 5921   2.326   5.577   0.653
 1674SOL    HW2 5922   2.387   5.715   0.716
 1675SOL     OW 5923   4.974   1.913   6.152
 1675SOL    HW1 5924   5.015   1.833   6.109
 1675SOL    HW2 5925   5.017   1.929   6.241
 1676SOL     OW 5926   2.787   1.836   3.583
 1676SOL    HW1 5927   2.740   1.923   3.594
 1676SOL    HW2 5928   2.873   1.838   3.633
 1677SOL     OW 5929   5.519   6.949   5.846
 1677SOL    HW1 5930   5.575   6.919   5.769
 1677SOL    HW2 5931   5.530   0.022   5.860
 1678SOL     OW 5932   4.758   6.304   2.171
 1678SOL    HW1 5933   4.762   6.308   2.071
 1678SOL    HW2 5934   4.668   6.335   2.202
 1679SOL     OW 5935   6.539   4.809   0.232
 1679SOL    HW1 5936   6.547   4.879   0.303
 1679SOL    HW2 5937   6.574   4.722   0.268
 1680SOL     OW 5938   0.401   2.316   5.519
 1680SOL    HW1 5939   0.393   2.291   5.615
 1680SOL    HW2 5940   0.366   2.241   5.463
 1681SOL     OW 5941   4.231   5.681   0.000
 1681SOL    HW1 5942   4.165   5.620   0.045
 1681SOL    HW2 5943   4.199   5.703   6.933
 1682SOL     OW 5944   0.274   2.785   5.918
 1682SOL    HW1 5945   0.314   2.709   5.865
 1682SOL    HW2 5946   0.219   2.842   5.857
 1683SOL     OW 5947   5.690   5.146   5.624
 1683SOL    HW1 5948   5.705   5.067   5.683
 1683SOL    HW2 5949   5.593   5.167   5.620
 1684SOL     OW 5950   0.371   6.924   4.297
 1684SOL    HW1 5951   0.395   6.866   4.219
 1684SOL    HW2 5952   0.385   6.873   4.382
 1685SOL     OW 5953   0.972   2.145   0.127
 1685SOL    HW1 5954   1.063   2.182   0.108
 1685SOL    HW2 5955   0.925   2.203   0.194
 1686SOL     OW 5956   1.615   6.800   6.016
 1686SOL    HW1 5957   1.667   6.732   6.068
 1686SOL    HW2 5958   1.563   6.754   5.944
 1687SOL     OW 5959   3.096   6.584   2.121
 1687SOL    HW1 5960   3.042   6.562   2.202
 1687SOL    HW2 5961   3.193   6.572   2.141
 1688SOL     OW 5962   0.303   1.402   3.721
 1688SOL    HW1 5963   0.289   1.437   3.628
 1688SOL    HW2 5964   0.365   1.464   3.770
 1689SOL     OW 5965   2.272   1.743   1.452
 1689SOL    HW1 5966   2.186   1.703   1.484
 1689SOL    HW2 5967   2.300   1.699   1.367
 1690SOL     OW 5968   1.059   2.412   0.577
 1690SOL    HW1 5969   0.969   2.381   0.608
 1690SOL    HW2 5970   1.064   2.512   0.583
 1691SOL     OW 5971   4.705   4.180   3.767
 1691SOL    HW1 5972   4.707   4.228   3.855
 1691SOL    HW2 5973   4.685   4.083   3.783
 1692SOL     OW 5974   1.087   7.003   3.938
 1692SOL    HW1 5975   1.116   7.010   3.843
 1692SOL    HW2 5976   0.987   7.003   3.942
 1693SOL     OW 5977   3.744   2.054   4.193
 1693SOL    HW1 5978   3.777   2.085   4.282
 1693SOL    HW2 5979   3.821   2.031   4.134
 1694SOL     OW 5980   6.245   5.914   4.922
 1694SOL    HW1 5981   6.283   5.881   4.835
 1694SOL    HW2 5982   6.304   5.885   4.997
 1695SOL     OW 5983   3.931   1.587   6.462
 1695SOL    HW1 5984   3.976   1.550   6.543
 1695SOL    HW2 5985   3.833   1.594   6.479
 1696SOL     OW 5986   3.629   5.601   1.972
 1696SOL    HW1 5987   3.624   5.681   2.032
 1696SOL    HW2 5988   3.539   5.556   1.971
 1697SOL     OW 5989   1.648   1.652   2.254
 1697SOL    HW1 5990   1.555   1.685   2.270
 1697SOL    HW2 5991   1.672   1.585   2.324
 1698SOL     OW 5992   5.011   1.557   6.912
 1698SOL    HW1 5993   5.108   1.534   6.914
 1698SOL    HW2 5994   4.988   1.612   6.992
 1699SOL     OW 5995   2.228   4.750   1.302
 1699SOL    HW1 5996   2.280   4.664   1.308
 1699SOL    HW2 5997   2.289   4.827   1.320
 1700SOL     OW 5998   6.136   2.892   4.428
 1700SOL    HW1 5999   6.122   2.796   4.454
 1700SOL    HW2 6000   6.101   2.951   4.500
 1701SOL     OW 6001   6.070   3.011   4.873
 1701SOL    HW1 6002   6.052   3.002   4.775
 1701SOL    HW2 6003   5.985   3.036   4.920
 1702SOL     OW 6004   5.411   2.720   1.458
 1702SOL    HW1 6005   5.350   2.778   1.512
 1702SOL    HW2 6006   5.409   2.750   1.363
 1703SOL     OW 6007   2.188   3.704   1.064
 1703SOL    HW1 6008   2.188   3.707   1.164
 1703SOL    HW2 6009   2.095   3.717   1.030
 1704SOL     OW 6010   0.201   1.742   2.266
 1704SOL    HW1 6011   0.127   1.737   2.332
 1704SOL    HW2 6012   0.222   1.838   2.245
 1705SOL     OW 6013   4.130   3.381   2.804
 1705SOL    HW1 6014   4.182   3.364   2.889
 1705SOL    HW2 6015   4.122   3.295   2.753
 1706SOL     OW 6016   2.507   1.047   6.017
 1706SOL    HW1 6017   2.549   0.997   6.093
 1706SOL    HW2 6018   2.422   1.002   5.991
 1707SOL     OW 6019   5.027   1.482   2.228
 1707SOL    HW1 6020   4.960   1.550   2.258
 1707SOL    HW2 6021   5.065   1.509   2.140
 1708SOL     OW 6022   0.628   4.353   1.429
 1708SOL    HW1 6023   0.582   4.268   1.450
 1708SOL    HW2 6024   0.562   4.428   1.427
 1709SOL     OW 6025   3.528   5.349   3.308
 1709SOL    HW1 6026   3.442   5.319   3.351
 1709SOL    HW2 6027   3.586   5.393   3.376
 1710SOL     OW 6028   6.618   4.648   4.785
 1710SOL    HW1 6029   6.627   4.654   4.884
 1710SOL    HW2 6030   6.699   4.601   4.748
 1711SOL     OW 6031   1.088   4.573   5.596
 1711SOL    HW1 6032   1.097   4.475   5.576
 1711SOL    HW2 6033   1.008   4.609   5.547
 1712SOL     OW 6034   1.682   4.493   2.435
 1712SOL    HW1 6035   1.730   4.405   2.430
 1712SOL    HW2 6036   1.707   4.550   2.357
 1713SOL     OW 6037   2.884   3.271   0.888
 1713SOL    HW1 6038   2.849   3.270   0.982
 1713SOL    HW2 6039   2.878   3.364   0.852
 1714SOL     OW 6040   4.722   1.263   1.616
 1714SOL    HW1 6041   4.715   1.237   1.713
 1714SOL    HW2 6042   4.816   1.248   1.585
 1715SOL     OW 6043   1.092   3.311   3.384
 1715SOL    HW1 6044   0.999   3.286   3.414
 1715SOL    HW2 6045   1.098   3.301   3.285
 1716SOL     OW 6046   0.055   7.014   6.583
 1716SOL    HW1 6047   0.002   6.938   6.621
 1716SOL    HW2 6048   0.051   7.011   6.483
 1717SOL     OW 6049   2.943   0.468   6.511
 1717SOL    HW1 6050   2.911   0.382   6.550
 1717SOL    HW2 6051   3.027   0.452   6.459
 1718SOL     OW 6052   2.059   3.999   5.541
 1718SOL    HW1 6053   2.095   3.972   5.452
 1718SOL    HW2 6054   2.059   3.920   5.602
 1719SOL     OW 6055   1.957   3.347   1.085
 1719SOL    HW1 6056   1.871   3.300   1.065
 1719SOL    HW2 6057   2.028   3.278   1.102
 1720SOL     OW 6058   0.146   2.384   2.129
 1720SOL    HW1 6059   0.083   2.409   2.202
 1720SOL    HW2 6060   0.231   2.349   2.169
 1721SOL     OW 6061   1.260   6.257   4.082
 1721SOL    HW1 6062   1.299   6.281   4.171
 1721SOL    HW2 6063   1.297   6.320   4.012
 1722SOL     OW 6064   5.434   0.081   1.644
 1722SOL    HW1 6065   5.410   0.178   1.646
 1722SOL    HW2 6066   5.361   0.029   1.599
 1723SOL     OW 6067   5.879   1.402   3.277
 1723SOL    HW1 6068   5.871   1.311   3.235
 1723SOL    HW2 6069   5.915   1.467   3.211
 1724SOL     OW 6070   4.746   0.830   0.384
 1724SOL    HW1 6071   4.799   0.872   0.458
 1724SOL    HW2 6072   4.688   0.757   0.422
 1725SOL     OW 6073   3.654   5.841   2.119
 1725SOL    HW1 6074   3.720   5.915   2.128
 1725SOL    HW2 6075   3.639   5.799   2.208
 1726SOL     OW 6076   6.173   4.056   4.668
 1726SOL    HW1 6077   6.169   4.011   4.579
 1726SOL    HW2 6078   6.101   4.018   4.727
 1727SOL     OW 6079   2.682   4.362   5.992
 1727SOL    HW1 6080   2.642   4.271   6.003
 1727SOL    HW2 6081   2.678   4.411   6.078
 1728SOL     OW 6082   4.867   5.713   3.912
 1728SOL    HW1 6083   4.775   5.680   3.935
 1728SOL    HW2 6084   4.891   5.788   3.974
 1729SOL     OW 6085   0.557   3.280   2.330
 1729SOL    HW1 6086   0.471   3.229   2.333
 1729SOL    HW2 6087   0.595   3.287   2.422
 1730SOL     OW 6088   4.733   2.018   4.672
 1730SOL    HW1 6089   4.816   1.966   4.692
 1730SOL    HW2 6090   4.717   2.018   4.573
 1731SOL     OW 6091   0.709   6.857   6.875
 1731SOL    HW1 6092   0.716   6.796   6.797
 1731SOL    HW2 6093   0.780   6.928   6.868
 1732SOL     OW 6094   1.059   4.432   0.215
 1732SOL    HW1 6095   1.124   4.504   0.190
 1732SOL    HW2 6096   1.090   4.345   0.177
 1733SOL     OW 6097   1.324   4.480   6.661
 1733SOL    HW1 6098   1.339   4.514   6.568
 1733SOL    HW2 6099   1.379   4.398   6.676
 1734SOL     OW 6100   5.480   4.321   0.505
 1734SOL    HW1 6101   5.552   4.282   0.563
 1734SOL    HW2 6102   5.436   4.249   0.453
 1735SOL     OW 6103   4.620   5.229   0.068
 1735SOL    HW1 6104   4.684   5.306   0.064
 1735SOL    HW2 6105   4.526   5.263   0.070
 1736SOL     OW 6106   3.548   3.222   0.697
 1736SOL    HW1 6107   3.535   3.129   0.733
 1736SOL    HW2 6108   3.506   3.288   0.759
 1737SOL     OW 6109   0.954   5.928   2.882
 1737SOL    HW1 6110   0.937   5.914   2.980
 1737SOL    HW2 6111   1.005   6.013   2.869
 1738SOL     OW 6112   0.635   1.566   2.048
 1738SOL    HW1 6113   0.568   1.595   2.115
 1738SOL    HW2 6114   0.727   1.587   2.081
 1739SOL     OW 6115   4.148   1.949   6.614
 1739SOL    HW1 6116   4.183   1.901   6.694
 1739SOL    HW2 6117   4.089   2.024   6.643
 1740SOL     OW 6118   0.490   1.938   6.763
 1740SOL    HW1 6119   0.528   1.849   6.740
 1740SOL    HW2 6120   0.547   1.981   6.833
 1741SOL     OW 6121   0.796   0.585   2.630
 1741SOL    HW1 6122   0.811   0.566   2.727
 1741SOL    HW2 6123   0.867   0.538   2.576
 1742SOL     OW 6124   6.066   6.148   4.078
 1742SOL    HW1 6125   5.988   6.115   4.025
 1742SOL    HW2 6126   6.094   6.238   4.044
 1743SOL     OW 6127   4.272   1.072   0.533
 1743SOL    HW1 6128   4.233   1.120   0.454
 1743SOL    HW2 6129   4.335   1.133   0.580
 1744SOL     OW 6130   3.971   6.016   1.420
 1744SOL    HW1 6131   4.043   5.965   1.468
 1744SOL    HW2 6132   4.005   6.043   1.330
 1745SOL     OW 6133   6.920   2.391   5.203
 1745SOL    HW1 6134   6.844   2.455   5.199
 1745SOL    HW2 6135   6.909   2.321   5.132
 1746SOL     OW 6136   2.593   0.983   6.288
 1746SOL    HW1 6137   2.562   0.889   6.302
 1746SOL    HW2 6138   2.680   0.996   6.335
 1747SOL     OW 6139   4.038   0.015   4.968
 1747SOL    HW1 6140   4.129   0.028   4.927
 1747SOL    HW2 6141   4.047   6.989   5.054
 1748SOL     OW 6142   6.135   0.931   2.012
 1748SOL    HW1 6143   6.121   0.926   2.111
 1748SOL    HW2 6144   6.196   0.858   1.983
 1749SOL     OW 6145   4.934   0.288   6.224
 1749SOL    HW1 6146   5.016   0.276   6.280
 1749SOL    HW2 6147   4.863   0.332   6.278
 1750SOL     OW 6148   3.360   0.654   3.072
 1750SOL    HW1 6149   3.364   0.752   3.089
 1750SOL    HW2 6150   3.453   0.618   3.063
 1751SOL     OW 6151   1.854   5.691   4.458
 1751SOL    HW1 6152   1.769   5.724   4.499
 1751SOL    HW2 6153   1.872   5.598   4.488
 1752SOL     OW 6154   6.815   1.823   6.230
 1752SOL    HW1 6155   6.826   1.751   6.299
 1752SOL    HW2 6156   6.888   1.890   6.239
 1753SOL     OW 6157   2.038   6.394   2.386
 1753SOL    HW1 6158   1.964   6.457   2.364
 1753SOL    HW2 6159   2.124   6.445   2.397
 1754SOL     OW 6160   3.157   2.969   3.105
 1754SOL    HW1 6161   3.143   3.056   3.057
 1754SOL    HW2 6162   3.079   2.909   3.090
 1755SOL     OW 6163   6.924   4.174   0.089
 1755SOL    HW1 6164   6.855   4.206   0.154
 1755SOL    HW2 6165   6.890   4.092   0.042
 1756SOL     OW 6166   6.061   4.493   5.257
 1756SOL    HW1 6167   5.979   4.523   5.208
 1756SOL    HW2 6168   6.140   4.501   5.196
 1757SOL     OW 6169   3.711   0.688   4.775
 1757SOL    HW1 6170   3.623   0.667   4.818
 1757SOL    HW2 6171   3.733   0.784   4.788
 1758SOL     OW 6172   2.690   1.610   3.133
 1758SOL    HW1 6173   2.764   1.673   3.158
 1758SOL    HW2 6174   2.603   1.646   3.168
 1759SOL     OW 6175   6.846   6.183   6.165
 1759SOL    HW1 6176   6.758   6.193   6.211
 1759SOL    HW2 6177   6.899   6.110   6.209
 1760SOL     OW 6178   4.520   6.324   2.732
 1760SOL    HW1 6179   4.557   6.322   2.825
 1760SOL    HW2 6180   4.578   6.381   2.674
 1761SOL     OW 6181   5.647   3.352   1.272
 1761SOL    HW1 6182   5.648   3.431   1.210
 1761SOL    HW2 6183   5.644   3.268   1.219
 1762SOL     OW 6184   5.631   3.149   0.332
 1762SOL    HW1 6185   5.730   3.162   0.327
 1762SOL    HW2 6186   5.601   3.088   0.259
 1763SOL     OW 6187   2.490   2.433   4.511
 1763SOL    HW1 6188   2.484   2.334   4.527
 1763SOL    HW2 6189   2.409   2.478   4.549
 1764SOL     OW 6190   6.638   3.740   3.242
 1764SOL    HW1 6191   6.606   3.787   3.160
 1764SOL    HW2 6192   6.735   3.718   3.233
 1765SOL     OW 6193   1.578   3.311   5.848
 1765SOL    HW1 6194   1.624   3.229   5.812
 1765SOL    HW2 6195   1.563   3.300   5.946
 1766SOL     OW 6196   5.988   3.933   5.323
 1766SOL    HW1 6197   5.955   3.876   5.248
 1766SOL    HW2 6198   6.044   4.007   5.285
 1767SOL     OW 6199   6.655   5.169   1.313
 1767SOL    HW1 6200   6.667   5.100   1.242
 1767SOL    HW2 6201   6.674   5.260   1.276
 1768SOL     OW 6202   5.815   6.892   2.809
 1768SOL    HW1 6203   5.864   6.837   2.877
 1768SOL    HW2 6204   5.880   6.922   2.738
 1769SOL     OW 6205   4.381   1.038   3.798
 1769SOL    HW1 6206   4.349   1.076   3.711
 1769SOL    HW2 6207   4.470   0.994   3.784
 1770SOL     OW 6208   3.397   5.842   5.404
 1770SOL    HW1 6209   3.346   5.798   5.479
 1770SOL    HW2 6210   3.348   5.924   5.374
 1771SOL     OW 6211   4.776   5.784   0.045
 1771SOL    HW1 6212   4.854   5.827   7.024
 1771SOL    HW2 6213   4.803   5.753   0.136
 1772SOL     OW 6214   2.236   5.806   2.672
 1772SOL    HW1 6215   2.143   5.841   2.662
 1772SOL    HW2 6216   2.300   5.868   2.625
 1773SOL     OW 6217   1.508   0.049   0.227
 1773SOL    HW1 6218   1.495   7.018   0.309
 1773SOL    HW2 6219   1.508   7.016   0.146
 1774SOL     OW 6220   2.658   5.234   1.733
 1774SOL    HW1 6221   2.749   5.273   1.722
 1774SOL    HW2 6222   2.589   5.306   1.727
 1775SOL     OW 6223   0.716   5.380   0.616
 1775SOL    HW1 6224   0.760   5.317   0.552
 1775SOL    HW2 6225   0.737   5.352   0.710
 1776SOL     OW 6226   3.293   5.439   5.104
 1776SOL    HW1 6227   3.307   5.538   5.104
 1776SOL    HW2 6228   3.255   5.410   5.191
 1777SOL     OW 6229   4.238   6.097   0.093
 1777SOL    HW1 6230   4.291   6.014   0.072
 1777SOL    HW2 6231   4.292   6.177   0.069
 1778SOL     OW 6232   0.388   3.518   5.780
 1778SOL    HW1 6233   0.465   3.531   5.843
 1778SOL    HW2 6234   0.416   3.461   5.704
 1779SOL     OW 6235   3.757   6.685   5.328
 1779SOL    HW1 6236   3.803   6.764   5.368
 1779SOL    HW2 6237   3.666   6.711   5.295
 1780SOL     OW 6238   4.404   2.575   0.272
 1780SOL    HW1 6239   4.449   2.555   0.359
 1780SOL    HW2 6240   4.336   2.648   0.287
 1781SOL     OW 6241   2.052   5.719   3.667
 1781SOL    HW1 6242   2.088   5.742   3.757
 1781SOL    HW2 6243   2.043   5.619   3.659
 1782SOL     OW 6244   3.102   1.416   4.540
 1782SOL    HW1 6245   3.095   1.515   4.528
 1782SOL    HW2 6246   3.136   1.395   4.631
 1783SOL     OW 6247   1.966   5.735   0.626
 1783SOL    HW1 6248   1.878   5.749   0.581
 1783SOL    HW2 6249   2.017   5.821   0.627
 1784SOL     OW 6250   1.672   6.919   6.318
 1784SOL    HW1 6251   1.692   6.832   6.364
 1784SOL    HW2 6252   1.633   6.983   6.384
 1785SOL     OW 6253   6.875   5.402   2.632
 1785SOL    HW1 6254   6.780   5.426   2.651
 1785SOL    HW2 6255   6.930   5.486   2.626
 1786SOL     OW 6256   3.938   2.560   1.413
 1786SOL    HW1 6257   3.855   2.613   1.394
 1786SOL    HW2 6258   4.014   2.623   1.430
 1787SOL     OW 6259   3.270   0.330   5.230
 1787SOL    HW1 6260   3.292   0.353   5.325
 1787SOL    HW2 6261   3.353   0.299   5.183
 1788SOL     OW 6262   1.407   5.017   5.060
 1788SOL    HW1 6263   1.480   5.026   4.993
 1788SOL    HW2 6264   1.435   4.953   5.132
 1789SOL     OW 6265   5.353   6.393   6.990
 1789SOL    HW1 6266   5.383   6.348   0.049
 1789SOL    HW2 6267   5.382   6.489   6.992
 1790SOL     OW 6268   2.194   6.860   2.609
 1790SOL    HW1 6269   2.094   6.860   2.607
 1790SOL    HW2 6270   2.228   6.953   2.601
 1791SOL     OW 6271   1.014   6.670   3.826
 1791SOL    HW1 6272   0.953   6.609   3.875
 1791SOL    HW2 6273   1.084   6.616   3.778
 1792SOL     OW 6274   0.583   3.225   4.556
 1792SOL    HW1 6275   0.572   3.275   4.642
 1792SOL    HW2 6276   0.556   3.284   4.480
 1793SOL     OW 6277   0.364   0.681   3.883
 1793SOL    HW1 6278   0.315   0.668   3.969
 1793SOL    HW2 6279   0.301   0.714   3.813
 1794SOL     OW 6280   4.866   5.902   6.108
 1794SOL    HW1 6281   4.811   5.886   6.026
 1794SOL    HW2 6282   4.808   5.939   6.181
 1795SOL     OW 6283   1.380   3.388   0.048
 1795SOL    HW1 6284   1.288   3.401   0.010
 1795SOL    HW2 6285   1.403   3.290   0.046
 1796SOL     OW 6286   4.046   0.106   5.284
 1796SOL    HW1 6287   3.961   0.083   5.331
 1796SOL    HW2 6288   4.092   0.023   5.255
 1797SOL     OW 6289   0.163   1.394   1.745
 1797SOL    HW1 6290   0.146   1.483   1.702
 1797SOL    HW2 6291   0.122   1.392   1.836
 1798SOL     OW 6292   6.104   1.382   3.078
 1798SOL    HW1 6293   6.101   1.302   3.017
 1798SOL    HW2 6294   6.173   1.367   3.148
 1799SOL     OW 6295   2.677   0.225   0.157
 1799SOL    HW1 6296   2.707   0.140   0.200
 1799SOL    HW2 6297   2.607   0.206   0.089
 1800SOL     OW 6298   2.806   4.941   2.314
 1800SOL    HW1 6299   2.798   4.847   2.281
 1800SOL    HW2 6300   2.787   4.944   2.412
 1801SOL     OW 6301   5.500   6.810   0.469
 1801SOL    HW1 6302   5.567   6.737   0.453
 1801SOL    HW2 6303   5.523   6.859   0.553
 1802SOL     OW 6304   6.074   5.135   4.219
 1802SOL    HW1 6305   6.100   5.076   4.295
 1802SOL    HW2 6306   6.141   5.208   4.208
 1803SOL     OW 6307   6.624   4.600   0.367
 1803SOL    HW1 6308   6.686   4.521   0.360
 1803SOL    HW2 6309   6.619   4.631   0.462
 1804SOL     OW 6310   3.044   3.563   6.139
 1804SOL    HW1 6311   3.132   3.558   6.186
 1804SOL    HW2 6312   3.044   3.501   6.061
 1805SOL     OW 6313   6.342   3.145   6.991
 1805SOL    HW1 6314   6.366   3.242   6.987
 1805SOL    HW2 6315   6.409   3.097   0.022
 1806SOL     OW 6316   6.669   6.734   0.141
 1806SOL    HW1 6317   6.725   6.680   0.077
 1806SOL    HW2 6318   6.721   6.751   0.224
 1807SOL     OW 6319   6.891   1.761   5.628
 1807SOL    HW1 6320   6.853   1.735   5.539
 1807SOL    HW2 6321   6.983   1.799   5.615
 1808SOL     OW 6322   2.470   4.685   4.076
 1808SOL    HW1 6323   2.498   4.628   4.153
 1808SOL    HW2 6324   2.370   4.683   4.067
 1809SOL     OW 6325   3.788   0.327   6.608
 1809SOL    HW1 6326   3.733   0.350   6.528
 1809SOL    HW2 6327   3.736   0.345   6.691
 1810SOL     OW 6328   2.603   6.620   2.826
 1810SOL    HW1 6329   2.562   6.703   2.790
 1810SOL    HW2 6330   2.672   6.643   2.895
 1811SOL     OW 6331   5.853   5.611   3.209
 1811SOL    HW1 6332   5.810   5.633   3.296
 1811SOL    HW2 6333   5.824   5.521   3.179
 1812SOL     OW 6334   4.385   4.942   5.296
 1812SOL    HW1 6335   4.353   4.916   5.387
 1812SOL    HW2 6336   4.379   4.863   5.235
 1813SOL     OW 6337   6.969   6.335   5.621
 1813SOL    HW1 6338   6.967   6.287   5.533
 1813SOL    HW2 6339   0.002   6.416   5.614
 1814SOL     OW 6340   4.983   0.477   2.703
 1814SOL    HW1 6341   5.015   0.446   2.614
 1814SOL    HW2 6342   4.973   0.577   2.702
 1815SOL     OW 6343   0.208   1.296   2.896
 1815SOL    HW1 6344   0.156   1.375   2.862
 1815SOL    HW2 6345   0.146   1.219   2.911
 1816SOL     OW 6346   1.148   5.334   0.633
 1816SOL    HW1 6347   1.055   5.372   0.627
 1816SOL    HW2 6348   1.181   5.311   0.542
 1817SOL     OW 6349   1.550   4.737   2.121
 1817SOL    HW1 6350   1.609   4.786   2.184
 1817SOL    HW2 6351   1.594   4.732   2.031
 1818SOL     OW 6352   0.676   1.545   2.904
 1818SOL    HW1 6353   0.757   1.517   2.852
 1818SOL    HW2 6354   0.619   1.605   2.847
 1819SOL     OW 6355   1.252   4.170   2.866
 1819SOL    HW1 6356   1.291   4.079   2.879
 1819SOL    HW2 6357   1.191   4.169   2.786
 1820SOL     OW 6358   5.643   6.343   2.990
 1820SOL    HW1 6359   5.645   6.396   2.905
 1820SOL    HW2 6360   5.640   6.406   3.068
 1821SOL     OW 6361   1.439   2.067   3.150
 1821SOL    HW1 6362   1.376   2.106   3.083
 1821SOL    HW2 6363   1.491   1.993   3.108
 1822SOL     OW 6364   3.241   3.549   2.121
 1822SOL    HW1 6365   3.274   3.627   2.068
 1822SOL    HW2 6366   3.290   3.466   2.092
 1823SOL     OW 6367   4.032   0.095   2.109
 1823SOL    HW1 6368   3.982   0.150   2.176
 1823SOL    HW2 6369   3.993   0.003   2.106
 1824SOL     OW 6370   5.246   1.754   1.810
 1824SOL    HW1 6371   5.248   1.854   1.822
 1824SOL    HW2 6372   5.338   1.721   1.789
 1825SOL     OW 6373   0.840   6.885   1.817
 1825SOL    HW1 6374   0.881   6.899   1.727
 1825SOL    HW2 6375   0.819   6.788   1.830
 1826SOL     OW 6376   2.873   5.365   6.031
 1826SOL    HW1 6377   2.873   5.358   5.931
 1826SOL    HW2 6378   2.967   5.373   6.063
 1827SOL     OW 6379   5.582   0.352   0.512
 1827SOL    HW1 6380   5.666   0.375   0.463
 1827SOL    HW2 6381   5.585   0.390   0.604
 1828SOL     OW 6382   2.728   2.691   0.446
 1828SOL    HW1 6383   2.720   2.605   0.396
 1828SOL    HW2 6384   2.640   2.714   0.488
 1829SOL     OW 6385   5.582   5.212   2.274
 1829SOL    HW1 6386   5.681   5.218   2.258
 1829SOL    HW2 6387   5.562   5.245   2.367
 1830SOL     OW 6388   5.100   6.683   4.480
 1830SOL    HW1 6389   5.194   6.717   4.476
 1830SOL    HW2 6390   5.036   6.759   4.473
 1831SOL     OW 6391   5.147   1.350   3.227
 1831SOL    HW1 6392   5.129   1.422   3.161
 1831SOL    HW2 6393   5.236   1.365   3.270
 1832SOL     OW 6394   5.289   3.030   0.030
 1832SOL    HW1 6395   5.300   3.054   6.959
 1832SOL    HW2 6396   5.195   3.001   0.047
 1833SOL     OW 6397   5.692   1.963   6.084
 1833SOL    HW1 6398   5.744   2.023   6.145
 1833SOL    HW2 6399   5.723   1.869   6.096
 1834SOL     OW 6400   2.544   4.351   0.024
 1834SOL    HW1 6401   2.579   4.261   0.001
 1834SOL    HW2 6402   2.464   4.372   6.994
 1835SOL     OW 6403   1.793   5.087   0.225
 1835SOL    HW1 6404   1.854   5.051   0.296
 1835SOL    HW2 6405   1.843   5.152   0.168
 1836SOL     OW 6406   0.636   6.677   0.463
 1836SOL    HW1 6407   0.600   6.733   0.537
 1836SOL    HW2 6408   0.616   6.719   0.376
 1837SOL     OW 6409   0.444   2.904   4.479
 1837SOL    HW1 6410   0.397   2.819   4.507
 1837SOL    HW2 6411   0.469   2.897   4.383
 1838SOL     OW 6412   0.556   2.631   4.580
 1838SOL    HW1 6413   0.457   2.629   4.592
 1838SOL    HW2 6414   0.601   2.588   4.659
 1839SOL     OW 6415   1.180   1.357   6.821
 1839SOL    HW1 6416   1.181   1.258   6.813
 1839SOL    HW2 6417   1.107   1.385   6.884
 1840SOL     OW 6418   0.954   5.154   1.379
 1840SOL    HW1 6419   0.857   5.181   1.376
 1840SOL    HW2 6420   0.991   5.172   1.470
 1841SOL     OW 6421   1.979   2.837   3.737
 1841SOL    HW1 6422   2.070   2.823   3.775
 1841SOL    HW2 6423   1.910   2.805   3.802
 1842SOL     OW 6424   1.238   6.185   6.150
 1842SOL    HW1 6425   1.198   6.168   6.240
 1842SOL    HW2 6426   1.257   6.098   6.105
 1843SOL     OW 6427   4.476   2.020   5.365
 1843SOL    HW1 6428   4.418   2.098   5.345
 1843SOL    HW2 6429   4.553   2.049   5.422
 1844SOL     OW 6430   5.409   4.652   3.770
 1844SOL    HW1 6431   5.313   4.667   3.795
 1844SOL    HW2 6432   5.436   4.718   3.701
 1845SOL     OW 6433   5.000   6.397   0.897
 1845SOL    HW1 6434   4.975   6.384   0.993
 1845SOL    HW2 6435   5.064   6.473   0.889
 1846SOL     OW 6436   3.961   1.414   5.594
 1846SOL    HW1 6437   4.028   1.341   5.578
 1846SOL    HW2 6438   3.955   1.432   5.693
 1847SOL     OW 6439   1.474   6.054   6.293
 1847SOL    HW1 6440   1.550   6.060   6.357
 1847SOL    HW2 6441   1.446   6.146   6.265
 1848SOL     OW 6442   1.850   1.104   3.912
 1848SOL    HW1 6443   1.831   1.010   3.883
 1848SOL    HW2 6444   1.944   1.109   3.947
 1849SOL     OW 6445   2.203   0.712   6.261
 1849SOL    HW1 6446   2.192   0.805   6.296
 1849SOL    HW2 6447   2.126   0.655   6.293
 1850SOL     OW 6448   5.647   1.971   1.778
 1850SOL    HW1 6449   5.676   2.059   1.743
 1850SOL    HW2 6450   5.634   1.907   1.702
 1851SOL     OW 6451   6.638   4.380   2.493
 1851SOL    HW1 6452   6.691   4.425   2.421
 1851SOL    HW2 6453   6.540   4.387   2.472
 1852SOL     OW 6454   5.405   1.411   5.536
 1852SOL    HW1 6455   5.440   1.489   5.588
 1852SOL    HW2 6456   5.380   1.441   5.444
 1853SOL     OW 6457   1.119   4.957   0.674
 1853SOL    HW1 6458   1.103   4.871   0.721
 1853SOL    HW2 6459   1.098   5.033   0.736
 1854SOL     OW 6460   2.598   4.943   4.121
 1854SOL    HW1 6461   2.558   4.859   4.086
 1854SOL    HW2 6462   2.659   4.922   4.197
 1855SOL     OW 6463   6.248   4.776   1.414
 1855SOL    HW1 6464   6.269   4.859   1.363
 1855SOL    HW2 6465   6.328   4.716   1.416
 1856SOL     OW 6466   5.547   2.940   0.177
 1856SOL    HW1 6467   5.574   2.939   0.081
 1856SOL    HW2 6468   5.448   2.955   0.183
 1857SOL     OW 6469   5.625   1.386   3.098
 1857SOL    HW1 6470   5.681   1.367   3.017
 1857SOL    HW2 6471   5.664   1.464   3.148
 1858SOL     OW 6472   5.203   4.551   2.461
 1858SOL    HW1 6473   5.241   4.460   2.474
 1858SOL    HW2 6474   5.255   4.617   2.517
 1859SOL     OW 6475   5.948   1.915   3.455
 1859SOL    HW1 6476   5.951   1.986   3.526
 1859SOL    HW2 6477   6.039   1.904   3.415
 1860SOL     OW 6478   4.044   2.073   4.837
 1860SOL    HW1 6479   4.061   2.139   4.910
 1860SOL    HW2 6480   4.131   2.036   4.804
 1861SOL     OW 6481   5.086   6.158   2.442
 1861SOL    HW1 6482   5.127   6.165   2.351
 1861SOL    HW2 6483   5.150   6.195   2.510
 1862SOL     OW 6484   2.645   2.113   0.601
 1862SOL    HW1 6485   2.593   2.114   0.516
 1862SOL    HW2 6486   2.593   2.064   0.671
 1863SOL     OW 6487   1.991   1.610   1.293
 1863SOL    HW1 6488   1.899   1.587   1.324
 1863SOL    HW2 6489   1.988   1.696   1.241
 1864SOL     OW 6490   0.560   6.583   3.299
 1864SOL    HW1 6491   0.505   6.632   3.366
 1864SOL    HW2 6492   0.512   6.583   3.211
 1865SOL     OW 6493   5.283   3.407   6.420
 1865SOL    HW1 6494   5.323   3.497   6.403
 1865SOL    HW2 6495   5.186   3.409   6.396
 1866SOL     OW 6496   5.674   5.399   1.647
 1866SOL    HW1 6497   5.744   5.385   1.717
 1866SOL    HW2 6498   5.714   5.443   1.567
 1867SOL     OW 6499   1.229   4.409   6.338
 1867SOL    HW1 6500   1.178   4.371   6.261
 1867SOL    HW2 6501   1.170   4.468   6.393
 1868SOL     OW 6502   7.015   4.258   5.449
 1868SOL    HW1 6503   6.944   4.238   5.381
 1868SOL    HW2 6504   0.051   4.179   5.456
 1869SOL     OW 6505   5.653   1.249   4.475
 1869SOL    HW1 6506   5.659   1.177   4.405
 1869SOL    HW2 6507   5.696   1.217   4.559
 1870SOL     OW 6508   2.120   3.984   4.776
 1870SOL    HW1 6509   2.203   3.974   4.831
 1870SOL    HW2 6510   2.124   3.920   4.699
 1871SOL     OW 6511   1.868   0.524   1.006
 1871SOL    HW1 6512   1.920   0.595   0.958
 1871SOL    HW2 6513   1.812   0.474   0.940
 1872SOL     OW 6514   1.635   5.789   6.461
 1872SOL    HW1 6515   1.584   5.758   6.542
 1872SOL    HW2 6516   1.682   5.874   6.483
 1873SOL     OW 6517   5.276   6.663   6.547
 1873SOL    HW1 6518   5.216   6.585   6.564
 1873SOL    HW2 6519   5.301   6.705   6.634
 1874SOL     OW 6520   0.549   3.678   2.598
 1874SOL    HW1 6521   0.505   3.634   2.520
 1874SOL    HW2 6522   0.508   3.768   2.613
 1875SOL     OW 6523   0.409   6.917   2.238
 1875SOL    HW1 6524   0.474   6.993   2.232
 1875SOL    HW2 6525   0.336   6.930   2.172
 1876SOL     OW 6526   1.954   6.215   4.298
 1876SOL    HW1 6527   2.040   6.206   4.349
 1876SOL    HW2 6528   1.951   6.147   4.225
 1877SOL     OW 6529   0.418   0.070   3.956
 1877SOL    HW1 6530   0.437   0.070   4.054
 1877SOL    HW2 6531   0.320   0.059   3.941
 1878SOL     OW 6532   6.386   2.799   6.183
 1878SOL    HW1 6533   6.410   2.852   6.264
 1878SOL    HW2 6534   6.349   2.710   6.211
 1879SOL     OW 6535   2.069   5.150   6.047
 1879SOL    HW1 6536   1.985   5.100   6.027
 1879SOL    HW2 6537   2.147   5.087   6.041
 1880SOL     OW 6538   6.718   0.466   4.323
 1880SOL    HW1 6539   6.710   0.393   4.390
 1880SOL    HW2 6540   6.651   0.452   4.250
 1881SOL     OW 6541   0.209   2.224   6.856
 1881SOL    HW1 6542   0.182   2.287   6.784
 1881SOL    HW2 6543   0.227   2.134   6.816
 1882SOL     OW 6544   0.950   6.648   0.469
 1882SOL    HW1 6545   0.978   6.562   0.427
 1882SOL    HW2 6546   0.851   6.659   0.461
 1883SOL     OW 6547   0.351   1.814   3.900
 1883SOL    HW1 6548   0.370   1.842   3.994
 1883SOL    HW2 6549   0.252   1.818   3.883
 1884SOL     OW 6550   5.746   2.439   1.513
 1884SOL    HW1 6551   5.763   2.366   1.448
 1884SOL    HW2 6552   5.740   2.527   1.465
 1885SOL     OW 6553   3.250   1.409   4.780
 1885SOL    HW1 6554   3.296   1.496   4.767
 1885SOL    HW2 6555   3.187   1.416   4.858
 1886SOL     OW 6556   0.491   6.089   3.433
 1886SOL    HW1 6557   0.546   6.170   3.416
 1886SOL    HW2 6558   0.505   6.023   3.359
 1887SOL     OW 6559   2.516   5.377   6.406
 1887SOL    HW1 6560   2.471   5.455   6.362
 1887SOL    HW2 6561   2.602   5.358   6.359
 1888SOL     OW 6562   1.907   0.193   3.052
 1888SOL    HW1 6563   1.917   0.207   3.151
 1888SOL    HW2 6564   1.997   0.186   3.010
 1889SOL     OW 6565   0.090   3.592   2.635
 1889SOL    HW1 6566   0.109   3.494   2.639
 1889SOL    HW2 6567   7.016   3.607   2.628
 1890SOL     OW 6568   1.418   6.037   4.920
 1890SOL    HW1 6569   1.482   6.059   4.847
 1890SOL    HW2 6570   1.325   6.029   4.883
 1891SOL     OW 6571   4.079   3.286   3.362
 1891SOL    HW1 6572   3.986   3.250   3.351
 1891SOL    HW2 6573   4.080   3.352   3.437
 1892SOL     OW 6574   0.186   0.313   2.890
 1892SOL    HW1 6575   0.268   0.268   2.924
 1892SOL    HW2 6576   0.165   0.392   2.947
 1893SOL     OW 6577   3.977   3.087   4.206
 1893SOL    HW1 6578   3.885   3.058   4.180
 1893SOL    HW2 6579   4.001   3.045   4.294
 1894SOL     OW 6580   3.340   2.979   4.316
 1894SOL    HW1 6581   3.379   3.066   4.346
 1894SOL    HW2 6582   3.306   2.988   4.222
 1895SOL     OW 6583   0.969   6.319   1.251
 1895SOL    HW1 6584   0.927   6.269   1.327
 1895SOL    HW2 6585   0.986   6.256   1.175
 1896SOL     OW 6586   5.844   3.060   1.376
 1896SOL    HW1 6587   5.768   2.999   1.354
 1896SOL    HW2 6588   5.904   3.015   1.444
 1897SOL     OW 6589   1.845   4.381   3.441
 1897SOL    HW1 6590   1.845   4.287   3.406
 1897SOL    HW2 6591   1.752   4.417   3.441
 1898SOL     OW 6592   1.654   6.100   2.369
 1898SOL    HW1 6593   1.698   6.189   2.357
 1898SOL    HW2 6594   1.724   6.028   2.368
 1899SOL     OW 6595   0.071   0.880   2.087
 1899SOL    HW1 6596   0.028   0.957   2.134
 1899SOL    HW2 6597   0.032   0.870   1.996
 1900SOL     OW 6598   2.872   6.338   6.444
 1900SOL    HW1 6599   2.929   6.271   6.491
 1900SOL    HW2 6600   2.779   6.302   6.433
 1901SOL     OW 6601   3.593   2.890   2.843
 1901SOL    HW1 6602   3.526   2.895   2.917
 1901SOL    HW2 6603   3.557   2.835   2.768
 1902SOL     OW 6604   1.346   6.855   5.364
 1902SOL    HW1 6605   1.267   6.874   5.422
 1902SOL    HW2 6606   1.363   6.757   5.360
 1903SOL     OW 6607   1.234   1.573   4.141
 1903SOL    HW1 6608   1.204   1.515   4.217
 1903SOL    HW2 6609   1.181   1.658   4.141
 1904SOL     OW 6610   5.905   5.849   1.697
 1904SOL    HW1 6611   5.814   5.815   1.722
 1904SOL    HW2 6612   5.965   5.844   1.777
 1905SOL     OW 6613   0.428   3.042   4.005
 1905SOL    HW1 6614   0.330   3.055   3.994
 1905SOL    HW2 6615   0.473   3.132   4.014
 1906SOL     OW 6616   0.514   6.039   3.929
 1906SOL    HW1 6617   0.485   6.132   3.911
 1906SOL    HW2 6618   0.523   5.989   3.842
 1907SOL     OW 6619   5.974   3.188   0.950
 1907SOL    HW1 6620   6.000   3.111   1.008
 1907SOL    HW2 6621   6.006   3.171   0.856
 1908SOL     OW 6622   3.862   0.650   1.742
 1908SOL    HW1 6623   3.803   0.687   1.814
 1908SOL    HW2 6624   3.948   0.699   1.740
 1909SOL     OW 6625   6.138   5.577   5.223
 1909SOL    HW1 6626   6.052   5.578   5.274
 1909SOL    HW2 6627   6.212   5.609   5.283
 1910SOL     OW 6628   0.184   6.391   5.368
 1910SOL    HW1 6629   0.250   6.343   5.310
 1910SOL    HW2 6630   0.233   6.449   5.433
 1911SOL     OW 6631   5.664   6.324   4.009
 1911SOL    HW1 6632   5.713   6.270   4.077
 1911SOL    HW2 6633   5.638   6.265   3.932
 1912SOL     OW 6634   3.295   4.896   2.054
 1912SOL    HW1 6635   3.213   4.860   2.008
 1912SOL    HW2 6636   3.375   4.877   1.998
 1913SOL     OW 6637   3.304   4.218   6.479
 1913SOL    HW1 6638   3.380   4.206   6.543
 1913SOL    HW2 6639   3.332   4.278   6.404
 1914SOL     OW 6640   4.055   4.102   0.414
 1914SOL    HW1 6641   3.970   4.060   0.382
 1914SOL    HW2 6642   4.073   4.075   0.508
 1915SOL     OW 6643   3.973   2.318   0.034
 1915SOL    HW1 6644   3.956   2.246   0.101
 1915SOL    HW2 6645   3.948   2.285   6.968
 1916SOL     OW 6646   4.044   1.055   2.613
 1916SOL    HW1 6647   4.069   1.095   2.524
 1916SOL    HW2 6648   4.056   1.123   2.685
 1917SOL     OW 6649   2.344   3.703   1.535
 1917SOL    HW1 6650   2.361   3.770   1.607
 1917SOL    HW2 6651   2.400   3.621   1.551
 1918SOL     OW 6652   5.235   2.899   4.019
 1918SOL    HW1 6653   5.255   2.877   3.923
 1918SOL    HW2 6654   5.166   2.971   4.023
 1919SOL     OW 6655   6.421   1.602   6.365
 1919SOL    HW1 6656   6.437   1.504   6.358
 1919SOL    HW2 6657   6.479   1.640   6.437
 1920SOL     OW 6658   4.578   3.829   0.489
 1920SOL    HW1 6659   4.620   3.843   0.579
 1920SOL    HW2 6660   4.647   3.795   0.425
 1921SOL     OW 6661   2.980   2.350   6.791
 1921SOL    HW1 6662   3.076   2.372   6.804
 1921SOL    HW2 6663   2.958   2.266   6.840
 1922SOL     OW 6664   3.553   3.707   4.601
 1922SOL    HW1 6665   3.511   3.743   4.684
 1922SOL    HW2 6666   3.641   3.666   4.623
 1923SOL     OW 6667   3.260   0.836   3.841
 1923SOL    HW1 6668   3.338   0.805   3.788
 1923SOL    HW2 6669   3.248   0.935   3.829
 1924SOL     OW 6670   5.432   0.793   0.898
 1924SOL    HW1 6671   5.347   0.745   0.916
 1924SOL    HW2 6672   5.451   0.793   0.799
 1925SOL     OW 6673   1.236   4.478   1.082
 1925SOL    HW1 6674   1.225   4.576   1.065
 1925SOL    HW2 6675   1.160   4.428   1.039
 1926SOL     OW 6676   2.999   6.705   1.700
 1926SOL    HW1 6677   2.941   6.776   1.741
 1926SOL    HW2 6678   3.029   6.735   1.609
 1927SOL     OW 6679   2.009   5.185   0.749
 1927SOL    HW1 6680   1.930   5.124   0.750
 1927SOL    HW2 6681   2.033   5.208   0.843
 1928SOL     OW 6682   0.379   4.339   2.627
 1928SOL    HW1 6683   0.294   4.381   2.659
 1928SOL    HW2 6684   0.427   4.297   2.705
 1929SOL     OW 6685   3.727   0.621   3.378
 1929SOL    HW1 6686   3.788   0.696   3.352
 1929SOL    HW2 6687   3.725   0.553   3.304
 1930SOL     OW 6688   3.986   3.692   0.354
 1930SOL    HW1 6689   3.988   3.711   0.452
 1930SOL    HW2 6690   3.899   3.647   0.331
 1931SOL     OW 6691   6.525   3.699   3.515
 1931SOL    HW1 6692   6.461   3.630   3.548
 1931SOL    HW2 6693   6.528   3.698   3.415
 1932SOL     OW 6694   4.765   0.671   1.962
 1932SOL    HW1 6695   4.857   0.672   2.000
 1932SOL    HW2 6696   4.769   0.647   1.865
 1933SOL     OW 6697   1.803   1.316   1.143
 1933SOL    HW1 6698   1.744   1.339   1.066
 1933SOL    HW2 6699   1.896   1.348   1.126
 1934SOL     OW 6700   6.326   0.727   6.872
 1934SOL    HW1 6701   6.364   0.793   6.937
 1934SOL    HW2 6702   6.331   0.635   6.912
 1935SOL     OW 6703   6.193   5.092   3.758
 1935SOL    HW1 6704   6.094   5.100   3.766
 1935SOL    HW2 6705   6.229   5.041   3.836
 1936SOL     OW 6706   5.573   3.366   6.475
 1936SOL    HW1 6707   5.485   3.331   6.441
 1936SOL    HW2 6708   5.605   3.439   6.415
 1937SOL     OW 6709   0.803   4.857   6.660
 1937SOL    HW1 6710   0.864   4.799   6.714
 1937SOL    HW2 6711   0.741   4.907   6.720
 1938SOL     OW 6712   6.522   1.977   6.484
 1938SOL    HW1 6713   6.492   2.008   6.574
 1938SOL    HW2 6714   6.449   1.924   6.440
 1939SOL     OW 6715   0.039   0.376   4.233
 1939SOL    HW1 6716   6.981   0.414   4.275
 1939SOL    HW2 6717   0.100   0.451   4.206
 1940SOL     OW 6718   1.120   5.408   1.604
 1940SOL    HW1 6719   1.087   5.333   1.660
 1940SOL    HW2 6720   1.208   5.440   1.638
 1941SOL     OW 6721   5.958   0.505   4.284
 1941SOL    HW1 6722   6.018   0.476   4.359
 1941SOL    HW2 6723   5.867   0.526   4.320
 1942SOL     OW 6724   0.644   5.649   1.961
 1942SOL    HW1 6725   0.717   5.605   2.013
 1942SOL    HW2 6726   0.596   5.715   2.020
 1943SOL     OW 6727   1.137   3.388   4.115
 1943SOL    HW1 6728   1.061   3.450   4.133
 1943SOL    HW2 6729   1.198   3.385   4.194
 1944SOL     OW 6730   0.153   3.704   3.968
 1944SOL    HW1 6731   0.121   3.776   4.029
 1944SOL    HW2 6732   0.077   3.643   3.946
 1945SOL     OW 6733   5.138   1.773   2.177
 1945SOL    HW1 6734   5.215   1.774   2.241
 1945SOL    HW2 6735   5.150   1.699   2.111
 1946SOL     OW 6736   5.951   5.344   6.920
 1946SOL    HW1 6737   5.909   5.348   6.830
 1946SOL    HW2 6738   5.922   5.260   6.967
 1947SOL     OW 6739   5.705   5.752   2.580
 1947SOL    HW1 6740   5.686   5.838   2.626
 1947SOL    HW2 6741   5.655   5.678   2.625
 1948SOL     OW 6742   5.442   3.602   3.536
 1948SOL    HW1 6743   5.380   3.600   3.458
 1948SOL    HW2 6744   5.398   3.558   3.615
 1949SOL     OW 6745   3.530   4.169   6.634
 1949SOL    HW1 6746   3.447   4.136   6.679
 1949SOL    HW2 6747   3.605   4.106   6.653
 1950SOL     OW 6748   3.626   3.926   3.577
 1950SOL    HW1 6749   3.549   3.989   3.590
 1950SOL    HW2 6750   3.594   3.832   3.586
 1951SOL     OW 6751   0.330   5.426   6.290
 1951SOL    HW1 6752   0.242   5.466   6.315
 1951SOL    HW2 6753   0.396   5.499   6.273
 1952SOL     OW 6754   5.887   4.233   0.121
 1952SOL    HW1 6755   5.970   4.278   0.153
 1952SOL    HW2 6756   5.897   4.209   0.025
 1953SOL     OW 6757   0.359   0.937   6.846
 1953SOL    HW1 6758   0.270   0.963   6.882
 1953SOL    HW2 6759   0.366   0.962   6.750
 1954SOL     OW 6760   3.725   6.640   2.722
 1954SOL    HW1 6761   3.662   6.674   2.792
 1954SOL    HW2 6762   3.677   6.629   2.636
 1955SOL     OW 6763   6.724   3.194   4.169
 1955SOL    HW1 6764   6.683   3.154   4.251
 1955SOL    HW2 6765   6.756   3.121   4.109
 1956SOL     OW 6766   4.613   1.854   1.526
 1956SOL    HW1 6767   4.603   1.785   1.598
 1956SOL    HW2 6768   4.704   1.896   1.532
 1957SOL     OW 6769   6.739   2.780   4.640
 1957SOL    HW1 6770   6.768   2.733   4.723
 1957SOL    HW2 6771   6.690   2.864   4.664
 1958SOL     OW 6772   4.966   2.428   0.054
 1958SOL    HW1 6773   5.017   2.449   0.136
 1958SOL    HW2 6774   4.878   2.476   0.056
 1959SOL     OW 6775   1.578   1.529   6.325
 1959SOL    HW1 6776   1.627   1.579   6.254
 1959SOL    HW2 6777   1.597   1.431   6.317
 1960SOL     OW 6778   4.891   4.754   2.075
 1960SOL    HW1 6779   4.968   4.747   2.012
 1960SOL    HW2 6780   4.857   4.663   2.097
 1961SOL     OW 6781   0.585   4.037   4.304
 1961SOL    HW1 6782   0.680   4.066   4.308
 1961SOL    HW2 6783   0.545   4.066   4.216
 1962SOL     OW 6784   0.514   0.136   2.295
 1962SOL    HW1 6785   0.465   0.198   2.357
 1962SOL    HW2 6786   0.529   0.182   2.207
 1963SOL     OW 6787   0.966   1.424   6.979
 1963SOL    HW1 6788   0.910   1.477   6.916
 1963SOL    HW2 6789   0.911   1.397   0.033
 1964SOL     OW 6790   5.297   3.454   0.221
 1964SOL    HW1 6791   5.253   3.377   0.176
 1964SOL    HW2 6792   5.233   3.496   0.285
 1965SOL     OW 6793   5.547   4.634   4.974
 1965SOL    HW1 6794   5.495   4.637   5.059
 1965SOL    HW2 6795   5.543   4.542   4.935
 1966SOL     OW 6796   1.457   5.101   6.391
 1966SOL    HW1 6797   1.442   5.004   6.409
 1966SOL    HW2 6798   1.403   5.156   6.455
 1967SOL     OW 6799   6.671   2.350   4.623
 1967SOL    HW1 6800   6.756   2.401   4.613
 1967SOL    HW2 6801   6.608   2.374   4.549
 1968SOL     OW 6802   2.885   1.347   5.914
 1968SOL    HW1 6803   2.802   1.291   5.918
 1968SOL    HW2 6804   2.873   1.419   5.845
 1969SOL     OW 6805   6.975   6.519   1.776
 1969SOL    HW1 6806   0.006   6.591   1.736
 1969SOL    HW2 6807   6.950   6.543   1.870
 1970SOL     OW 6808   5.051   4.299   2.920
 1970SOL    HW1 6809   4.951   4.295   2.930
 1970SOL    HW2 6810   5.090   4.210   2.941
 1971SOL     OW 6811   1.593   5.457   4.517
 1971SOL    HW1 6812   1.545   5.510   4.586
 1971SOL    HW2 6813   1.586   5.359   4.539
 1972SOL     OW 6814   5.308   2.046   3.006
 1972SOL    HW1 6815   5.290   1.959   3.052
 1972SOL    HW2 6816   5.359   2.029   2.922
 1973SOL     OW 6817   4.642   2.340   0.328
 1973SOL    HW1 6818   4.582   2.364   0.404
 1973SOL    HW2 6819   4.700   2.263   0.354
 1974SOL     OW 6820   2.169   6.124   4.463
 1974SOL    HW1 6821   2.107   6.048   4.482
 1974SOL    HW2 6822   2.240   6.127   4.533
 1975SOL     OW 6823   2.285   2.366   2.481
 1975SOL    HW1 6824   2.318   2.460   2.488
 1975SOL    HW2 6825   2.362   2.304   2.466
 1976SOL     OW 6826   2.406   0.862   4.764
 1976SOL    HW1 6827   2.471   0.848   4.689
 1976SOL    HW2 6828   2.326   0.912   4.730
 1977SOL     OW 6829   1.229   4.606   0.101
 1977SOL    HW1 6830   1.271   4.662   0.172
 1977SOL    HW2 6831   1.169   4.664   0.045
 1978SOL     OW 6832   2.670   0.639   2.613
 1978SOL    HW1 6833   2.694   0.548   2.645
 1978SOL    HW2 6834   2.726   0.707   2.661
 1979SOL     OW 6835   5.492   3.743   7.019
 1979SOL    HW1 6836   5.558   3.724   0.066
 1979SOL    HW2 6837   5.401   3.718   0.025
 1980SOL     OW 6838   4.318   0.327   1.802
 1980SOL    HW1 6839   4.349   0.413   1.844
 1980SOL    HW2 6840   4.350   0.323   1.708
 1981SOL     OW 6841   4.388   2.559   1.754
 1981SOL    HW1 6842   4.291   2.543   1.736
 1981SOL    HW2 6843   4.407   2.657   1.748
 1982SOL     OW 6844   2.062   2.502   6.875
 1982SOL    HW1 6845   2.139   2.545   6.923
 1982SOL    HW2 6846   2.095   2.462   6.790
 1983SOL     OW 6847   6.881   2.323   1.425
 1983SOL    HW1 6848   6.904   2.230   1.396
 1983SOL    HW2 6849   6.803   2.321   1.488
 1984SOL     OW 6850   4.748   3.264   5.897
 1984SOL    HW1 6851   4.664   3.210   5.891
 1984SOL    HW2 6852   4.751   3.331   5.823
 1985SOL     OW 6853   5.584   5.292   4.630
 1985SOL    HW1 6854   5.491   5.295   4.594
 1985SOL    HW2 6855   5.582   5.265   4.726
 1986SOL     OW 6856   3.026   3.166   2.895
 1986SOL    HW1 6857   2.994   3.261   2.884
 1986SOL    HW2 6858   3.029   3.122   2.805
 1987SOL     OW 6859   1.917   1.483   2.147
 1987SOL    HW1 6860   1.996   1.430   2.115
 1987SOL    HW2 6861   1.898   1.557   2.083
 1988SOL     OW 6862   1.018   1.713   2.979
 1988SOL    HW1 6863   0.920   1.729   2.991
 1988SOL    HW2 6864   1.069   1.792   3.014
 1989SOL     OW 6865   3.345   5.567   3.599
 1989SOL    HW1 6866   3.380   5.573   3.506
 1989SOL    HW2 6867   3.390   5.492   3.647
 1990SOL     OW 6868   4.247   6.784   0.531
 1990SOL    HW1 6869   4.328   6.831   0.567
 1990SOL    HW2 6870   4.208   6.725   0.602
 1991SOL     OW 6871   2.829   5.314   2.221
 1991SOL    HW1 6872   2.888   5.382   2.263
 1991SOL    HW2 6873   2.885   5.245   2.175
 1992SOL     OW 6874   1.197   7.023   3.678
 1992SOL    HW1 6875   1.254   0.076   3.703
 1992SOL    HW2 6876   1.254   6.950   3.642
 1993SOL     OW 6877   1.627   1.055   2.039
 1993SOL    HW1 6878   1.696   1.003   1.989
 1993SOL    HW2 6879   1.577   1.113   1.975
 1994SOL     OW 6880   2.904   3.175   1.915
 1994SOL    HW1 6881   2.925   3.097   1.856
 1994SOL    HW2 6882   2.805   3.190   1.916
 1995SOL     OW 6883   6.113   0.668   4.009
 1995SOL    HW1 6884   6.093   0.758   3.969
 1995SOL    HW2 6885   6.069   0.662   4.099
 1996SOL     OW 6886   5.089   0.394   1.342
 1996SOL    HW1 6887   5.030   0.397   1.261
 1996SOL    HW2 6888   5.034   0.366   1.421
 1997SOL     OW 6889   3.166   1.709   2.906
 1997SOL    HW1 6890   3.255   1.743   2.937
 1997SOL    HW2 6891   3.119   1.666   2.983
 1998SOL     OW 6892   2.314   3.304   1.241
 1998SOL    HW1 6893   2.397   3.260   1.206
 1998SOL    HW2 6894   2.325   3.324   1.338
 1999SOL     OW 6895   0.954   6.998   5.718
 1999SOL    HW1 6896   0.973   6.995   5.620
 1999SOL    HW2 6897   1.021   6.941   5.766
 2000SOL     OW 6898   4.657   4.166   6.620
 2000SOL    HW1 6899   4.643   4.068   6.638
 2000SOL    HW2 6900   4.755   4.183   6.606
 2001SOL     OW 6901   1.310   1.839   0.695
 2001SOL    HW1 6902   1.354   1.912   0.749
 2001SOL    HW2 6903   1.211   1.842   0.709
 2002SOL     OW 6904   6.354   4.840   6.832
 2002SOL    HW1 6905   6.384   4.915   6.891
 2002SOL    HW2 6906   6.387   4.754   6.870
 2003SOL     OW 6907   6.540   5.828   0.997
 2003SOL    HW1 6908   6.583   5.869   0.916
 2003SOL    HW2 6909   6.609   5.814   1.068
 2004SOL     OW 6910   3.585   0.454   2.547
 2004SOL    HW1 6911   3.514   0.412   2.604
 2004SOL    HW2 6912   3.541   0.517   2.482
 2005SOL     OW 6913   1.877   6.157   0.057
 2005SOL    HW1 6914   1.850   6.198   0.144
 2005SOL    HW2 6915   1.794   6.136   0.004
 2006SOL     OW 6916   6.026   0.010   1.878
 2006SOL    HW1 6917   6.071   6.990   1.954
 2006SOL    HW2 6918   5.994   6.967   1.812
 2007SOL     OW 6919   5.761   5.364   5.495
 2007SOL    HW1 6920   5.757   5.426   5.573
 2007SOL    HW2 6921   5.739   5.271   5.525
 2008SOL     OW 6922   1.723   3.073   2.711
 2008SOL    HW1 6923   1.733   3.031   2.621
 2008SOL    HW2 6924   1.649   3.029   2.760
 2009SOL     OW 6925   6.001   0.438   3.575
 2009SOL    HW1 6926   6.002   0.445   3.675
 2009SOL    HW2 6927   6.042   0.351   3.547
 2010SOL     OW 6928   0.018   1.177   1.642
 2010SOL    HW1 6929   0.047   1.161   1.548
 2010SOL    HW2 6930   0.060   1.261   1.676
 2011SOL     OW 6931   1.071   0.502   5.107
 2011SOL    HW1 6932   1.101   0.409   5.129
 2011SOL    HW2 6933   1.018   0.501   5.022
 2012SOL     OW 6934   6.952   2.089   0.378
 2012SOL    HW1 6935   6.912   2.042   0.457
 2012SOL    HW2 6936   6.880   2.119   0.316
 2013SOL     OW 6937   0.685   2.666   2.042
 2013SOL    HW1 6938   0.743   2.594   2.080
 2013SOL    HW2 6939   0.735   2.752   2.039
 2014SOL     OW 6940   3.871   1.873   3.657
 2014SOL    HW1 6941   3.948   1.837   3.709
 2014SOL    HW2 6942   3.840   1.959   3.698
 2015SOL     OW 6943   3.851   6.205   1.629
 2015SOL    HW1 6944   3.846   6.302   1.605
 2015SOL    HW2 6945   3.925   6.162   1.576
 2016SOL     OW 6946   2.165   0.974   4.707
 2016SOL    HW1 6947   2.127   0.992   4.798
 2016SOL    HW2 6948   2.097   0.926   4.651
 2017SOL     OW 6949   1.747   6.943   4.583
 2017SOL    HW1 6950   1.674   6.964   4.519
 2017SOL    HW2 6951   1.788   0.004   4.616
 2018SOL     OW 6952   0.288   1.023   4.673
 2018SOL    HW1 6953   0.320   0.941   4.626
 2018SOL    HW2 6954   0.363   1.089   4.679
 2019SOL     OW 6955   0.636   5.007   6.824
 2019SOL    HW1 6956   0.560   4.950   6.855
 2019SOL    HW2 6957   0.600   5.093   6.788
 2020SOL     OW 6958   1.760   6.963   1.557
 2020SOL    HW1 6959   1.723   6.948   1.465
 2020SOL    HW2 6960   1.848   6.916   1.564
 2021SOL     OW 6961   0.299   5.305   3.480
 2021SOL    HW1 6962   0.256   5.230   3.529
 2021SOL    HW2 6963   0.398   5.290   3.475
 2022SOL     OW 6964   2.184   2.808   3.933
 2022SOL    HW1 6965   2.127   2.729   3.956
 2022SOL    HW2 6966   2.204   2.859   4.017
 2023SOL     OW 6967   0.581   5.762   6.634
 2023SOL    HW1 6968   0.651   5.796   6.696
 2023SOL    HW2 6969   0.621   5.694   6.572
 2024SOL     OW 6970   6.424   6.047   3.562
 2024SOL    HW1 6971   6.333   6.040   3.602
 2024SOL    HW2 6972   6.488   5.991   3.615
 2025SOL     OW 6973   1.978   0.462   4.537
 2025SOL    HW1 6974   1.971   0.365   4.513
 2025SOL    HW2 6975   2.043   0.507   4.476
 2026SOL     OW 6976   1.720   6.886   5.607
 2026SOL    HW1 6977   1.654   6.955   5.577
 2026SOL    HW2 6978   1.812   6.924   5.601
 2027SOL     OW 6979   6.265   6.786   2.836
 2027SOL    HW1 6980   6.202   6.717   2.798
 2027SOL    HW2 6981   6.277   6.770   2.934
 2028SOL     OW 6982   1.789   6.122   4.814
 2028SOL    HW1 6983   1.825   6.148   4.904
 2028SOL    HW2 6984   1.771   6.023   4.814
 2029SOL     OW 6985   6.778   2.164   0.164
 2029SOL    HW1 6986   6.823   2.168   0.075
 2029SOL    HW2 6987   6.679   2.166   0.150
 2030SOL     OW 6988   1.483   6.132   2.774
 2030SOL    HW1 6989   1.447   6.173   2.858
 2030SOL    HW2 6990   1.532   6.048   2.797
 2031SOL     OW 6991   6.840   0.298   5.049
 2031SOL    HW1 6992   6.743   0.278   5.064
 2031SOL    HW2 6993   6.851   0.397   5.035
 2032SOL     OW 6994   2.750   2.997   6.321
 2032SOL    HW1 6995   2.671   2.953   6.279
 2032SOL    HW2 6996   2.809   2.927   6.362
 2033SOL     OW 6997   2.794   6.965   1.496
 2033SOL    HW1 6998   2.804   6.920   1.585
 2033SOL    HW2 6999   2.747   0.028   1.508
 2034SOL     OW 7000   0.830   3.582   4.646
 2034SOL    HW1 7001   0.772   3.521   4.699
 2034SOL    HW2 7002   0.908   3.531   4.610
 2035SOL     OW 7003   5.001   5.900   3.192
 2035SOL    HW1 7004   5.018   5.991   3.154
 2035SOL    HW2 7005   4.923   5.904   3.254
 2036SOL     OW 7006   0.119   3.188   6.026
 2036SOL    HW1 7007   0.212   3.152   6.026
 2036SOL    HW2 7008   0.115   3.272   6.080
 2037SOL     OW 7009   1.259   2.539   0.040
 2037SOL    HW1 7010   1.221   2.631   0.047
 2037SOL    HW2 7011   1.292   2.523   6.972
 2038SOL     OW 7012   1.787   0.813   5.863
 2038SOL    HW1 7013   1.711   0.826   5.799
 2038SOL    HW2 7014   1.864   0.870   5.834
 2039SOL     OW 7015   5.270   5.953   4.090
 2039SOL    HW1 7016   5.321   5.938   4.175
 2039SOL    HW2 7017   5.294   5.881   4.024
 2040SOL     OW 7018   2.852   1.491   0.876
 2040SOL    HW1 7019   2.831   1.582   0.841
 2040SOL    HW2 7020   2.772   1.454   0.923
 2041SOL     OW 7021   3.074   0.114   0.148
 2041SOL    HW1 7022   3.000   0.086   0.086
 2041SOL    HW2 7023   3.054   0.205   0.184
 2042SOL     OW 7024   6.981   0.095   4.941
 2042SOL    HW1 7025   7.015   0.047   5.022
 2042SOL    HW2 7026   6.915   0.165   4.969
 2043SOL     OW 7027   1.140   3.479   0.347
 2043SOL    HW1 7028   1.108   3.513   0.258
 2043SOL    HW2 7029   1.220   3.530   0.376
 2044SOL     OW 7030   4.061   0.525   2.445
 2044SOL    HW1 7031   4.036   0.615   2.481
 2044SOL    HW2 7032   4.148   0.496   2.484
 2045SOL     OW 7033   1.947   5.642   3.141
 2045SOL    HW1 7034   2.045   5.634   3.124
 2045SOL    HW2 7035   1.931   5.704   3.217
 2046SOL     OW 7036   0.599   2.320   5.997
 2046SOL    HW1 7037   0.668   2.360   6.056
 2046SOL    HW2 7038   0.510   2.322   6.043
 2047SOL     OW 7039   6.913   0.190   2.140
 2047SOL    HW1 7040   6.975   0.207   2.217
 2047SOL    HW2 7041   6.943   0.244   2.061
 2048SOL     OW 7042   1.746   1.202   3.679
 2048SOL    HW1 7043   1.712   1.126   3.624
 2048SOL    HW2 7044   1.758   1.172   3.774
 2049SOL     OW 7045   4.327   1.842   5.483
 2049SOL    HW1 7046   4.306   1.758   5.433
 2049SOL    HW2 7047   4.390   1.898   5.429
 2050SOL     OW 7048   0.417   1.079   2.278
 2050SOL    HW1 7049   0.496   1.092   2.217
 2050SOL    HW2 7050   0.413   0.984   2.307
 2051SOL     OW 7051   3.479   0.101   6.363
 2051SOL    HW1 7052   3.505   0.027   6.425
 2051SOL    HW2 7053   3.383   0.091   6.337
 2052SOL     OW 7054   0.423   4.484   0.666
 2052SOL    HW1 7055   0.416   4.530   0.755
 2052SOL    HW2 7056   0.334   4.446   0.642
 2053SOL     OW 7057   4.380   5.253   1.549
 2053SOL    HW1 7058   4.282   5.263   1.568
 2053SOL    HW2 7059   4.399   5.158   1.525
 2054SOL     OW 7060   2.908   3.763   3.446
 2054SOL    HW1 7061   2.837   3.697   3.474
 2054SOL    HW2 7062   2.918   3.833   3.517
 2055SOL     OW 7063   3.591   3.127   5.476
 2055SOL    HW1 7064   3.552   3.041   5.511
 2055SOL    HW2 7065   3.519   3.181   5.432
 2056SOL     OW 7066   2.655   5.432   2.384
 2056SOL    HW1 7067   2.696   5.355   2.334
 2056SOL    HW2 7068   2.704   5.517   2.360
 2057SOL     OW 7069   6.610   3.084   3.739
 2057SOL    HW1 7070   6.680   3.085   3.668
 2057SOL    HW2 7071   6.654   3.086   3.829
 2058SOL     OW 7072   5.733   0.346   3.441
 2058SOL    HW1 7073   5.679   0.421   3.479
 2058SOL    HW2 7074   5.831   0.364   3.455
 2059SOL     OW 7075   2.625   1.247   5.876
 2059SOL    HW1 7076   2.639   1.208   5.785
 2059SOL    HW2 7077   2.576   1.181   5.933
 2060SOL     OW 7078   1.337   2.308   6.395
 2060SOL    HW1 7079   1.352   2.226   6.451
 2060SOL    HW2 7080   1.425   2.343   6.363
 2061SOL     OW 7081   2.306   2.836   3.635
 2061SOL    HW1 7082   2.276   2.916   3.688
 2061SOL    HW2 7083   2.384   2.793   3.680
 2062SOL     OW 7084   4.975   5.427   3.814
 2062SOL    HW1 7085   4.899   5.374   3.851
 2062SOL    HW2 7086   4.951   5.524   3.813
 2063SOL     OW 7087   1.046   1.747   4.528
 2063SOL    HW1 7088   1.075   1.691   4.451
 2063SOL    HW2 7089   0.983   1.818   4.496
 2064SOL     OW 7090   0.577   3.696   4.550
 2064SOL    HW1 7091   0.496   3.644   4.579
 2064SOL    HW2 7092   0.660   3.646   4.576
 2065SOL     OW 7093   3.469   3.920   6.041
 2065SOL    HW1 7094   3.450   3.859   6.117
 2065SOL    HW2 7095   3.405   3.997   6.043
 2066SOL     OW 7096   2.299   2.244   4.405
 2066SOL    HW1 7097   2.231   2.314   4.428
 2066SOL    HW2 7098   2.279   2.161   4.457
 2067SOL     OW 7099   6.459   4.834   2.691
 2067SOL    HW1 7100   6.370   4.873   2.716
 2067SOL    HW2 7101   6.460   4.816   2.592
 2068SOL     OW 7102   3.244   6.899   4.408
 2068SOL    HW1 7103   3.343   6.901   4.394
 2068SOL    HW2 7104   3.198   6.895   4.320
 2069SOL     OW 7105   5.879   2.309   2.934
 2069SOL    HW1 7106   5.877   2.369   2.854
 2069SOL    HW2 7107   5.847   2.218   2.909
 2070SOL     OW 7108   0.174   5.259   1.663
 2070SOL    HW1 7109   0.231   5.231   1.740
 2070SOL    HW2 7110   0.081   5.225   1.677
 2071SOL     OW 7111   6.798   2.291   3.858
 2071SOL    HW1 7112   6.810   2.372   3.801
 2071SOL    HW2 7113   6.797   2.317   3.954
 2072SOL     OW 7114   5.123   3.107   5.839
 2072SOL    HW1 7115   5.064   3.028   5.857
 2072SOL    HW2 7116   5.204   3.077   5.789
 2073SOL     OW 7117   3.425   5.378   6.688
 2073SOL    HW1 7118   3.363   5.424   6.753
 2073SOL    HW2 7119   3.469   5.301   6.733
 2074SOL     OW 7120   3.571   4.587   5.518
 2074SOL    HW1 7121   3.548   4.499   5.560
 2074SOL    HW2 7122   3.509   4.604   5.441
 2075SOL     OW 7123   5.097   0.796   0.859
 2075SOL    HW1 7124   5.074   0.755   0.947
 2075SOL    HW2 7125   5.064   0.737   0.785
 2076SOL     OW 7126   6.969   0.170   3.892
 2076SOL    HW1 7127   0.017   0.237   3.879
 2076SOL    HW2 7128   6.915   0.195   3.972
 2077SOL     OW 7129   1.070   4.271   0.645
 2077SOL    HW1 7130   1.071   4.196   0.711
 2077SOL    HW2 7131   1.161   4.280   0.603
 2078SOL     OW 7132   0.714   2.460   0.135
 2078SOL    HW1 7133   0.653   2.537   0.118
 2078SOL    HW2 7134   0.664   2.374   0.125
 2079SOL     OW 7135   5.275   2.307   3.647
 2079SOL    HW1 7136   5.239   2.374   3.712
 2079SOL    HW2 7137   5.290   2.352   3.559
 2080SOL     OW 7138   2.237   2.886   5.282
 2080SOL    HW1 7139   2.258   2.926   5.371
 2080SOL    HW2 7140   2.292   2.933   5.212
 2081SOL     OW 7141   0.234   5.990   3.139
 2081SOL    HW1 7142   0.320   5.981   3.090
 2081SOL    HW2 7143   0.245   5.956   3.233
 2082SOL     OW 7144   6.468   6.238   3.846
 2082SOL    HW1 7145   6.451   6.139   3.843
 2082SOL    HW2 7146   6.545   6.256   3.907
 2083SOL     OW 7147   0.930   5.907   3.159
 2083SOL    HW1 7148   0.862   5.855   3.210
 2083SOL    HW2 7149   0.950   5.992   3.207
 2084SOL     OW 7150   5.710   2.709   1.447
 2084SOL    HW1 7151   5.628   2.741   1.494
 2084SOL    HW2 7152   5.737   2.776   1.377
 2085SOL     OW 7153   6.611   5.170   6.945
 2085SOL    HW1 7154   6.560   5.212   6.870
 2085SOL    HW2 7155   6.550   5.111   6.998
 2086SOL     OW 7156   5.293   0.570   5.545
 2086SOL    HW1 7157   5.220   0.525   5.597
 2086SOL    HW2 7158   5.379   0.522   5.562
 2087SOL     OW 7159   5.013   1.422   6.040
 2087SOL    HW1 7160   5.032   1.433   6.137
 2087SOL    HW2 7161   5.058   1.340   6.006
 2088SOL     OW 7162   0.265   3.249   5.426
 2088SOL    HW1 7163   0.327   3.173   5.442
 2088SOL    HW2 7164   0.218   3.273   5.511
 2089SOL     OW 7165   2.966   4.951   4.423
 2089SOL    HW1 7166   2.914   4.900   4.492
 2089SOL    HW2 7167   2.981   5.044   4.455
 2090SOL     OW 7168   5.045   2.370   5.977
 2090SOL    HW1 7169   5.003   2.322   6.053
 2090SOL    HW2 7170   5.033   2.316   5.893
 2091SOL     OW 7171   5.656   6.729   0.973
 2091SOL    HW1 7172   5.567   6.683   0.965
 2091SOL    HW2 7173   5.675   6.781   0.890
 2092SOL     OW 7174   3.838   2.981   2.851
 2092SOL    HW1 7175   3.868   2.972   2.756
 2092SOL    HW2 7176   3.751   2.932   2.864
 2093SOL     OW 7177   4.550   0.131   0.160
 2093SOL    HW1 7178   4.638   0.171   0.135
 2093SOL    HW2 7179   4.487   0.203   0.190
 2094SOL     OW 7180   4.487   2.904   1.472
 2094SOL    HW1 7181   4.405   2.950   1.504
 2094SOL    HW2 7182   4.462   2.817   1.430
 2095SOL     OW 7183   4.594   5.631   3.655
 2095SOL    HW1 7184   4.617   5.639   3.752
 2095SOL    HW2 7185   4.560   5.719   3.621
 2096SOL     OW 7186   3.959   0.315   2.862
 2096SOL    HW1 7187   3.935   0.331   2.958
 2096SOL    HW2 7188   4.037   0.252   2.857
 2097SOL     OW 7189   2.449   5.493   5.433
 2097SOL    HW1 7190   2.496   5.559   5.374
 2097SOL    HW2 7191   2.516   5.426   5.467
 2098SOL     OW 7192   1.922   0.047   3.878
 2098SOL    HW1 7193   1.969   7.021   3.950
 2098SOL    HW2 7194   1.824   0.046   3.895
 2099SOL     OW 7195   4.489   1.677   0.083
 2099SOL    HW1 7196   4.532   1.666   7.019
 2099SOL    HW2 7197   4.496   1.591   0.134
 2100SOL     OW 7198   4.509   0.058   0.990
 2100SOL    HW1 7199   4.422   0.039   0.944
 2100SOL    HW2 7200   4.585   0.027   0.932
 2101SOL     OW 7201   1.281   0.212   2.476
 2101SOL    HW1 7202   1.348   0.268   2.427
 2101SOL    HW2 7203   1.196   0.208   2.423
 2102SOL     OW 7204   3.859   2.937   2.286
 2102SOL    HW1 7205   3.903   2.882   2.215
 2102SOL    HW2 7206   3.761   2.922   2.283
 2103SOL     OW 7207   1.703   0.161   1.692
 2103SOL    HW1 7208   1.728   0.066   1.673
 2103SOL    HW2 7209   1.758   0.222   1.635
 2104SOL     OW 7210   0.895   3.922   2.353
 2104SOL    HW1 7211   0.958   3.870   2.410
 2104SOL    HW2 7212   0.919   3.908   2.257
 2105SOL     OW 7213   5.408   6.384   5.057
 2105SOL    HW1 7214   5.406   6.317   5.131
 2105SOL    HW2 7215   5.385   6.339   4.971
 2106SOL     OW 7216   3.495   2.997   0.834
 2106SOL    HW1 7217   3.418   3.044   0.879
 2106SOL    HW2 7218   3.463   2.912   0.793
 2107SOL     OW 7219   6.093   4.645   4.858
 2107SOL    HW1 7220   6.149   4.594   4.924
 2107SOL    HW2 7221   6.138   4.732   4.837
 2108SOL     OW 7222   4.328   6.644   5.679
 2108SOL    HW1 7223   4.274   6.676   5.757
 2108SOL    HW2 7224   4.268   6.602   5.611
 2109SOL     OW 7225   2.532   5.628   2.049
 2109SOL    HW1 7226   2.560   5.535   2.024
 2109SOL    HW2 7227   2.433   5.633   2.054
 2110SOL     OW 7228   3.992   5.474   6.974
 2110SOL    HW1 7229   4.055   5.475   6.896
 2110SOL    HW2 7230   3.981   5.567   7.009
 2111SOL     OW 7231   0.603   2.589   0.448
 2111SOL    HW1 7232   0.608   2.489   0.438
 2111SOL    HW2 7233   0.683   2.622   0.498
 2112SOL     OW 7234   0.410   0.801   6.604
 2112SOL    HW1 7235   0.438   0.731   6.538
 2112SOL    HW2 7236   0.491   0.833   6.655
 2113SOL     OW 7237   6.599   1.980   4.287
 2113SOL    HW1 7238   6.524   1.932   4.332
 2113SOL    HW2 7239   6.562   2.041   4.217
 2114SOL     OW 7240   3.244   0.752   5.415
 2114SOL    HW1 7241   3.167   0.744   5.477
 2114SOL    HW2 7242   3.219   0.812   5.338
 2115SOL     OW 7243   6.858   6.802   3.864
 2115SOL    HW1 7244   6.800   6.824   3.785
 2115SOL    HW2 7245   6.814   6.837   3.947
 2116SOL     OW 7246   2.205   0.375   6.023
 2116SOL    HW1 7247   2.192   0.279   6.047
 2116SOL    HW2 7248   2.126   0.408   5.971
 2117SOL     OW 7249   5.602   3.039   1.053
 2117SOL    HW1 7250   5.636   3.116   0.999
 2117SOL    HW2 7251   5.566   2.969   0.991
 2118SOL     OW 7252   0.094   3.359   2.372
 2118SOL    HW1 7253   0.131   3.353   2.465
 2118SOL    HW2 7254   0.027   3.432   2.367
 2119SOL     OW 7255   2.174   2.519   0.199
 2119SOL    HW1 7256   2.093   2.577   0.202
 2119SOL    HW2 7257   2.163   2.443   0.264
 2120SOL     OW 7258   6.204   1.573   0.728
 2120SOL    HW1 7259   6.125   1.599   0.783
 2120SOL    HW2 7260   6.176   1.560   0.633
 2121SOL     OW 7261   2.834   5.456   1.829
 2121SOL    HW1 7262   2.869   5.508   1.907
 2121SOL    HW2 7263   2.740   5.426   1.849
 2122SOL     OW 7264   0.368   0.844   5.109
 2122SOL    HW1 7265   0.276   0.880   5.125
 2122SOL    HW2 7266   0.436   0.905   5.150
 2123SOL     OW 7267   0.970   4.258   3.606
 2123SOL    HW1 7268   1.025   4.236   3.687
 2123SOL    HW2 7269   1.008   4.338   3.560
 2124SOL     OW 7270   5.324   3.642   6.216
 2124SOL    HW1 7271   5.420   3.667   6.213
 2124SOL    HW2 7272   5.308   3.564   6.156
 2125SOL     OW 7273   2.428   5.374   6.066
 2125SOL    HW1 7274   2.430   5.274   6.059
 2125SOL    HW2 7275   2.507   5.413   6.020
 2126SOL     OW 7276   2.948   5.596   2.057
 2126SOL    HW1 7277   2.904   5.603   2.146
 2126SOL    HW2 7278   3.002   5.678   2.040
 2127SOL     OW 7279   1.146   4.054   4.304
 2127SOL    HW1 7280   1.212   4.019   4.238
 2127SOL    HW2 7281   1.053   4.033   4.274
 2128SOL     OW 7282   5.340   3.047   0.932
 2128SOL    HW1 7283   5.302   3.115   0.870
 2128SOL    HW2 7284   5.416   3.000   0.887
 2129SOL     OW 7285   5.847   4.308   4.328
 2129SOL    HW1 7286   5.879   4.306   4.233
 2129SOL    HW2 7287   5.769   4.246   4.338
 2130SOL     OW 7288   2.089   0.186   2.822
 2130SOL    HW1 7289   2.036   0.192   2.737
 2130SOL    HW2 7290   2.136   0.273   2.839
 2131SOL     OW 7291   5.610   0.069   6.615
 2131SOL    HW1 7292   5.620   0.169   6.609
 2131SOL    HW2 7293   5.687   0.026   6.569
 2132SOL     OW 7294   3.230   1.686   0.340
 2132SOL    HW1 7295   3.289   1.607   0.330
 2132SOL    HW2 7296   3.281   1.761   0.381
 2133SOL     OW 7297   4.038   3.331   1.935
 2133SOL    HW1 7298   4.088   3.318   1.849
 2133SOL    HW2 7299   4.023   3.243   1.979
 2134SOL     OW 7300   2.598   0.429   5.034
 2134SOL    HW1 7301   2.647   0.373   5.101
 2134SOL    HW2 7302   2.524   0.478   5.079
 2135SOL     OW 7303   0.478   5.913   4.643
 2135SOL    HW1 7304   0.465   5.916   4.742
 2135SOL    HW2 7305   0.519   5.999   4.612
 2136SOL     OW 7306   0.465   4.858   3.599
 2136SOL    HW1 7307   0.494   4.866   3.504
 2136SOL    HW2 7308   0.544   4.870   3.659
 2137SOL     OW 7309   6.956   0.439   4.653
 2137SOL    HW1 7310   0.004   0.480   4.708
 2137SOL    HW2 7311   6.913   0.510   4.597
 2138SOL     OW 7312   1.188   2.321   0.176
 2138SOL    HW1 7313   1.231   2.395   0.124
 2138SOL    HW2 7314   1.251   2.291   0.248
 2139SOL     OW 7315   3.579   6.263   4.301
 2139SOL    HW1 7316   3.554   6.302   4.390
 2139SOL    HW2 7317   3.657   6.202   4.312
 2140SOL     OW 7318   1.428   5.470   3.575
 2140SOL    HW1 7319   1.438   5.496   3.479
 2140SOL    HW2 7320   1.464   5.543   3.633
 2141SOL     OW 7321   6.592   0.573   6.706
 2141SOL    HW1 7322   6.600   0.512   6.786
 2141SOL    HW2 7323   6.498   0.607   6.699
 2142SOL     OW 7324   4.120   0.938   3.381
 2142SOL    HW1 7325   4.217   0.948   3.404
 2142SOL    HW2 7326   4.096   0.841   3.377
 2143SOL     OW 7327   3.671   6.007   0.159
 2143SOL    HW1 7328   3.571   6.005   0.162
 2143SOL    HW2 7329   3.708   5.943   0.226
 2144SOL     OW 7330   0.875   1.287   1.750
 2144SOL    HW1 7331   0.901   1.382   1.732
 2144SOL    HW2 7332   0.928   1.252   1.828
 2145SOL     OW 7333   2.668   5.711   3.533
 2145SOL    HW1 7334   2.656   5.719   3.632
 2145SOL    HW2 7335   2.583   5.679   3.491
 2146SOL     OW 7336   3.208   2.232   1.251
 2146SOL    HW1 7337   3.181   2.153   1.305
 2146SOL    HW2 7338   3.299   2.263   1.281
 2147SOL     OW 7339   6.774   0.172   4.093
 2147SOL    HW1 7340   6.776   0.151   4.191
 2147SOL    HW2 7341   6.684   0.209   4.069
 2148SOL     OW 7342   6.464   3.839   3.020
 2148SOL    HW1 7343   6.371   3.869   3.041
 2148SOL    HW2 7344   6.463   3.741   2.999
 2149SOL     OW 7345   2.539   0.973   2.598
 2149SOL    HW1 7346   2.539   1.005   2.692
 2149SOL    HW2 7347   2.531   1.051   2.536
 2150SOL     OW 7348   5.317   0.782   2.909
 2150SOL    HW1 7349   5.271   0.795   2.997
 2150SOL    HW2 7350   5.380   0.858   2.893
 2151SOL     OW 7351   4.322   4.571   5.691
 2151SOL    HW1 7352   4.388   4.529   5.754
 2151SOL    HW2 7353   4.235   4.522   5.698
 2152SOL     OW 7354   6.974   6.501   3.207
 2152SOL    HW1 7355   6.942   6.595   3.197
 2152SOL    HW2 7356   6.949   6.447   3.127
 2153SOL     OW 7357   4.326   1.635   4.048
 2153SOL    HW1 7358   4.237   1.596   4.070
 2153SOL    HW2 7359   4.349   1.614   3.952
 2154SOL     OW 7360   4.566   6.826   3.936
 2154SOL    HW1 7361   4.475   6.793   3.911
 2154SOL    HW2 7362   4.591   6.903   3.877
 2155SOL     OW 7363   5.913   4.088   0.587
 2155SOL    HW1 7364   5.950   4.025   0.519
 2155SOL    HW2 7365   5.841   4.144   0.546
 2156SOL     OW 7366   5.941   5.992   2.347
 2156SOL    HW1 7367   6.035   5.975   2.319
 2156SOL    HW2 7368   5.881   5.922   2.308
 2157SOL     OW 7369   5.327   1.669   3.904
 2157SOL    HW1 7370   5.363   1.581   3.872
 2157SOL    HW2 7371   5.401   1.722   3.945
 2158SOL     OW 7372   3.988   0.746   3.607
 2158SOL    HW1 7373   3.983   0.711   3.700
 2158SOL    HW2 7374   3.944   0.836   3.603
 2159SOL     OW 7375   2.488   1.711   5.088
 2159SOL    HW1 7376   2.473   1.756   5.000
 2159SOL    HW2 7377   2.456   1.616   5.083
 2160SOL     OW 7378   2.315   3.840   0.731
 2160SOL    HW1 7379   2.327   3.741   0.735
 2160SOL    HW2 7380   2.229   3.862   0.683
 2161SOL     OW 7381   4.576   2.420   2.628
 2161SOL    HW1 7382   4.581   2.486   2.703
 2161SOL    HW2 7383   4.528   2.460   2.551
 2162SOL     OW 7384   2.448   1.759   2.525
 2162SOL    HW1 7385   2.391   1.700   2.468
 2162SOL    HW2 7386   2.537   1.770   2.481
 2163SOL     OW 7387   4.554   1.435   1.151
 2163SOL    HW1 7388   4.473   1.440   1.210
 2163SOL    HW2 7389   4.629   1.392   1.201
 2164SOL     OW 7390   6.464   0.679   1.656
 2164SOL    HW1 7391   6.496   0.724   1.573
 2164SOL    HW2 7392   6.542   0.644   1.707
 2165SOL     OW 7393   1.962   0.574   2.336
 2165SOL    HW1 7394   1.964   0.589   2.237
 2165SOL    HW2 7395   1.889   0.629   2.376
 2166SOL     OW 7396   5.616   2.684   4.687
 2166SOL    HW1 7397   5.672   2.602   4.674
 2166SOL    HW2 7398   5.569   2.679   4.775
 2167SOL     OW 7399   3.393   1.926   1.221
 2167SOL    HW1 7400   3.442   1.976   1.293
 2167SOL    HW2 7401   3.317   1.876   1.262
 2168SOL     OW 7402   5.461   6.880   4.573
 2168SOL    HW1 7403   5.441   6.978   4.582
 2168SOL    HW2 7404   5.403   6.829   4.637
 2169SOL     OW 7405   5.195   1.895   5.635
 2169SOL    HW1 7406   5.128   1.956   5.677
 2169SOL    HW2 7407   5.150   1.809   5.609
 2170SOL     OW 7408   4.741   5.470   4.767
 2170SOL    HW1 7409   4.654   5.496   4.808
 2170SOL    HW2 7410   4.815   5.524   4.808
 2171SOL     OW 7411   0.628   3.250   0.283
 2171SOL    HW1 7412   0.546   3.273   0.230
 2171SOL    HW2 7413   0.614   3.276   0.378
 2172SOL     OW 7414   2.261   0.414   2.806
 2172SOL    HW1 7415   2.279   0.502   2.851
 2172SOL    HW2 7416   2.345   0.361   2.801
 2173SOL     OW 7417   4.382   2.105   4.339
 2173SOL    HW1 7418   4.338   2.189   4.371
 2173SOL    HW2 7419   4.481   2.118   4.338
 2174SOL     OW 7420   0.889   5.834   5.131
 2174SOL    HW1 7421   0.845   5.794   5.050
 2174SOL    HW2 7422   0.967   5.777   5.157
 2175SOL     OW 7423   1.196   0.362   6.942
 2175SOL    HW1 7424   1.104   0.327   6.924
 2175SOL    HW2 7425   1.234   0.400   6.857
 2176SOL     OW 7426   2.271   2.735   2.244
 2176SOL    HW1 7427   2.315   2.680   2.173
 2176SOL    HW2 7428   2.197   2.789   2.204
 2177SOL     OW 7429   0.895   1.584   2.136
 2177SOL    HW1 7430   0.892   1.603   2.038
 2177SOL    HW2 7431   0.961   1.511   2.154
 2178SOL     OW 7432   6.906   6.432   0.263
 2178SOL    HW1 7433   7.006   6.437   0.258
 2178SOL    HW2 7434   6.877   6.337   0.268
 2179SOL     OW 7435   2.183   3.978   4.076
 2179SOL    HW1 7436   2.218   3.904   4.134
 2179SOL    HW2 7437   2.120   3.940   4.008
 2180SOL     OW 7438   3.021   3.126   2.610
 2180SOL    HW1 7439   2.958   3.060   2.568
 2180SOL    HW2 7440   3.115   3.094   2.599
 2181SOL     OW 7441   3.238   0.050   0.769
 2181SOL    HW1 7442   3.159   0.109   0.777
 2181SOL    HW2 7443   3.209   6.986   0.733
 2182SOL     OW 7444   4.155   3.748   0.622
 2182SOL    HW1 7445   4.214   3.736   0.542
 2182SOL    HW2 7446   4.144   3.661   0.669
 2183SOL     OW 7447   4.839   2.929   1.736
 2183SOL    HW1 7448   4.916   2.988   1.711
 2183SOL    HW2 7449   4.806   2.954   1.827
 2184SOL     OW 7450   4.683   2.802   6.275
 2184SOL    HW1 7451   4.694   2.874   6.207
 2184SOL    HW2 7452   4.667   2.715   6.228
 2185SOL     OW 7453   6.973   6.681   2.249
 2185SOL    HW1 7454   6.962   6.720   2.340
 2185SOL    HW2 7455   6.949   6.751   2.181
 2186SOL     OW 7456   6.939   4.486   3.139
 2186SOL    HW1 7457   6.993   4.453   3.217
 2186SOL    HW2 7458   6.951   4.425   3.062
 2187SOL     OW 7459   6.308   0.409   6.587
 2187SOL    HW1 7460   6.267   0.474   6.524
 2187SOL    HW2 7461   6.403   0.390   6.560
 2188SOL     OW 7462   4.682   2.586   3.574
 2188SOL    HW1 7463   4.626   2.559   3.496
 2188SOL    HW2 7464   4.762   2.637   3.541
 2189SOL     OW 7465   4.041   6.201   6.630
 2189SOL    HW1 7466   3.956   6.251   6.613
 2189SOL    HW2 7467   4.084   6.236   6.714
 2190SOL     OW 7468   5.910   3.491   1.241
 2190SOL    HW1 7469   5.931   3.552   1.318
 2190SOL    HW2 7470   5.815   3.461   1.247
 2191SOL     OW 7471   3.536   0.482   0.146
 2191SOL    HW1 7472   3.558   0.392   0.186
 2191SOL    HW2 7473   3.513   0.471   0.050
 2192SOL     OW 7474   4.148   6.256   1.646
 2192SOL    HW1 7475   4.225   6.208   1.604
 2192SOL    HW2 7476   4.131   6.219   1.737
 2193SOL     OW 7477   0.206   6.175   4.715
 2193SOL    HW1 7478   0.208   6.078   4.738
 2193SOL    HW2 7479   0.168   6.187   4.623
 2194SOL     OW 7480   2.202   0.129   2.318
 2194SOL    HW1 7481   2.126   0.194   2.306
 2194SOL    HW2 7482   2.215   0.112   2.416
 2195SOL     OW 7483   0.128   5.020   2.711
 2195SOL    HW1 7484   0.194   4.946   2.728
 2195SOL    HW2 7485   0.138   5.052   2.616
 2196SOL     OW 7486   4.525   4.089   0.530
 2196SOL    HW1 7487   4.443   4.081   0.587
 2196SOL    HW2 7488   4.552   3.999   0.497
 2197SOL     OW 7489   4.972   3.797   0.182
 2197SOL    HW1 7490   4.957   3.716   0.126
 2197SOL    HW2 7491   4.984   3.877   0.124
 2198SOL     OW 7492   0.694   4.484   6.578
 2198SOL    HW1 7493   0.689   4.564   6.517
 2198SOL    HW2 7494   0.746   4.509   6.660
 2199SOL     OW 7495   4.058   1.828   3.192
 2199SOL    HW1 7496   4.024   1.870   3.277
 2199SOL    HW2 7497   4.082   1.733   3.209
 2200SOL     OW 7498   4.128   0.122   3.975
 2200SOL    HW1 7499   4.203   0.117   3.910
 2200SOL    HW2 7500   4.152   0.073   4.059
 2201SOL     OW 7501   5.201   4.713   4.398
 2201SOL    HW1 7502   5.165   4.782   4.461
 2201SOL    HW2 7503   5.301   4.719   4.397
 2202SOL     OW 7504   4.647   5.781   4.299
 2202SOL    HW1 7505   4.618   5.841   4.224
 2202SOL    HW2 7506   4.698   5.834   4.366
 2203SOL     OW 7507   2.077   1.328   2.782
 2203SOL    HW1 7508   2.113   1.419   2.761
 2203SOL    HW2 7509   2.069   1.318   2.881
 2204SOL     OW 7510   3.468   2.409   1.238
 2204SOL    HW1 7511   3.561   2.431   1.208
 2204SOL    HW2 7512   3.470   2.381   1.334
 2205SOL     OW 7513   3.505   0.711   2.399
 2205SOL    HW1 7514   3.449   0.774   2.452
 2205SOL    HW2 7515   3.450   0.671   2.325
 2206SOL     OW 7516   1.626   4.056   0.347
 2206SOL    HW1 7517   1.651   4.111   0.427
 2206SOL    HW2 7518   1.591   4.116   0.275
 2207SOL     OW 7519   6.418   4.505   5.279
 2207SOL    HW1 7520   6.480   4.580   5.302
 2207SOL    HW2 7521   6.383   4.463   5.363
 2208SOL     OW 7522   6.261   5.180   1.993
 2208SOL    HW1 7523   6.346   5.138   1.960
 2208SOL    HW2 7524   6.219   5.121   2.061
 2209SOL     OW 7525   6.558   0.002   1.780
 2209SOL    HW1 7526   6.575   0.031   1.874
 2209SOL    HW2 7527   6.462   7.001   1.770
 2210SOL     OW 7528   2.398   4.391   3.822
 2210SOL    HW1 7529   2.453   4.471   3.798
 2210SOL    HW2 7530   2.413   4.367   3.918
 2211SOL     OW 7531   5.778   0.314   5.967
 2211SOL    HW1 7532   5.840   0.316   6.046
 2211SOL    HW2 7533   5.752   0.407   5.942
 2212SOL     OW 7534   2.308   6.265   6.119
 2212SOL    HW1 7535   2.228   6.258   6.059
 2212SOL    HW2 7536   2.280   6.249   6.213
 2213SOL     OW 7537   4.777   1.151   3.514
 2213SOL    HW1 7538   4.849   1.217   3.531
 2213SOL    HW2 7539   4.816   1.069   3.470
 2214SOL     OW 7540   4.003   0.332   4.104
 2214SOL    HW1 7541   4.056   0.402   4.153
 2214SOL    HW2 7542   4.065   0.272   4.054
 2215SOL     OW 7543   5.910   2.275   6.179
 2215SOL    HW1 7544   5.981   2.329   6.225
 2215SOL    HW2 7545   5.951   2.190   6.143
 2216SOL     OW 7546   3.383   1.468   2.492
 2216SOL    HW1 7547   3.420   1.391   2.440
 2216SOL    HW2 7548   3.311   1.435   2.553
 2217SOL     OW 7549   2.865   7.014   0.929
 2217SOL    HW1 7550   2.879   0.020   1.023
 2217SOL    HW2 7551   2.768   6.993   0.914
 2218SOL     OW 7552   6.574   0.979   2.256
 2218SOL    HW1 7553   6.647   0.931   2.207
 2218SOL    HW2 7554   6.509   1.018   2.190
 2219SOL     OW 7555   2.468   1.862   2.972
 2219SOL    HW1 7556   2.559   1.866   2.932
 2219SOL    HW2 7557   2.418   1.946   2.950
 2220SOL     OW 7558   1.761   6.450   2.853
 2220SOL    HW1 7559   1.729   6.399   2.933
 2220SOL    HW2 7560   1.858   6.471   2.863
 2221SOL     OW 7561   0.172   6.537   4.681
 2221SOL    HW1 7562   0.140   6.565   4.772
 2221SOL    HW2 7563   0.272   6.537   4.679
 2222SOL     OW 7564   5.866   5.248   3.932
 2222SOL    HW1 7565   5.849   5.255   4.030
 2222SOL    HW2 7566   5.789   5.288   3.882
 2223SOL     OW 7567   6.586   6.603   2.563
 2223SOL    HW1 7568   6.629   6.582   2.475
 2223SOL    HW2 7569   6.644   6.668   2.613
 2224SOL     OW 7570   1.241   5.760   1.530
 2224SOL    HW1 7571   1.166   5.794   1.472
 2224SOL    HW2 7572   1.221   5.781   1.625
 2225SOL     OW 7573   0.524   4.182   7.017
 2225SOL    HW1 7574   0.459   4.247   6.978
 2225SOL    HW2 7575   0.494   4.089   6.998
 2226SOL     OW 7576   3.320   3.611   3.056
 2226SOL    HW1 7577   3.277   3.701   3.058
 2226SOL    HW2 7578   3.336   3.584   2.962
 2227SOL     OW 7579   1.687   2.269   5.052
 2227SOL    HW1 7580   1.649   2.357   5.079
 2227SOL    HW2 7581   1.748   2.280   4.974
 2228SOL     OW 7582   1.596   4.434   4.641
 2228SOL    HW1 7583   1.520   4.392   4.691
 2228SOL    HW2 7584   1.682   4.391   4.668
 2229SOL     OW 7585   5.540   5.500   2.711
 2229SOL    HW1 7586   5.486   5.506   2.627
 2229SOL    HW2 7587   5.496   5.438   2.775
 2230SOL     OW 7588   1.890   5.384   2.792
 2230SOL    HW1 7589   1.822   5.434   2.738
 2230SOL    HW2 7590   1.868   5.394   2.889
 2231SOL     OW 7591   1.817   5.621   0.965
 2231SOL    HW1 7592   1.796   5.581   0.875
 2231SOL    HW2 7593   1.915   5.615   0.981
 2232SOL     OW 7594   5.999   2.133   3.593
 2232SOL    HW1 7595   6.058   2.206   3.560
 2232SOL    HW2 7596   5.912   2.171   3.623
 2233SOL     OW 7597   3.522   1.083   0.513
 2233SOL    HW1 7598   3.441   1.082   0.573
 2233SOL    HW2 7599   3.593   1.139   0.554
 2234SOL     OW 7600   4.515   2.355   1.209
 2234SOL    HW1 7601   4.564   2.437   1.240
 2234SOL    HW2 7602   4.504   2.293   1.286
 2235SOL     OW 7603   1.736   2.335   2.384
 2235SOL    HW1 7604   1.746   2.401   2.458
 2235SOL    HW2 7605   1.813   2.270   2.386
 2236SOL     OW 7606   0.710   3.879   5.522
 2236SOL    HW1 7607   0.631   3.858   5.465
 2236SOL    HW2 7608   0.727   3.977   5.520
 2237SOL     OW 7609   5.888   2.905   3.226
 2237SOL    HW1 7610   5.848   2.834   3.285
 2237SOL    HW2 7611   5.987   2.890   3.220
 2238SOL     OW 7612   5.534   6.306   6.762
 2238SOL    HW1 7613   5.537   6.332   6.859
 2238SOL    HW2 7614   5.523   6.389   6.706
 2239SOL     OW 7615   0.016   5.803   1.438
 2239SOL    HW1 7616   0.045   5.896   1.459
 2239SOL    HW2 7617   0.096   5.747   1.417
 2240SOL     OW 7618   6.935   3.603   1.315
 2240SOL    HW1 7619   6.951   3.630   1.220
 2240SOL    HW2 7620   6.926   3.685   1.371
 2241SOL     OW 7621   0.610   0.244   4.011
 2241SOL    HW1 7622   0.539   0.195   3.960
 2241SOL    HW2 7623   0.567   0.307   4.076
 2242SOL     OW 7624   1.769   1.736   3.232
 2242SOL    HW1 7625   1.758   1.834   3.247
 2242SOL    HW2 7626   1.841   1.701   3.292
 2243SOL     OW 7627   1.715   0.503   4.614
 2243SOL    HW1 7628   1.809   0.476   4.596
 2243SOL    HW2 7629   1.677   0.547   4.533
 2244SOL     OW 7630   3.527   0.296   4.617
 2244SOL    HW1 7631   3.509   0.341   4.704
 2244SOL    HW2 7632   3.573   0.209   4.632
 2245SOL     OW 7633   0.892   2.556   1.824
 2245SOL    HW1 7634   0.951   2.488   1.780
 2245SOL    HW2 7635   0.843   2.515   1.901
 2246SOL     OW 7636   0.641   3.819   5.015
 2246SOL    HW1 7637   0.590   3.901   5.038
 2246SOL    HW2 7638   0.727   3.844   4.970
 2247SOL     OW 7639   2.099   2.390   3.883
 2247SOL    HW1 7640   2.157   2.444   3.823
 2247SOL    HW2 7641   2.074   2.304   3.838
 2248SOL     OW 7642   5.644   3.869   6.014
 2248SOL    HW1 7643   5.564   3.844   5.960
 2248SOL    HW2 7644   5.620   3.869   6.111
 2249SOL     OW 7645   5.452   5.656   4.846
 2249SOL    HW1 7646   5.448   5.718   4.924
 2249SOL    HW2 7647   5.380   5.680   4.781
 2250SOL     OW 7648   4.469   4.552   2.003
 2250SOL    HW1 7649   4.493   4.460   1.973
 2250SOL    HW2 7650   4.387   4.583   1.954
 2251SOL     OW 7651   0.567   0.957   5.271
 2251SOL    HW1 7652   0.666   0.948   5.261
 2251SOL    HW2 7653   0.535   0.894   5.342
 2252SOL     OW 7654   3.338   1.485   6.669
 2252SOL    HW1 7655   3.288   1.571   6.681
 2252SOL    HW2 7656   3.305   1.418   6.736
 2253SOL     OW 7657   0.760   3.962   0.732
 2253SOL    HW1 7658   0.696   4.022   0.780
 2253SOL    HW2 7659   0.853   3.981   0.763
 2254SOL     OW 7660   1.761   4.840   6.309
 2254SOL    HW1 7661   1.736   4.920   6.363
 2254SOL    HW2 7662   1.852   4.808   6.336
 2255SOL     OW 7663   6.762   3.789   6.647
 2255SOL    HW1 7664   6.670   3.815   6.676
 2255SOL    HW2 7665   6.756   3.733   6.565
 2256SOL     OW 7666   3.228   5.615   2.249
 2256SOL    HW1 7667   3.310   5.583   2.296
 2256SOL    HW2 7668   3.219   5.714   2.260
 2257SOL     OW 7669   1.394   4.552   5.524
 2257SOL    HW1 7670   1.301   4.558   5.488
 2257SOL    HW2 7671   1.424   4.457   5.526
 2258SOL     OW 7672   2.251   6.801   5.560
 2258SOL    HW1 7673   2.310   6.736   5.512
 2258SOL    HW2 7674   2.168   6.755   5.591
 2259SOL     OW 7675   6.030   1.794   6.314
 2259SOL    HW1 7676   5.987   1.728   6.253
 2259SOL    HW2 7677   5.987   1.789   6.404
 2260SOL     OW 7678   4.407   3.135   0.706
 2260SOL    HW1 7679   4.388   3.111   0.611
 2260SOL    HW2 7680   4.440   3.230   0.711
 2261SOL     OW 7681   2.466   0.048   5.016
 2261SOL    HW1 7682   2.557   0.085   5.033
 2261SOL    HW2 7683   2.397   0.113   5.048
 2262SOL     OW 7684   2.664   1.854   3.899
 2262SOL    HW1 7685   2.660   1.911   3.817
 2262SOL    HW2 7686   2.614   1.769   3.883
 2263SOL     OW 7687   0.763   4.571   5.658
 2263SOL    HW1 7688   0.733   4.634   5.730
 2263SOL    HW2 7689   0.775   4.621   5.572
 2264SOL     OW 7690   3.403   3.311   3.513
 2264SOL    HW1 7691   3.445   3.324   3.603
 2264SOL    HW2 7692   3.315   3.359   3.511
 2265SOL     OW 7693   0.970   5.929   4.272
 2265SOL    HW1 7694   0.947   5.981   4.190
 2265SOL    HW2 7695   1.010   5.841   4.245
 2266SOL     OW 7696   6.825   0.647   5.504
 2266SOL    HW1 7697   6.772   0.661   5.587
 2266SOL    HW2 7698   6.793   0.566   5.456
 2267SOL     OW 7699   6.085   1.767   5.302
 2267SOL    HW1 7700   6.061   1.676   5.337
 2267SOL    HW2 7701   6.005   1.826   5.304
 2268SOL     OW 7702   0.564   6.969   0.224
 2268SOL    HW1 7703   0.496   6.927   0.164
 2268SOL    HW2 7704   0.639   6.905   0.241
 2269SOL     OW 7705   6.429   6.189   2.678
 2269SOL    HW1 7706   6.501   6.147   2.624
 2269SOL    HW2 7707   6.404   6.277   2.638
 2270SOL     OW 7708   3.556   2.939   3.707
 2270SOL    HW1 7709   3.481   2.941   3.641
 2270SOL    HW2 7710   3.529   2.987   3.790
 2271SOL     OW 7711   1.474   3.609   2.736
 2271SOL    HW1 7712   1.485   3.705   2.708
 2271SOL    HW2 7713   1.563   3.571   2.758
 2272SOL     OW 7714   5.249   0.822   5.833
 2272SOL    HW1 7715   5.328   0.805   5.774
 2272SOL    HW2 7716   5.185   0.881   5.785
 2273SOL     OW 7717   0.267   1.165   1.978
 2273SOL    HW1 7718   0.270   1.072   1.941
 2273SOL    HW2 7719   0.360   1.200   1.989
 2274SOL     OW 7720   0.178   4.913   2.996
 2274SOL    HW1 7721   0.117   4.876   2.926
 2274SOL    HW2 7722   0.201   5.008   2.973
 2275SOL     OW 7723   4.672   6.556   3.767
 2275SOL    HW1 7724   4.664   6.612   3.684
 2275SOL    HW2 7725   4.623   6.470   3.754
 2276SOL     OW 7726   3.462   6.241   2.824
 2276SOL    HW1 7727   3.472   6.191   2.910
 2276SOL    HW2 7728   3.552   6.255   2.783
 2277SOL     OW 7729   3.479   2.860   2.595
 2277SOL    HW1 7730   3.524   2.943   2.563
 2277SOL    HW2 7731   3.483   2.791   2.523
 2278SOL     OW 7732   4.188   4.808   1.082
 2278SOL    HW1 7733   4.284   4.781   1.078
 2278SOL    HW2 7734   4.147   4.797   0.991
 2279SOL     OW 7735   5.730   3.980   5.453
 2279SOL    HW1 7736   5.644   3.955   5.410
 2279SOL    HW2 7737   5.806   3.955   5.393
 2280SOL     OW 7738   5.629   0.830   6.118
 2280SOL    HW1 7739   5.717   0.877   6.112
 2280SOL    HW2 7740   5.555   0.896   6.101
 2281SOL     OW 7741   2.507   0.549   0.479
 2281SOL    HW1 7742   2.514   0.643   0.444
 2281SOL    HW2 7743   2.544   0.544   0.571
 2282SOL     OW 7744   3.953   0.202   2.584
 2282SOL    HW1 7745   3.927   0.220   2.679
 2282SOL    HW2 7746   4.020   0.270   2.554
 2283SOL     OW 7747   0.975   3.259   1.119
 2283SOL    HW1 7748   0.899   3.322   1.138
 2283SOL    HW2 7749   0.981   3.191   1.192
 2284SOL     OW 7750   2.111   2.882   0.781
 2284SOL    HW1 7751   2.136   2.977   0.760
 2284SOL    HW2 7752   2.064   2.879   0.869
 2285SOL     OW 7753   2.402   2.860   0.088
 2285SOL    HW1 7754   2.307   2.861   0.056
 2285SOL    HW2 7755   2.411   2.798   0.166
 2286SOL     OW 7756   6.472   5.933   3.890
 2286SOL    HW1 7757   6.536   5.965   3.961
 2286SOL    HW2 7758   6.434   5.845   3.917
 2287SOL     OW 7759   2.366   1.596   0.639
 2287SOL    HW1 7760   2.442   1.662   0.644
 2287SOL    HW2 7761   2.348   1.573   0.543
 2288SOL     OW 7762   2.630   5.768   3.975
 2288SOL    HW1 7763   2.593   5.731   4.061
 2288SOL    HW2 7764   2.714   5.818   3.994
 2289SOL     OW 7765   3.988   6.992   6.195
 2289SOL    HW1 7766   4.046   0.039   6.157
 2289SOL    HW2 7767   3.892   7.012   6.174
 2290SOL     OW 7768   2.210   3.249   5.801
 2290SOL    HW1 7769   2.273   3.230   5.875
 2290SOL    HW2 7770   2.117   3.258   5.837
 2291SOL     OW 7771   3.317   2.045   0.136
 2291SOL    HW1 7772   3.277   2.065   0.226
 2291SOL    HW2 7773   3.414   2.070   0.136
 2292SOL     OW 7774   5.035   2.126   2.987
 2292SOL    HW1 7775   5.036   2.220   2.952
 2292SOL    HW2 7776   5.126   2.104   3.023
 2293SOL     OW 7777   0.587   0.704   0.191
 2293SOL    HW1 7778   0.674   0.672   0.228
 2293SOL    HW2 7779   0.543   0.766   0.257
 2294SOL     OW 7780   6.766   2.322   5.659
 2294SOL    HW1 7781   6.791   2.246   5.598
 2294SOL    HW2 7782   6.725   2.395   5.605
 2295SOL     OW 7783   5.682   5.595   0.006
 2295SOL    HW1 7784   5.679   5.503   0.046
 2295SOL    HW2 7785   5.658   5.590   6.934
 2296SOL     OW 7786   3.433   5.848   4.500
 2296SOL    HW1 7787   3.526   5.885   4.501
 2296SOL    HW2 7788   3.436   5.749   4.489
 2297SOL     OW 7789   6.386   2.622   6.999
 2297SOL    HW1 7790   6.298   2.648   6.961
 2297SOL    HW2 7791   6.454   2.691   6.975
 2298SOL     OW 7792   2.444   3.455   5.451
 2298SOL    HW1 7793   2.382   3.495   5.384
 2298SOL    HW2 7794   2.508   3.524   5.484
 2299SOL     OW 7795   6.263   3.414   4.659
 2299SOL    HW1 7796   6.339   3.475   4.641
 2299SOL    HW2 7797   6.288   3.320   4.633
 2300SOL     OW 7798   4.390   0.405   3.364
 2300SOL    HW1 7799   4.392   0.492   3.314
 2300SOL    HW2 7800   4.482   0.384   3.397
 2301SOL     OW 7801   4.530   3.116   5.817
 2301SOL    HW1 7802   4.439   3.096   5.853
 2301SOL    HW2 7803   4.525   3.125   5.717
 2302SOL     OW 7804   0.047   2.960   4.803
 2302SOL    HW1 7805   0.106   2.983   4.726
 2302SOL    HW2 7806   0.075   2.872   4.842
 2303SOL     OW 7807   2.639   2.126   6.548
 2303SOL    HW1 7808   2.549   2.140   6.506
 2303SOL    HW2 7809   2.646   2.032   6.582
 2304SOL     OW 7810   4.009   6.668   3.349
 2304SOL    HW1 7811   4.014   6.607   3.428
 2304SOL    HW2 7812   3.931   6.730   3.361
 2305SOL     OW 7813   2.723   6.001   4.966
 2305SOL    HW1 7814   2.734   5.905   4.990
 2305SOL    HW2 7815   2.630   6.018   4.935
 2306SOL     OW 7816   0.686   4.983   5.495
 2306SOL    HW1 7817   0.660   4.897   5.451
 2306SOL    HW2 7818   0.783   4.979   5.521
 2307SOL     OW 7819   6.229   4.259   4.957
 2307SOL    HW1 7820   6.184   4.274   4.869
 2307SOL    HW2 7821   6.282   4.175   4.954
 2308SOL     OW 7822   1.416   6.505   2.754
 2308SOL    HW1 7823   1.480   6.580   2.739
 2308SOL    HW2 7824   1.330   6.524   2.707
 2309SOL     OW 7825   2.014   1.045   4.902
 2309SOL    HW1 7826   2.023   1.024   4.999
 2309SOL    HW2 7827   2.010   1.144   4.890
 2310SOL     OW 7828   5.138   6.035   0.266
 2310SOL    HW1 7829   5.173   6.085   0.346
 2310SOL    HW2 7830   5.173   6.077   0.183
 2311SOL     OW 7831   2.167   5.607   0.787
 2311SOL    HW1 7832   2.087   5.627   0.730
 2311SOL    HW2 7833   2.215   5.692   0.808
 2312SOL     OW 7834   2.499   4.809   2.309
 2312SOL    HW1 7835   2.569   4.783   2.242
 2312SOL    HW2 7836   2.492   4.909   2.312
 2313SOL     OW 7837   4.954   5.336   1.569
 2313SOL    HW1 7838   4.898   5.317   1.489
 2313SOL    HW2 7839   4.908   5.303   1.651
 2314SOL     OW 7840   2.266   4.143   2.822
 2314SOL    HW1 7841   2.252   4.060   2.769
 2314SOL    HW2 7842   2.361   4.146   2.855
 2315SOL     OW 7843   3.666   1.738   6.595
 2315SOL    HW1 7844   3.680   1.837   6.598
 2315SOL    HW2 7845   3.673   1.707   6.500
 2316SOL     OW 7846   5.765   4.386   1.297
 2316SOL    HW1 7847   5.738   4.419   1.387
 2316SOL    HW2 7848   5.773   4.287   1.298
 2317SOL     OW 7849   0.290   6.571   3.750
 2317SOL    HW1 7850   0.284   6.563   3.849
 2317SOL    HW2 7851   0.266   6.664   3.722
 2318SOL     OW 7852   7.002   1.807   3.287
 2318SOL    HW1 7853   6.989   1.872   3.212
 2318SOL    HW2 7854   6.914   1.783   3.326
 2319SOL     OW 7855   1.130   5.601   2.935
 2319SOL    HW1 7856   1.087   5.666   2.873
 2319SOL    HW2 7857   1.220   5.574   2.899
 2320SOL     OW 7858   6.697   4.696   3.278
 2320SOL    HW1 7859   6.665   4.730   3.366
 2320SOL    HW2 7860   6.796   4.711   3.270
 2321SOL     OW 7861   3.336   4.885   3.901
 2321SOL    HW1 7862   3.247   4.890   3.946
 2321SOL    HW2 7863   3.324   4.850   3.808
 2322SOL     OW 7864   2.089   1.872   4.517
 2322SOL    HW1 7865   2.063   1.809   4.591
 2322SOL    HW2 7866   2.078   1.825   4.429
 2323SOL     OW 7867   5.604   3.837   1.413
 2323SOL    HW1 7868   5.553   3.799   1.491
 2323SOL    HW2 7869   5.614   3.766   1.343
 2324SOL     OW 7870   0.635   5.602   4.164
 2324SOL    HW1 7871   0.570   5.566   4.097
 2324SOL    HW2 7872   0.589   5.668   4.224
 2325SOL     OW 7873   6.310   2.089   0.937
 2325SOL    HW1 7874   6.245   2.026   0.980
 2325SOL    HW2 7875   6.306   2.178   0.984
 2326SOL     OW 7876   0.474   5.462   0.424
 2326SOL    HW1 7877   0.428   5.545   0.392
 2326SOL    HW2 7878   0.422   5.382   0.395
 2327SOL     OW 7879   4.779   1.690   3.170
 2327SOL    HW1 7880   4.828   1.621   3.223
 2327SOL    HW2 7881   4.712   1.644   3.111
 2328SOL     OW 7882   6.134   4.970   4.005
 2328SOL    HW1 7883   6.206   4.934   4.065
 2328SOL    HW2 7884   6.088   5.046   4.051
 2329SOL     OW 7885   1.576   6.652   3.543
 2329SOL    HW1 7886   1.672   6.623   3.550
 2329SOL    HW2 7887   1.565   6.740   3.589
 2330SOL     OW 7888   2.022   4.226   0.235
 2330SOL    HW1 7889   1.922   4.219   0.235
 2330SOL    HW2 7890   2.050   4.299   0.298
 2331SOL     OW 7891   1.914   4.862   4.804
 2331SOL    HW1 7892   1.834   4.870   4.744
 2331SOL    HW2 7893   1.914   4.938   4.870
 2332SOL     OW 7894   6.904   3.454   6.200
 2332SOL    HW1 7895   6.837   3.401   6.253
 2332SOL    HW2 7896   6.996   3.418   6.217
 2333SOL     OW 7897   2.453   4.361   4.092
 2333SOL    HW1 7898   2.410   4.326   4.175
 2333SOL    HW2 7899   2.553   4.349   4.100
 2334SOL     OW 7900   2.823   0.351   5.869
 2334SOL    HW1 7901   2.735   0.320   5.906
 2334SOL    HW2 7902   2.890   0.278   5.880
 2335SOL     OW 7903   4.839   4.342   4.261
 2335SOL    HW1 7904   4.771   4.334   4.334
 2335SOL    HW2 7905   4.918   4.394   4.295
 2336SOL     OW 7906   4.853   1.224   5.254
 2336SOL    HW1 7907   4.812   1.211   5.164
 2336SOL    HW2 7908   4.804   1.296   5.303
 2337SOL     OW 7909   5.727   0.675   5.221
 2337SOL    HW1 7910   5.731   0.685   5.320
 2337SOL    HW2 7911   5.750   0.581   5.195
 2338SOL     OW 7912   1.463   0.113   6.634
 2338SOL    HW1 7913   1.470   0.073   6.725
 2338SOL    HW2 7914   1.367   0.119   6.608
 2339SOL     OW 7915   3.655   4.754   6.662
 2339SOL    HW1 7916   3.708   4.673   6.637
 2339SOL    HW2 7917   3.631   4.749   6.759
 2340SOL     OW 7918   4.377   4.792   4.316
 2340SOL    HW1 7919   4.284   4.757   4.306
 2340SOL    HW2 7920   4.403   4.841   4.232
 2341SOL     OW 7921   0.217   3.881   6.111
 2341SOL    HW1 7922   0.216   3.809   6.041
 2341SOL    HW2 7923   0.127   3.925   6.114
 2342SOL     OW 7924   5.609   0.583   5.919
 2342SOL    HW1 7925   5.574   0.641   5.846
 2342SOL    HW2 7926   5.643   0.641   5.994
 2343SOL     OW 7927   1.478   5.850   1.760
 2343SOL    HW1 7928   1.546   5.866   1.832
 2343SOL    HW2 7929   1.522   5.803   1.683
 2344SOL     OW 7930   2.083   0.813   2.916
 2344SOL    HW1 7931   2.090   0.908   2.885
 2344SOL    HW2 7932   2.175   0.775   2.927
 2345SOL     OW 7933   1.064   2.384   2.284
 2345SOL    HW1 7934   1.142   2.396   2.347
 2345SOL    HW2 7935   1.053   2.287   2.264
 2346SOL     OW 7936   5.034   3.103   5.097
 2346SOL    HW1 7937   5.072   3.188   5.134
 2346SOL    HW2 7938   4.956   3.124   5.038
 2347SOL     OW 7939   1.459   4.254   0.662
 2347SOL    HW1 7940   1.542   4.262   0.607
 2347SOL    HW2 7941   1.428   4.159   0.663
 2348SOL     OW 7942   3.179   0.120   1.365
 2348SOL    HW1 7943   3.205   0.208   1.405
 2348SOL    HW2 7944   3.191   0.048   1.433
 2349SOL     OW 7945   5.799   3.096   0.090
 2349SOL    HW1 7946   5.787   3.177   0.032
 2349SOL    HW2 7947   5.761   3.016   0.044
 2350SOL     OW 7948   2.416   5.823   5.722
 2350SOL    HW1 7949   2.345   5.770   5.676
 2350SOL    HW2 7950   2.397   5.827   5.820
 2351SOL     OW 7951   1.922   5.106   3.489
 2351SOL    HW1 7952   2.014   5.068   3.486
 2351SOL    HW2 7953   1.897   5.126   3.584
 2352SOL     OW 7954   5.998   5.992   6.299
 2352SOL    HW1 7955   6.064   5.944   6.241
 2352SOL    HW2 7956   6.022   6.089   6.305
 2353SOL     OW 7957   3.223   2.787   6.260
 2353SOL    HW1 7958   3.127   2.810   6.278
 2353SOL    HW2 7959   3.249   2.824   6.171
 2354SOL     OW 7960   3.607   1.832   2.205
 2354SOL    HW1 7961   3.572   1.898   2.138
 2354SOL    HW2 7962   3.598   1.739   2.167
 2355SOL     OW 7963   0.009   1.446   2.416
 2355SOL    HW1 7964   0.021   1.386   2.337
 2355SOL    HW2 7965   0.072   1.418   2.488
 2356SOL     OW 7966   3.792   4.940   4.062
 2356SOL    HW1 7967   3.828   4.919   4.153
 2356SOL    HW2 7968   3.692   4.937   4.064
 2357SOL     OW 7969   0.981   5.696   1.180
 2357SOL    HW1 7970   0.891   5.728   1.209
 2357SOL    HW2 7971   1.024   5.644   1.254
 2358SOL     OW 7972   2.137   0.672   5.573
 2358SOL    HW1 7973   2.144   0.656   5.672
 2358SOL    HW2 7974   2.218   0.634   5.528
 2359SOL     OW 7975   3.177   2.516   6.262
 2359SOL    HW1 7976   3.239   2.451   6.307
 2359SOL    HW2 7977   3.218   2.607   6.263
 2360SOL     OW 7978   3.142   4.882   1.017
 2360SOL    HW1 7979   3.085   4.829   0.955
 2360SOL    HW2 7980   3.229   4.835   1.032
 2361SOL     OW 7981   3.508   4.814   1.312
 2361SOL    HW1 7982   3.471   4.907   1.309
 2361SOL    HW2 7983   3.608   4.818   1.316
 2362SOL     OW 7984   2.808   4.799   4.251
 2362SOL    HW1 7985   2.876   4.838   4.314
 2362SOL    HW2 7986   2.729   4.768   4.303
 2363SOL     OW 7987   2.314   4.024   1.535
 2363SOL    HW1 7988   2.292   4.121   1.543
 2363SOL    HW2 7989   2.229   3.971   1.527
 2364SOL     OW 7990   5.046   0.966   2.600
 2364SOL    HW1 7991   5.043   0.998   2.505
 2364SOL    HW2 7992   5.039   1.044   2.662
 2365SOL     OW 7993   5.992   4.368   2.781
 2365SOL    HW1 7994   5.998   4.308   2.860
 2365SOL    HW2 7995   6.045   4.330   2.706
 2366SOL     OW 7996   3.586   5.153   5.232
 2366SOL    HW1 7997   3.645   5.234   5.240
 2366SOL    HW2 7998   3.612   5.102   5.150
 2367SOL     OW 7999   6.105   4.514   5.526
 2367SOL    HW1 8000   6.095   4.517   5.427
 2367SOL    HW2 8001   6.179   4.451   5.550
 2368SOL     OW 8002   5.178   0.791   5.458
 2368SOL    HW1 8003   5.239   0.720   5.494
 2368SOL    HW2 8004   5.164   0.860   5.529
 2369SOL     OW 8005   3.929   1.962   3.994
 2369SOL    HW1 8006   3.849   1.901   3.993
 2369SOL    HW2 8007   3.997   1.929   3.929
 2370SOL     OW 8008   3.875   2.126   1.016
 2370SOL    HW1 8009   3.878   2.027   1.004
 2370SOL    HW2 8010   3.946   2.154   1.080
 2371SOL     OW 8011   2.449   6.844   2.772
 2371SOL    HW1 8012   2.430   6.882   2.862
 2371SOL    HW2 8013   2.370   6.857   2.713
 2372SOL     OW 8014   6.308   6.918   6.124
 2372SOL    HW1 8015   6.248   6.950   6.197
 2372SOL    HW2 8016   6.267   6.941   6.035
 2373SOL     OW 8017   6.646   4.068   5.693
 2373SOL    HW1 8018   6.590   4.140   5.735
 2373SOL    HW2 8019   6.589   3.987   5.676
 2374SOL     OW 8020   7.002   5.903   2.876
 2374SOL    HW1 8021   0.039   5.961   2.824
 2374SOL    HW2 8022   7.007   5.927   2.973
 2375SOL     OW 8023   1.954   0.150   4.412
 2375SOL    HW1 8024   1.978   0.070   4.357
 2375SOL    HW2 8025   1.963   0.127   4.509
 2376SOL     OW 8026   5.560   3.324   3.721
 2376SOL    HW1 8027   5.527   3.339   3.628
 2376SOL    HW2 8028   5.660   3.317   3.720
 2377SOL     OW 8029   3.701   4.533   6.078
 2377SOL    HW1 8030   3.714   4.462   6.148
 2377SOL    HW2 8031   3.706   4.492   5.987
 2378SOL     OW 8032   0.657   0.945   0.611
 2378SOL    HW1 8033   0.738   0.890   0.593
 2378SOL    HW2 8034   0.684   1.033   0.649
 2379SOL     OW 8035   0.674   4.838   2.516
 2379SOL    HW1 8036   0.580   4.805   2.525
 2379SOL    HW2 8037   0.681   4.898   2.437
 2380SOL     OW 8038   4.833   5.733   6.612
 2380SOL    HW1 8039   4.752   5.788   6.592
 2380SOL    HW2 8040   4.865   5.754   6.705
 2381SOL     OW 8041   1.986   3.896   3.895
 2381SOL    HW1 8042   2.048   3.893   3.817
 2381SOL    HW2 8043   1.921   3.820   3.889
 2382SOL     OW 8044   6.188   6.066   2.605
 2382SOL    HW1 8045   6.258   6.110   2.660
 2382SOL    HW2 8046   6.191   6.101   2.512
 2383SOL     OW 8047   5.296   4.118   6.059
 2383SOL    HW1 8048   5.373   4.153   6.005
 2383SOL    HW2 8049   5.328   4.046   6.120
 2384SOL     OW 8050   0.864   2.040   3.197
 2384SOL    HW1 8051   0.775   2.025   3.240
 2384SOL    HW2 8052   0.929   2.074   3.265
 2385SOL     OW 8053   0.405   0.986   0.891
 2385SOL    HW1 8054   0.358   1.074   0.880
 2385SOL    HW2 8055   0.419   0.944   0.802
 2386SOL     OW 8056   6.744   4.767   5.834
 2386SOL    HW1 8057   6.690   4.850   5.848
 2386SOL    HW2 8058   6.821   4.767   5.899
 2387SOL     OW 8059   0.050   0.342   3.545
 2387SOL    HW1 8060   0.113   0.419   3.544
 2387SOL    HW2 8061   0.073   0.280   3.469
 2388SOL     OW 8062   1.867   3.798   4.135
 2388SOL    HW1 8063   1.861   3.876   4.073
 2388SOL    HW2 8064   1.870   3.714   4.082
 2389SOL     OW 8065   3.545   0.267   2.940
 2389SOL    HW1 8066   3.494   0.309   2.865
 2389SOL    HW2 8067   3.617   0.208   2.902
 2390SOL     OW 8068   5.045   2.932   5.321
 2390SOL    HW1 8069   5.053   2.988   5.239
 2390SOL    HW2 8070   4.953   2.893   5.325
 2391SOL     OW 8071   2.661   3.824   6.344
 2391SOL    HW1 8072   2.740   3.763   6.336
 2391SOL    HW2 8073   2.619   3.835   6.254
 2392SOL     OW 8074   4.074   5.389   5.822
 2392SOL    HW1 8075   4.036   5.479   5.796
 2392SOL    HW2 8076   4.071   5.379   5.921
 2393SOL     OW 8077   4.363   4.513   0.183
 2393SOL    HW1 8078   4.348   4.604   0.144
 2393SOL    HW2 8079   4.276   4.477   0.218
 2394SOL     OW 8080   0.118   2.809   3.104
 2394SOL    HW1 8081   0.062   2.872   3.158
 2394SOL    HW2 8082   0.076   2.718   3.103
 2395SOL     OW 8083   1.349   2.297   3.968
 2395SOL    HW1 8084   1.316   2.384   3.933
 2395SOL    HW2 8085   1.274   2.230   3.966
 2396SOL     OW 8086   0.139   0.530   6.131
 2396SOL    HW1 8087   0.225   0.580   6.123
 2396SOL    HW2 8088   0.068   0.592   6.166
 2397SOL     OW 8089   2.279   4.480   5.969
 2397SOL    HW1 8090   2.181   4.460   5.970
 2397SOL    HW2 8091   2.326   4.413   5.912
 2398SOL     OW 8092   3.810   6.282   4.592
 2398SOL    HW1 8093   3.830   6.291   4.495
 2398SOL    HW2 8094   3.759   6.197   4.608
 2399SOL     OW 8095   3.399   1.736   2.446
 2399SOL    HW1 8096   3.391   1.638   2.464
 2399SOL    HW2 8097   3.492   1.756   2.414
 2400SOL     OW 8098   0.785   2.261   6.776
 2400SOL    HW1 8099   0.827   2.336   6.827
 2400SOL    HW2 8100   0.770   2.183   6.837
 2401SOL     OW 8101   1.170   6.848   1.123
 2401SOL    HW1 8102   1.177   6.801   1.211
 2401SOL    HW2 8103   1.240   6.919   1.117
 2402SOL     OW 8104   0.448   3.039   1.822
 2402SOL    HW1 8105   0.483   3.065   1.731
 2402SOL    HW2 8106   0.485   2.950   1.848
 2403SOL     OW 8107   3.036   4.328   5.346
 2403SOL    HW1 8108   2.995   4.241   5.318
 2403SOL    HW2 8109   2.989   4.403   5.300
 2404SOL     OW 8110   6.449   2.096   2.014
 2404SOL    HW1 8111   6.525   2.153   2.046
 2404SOL    HW2 8112   6.382   2.086   2.087
 2405SOL     OW 8113   2.436   2.986   0.501
 2405SOL    HW1 8114   2.421   3.065   0.442
 2405SOL    HW2 8115   2.532   2.982   0.529
 2406SOL     OW 8116   4.060   5.940   5.084
 2406SOL    HW1 8117   4.093   5.911   5.174
 2406SOL    HW2 8118   4.125   5.913   5.014
 2407SOL     OW 8119   2.100   1.701   3.376
 2407SOL    HW1 8120   2.135   1.663   3.290
 2407SOL    HW2 8121   2.173   1.701   3.444
 2408SOL     OW 8122   4.587   6.905   4.926
 2408SOL    HW1 8123   4.619   6.997   4.947
 2408SOL    HW2 8124   4.546   6.864   5.007
 2409SOL     OW 8125   1.245   3.156   6.637
 2409SOL    HW1 8126   1.149   3.130   6.646
 2409SOL    HW2 8127   1.266   3.171   6.540
 2410SOL     OW 8128   6.537   3.736   4.550
 2410SOL    HW1 8129   6.525   3.820   4.497
 2410SOL    HW2 8130   6.448   3.708   4.588
 2411SOL     OW 8131   3.055   1.622   1.006
 2411SOL    HW1 8132   2.979   1.572   0.965
 2411SOL    HW2 8133   3.124   1.641   0.936
 2412SOL     OW 8134   3.536   2.393   0.089
 2412SOL    HW1 8135   3.554   2.441   0.174
 2412SOL    HW2 8136   3.535   2.294   0.107
 2413SOL     OW 8137   6.715   3.706   6.188
 2413SOL    HW1 8138   6.778   3.712   6.265
 2413SOL    HW2 8139   6.761   3.668   6.109
 2414SOL     OW 8140   6.400   1.592   4.664
 2414SOL    HW1 8141   6.450   1.575   4.749
 2414SOL    HW2 8142   6.465   1.599   4.588
 2415SOL     OW 8143   3.307   3.839   5.276
 2415SOL    HW1 8144   3.275   3.930   5.250
 2415SOL    HW2 8145   3.249   3.769   5.235
 2416SOL     OW 8146   0.026   3.676   3.652
 2416SOL    HW1 8147   7.022   3.771   3.662
 2416SOL    HW2 8148   7.012   3.621   3.726
 2417SOL     OW 8149   3.612   2.772   1.686
 2417SOL    HW1 8150   3.654   2.749   1.599
 2417SOL    HW2 8151   3.517   2.740   1.687
 2418SOL     OW 8152   6.189   3.579   6.594
 2418SOL    HW1 8153   6.119   3.621   6.653
 2418SOL    HW2 8154   6.154   3.493   6.558
 2419SOL     OW 8155   3.669   0.821   2.961
 2419SOL    HW1 8156   3.720   0.879   2.897
 2419SOL    HW2 8157   3.732   0.783   3.029
 2420SOL     OW 8158   1.029   3.099   1.325
 2420SOL    HW1 8159   1.016   3.000   1.336
 2420SOL    HW2 8160   1.116   3.116   1.279
 2421SOL     OW 8161   2.588   0.424   2.974
 2421SOL    HW1 8162   2.641   0.501   3.008
 2421SOL    HW2 8163   2.634   0.383   2.895
 2422SOL     OW 8164   3.516   6.788   0.618
 2422SOL    HW1 8165   3.531   6.827   0.527
 2422SOL    HW2 8166   3.584   6.824   0.682
 2423SOL     OW 8167   3.972   4.992   4.819
 2423SOL    HW1 8168   4.047   4.929   4.840
 2423SOL    HW2 8169   3.946   5.040   4.903
 2424SOL     OW 8170   5.284   0.324   6.199
 2424SOL    HW1 8171   5.244   0.253   6.143
 2424SOL    HW2 8172   5.369   0.291   6.240
 2425SOL     OW 8173   4.861   5.306   5.095
 2425SOL    HW1 8174   4.891   5.271   5.006
 2425SOL    HW2 8175   4.872   5.234   5.164
 2426SOL     OW 8176   3.202   2.389   5.602
 2426SOL    HW1 8177   3.128   2.430   5.549
 2426SOL    HW2 8178   3.287   2.393   5.549
 2427SOL     OW 8179   4.384   1.989   7.006
 2427SOL    HW1 8180   4.468   2.042   7.020
 2427SOL    HW2 8181   4.356   1.948   0.068
 2428SOL     OW 8182   1.917   1.738   2.489
 2428SOL    HW1 8183   1.979   1.801   2.443
 2428SOL    HW2 8184   1.843   1.790   2.532
 2429SOL     OW 8185   5.241   5.874   1.544
 2429SOL    HW1 8186   5.146   5.878   1.574
 2429SOL    HW2 8187   5.281   5.965   1.549
 2430SOL     OW 8188   6.485   0.041   6.930
 2430SOL    HW1 8189   6.501   0.075   6.838
 2430SOL    HW2 8190   6.423   0.102   6.978
 2431SOL     OW 8191   1.722   2.348   1.324
 2431SOL    HW1 8192   1.699   2.264   1.273
 2431SOL    HW2 8193   1.818   2.345   1.351
 2432SOL     OW 8194   3.158   6.065   2.428
 2432SOL    HW1 8195   3.156   6.148   2.372
 2432SOL    HW2 8196   3.183   6.089   2.522
 2433SOL     OW 8197   0.587   4.549   4.215
 2433SOL    HW1 8198   0.687   4.547   4.219
 2433SOL    HW2 8199   0.559   4.576   4.122
 2434SOL     OW 8200   4.002   1.913   2.960
 2434SOL    HW1 8201   4.016   2.010   2.982
 2434SOL    HW2 8202   4.021   1.858   3.041
 2435SOL     OW 8203   5.449   6.826   6.201
 2435SOL    HW1 8204   5.517   6.771   6.152
 2435SOL    HW2 8205   5.357   6.801   6.171
 2436SOL     OW 8206   0.114   2.683   0.500
 2436SOL    HW1 8207   0.209   2.696   0.472
 2436SOL    HW2 8208   0.110   2.666   0.598
 2437SOL     OW 8209   1.144   4.935   1.481
 2437SOL    HW1 8210   1.053   4.949   1.521
 2437SOL    HW2 8211   1.135   4.879   1.399
 2438SOL     OW 8212   3.605   1.828   4.338
 2438SOL    HW1 8213   3.660   1.876   4.269
 2438SOL    HW2 8214   3.600   1.885   4.420
 2439SOL     OW 8215   0.589   5.897   6.938
 2439SOL    HW1 8216   0.670   5.937   6.894
 2439SOL    HW2 8217   0.508   5.918   6.883
 2440SOL     OW 8218   6.511   2.433   5.298
 2440SOL    HW1 8219   6.428   2.482   5.323
 2440SOL    HW2 8220   6.507   2.408   5.201
 2441SOL     OW 8221   6.615   0.434   6.930
 2441SOL    HW1 8222   6.694   0.381   6.902
 2441SOL    HW2 8223   6.614   0.445   0.004
 2442SOL     OW 8224   5.355   2.893   2.770
 2442SOL    HW1 8225   5.297   2.974   2.781
 2442SOL    HW2 8226   5.301   2.817   2.735
 2443SOL     OW 8227   0.327   3.130   1.078
 2443SOL    HW1 8228   0.396   3.171   1.018
 2443SOL    HW2 8229   0.243   3.185   1.073
 2444SOL     OW 8230   3.425   5.130   2.801
 2444SOL    HW1 8231   3.354   5.190   2.764
 2444SOL    HW2 8232   3.514   5.174   2.791
 2445SOL     OW 8233   0.594   1.846   1.403
 2445SOL    HW1 8234   0.515   1.825   1.462
 2445SOL    HW2 8235   0.564   1.851   1.308
 2446SOL     OW 8236   6.685   5.925   0.780
 2446SOL    HW1 8237   6.695   6.020   0.752
 2446SOL    HW2 8238   6.701   5.865   0.701
 2447SOL     OW 8239   2.436   6.920   6.966
 2447SOL    HW1 8240   2.468   7.004   6.923
 2447SOL    HW2 8241   2.513   6.876   7.013
 2448SOL     OW 8242   5.759   0.839   4.178
 2448SOL    HW1 8243   5.712   0.917   4.219
 2448SOL    HW2 8244   5.702   0.797   4.108
 2449SOL     OW 8245   2.020   4.141   1.209
 2449SOL    HW1 8246   2.030   4.159   1.111
 2449SOL    HW2 8247   2.070   4.210   1.261
 2450SOL     OW 8248   6.768   6.603   5.269
 2450SOL    HW1 8249   6.852   6.559   5.237
 2450SOL    HW2 8250   6.771   6.612   5.369
 2451SOL     OW 8251   1.502   6.875   0.050
 2451SOL    HW1 8252   1.437   6.894   7.001
 2451SOL    HW2 8253   1.525   6.778   0.049
 2452SOL     OW 8254   1.921   2.401   3.339
 2452SOL    HW1 8255   1.866   2.338   3.286
 2452SOL    HW2 8256   2.008   2.418   3.292
 2453SOL     OW 8257   1.191   2.181   6.203
 2453SOL    HW1 8258   1.259   2.234   6.255
 2453SOL    HW2 8259   1.147   2.240   6.136
 2454SOL     OW 8260   2.519   6.511   6.964
 2454SOL    HW1 8261   2.472   6.424   6.954
 2454SOL    HW2 8262   2.539   6.527   0.036
 2455SOL     OW 8263   4.912   2.195   0.390
 2455SOL    HW1 8264   4.974   2.142   0.332
 2455SOL    HW2 8265   4.963   2.232   0.467
 2456SOL     OW 8266   0.669   3.223   6.062
 2456SOL    HW1 8267   0.682   3.298   6.128
 2456SOL    HW2 8268   0.617   3.150   6.106
 2457SOL     OW 8269   5.053   1.700   5.985
 2457SOL    HW1 8270   5.018   1.692   5.891
 2457SOL    HW2 8271   5.002   1.638   6.045
 2458SOL     OW 8272   0.988   0.070   2.319
 2458SOL    HW1 8273   0.952   0.055   2.227
 2458SOL    HW2 8274   0.961   0.161   2.351
 2459SOL     OW 8275   1.845   6.359   1.536
 2459SOL    HW1 8276   1.898   6.336   1.617
 2459SOL    HW2 8277   1.899   6.339   1.454
 2460SOL     OW 8278   0.217   0.618   4.111
 2460SOL    HW1 8279   0.133   0.669   4.089
 2460SOL    HW2 8280   0.237   0.630   4.209
 2461SOL     OW 8281   2.293   1.389   3.148
 2461SOL    HW1 8282   2.207   1.431   3.177
 2461SOL    HW2 8283   2.366   1.413   3.212
 2462SOL     OW 8284   0.336   6.124   0.968
 2462SOL    HW1 8285   0.360   6.072   0.886
 2462SOL    HW2 8286   0.251   6.174   0.951
 2463SOL     OW 8287   6.898   6.972   0.948
 2463SOL    HW1 8288   6.854   0.037   0.950
 2463SOL    HW2 8289   6.898   6.933   1.040
 2464SOL     OW 8290   0.926   2.470   4.881
 2464SOL    HW1 8291   0.996   2.453   4.811
 2464SOL    HW2 8292   0.948   2.417   4.963
 2465SOL     OW 8293   6.399   1.502   0.154
 2465SOL    HW1 8294   6.485   1.507   0.104
 2465SOL    HW2 8295   6.325   1.536   0.097
 2466SOL     OW 8296   0.991   2.120   1.178
 2466SOL    HW1 8297   1.018   2.216   1.167
 2466SOL    HW2 8298   0.898   2.107   1.144
 2467SOL     OW 8299   5.235   2.301   5.346
 2467SOL    HW1 8300   5.211   2.397   5.359
 2467SOL    HW2 8301   5.151   2.246   5.338
 2468SOL     OW 8302   2.876   0.234   4.884
 2468SOL    HW1 8303   2.887   0.165   4.813
 2468SOL    HW2 8304   2.946   0.220   4.954
 2469SOL     OW 8305   2.813   1.897   6.311
 2469SOL    HW1 8306   2.859   1.859   6.231
 2469SOL    HW2 8307   2.801   1.825   6.380
 2470SOL     OW 8308   1.898   5.525   6.626
 2470SOL    HW1 8309   1.952   5.610   6.632
 2470SOL    HW2 8310   1.801   5.548   6.619
 2471SOL     OW 8311   3.288   5.403   2.896
 2471SOL    HW1 8312   3.284   5.354   2.809
 2471SOL    HW2 8313   3.197   5.402   2.939
 2472SOL     OW 8314   5.038   1.068   3.143
 2472SOL    HW1 8315   4.961   1.044   3.201
 2472SOL    HW2 8316   5.064   1.163   3.160
 2473SOL     OW 8317   0.822   3.938   4.851
 2473SOL    HW1 8318   0.868   3.902   4.770
 2473SOL    HW2 8319   0.890   3.969   4.917
 2474SOL     OW 8320   1.665   6.742   1.011
 2474SOL    HW1 8321   1.639   6.801   0.934
 2474SOL    HW2 8322   1.588   6.733   1.074
 2475SOL     OW 8323   5.434   1.775   0.837
 2475SOL    HW1 8324   5.500   1.783   0.912
 2475SOL    HW2 8325   5.483   1.778   0.750
 2476SOL     OW 8326   4.741   0.118   6.835
 2476SOL    HW1 8327   4.704   0.161   6.918
 2476SOL    HW2 8328   4.668   0.109   6.767
 2477SOL     OW 8329   3.594   1.438   3.683
 2477SOL    HW1 8330   3.636   1.528   3.674
 2477SOL    HW2 8331   3.519   1.443   3.749
 2478SOL     OW 8332   3.534   0.702   4.180
 2478SOL    HW1 8333   3.580   0.614   4.176
 2478SOL    HW2 8334   3.521   0.729   4.276
 2479SOL     OW 8335   5.986   4.348   1.627
 2479SOL    HW1 8336   6.006   4.371   1.532
 2479SOL    HW2 8337   5.985   4.249   1.638
 2480SOL     OW 8338   3.250   2.423   1.680
 2480SOL    HW1 8339   3.311   2.346   1.697
 2480SOL    HW2 8340   3.174   2.393   1.622
 2481SOL     OW 8341   3.071   6.902   2.088
 2481SOL    HW1 8342   3.082   6.892   1.989
 2481SOL    HW2 8343   3.072   6.812   2.131
 2482SOL     OW 8344   6.975   2.927   6.767
 2482SOL    HW1 8345   6.937   2.840   6.736
 2482SOL    HW2 8346   6.901   2.985   6.801
 2483SOL     OW 8347   2.463   2.191   1.577
 2483SOL    HW1 8348   2.454   2.225   1.670
 2483SOL    HW2 8349   2.536   2.122   1.573
 2484SOL     OW 8350   4.297   0.496   6.567
 2484SOL    HW1 8351   4.308   0.472   6.470
 2484SOL    HW2 8352   4.217   0.449   6.604
 2485SOL     OW 8353   0.283   1.560   6.419
 2485SOL    HW1 8354   0.301   1.472   6.462
 2485SOL    HW2 8355   0.370   1.608   6.404
 2486SOL     OW 8356   6.726   6.196   3.391
 2486SOL    HW1 8357   6.818   6.234   3.398
 2486SOL    HW2 8358   6.692   6.176   3.483
 2487SOL     OW 8359   4.390   6.334   0.105
 2487SOL    HW1 8360   4.456   6.391   0.055
 2487SOL    HW2 8361   4.438   6.257   0.147
 2488SOL     OW 8362   0.008   3.857   0.720
 2488SOL    HW1 8363   0.051   3.767   0.718
 2488SOL    HW2 8364   0.002   3.889   0.814
 2489SOL     OW 8365   6.188   5.482   4.527
 2489SOL    HW1 8366   6.098   5.527   4.524
 2489SOL    HW2 8367   6.175   5.384   4.541
 2490SOL     OW 8368   2.684   5.867   2.027
 2490SOL    HW1 8369   2.603   5.810   2.044
 2490SOL    HW2 8370   2.746   5.819   1.966
 2491SOL     OW 8371   3.912   4.721   1.848
 2491SOL    HW1 8372   3.996   4.758   1.808
 2491SOL    HW2 8373   3.869   4.658   1.783
 2492SOL     OW 8374   6.781   5.476   1.763
 2492SOL    HW1 8375   6.822   5.499   1.675
 2492SOL    HW2 8376   6.853   5.452   1.829
 2493SOL     OW 8377   5.898   6.345   0.680
 2493SOL    HW1 8378   5.944   6.332   0.592
 2493SOL    HW2 8379   5.957   6.398   0.741
 2494SOL     OW 8380   6.963   3.949   0.978
 2494SOL    HW1 8381   6.974   3.986   1.071
 2494SOL    HW2 8382   6.881   3.987   0.936
 2495SOL     OW 8383   6.849   3.378   2.188
 2495SOL    HW1 8384   6.894   3.429   2.262
 2495SOL    HW2 8385   6.918   3.351   2.120
 2496SOL     OW 8386   5.900   4.057   6.236
 2496SOL    HW1 8387   5.912   3.975   6.291
 2496SOL    HW2 8388   5.918   4.037   6.140
 2497SOL     OW 8389   0.519   6.909   3.804
 2497SOL    HW1 8390   0.484   6.976   3.869
 2497SOL    HW2 8391   0.593   6.857   3.847
 2498SOL     OW 8392   2.064   3.265   4.644
 2498SOL    HW1 8393   2.075   3.250   4.546
 2498SOL    HW2 8394   2.037   3.360   4.660
 2499SOL     OW 8395   6.283   3.630   2.182
 2499SOL    HW1 8396   6.303   3.537   2.151
 2499SOL    HW2 8397   6.301   3.695   2.107
 2500SOL     OW 8398   3.598   3.600   2.047
 2500SOL    HW1 8399   3.624   3.657   2.126
 2500SOL    HW2 8400   3.547   3.521   2.079
 2501SOL     OW 8401   6.263   5.521   4.959
 2501SOL    HW1 8402   6.354   5.562   4.971
 2501SOL    HW2 8403   6.214   5.522   5.046
 2502SOL     OW 8404   2.778   5.319   3.776
 2502SOL    HW1 8405   2.807   5.269   3.694
 2502SOL    HW2 8406   2.758   5.414   3.752
 2503SOL     OW 8407   2.537   0.110   5.319
 2503SOL    HW1 8408   2.445   0.072   5.312
 2503SOL    HW2 8409   2.584   0.100   5.231
 2504SOL     OW 8410   4.157   0.253   3.351
 2504SOL    HW1 8411   4.248   0.295   3.355
 2504SOL    HW2 8412   4.098   0.295   3.419
 2505SOL     OW 8413   5.797   4.815   4.033
 2505SOL    HW1 8414   5.884   4.764   4.037
 2505SOL    HW2 8415   5.791   4.876   4.112
 2506SOL     OW 8416   6.438   5.410   6.408
 2506SOL    HW1 8417   6.395   5.476   6.347
 2506SOL    HW2 8418   6.528   5.385   6.372
 2507SOL     OW 8419   6.323   3.302   3.301
 2507SOL    HW1 8420   6.244   3.244   3.286
 2507SOL    HW2 8421   6.297   3.398   3.286
 2508SOL     OW 8422   5.975   0.987   3.637
 2508SOL    HW1 8423   6.006   0.918   3.571
 2508SOL    HW2 8424   5.995   0.957   3.730
 2509SOL     OW 8425   0.249   2.603   6.124
 2509SOL    HW1 8426   0.301   2.650   6.195
 2509SOL    HW2 8427   0.245   2.660   6.042
 2510SOL     OW 8428   3.555   4.169   2.383
 2510SOL    HW1 8429   3.568   4.267   2.397
 2510SOL    HW2 8430   3.629   4.134   2.326
 2511SOL     OW 8431   2.280   1.101   4.423
 2511SOL    HW1 8432   2.241   1.075   4.334
 2511SOL    HW2 8433   2.214   1.082   4.495
 2512SOL     OW 8434   3.836   4.917   3.784
 2512SOL    HW1 8435   3.829   4.920   3.884
 2512SOL    HW2 8436   3.907   4.981   3.754
 2513SOL     OW 8437   2.017   5.767   6.644
 2513SOL    HW1 8438   1.958   5.844   6.621
 2513SOL    HW2 8439   2.105   5.800   6.678
 2514SOL     OW 8440   1.687   2.197   2.892
 2514SOL    HW1 8441   1.758   2.238   2.834
 2514SOL    HW2 8442   1.603   2.250   2.884
 2515SOL     OW 8443   6.889   1.819   1.187
 2515SOL    HW1 8444   6.799   1.776   1.181
 2515SOL    HW2 8445   6.909   1.866   1.101
 2516SOL     OW 8446   6.425   2.343   5.051
 2516SOL    HW1 8447   6.432   2.308   4.958
 2516SOL    HW2 8448   6.329   2.366   5.070
 2517SOL     OW 8449   0.091   1.277   4.495
 2517SOL    HW1 8450   0.183   1.301   4.464
 2517SOL    HW2 8451   0.089   1.275   4.595
 2518SOL     OW 8452   2.862   4.096   1.413
 2518SOL    HW1 8453   2.883   4.026   1.345
 2518SOL    HW2 8454   2.849   4.053   1.502
 2519SOL     OW 8455   0.772   1.042   0.901
 2519SOL    HW1 8456   0.738   1.062   0.993
 2519SOL    HW2 8457   0.787   1.127   0.851
 2520SOL     OW 8458   2.681   2.827   0.974
 2520SOL    HW1 8459   2.747   2.768   0.927
 2520SOL    HW2 8460   2.647   2.896   0.909
 2521SOL     OW 8461   4.943   0.474   5.388
 2521SOL    HW1 8462   4.980   0.457   5.296
 2521SOL    HW2 8463   4.866   0.538   5.382
 2522SOL     OW 8464   1.487   1.928   0.077
 2522SOL    HW1 8465   1.582   1.923   0.045
 2522SOL    HW2 8466   1.458   2.024   0.081
 2523SOL     OW 8467   0.763   5.718   5.627
 2523SOL    HW1 8468   0.851   5.673   5.645
 2523SOL    HW2 8469   0.765   5.760   5.537
 2524SOL     OW 8470   1.113   2.036   4.695
 2524SOL    HW1 8471   1.062   1.972   4.752
 2524SOL    HW2 8472   1.203   1.998   4.674
 2525SOL     OW 8473   6.460   2.389   6.055
 2525SOL    HW1 8474   6.453   2.484   6.025
 2525SOL    HW2 8475   6.480   2.387   6.153
 2526SOL     OW 8476   1.522   0.713   0.789
 2526SOL    HW1 8477   1.514   0.781   0.863
 2526SOL    HW2 8478   1.575   0.752   0.714
 2527SOL     OW 8479   4.050   5.195   6.796
 2527SOL    HW1 8480   4.009   5.145   6.872
 2527SOL    HW2 8481   3.999   5.177   6.712
 2528SOL     OW 8482   4.619   5.497   6.256
 2528SOL    HW1 8483   4.682   5.563   6.215
 2528SOL    HW2 8484   4.669   5.440   6.321
 2529SOL     OW 8485   0.425   6.218   5.268
 2529SOL    HW1 8486   0.444   6.157   5.345
 2529SOL    HW2 8487   0.503   6.277   5.251
 2530SOL     OW 8488   2.438   6.111   6.859
 2530SOL    HW1 8489   2.407   6.114   6.954
 2530SOL    HW2 8490   2.510   6.042   6.850
 2531SOL     OW 8491   0.445   4.614   6.233
 2531SOL    HW1 8492   0.463   4.598   6.330
 2531SOL    HW2 8493   0.372   4.554   6.202
 2532SOL     OW 8494   5.691   5.597   1.937
 2532SOL    HW1 8495   5.597   5.573   1.959
 2532SOL    HW2 8496   5.743   5.515   1.914
 2533SOL     OW 8497   4.274   0.826   3.974
 2533SOL    HW1 8498   4.298   0.901   3.912
 2533SOL    HW2 8499   4.175   0.824   3.986
 2534SOL     OW 8500   4.584   1.321   2.429
 2534SOL    HW1 8501   4.546   1.410   2.455
 2534SOL    HW2 8502   4.552   1.296   2.338
 2535SOL     OW 8503   3.754   3.225   6.161
 2535SOL    HW1 8504   3.760   3.324   6.164
 2535SOL    HW2 8505   3.802   3.190   6.081
 2536SOL     OW 8506   1.145   0.283   1.087
 2536SOL    HW1 8507   1.176   0.341   1.011
 2536SOL    HW2 8508   1.082   0.335   1.145
 2537SOL     OW 8509   4.134   6.445   5.066
 2537SOL    HW1 8510   4.036   6.463   5.073
 2537SOL    HW2 8511   4.154   6.354   5.102
 2538SOL     OW 8512   5.912   3.850   3.540
 2538SOL    HW1 8513   5.969   3.912   3.486
 2538SOL    HW2 8514   5.876   3.778   3.481
 2539SOL     OW 8515   4.892   2.205   5.352
 2539SOL    HW1 8516   4.847   2.172   5.269
 2539SOL    HW2 8517   4.976   2.154   5.367
 2540SOL     OW 8518   3.000   2.328   1.594
 2540SOL    HW1 8519   2.938   2.304   1.520
 2540SOL    HW2 8520   2.947   2.366   1.671
 2541SOL     OW 8521   3.329   6.749   3.443
 2541SOL    HW1 8522   3.289   6.765   3.354
 2541SOL    HW2 8523   3.267   6.781   3.515
 2542SOL     OW 8524   1.887   5.776   5.870
 2542SOL    HW1 8525   1.864   5.679   5.876
 2542SOL    HW2 8526   1.851   5.814   5.785
 2543SOL     OW 8527   0.423   1.154   3.899
 2543SOL    HW1 8528   0.324   1.146   3.886
 2543SOL    HW2 8529   0.465   1.195   3.818
 2544SOL     OW 8530   0.781   5.302   5.848
 2544SOL    HW1 8531   0.731   5.378   5.890
 2544SOL    HW2 8532   0.812   5.329   5.757
 2545SOL     OW 8533   2.547   5.575   3.173
 2545SOL    HW1 8534   2.519   5.607   3.263
 2545SOL    HW2 8535   2.579   5.480   3.180
 2546SOL     OW 8536   6.980   0.875   1.840
 2546SOL    HW1 8537   6.992   0.777   1.824
 2546SOL    HW2 8538   6.889   0.892   1.877
 2547SOL     OW 8539   0.596   3.419   5.278
 2547SOL    HW1 8540   0.577   3.343   5.217
 2547SOL    HW2 8541   0.510   3.457   5.312
 2548SOL     OW 8542   0.350   0.704   6.278
 2548SOL    HW1 8543   0.383   0.782   6.225
 2548SOL    HW2 8544   0.269   0.732   6.331
 2549SOL     OW 8545   5.594   2.789   2.472
 2549SOL    HW1 8546   5.602   2.870   2.414
 2549SOL    HW2 8547   5.498   2.764   2.482
 2550SOL     OW 8548   5.571   5.339   6.747
 2550SOL    HW1 8549   5.477   5.364   6.725
 2550SOL    HW2 8550   5.577   5.314   6.844
 2551SOL     OW 8551   1.162   5.220   6.623
 2551SOL    HW1 8552   1.182   5.255   6.531
 2551SOL    HW2 8553   1.106   5.138   6.616
 2552SOL     OW 8554   1.711   5.725   3.506
 2552SOL    HW1 8555   1.657   5.670   3.442
 2552SOL    HW2 8556   1.797   5.752   3.462
 2553SOL     OW 8557   4.353   3.643   0.148
 2553SOL    HW1 8558   4.327   3.555   0.187
 2553SOL    HW2 8559   4.417   3.629   0.073
 2554SOL     OW 8560   1.027   1.893   0.676
 2554SOL    HW1 8561   0.996   1.806   0.713
 2554SOL    HW2 8562   0.963   1.965   0.703
 2555SOL     OW 8563   0.330   0.130   6.219
 2555SOL    HW1 8564   0.259   0.097   6.156
 2555SOL    HW2 8565   0.354   0.057   6.283
 2556SOL     OW 8566   4.048   4.935   0.347
 2556SOL    HW1 8567   4.118   5.001   0.377
 2556SOL    HW2 8568   4.021   4.878   0.425
 2557SOL     OW 8569   1.843   4.563   0.030
 2557SOL    HW1 8570   1.836   4.656   7.020
 2557SOL    HW2 8571   1.914   4.559   0.101
 2558SOL     OW 8572   4.074   0.605   5.202
 2558SOL    HW1 8573   4.076   0.557   5.114
 2558SOL    HW2 8574   4.121   0.550   5.271
 2559SOL     OW 8575   0.675   5.031   4.991
 2559SOL    HW1 8576   0.663   5.123   5.027
 2559SOL    HW2 8577   0.721   5.036   4.902
 2560SOL     OW 8578   5.972   0.956   0.810
 2560SOL    HW1 8579   5.924   0.975   0.895
 2560SOL    HW2 8580   5.956   1.030   0.745
 2561SOL     OW 8581   3.154   5.749   3.951
 2561SOL    HW1 8582   3.177   5.769   3.856
 2561SOL    HW2 8583   3.140   5.650   3.961
 2562SOL     OW 8584   2.210   3.494   0.304
 2562SOL    HW1 8585   2.171   3.551   0.376
 2562SOL    HW2 8586   2.172   3.522   0.215
 2563SOL     OW 8587   1.553   0.529   1.713
 2563SOL    HW1 8588   1.579   0.551   1.619
 2563SOL    HW2 8589   1.535   0.614   1.764
 2564SOL     OW 8590   1.356   6.150   2.520
 2564SOL    HW1 8591   1.396   6.165   2.611
 2564SOL    HW2 8592   1.426   6.164   2.451
 2565SOL     OW 8593   0.719   0.583   1.492
 2565SOL    HW1 8594   0.755   0.490   1.490
 2565SOL    HW2 8595   0.700   0.609   1.587
 2566SOL     OW 8596   2.560   6.807   5.103
 2566SOL    HW1 8597   2.532   6.721   5.060
 2566SOL    HW2 8598   2.534   6.884   5.044
 2567SOL     OW 8599   0.934   0.410   0.867
 2567SOL    HW1 8600   0.919   0.493   0.920
 2567SOL    HW2 8601   1.032   0.397   0.852
 2568SOL     OW 8602   5.516   3.709   0.499
 2568SOL    HW1 8603   5.480   3.687   0.589
 2568SOL    HW2 8604   5.514   3.808   0.485
 2569SOL     OW 8605   2.422   0.726   2.566
 2569SOL    HW1 8606   2.451   0.818   2.593
 2569SOL    HW2 8607   2.497   0.662   2.580
 2570SOL     OW 8608   5.584   2.601   6.216
 2570SOL    HW1 8609   5.581   2.607   6.316
 2570SOL    HW2 8610   5.493   2.615   6.179
 2571SOL     OW 8611   1.229   3.816   4.557
 2571SOL    HW1 8612   1.247   3.810   4.655
 2571SOL    HW2 8613   1.282   3.892   4.518
 2572SOL     OW 8614   1.564   4.725   3.640
 2572SOL    HW1 8615   1.562   4.674   3.554
 2572SOL    HW2 8616   1.580   4.662   3.715
 2573SOL     OW 8617   1.682   0.046   6.848
 2573SOL    HW1 8618   1.715   0.138   6.824
 2573SOL    HW2 8619   1.658   0.044   6.945
 2574SOL     OW 8620   6.415   3.631   0.517
 2574SOL    HW1 8621   6.483   3.565   0.484
 2574SOL    HW2 8622   6.460   3.716   0.543
 2575SOL     OW 8623   0.402   6.588   6.175
 2575SOL    HW1 8624   0.371   6.683   6.182
 2575SOL    HW2 8625   0.470   6.581   6.101
 2576SOL     OW 8626   4.559   6.622   5.382
 2576SOL    HW1 8627   4.510   6.534   5.376
 2576SOL    HW2 8628   4.645   6.615   5.333
 2577SOL     OW 8629   1.259   3.483   2.632
 2577SOL    HW1 8630   1.347   3.526   2.654
 2577SOL    HW2 8631   1.271   3.422   2.554
 2578SOL     OW 8632   4.188   1.665   1.848
 2578SOL    HW1 8633   4.214   1.626   1.937
 2578SOL    HW2 8634   4.240   1.620   1.775
 2579SOL     OW 8635   0.182   6.241   2.969
 2579SOL    HW1 8636   0.239   6.197   3.038
 2579SOL    HW2 8637   0.087   6.242   3.000
 2580SOL     OW 8638   3.011   2.040   5.488
 2580SOL    HW1 8639   3.073   2.081   5.420
 2580SOL    HW2 8640   2.918   2.073   5.471
 2581SOL     OW 8641   3.285   0.298   5.727
 2581SOL    HW1 8642   3.301   0.250   5.814
 2581SOL    HW2 8643   3.321   0.391   5.733
 2582SOL     OW 8644   0.056   3.591   0.772
 2582SOL    HW1 8645   0.020   3.528   0.704
 2582SOL    HW2 8646   0.022   3.566   0.862
 2583SOL     OW 8647   5.196   0.248   0.785
 2583SOL    HW1 8648   5.234   0.281   0.871
 2583SOL    HW2 8649   5.270   0.231   0.720
 2584SOL     OW 8650   3.584   4.444   6.523
 2584SOL    HW1 8651   3.572   4.350   6.552
 2584SOL    HW2 8652   3.641   4.493   6.590
 2585SOL     OW 8653   2.370   5.244   0.306
 2585SOL    HW1 8654   2.438   5.302   0.261
 2585SOL    HW2 8655   2.314   5.299   0.368
 2586SOL     OW 8656   2.315   1.072   3.449
 2586SOL    HW1 8657   2.301   1.003   3.520
 2586SOL    HW2 8658   2.284   1.161   3.482
 2587SOL     OW 8659   5.763   1.141   4.667
 2587SOL    HW1 8660   5.845   1.151   4.723
 2587SOL    HW2 8661   5.778   1.067   4.600
 2588SOL     OW 8662   4.278   1.094   6.892
 2588SOL    HW1 8663   4.179   1.082   6.883
 2588SOL    HW2 8664   4.305   1.182   6.853
 2589SOL     OW 8665   2.146   6.130   0.104
 2589SOL    HW1 8666   2.161   6.149   0.201
 2589SOL    HW2 8667   2.051   6.152   0.080
 2590SOL     OW 8668   2.314   5.386   0.545
 2590SOL    HW1 8669   2.229   5.349   0.507
 2590SOL    HW2 8670   2.339   5.334   0.627
 2591SOL     OW 8671   5.146   6.240   3.366
 2591SOL    HW1 8672   5.208   6.199   3.433
 2591SOL    HW2 8673   5.127   6.335   3.391
 2592SOL     OW 8674   3.252   3.563   0.791
 2592SOL    HW1 8675   3.195   3.600   0.865
 2592SOL    HW2 8676   3.204   3.488   0.746
 2593SOL     OW 8677   3.297   4.609   6.777
 2593SOL    HW1 8678   3.332   4.698   6.745
 2593SOL    HW2 8679   3.252   4.622   6.865
 2594SOL     OW 8680   2.206   3.012   3.225
 2594SOL    HW1 8681   2.280   2.956   3.263
 2594SOL    HW2 8682   2.158   2.960   3.155
 2595SOL     OW 8683   1.828   1.180   2.886
 2595SOL    HW1 8684   1.770   1.114   2.934
 2595SOL    HW2 8685   1.770   1.242   2.832
 2596SOL     OW 8686   0.156   1.250   0.457
 2596SOL    HW1 8687   0.085   1.180   0.459
 2596SOL    HW2 8688   0.218   1.237   0.535
 2597SOL     OW 8689   6.393   6.149   0.525
 2597SOL    HW1 8690   6.411   6.232   0.579
 2597SOL    HW2 8691   6.471   6.087   0.532
 2598SOL     OW 8692   4.772   2.793   2.082
 2598SOL    HW1 8693   4.747   2.733   2.006
 2598SOL    HW2 8694   4.778   2.888   2.048
 2599SOL     OW 8695   2.598   5.628   2.631
 2599SOL    HW1 8696   2.585   5.628   2.532
 2599SOL    HW2 8697   2.512   5.603   2.676
 2600SOL     OW 8698   5.672   4.903   4.855
 2600SOL    HW1 8699   5.684   4.900   4.756
 2600SOL    HW2 8700   5.639   4.815   4.887
 2601SOL     OW 8701   6.698   1.241   4.092
 2601SOL    HW1 8702   6.691   1.164   4.155
 2601SOL    HW2 8703   6.615   1.247   4.036
 2602SOL     OW 8704   0.840   4.817   2.799
 2602SOL    HW1 8705   0.927   4.771   2.819
 2602SOL    HW2 8706   0.765   4.751   2.804
 2603SOL     OW 8707   1.754   5.946   1.867
 2603SOL    HW1 8708   1.833   5.938   1.806
 2603SOL    HW2 8709   1.748   6.041   1.900
 2604SOL     OW 8710   5.021   3.282   2.934
 2604SOL    HW1 8711   5.053   3.347   2.864
 2604SOL    HW2 8712   4.982   3.202   2.889
 2605SOL     OW 8713   1.318   2.537   0.895
 2605SOL    HW1 8714   1.383   2.601   0.853
 2605SOL    HW2 8715   1.369   2.467   0.945
 2606SOL     OW 8716   5.164   3.991   0.888
 2606SOL    HW1 8717   5.235   4.033   0.831
 2606SOL    HW2 8718   5.074   4.017   0.852
 2607SOL     OW 8719   2.526   2.578   1.722
 2607SOL    HW1 8720   2.583   2.496   1.726
 2607SOL    HW2 8721   2.499   2.595   1.627
 2608SOL     OW 8722   3.203   5.044   4.658
 2608SOL    HW1 8723   3.282   5.011   4.710
 2608SOL    HW2 8724   3.121   4.995   4.688
 2609SOL     OW 8725   0.101   1.749   1.427
 2609SOL    HW1 8726   0.130   1.655   1.408
 2609SOL    HW2 8727   0.141   1.810   1.360
 2610SOL     OW 8728   1.258   4.497   4.918
 2610SOL    HW1 8729   1.238   4.476   4.822
 2610SOL    HW2 8730   1.189   4.454   4.976
 2611SOL     OW 8731   5.788   1.027   5.586
 2611SOL    HW1 8732   5.774   0.928   5.575
 2611SOL    HW2 8733   5.720   1.076   5.532
 2612SOL     OW 8734   6.817   6.769   0.366
 2612SOL    HW1 8735   6.867   6.855   0.379
 2612SOL    HW2 8736   6.787   6.734   0.455
 2613SOL     OW 8737   1.480   6.693   0.662
 2613SOL    HW1 8738   1.397   6.687   0.717
 2613SOL    HW2 8739   1.554   6.641   0.706
 2614SOL     OW 8740   5.579   2.349   0.919
 2614SOL    HW1 8741   5.595   2.272   0.857
 2614SOL    HW2 8742   5.550   2.315   1.008
 2615SOL     OW 8743   1.047   3.386   6.329
 2615SOL    HW1 8744   1.031   3.460   6.395
 2615SOL    HW2 8745   0.978   3.315   6.342
 2616SOL     OW 8746   1.281   1.052   4.716
 2616SOL    HW1 8747   1.303   1.008   4.629
 2616SOL    HW2 8748   1.250   0.983   4.782
 2617SOL     OW 8749   5.336   0.339   0.429
 2617SOL    HW1 8750   5.429   0.341   0.467
 2617SOL    HW2 8751   5.284   0.266   0.472
 2618SOL     OW 8752   1.422   0.928   0.160
 2618SOL    HW1 8753   1.493   0.881   0.107
 2618SOL    HW2 8754   1.465   0.989   0.227
 2619SOL     OW 8755   4.738   1.131   2.751
 2619SOL    HW1 8756   4.759   1.160   2.658
 2619SOL    HW2 8757   4.639   1.135   2.766
 2620SOL     OW 8758   5.929   2.167   2.391
 2620SOL    HW1 8759   5.953   2.140   2.298
 2620SOL    HW2 8760   5.903   2.086   2.444
 2621SOL     OW 8761   2.788   6.609   1.544
 2621SOL    HW1 8762   2.813   6.600   1.447
 2621SOL    HW2 8763   2.871   6.614   1.599
 2622SOL     OW 8764   2.410   3.844   6.608
 2622SOL    HW1 8765   2.447   3.852   6.516
 2622SOL    HW2 8766   2.464   3.778   6.661
 2623SOL     OW 8767   7.020   1.515   3.484
 2623SOL    HW1 8768   0.018   1.590   3.546
 2623SOL    HW2 8769   6.921   1.512   3.470
 2624SOL     OW 8770   1.413   2.022   5.543
 2624SOL    HW1 8771   1.494   2.026   5.602
 2624SOL    HW2 8772   1.378   2.114   5.530
 2625SOL     OW 8773   3.324   5.193   6.148
 2625SOL    HW1 8774   3.346   5.160   6.240
 2625SOL    HW2 8775   3.241   5.249   6.151
 2626SOL     OW 8776   6.999   6.981   0.431
 2626SOL    HW1 8777   7.017   6.960   0.527
 2626SOL    HW2 8778   0.057   7.016   0.388
 2627SOL     OW 8779   2.217   0.310   5.683
 2627SOL    HW1 8780   2.213   0.281   5.587
 2627SOL    HW2 8781   2.308   0.343   5.704
 2628SOL     OW 8782   6.871   5.552   1.495
 2628SOL    HW1 8783   6.932   5.496   1.438
 2628SOL    HW2 8784   6.920   5.634   1.524
 2629SOL     OW 8785   3.077   3.842   2.826
 2629SOL    HW1 8786   3.155   3.869   2.770
 2629SOL    HW2 8787   3.015   3.784   2.773
 2630SOL     OW 8788   3.370   0.893   4.763
 2630SOL    HW1 8789   3.318   0.850   4.689
 2630SOL    HW2 8790   3.412   0.977   4.729
 2631SOL     OW 8791   4.530   5.995   0.640
 2631SOL    HW1 8792   4.445   6.009   0.691
 2631SOL    HW2 8793   4.538   5.898   0.616
 2632SOL     OW 8794   4.657   4.891   1.913
 2632SOL    HW1 8795   4.725   4.877   1.985
 2632SOL    HW2 8796   4.655   4.812   1.852
 2633SOL     OW 8797   0.130   2.972   5.738
 2633SOL    HW1 8798   0.063   2.984   5.811
 2633SOL    HW2 8799   0.083   2.960   5.651
 2634SOL     OW 8800   1.977   2.146   6.219
 2634SOL    HW1 8801   1.972   2.246   6.218
 2634SOL    HW2 8802   1.909   2.111   6.283
 2635SOL     OW 8803   3.974   5.325   3.161
 2635SOL    HW1 8804   4.050   5.296   3.220
 2635SOL    HW2 8805   4.002   5.317   3.065
 2636SOL     OW 8806   2.804   6.572   6.251
 2636SOL    HW1 8807   2.878   6.622   6.297
 2636SOL    HW2 8808   2.801   6.478   6.287
 2637SOL     OW 8809   0.383   1.856   2.807
 2637SOL    HW1 8810   0.320   1.825   2.878
 2637SOL    HW2 8811   0.339   1.848   2.717
 2638SOL     OW 8812   0.712   6.525   4.639
 2638SOL    HW1 8813   0.762   6.516   4.726
 2638SOL    HW2 8814   0.755   6.468   4.570
 2639SOL     OW 8815   5.020   5.514   5.169
 2639SOL    HW1 8816   4.979   5.425   5.152
 2639SOL    HW2 8817   5.109   5.519   5.123
 2640SOL     OW 8818   2.131   0.972   3.257
 2640SOL    HW1 8819   2.136   1.013   3.167
 2640SOL    HW2 8820   2.202   1.010   3.316
 2641SOL     OW 8821   5.349   2.087   0.501
 2641SOL    HW1 8822   5.402   2.089   0.586
 2641SOL    HW2 8823   5.398   2.138   0.430
 2642SOL     OW 8824   0.406   0.241   2.517
 2642SOL    HW1 8825   0.460   0.299   2.578
 2642SOL    HW2 8826   0.389   0.153   2.560
 2643SOL     OW 8827   2.047   4.337   4.266
 2643SOL    HW1 8828   2.099   4.367   4.186
 2643SOL    HW2 8829   1.989   4.260   4.241
 2644SOL     OW 8830   5.625   5.366   3.787
 2644SOL    HW1 8831   5.704   5.401   3.736
 2644SOL    HW2 8832   5.541   5.398   3.743
 2645SOL     OW 8833   4.467   5.756   2.710
 2645SOL    HW1 8834   4.561   5.774   2.738
 2645SOL    HW2 8835   4.413   5.839   2.718
 2646SOL     OW 8836   1.154   1.992   6.381
 2646SOL    HW1 8837   1.163   2.033   6.472
 2646SOL    HW2 8838   1.172   2.061   6.311
 2647SOL     OW 8839   4.271   0.350   3.004
 2647SOL    HW1 8840   4.347   0.300   3.046
 2647SOL    HW2 8841   4.216   0.287   2.949
 2648SOL     OW 8842   1.856   0.622   5.628
 2648SOL    HW1 8843   1.853   0.624   5.728
 2648SOL    HW2 8844   1.943   0.660   5.596
 2649SOL     OW 8845   6.030   1.978   3.836
 2649SOL    HW1 8846   6.028   2.040   3.757
 2649SOL    HW2 8847   5.952   1.998   3.896
 2650SOL     OW 8848   2.222   6.818   4.455
 2650SOL    HW1 8849   2.177   6.763   4.525
 2650SOL    HW2 8850   2.310   6.851   4.489
 2651SOL     OW 8851   3.606   1.639   3.313
 2651SOL    HW1 8852   3.641   1.733   3.314
 2651SOL    HW2 8853   3.665   1.581   3.369
 2652SOL     OW 8854   4.645   3.664   5.613
 2652SOL    HW1 8855   4.564   3.650   5.669
 2652SOL    HW2 8856   4.619   3.671   5.517
 2653SOL     OW 8857   2.024   6.418   6.984
 2653SOL    HW1 8858   1.965   6.353   0.006
 2653SOL    HW2 8859   2.018   6.402   6.885
 2654SOL     OW 8860   6.679   0.500   1.059
 2654SOL    HW1 8861   6.695   0.497   0.961
 2654SOL    HW2 8862   6.756   0.546   1.104
 2655SOL     OW 8863   4.983   6.983   3.159
 2655SOL    HW1 8864   4.921   6.914   3.121
 2655SOL    HW2 8865   4.988   6.973   3.258
 2656SOL     OW 8866   4.730   6.903   4.676
 2656SOL    HW1 8867   4.681   6.922   4.761
 2656SOL    HW2 8868   4.677   6.938   4.598
 2657SOL     OW 8869   1.562   3.325   6.436
 2657SOL    HW1 8870   1.481   3.354   6.384
 2657SOL    HW2 8871   1.608   3.406   6.473
 2658SOL     OW 8872   3.782   4.569   0.351
 2658SOL    HW1 8873   3.794   4.496   0.283
 2658SOL    HW2 8874   3.701   4.623   0.327
 2659SOL     OW 8875   0.577   2.146   5.372
 2659SOL    HW1 8876   0.518   2.148   5.292
 2659SOL    HW2 8877   0.551   2.220   5.435
 2660SOL     OW 8878   0.951   1.377   0.482
 2660SOL    HW1 8879   0.878   1.442   0.458
 2660SOL    HW2 8880   1.034   1.428   0.506
 2661SOL     OW 8881   2.247   0.892   1.054
 2661SOL    HW1 8882   2.185   0.895   0.976
 2661SOL    HW2 8883   2.221   0.818   1.115
 2662SOL     OW 8884   2.666   2.016   1.590
 2662SOL    HW1 8885   2.608   1.958   1.647
 2662SOL    HW2 8886   2.754   2.032   1.635
 2663SOL     OW 8887   3.736   0.671   0.905
 2663SOL    HW1 8888   3.669   0.647   0.975
 2663SOL    HW2 8889   3.703   0.643   0.815
 2664SOL     OW 8890   5.065   3.596   5.633
 2664SOL    HW1 8891   5.155   3.624   5.601
 2664SOL    HW2 8892   5.051   3.628   5.727
 2665SOL     OW 8893   1.330   3.018   4.510
 2665SOL    HW1 8894   1.421   3.007   4.469
 2665SOL    HW2 8895   1.280   2.932   4.503
 2666SOL     OW 8896   1.896   3.641   1.856
 2666SOL    HW1 8897   1.860   3.683   1.939
 2666SOL    HW2 8898   1.992   3.666   1.844
 2667SOL     OW 8899   6.141   2.415   4.637
 2667SOL    HW1 8900   6.218   2.479   4.646
 2667SOL    HW2 8901   6.136   2.358   4.719
 2668SOL     OW 8902   5.580   0.691   4.621
 2668SOL    HW1 8903   5.619   0.736   4.702
 2668SOL    HW2 8904   5.515   0.753   4.577
 2669SOL     OW 8905   2.469   1.276   2.005
 2669SOL    HW1 8906   2.449   1.273   1.907
 2669SOL    HW2 8907   2.468   1.371   2.036
 2670SOL     OW 8908   0.664   0.302   1.403
 2670SOL    HW1 8909   0.658   0.305   1.503
 2670SOL    HW2 8910   0.653   0.208   1.372
 2671SOL     OW 8911   5.824   4.321   6.209
 2671SOL    HW1 8912   5.842   4.225   6.231
 2671SOL    HW2 8913   5.837   4.335   6.111
 2672SOL     OW 8914   2.225   1.628   2.382
 2672SOL    HW1 8915   2.248   1.581   2.297
 2672SOL    HW2 8916   2.169   1.708   2.362
 2673SOL     OW 8917   3.418   0.144   3.144
 2673SOL    HW1 8918   3.470   0.153   3.229
 2673SOL    HW2 8919   3.464   0.194   3.071
 2674SOL     OW 8920   5.954   5.770   3.591
 2674SOL    HW1 8921   6.017   5.719   3.533
 2674SOL    HW2 8922   5.911   5.843   3.539
 2675SOL     OW 8923   4.723   1.366   4.243
 2675SOL    HW1 8924   4.759   1.457   4.225
 2675SOL    HW2 8925   4.633   1.357   4.200
 2676SOL     OW 8926   4.059   3.485   5.298
 2676SOL    HW1 8927   4.136   3.548   5.293
 2676SOL    HW2 8928   4.055   3.429   5.215
 2677SOL     OW 8929   1.509   5.694   0.939
 2677SOL    HW1 8930   1.604   5.707   0.969
 2677SOL    HW2 8931   1.478   5.603   0.963
 2678SOL     OW 8932   3.550   2.000   2.019
 2678SOL    HW1 8933   3.594   2.089   2.024
 2678SOL    HW2 8934   3.555   1.964   1.926
 2679SOL     OW 8935   2.063   3.388   2.370
 2679SOL    HW1 8936   2.072   3.486   2.352
 2679SOL    HW2 8937   2.088   3.336   2.289
 2680SOL     OW 8938   5.630   2.827   6.498
 2680SOL    HW1 8939   5.640   2.908   6.556
 2680SOL    HW2 8940   5.709   2.819   6.438
 2681SOL     OW 8941   2.580   2.444   3.330
 2681SOL    HW1 8942   2.583   2.443   3.430
 2681SOL    HW2 8943   2.655   2.388   3.293
 2682SOL     OW 8944   3.617   4.021   2.629
 2682SOL    HW1 8945   3.654   4.098   2.680
 2682SOL    HW2 8946   3.562   4.055   2.552
 2683SOL     OW 8947   1.785   3.172   1.367
 2683SOL    HW1 8948   1.728   3.231   1.424
 2683SOL    HW2 8949   1.752   3.174   1.273
 2684SOL     OW 8950   4.930   0.699   4.081
 2684SOL    HW1 8951   4.886   0.750   4.007
 2684SOL    HW2 8952   5.019   0.740   4.102
 2685SOL     OW 8953   1.660   6.624   5.572
 2685SOL    HW1 8954   1.602   6.600   5.649
 2685SOL    HW2 8955   1.668   6.724   5.566
 2686SOL     OW 8956   1.863   2.372   5.958
 2686SOL    HW1 8957   1.792   2.303   5.969
 2686SOL    HW2 8958   1.898   2.398   6.048
 2687SOL     OW 8959   3.715   2.481   1.757
 2687SOL    HW1 8960   3.658   2.563   1.766
 2687SOL    HW2 8961   3.684   2.411   1.821
 2688SOL     OW 8962   4.008   2.574   0.078
 2688SOL    HW1 8963   3.993   2.476   0.069
 2688SOL    HW2 8964   4.002   2.617   7.013
 2689SOL     OW 8965   6.790   4.003   2.401
 2689SOL    HW1 8966   6.800   4.080   2.465
 2689SOL    HW2 8967   6.695   3.999   2.369
 2690SOL     OW 8968   5.259   1.052   4.643
 2690SOL    HW1 8969   5.213   0.971   4.681
 2690SOL    HW2 8970   5.191   1.111   4.599
 2691SOL     OW 8971   6.419   3.318   3.986
 2691SOL    HW1 8972   6.453   3.237   3.938
 2691SOL    HW2 8973   6.494   3.384   3.996
 2692SOL     OW 8974   1.531   5.236   1.623
 2692SOL    HW1 8975   1.574   5.152   1.657
 2692SOL    HW2 8976   1.470   5.213   1.547
 2693SOL     OW 8977   0.694   5.794   2.597
 2693SOL    HW1 8978   0.714   5.890   2.616
 2693SOL    HW2 8979   0.595   5.782   2.586
 2694SOL     OW 8980   2.241   0.374   2.497
 2694SOL    HW1 8981   2.154   0.333   2.523
 2694SOL    HW2 8982   2.313   0.340   2.557
 2695SOL     OW 8983   6.692   5.862   3.590
 2695SOL    HW1 8984   6.730   5.953   3.610
 2695SOL    HW2 8985   6.713   5.838   3.495
 2696SOL     OW 8986   3.832   4.580   6.562
 2696SOL    HW1 8987   3.884   4.659   6.529
 2696SOL    HW2 8988   3.892   4.500   6.566
 2697SOL     OW 8989   4.284   2.295   0.177
 2697SOL    HW1 8990   4.261   2.303   0.080
 2697SOL    HW2 8991   4.318   2.384   0.210
 2698SOL     OW 8992   1.762   5.688   6.959
 2698SOL    HW1 8993   1.818   5.762   6.996
 2698SOL    HW2 8994   1.819   5.608   6.942
 2699SOL     OW 8995   2.868   6.538   2.299
 2699SOL    HW1 8996   2.778   6.531   2.257
 2699SOL    HW2 8997   2.889   6.453   2.347
 2700SOL     OW 8998   4.552   2.117   1.661
 2700SOL    HW1 8999   4.495   2.039   1.688
 2700SOL    HW2 9000   4.648   2.097   1.681
 2701SOL     OW 9001   5.340   3.632   5.290
 2701SOL    HW1 9002   5.320   3.594   5.380
 2701SOL    HW2 9003   5.393   3.566   5.236
 2702SOL     OW 9004   1.879   1.883   4.999
 2702SOL    HW1 9005   1.784   1.914   5.009
 2702SOL    HW2 9006   1.913   1.852   5.088
 2703SOL     OW 9007   2.291   6.150   1.732
 2703SOL    HW1 9008   2.197   6.159   1.702
 2703SOL    HW2 9009   2.344   6.228   1.698
 2704SOL     OW 9010   4.343   1.110   3.541
 2704SOL    HW1 9011   4.366   1.017   3.510
 2704SOL    HW2 9012   4.416   1.172   3.514
 2705SOL     OW 9013   1.013   6.998   5.447
 2705SOL    HW1 9014   1.023   6.899   5.441
 2705SOL    HW2 9015   1.103   0.015   5.460
 2706SOL     OW 9016   0.035   4.538   4.336
 2706SOL    HW1 9017   0.037   4.627   4.382
 2706SOL    HW2 9018   0.123   4.493   4.345
 2707SOL     OW 9019   4.398   1.188   3.144
 2707SOL    HW1 9020   4.421   1.284   3.127
 2707SOL    HW2 9021   4.333   1.182   3.220
 2708SOL     OW 9022   5.836   3.170   5.520
 2708SOL    HW1 9023   5.892   3.118   5.585
 2708SOL    HW2 9024   5.849   3.268   5.536
 2709SOL     OW 9025   5.516   0.776   5.751
 2709SOL    HW1 9026   5.576   0.841   5.799
 2709SOL    HW2 9027   5.536   0.779   5.653
 2710SOL     OW 9028   0.849   2.776   4.045
 2710SOL    HW1 9029   0.848   2.865   4.090
 2710SOL    HW2 9030   0.755   2.743   4.034
 2711SOL     OW 9031   5.067   1.216   1.935
 2711SOL    HW1 9032   5.018   1.133   1.960
 2711SOL    HW2 9033   5.080   1.219   1.836
 2712SOL     OW 9034   4.879   6.255   1.891
 2712SOL    HW1 9035   4.841   6.224   1.804
 2712SOL    HW2 9036   4.943   6.330   1.876
 2713SOL     OW 9037   3.605   4.930   5.425
 2713SOL    HW1 9038   3.546   4.980   5.362
 2713SOL    HW2 9039   3.694   4.915   5.383
 2714SOL     OW 9040   2.964   4.388   6.112
 2714SOL    HW1 9041   2.872   4.392   6.074
 2714SOL    HW2 9042   2.969   4.318   6.183
 2715SOL     OW 9043   4.560   6.728   0.336
 2715SOL    HW1 9044   4.563   6.796   0.410
 2715SOL    HW2 9045   4.634   6.662   0.348
 2716SOL     OW 9046   4.919   1.049   2.115
 2716SOL    HW1 9047   4.986   1.004   2.174
 2716SOL    HW2 9048   4.827   1.033   2.151
 2717SOL     OW 9049   0.784   1.927   2.373
 2717SOL    HW1 9050   0.790   1.974   2.461
 2717SOL    HW2 9051   0.691   1.936   2.337
 2718SOL     OW 9052   6.957   1.319   5.859
 2718SOL    HW1 9053   6.918   1.233   5.826
 2718SOL    HW2 9054   6.884   1.376   5.898
 2719SOL     OW 9055   1.019   4.703   3.716
 2719SOL    HW1 9056   1.021   4.735   3.622
 2719SOL    HW2 9057   1.053   4.775   3.777
 2720SOL     OW 9058   1.924   5.045   6.457
 2720SOL    HW1 9059   1.967   4.973   6.402
 2720SOL    HW2 9060   1.983   5.126   6.457
 2721SOL     OW 9061   2.441   5.863   3.818
 2721SOL    HW1 9062   2.527   5.839   3.864
 2721SOL    HW2 9063   2.378   5.785   3.823
 2722SOL     OW 9064   3.298   4.080   6.742
 2722SOL    HW1 9065   3.273   4.134   6.823
 2722SOL    HW2 9066   3.247   3.994   6.742
 2723SOL     OW 9067   3.787   5.509   0.253
 2723SOL    HW1 9068   3.833   5.498   0.165
 2723SOL    HW2 9069   3.725   5.433   0.268
 2724SOL     OW 9070   6.727   6.177   0.763
 2724SOL    HW1 9071   6.653   6.197   0.827
 2724SOL    HW2 9072   6.805   6.237   0.781
 2725SOL     OW 9073   6.195   4.877   2.788
 2725SOL    HW1 9074   6.135   4.835   2.721
 2725SOL    HW2 9075   6.175   4.975   2.794
 2726SOL     OW 9076   6.499   2.471   2.761
 2726SOL    HW1 9077   6.507   2.571   2.764
 2726SOL    HW2 9078   6.456   2.439   2.846
 2727SOL     OW 9079   1.649   4.875   4.061
 2727SOL    HW1 9080   1.705   4.793   4.072
 2727SOL    HW2 9081   1.564   4.864   4.113
 2728SOL     OW 9082   5.218   5.086   5.890
 2728SOL    HW1 9083   5.156   5.150   5.936
 2728SOL    HW2 9084   5.311   5.123   5.892
 2729SOL     OW 9085   6.967   0.375   0.205
 2729SOL    HW1 9086   6.949   0.333   0.293
 2729SOL    HW2 9087   0.025   0.430   0.210
 2730SOL     OW 9088   1.398   5.524   2.869
 2730SOL    HW1 9089   1.440   5.570   2.948
 2730SOL    HW2 9090   1.432   5.564   2.785
 2731SOL     OW 9091   4.310   3.649   5.360
 2731SOL    HW1 9092   4.408   3.667   5.355
 2731SOL    HW2 9093   4.259   3.735   5.356
 2732SOL     OW 9094   4.479   0.694   2.416
 2732SOL    HW1 9095   4.494   0.602   2.453
 2732SOL    HW2 9096   4.522   0.700   2.326
 2733SOL     OW 9097   0.725   0.261   0.774
 2733SOL    HW1 9098   0.806   0.318   0.787
 2733SOL    HW2 9099   0.732   0.180   0.832
 2734SOL     OW 9100   2.967   0.438   2.001
 2734SOL    HW1 9101   2.929   0.454   1.910
 2734SOL    HW2 9102   2.920   0.362   2.044
 2735SOL     OW 9103   0.905   2.245   2.581
 2735SOL    HW1 9104   0.860   2.256   2.492
 2735SOL    HW2 9105   0.869   2.311   2.646
 2736SOL     OW 9106   5.584   4.774   2.749
 2736SOL    HW1 9107   5.594   4.741   2.843
 2736SOL    HW2 9108   5.504   4.731   2.707
 2737SOL     OW 9109   2.623   0.266   6.287
 2737SOL    HW1 9110   2.682   0.346   6.298
 2737SOL    HW2 9111   2.659   0.208   6.214
 2738SOL     OW 9112   5.337   6.253   1.181
 2738SOL    HW1 9113   5.368   6.159   1.195
 2738SOL    HW2 9114   5.238   6.254   1.168
 2739SOL     OW 9115   0.525   5.360   1.588
 2739SOL    HW1 9116   0.603   5.327   1.536
 2739SOL    HW2 9117   0.548   5.447   1.631
 2740SOL     OW 9118   6.411   5.837   5.111
 2740SOL    HW1 9119   6.463   5.763   5.068
 2740SOL    HW2 9120   6.449   5.857   5.201
 2741SOL     OW 9121   0.742   0.142   6.812
 2741SOL    HW1 9122   0.654   0.179   6.781
 2741SOL    HW2 9123   0.770   0.067   6.752
 2742SOL     OW 9124   2.589   5.065   2.173
 2742SOL    HW1 9125   2.587   5.051   2.074
 2742SOL    HW2 9126   2.662   5.009   2.213
 2743SOL     OW 9127   5.922   1.844   2.763
 2743SOL    HW1 9128   5.958   1.853   2.856
 2743SOL    HW2 9129   5.899   1.748   2.746
 2744SOL     OW 9130   3.227   3.970   2.397
 2744SOL    HW1 9131   3.162   3.952   2.323
 2744SOL    HW2 9132   3.320   3.951   2.366
 2745SOL     OW 9133   0.556   6.078   0.110
 2745SOL    HW1 9134   0.559   6.166   0.062
 2745SOL    HW2 9135   0.581   6.005   0.047
 2746SOL     OW 9136   1.550   0.658   4.800
 2746SOL    HW1 9137   1.625   0.722   4.789
 2746SOL    HW2 9138   1.573   0.571   4.755
 2747SOL     OW 9139   4.624   4.784   6.959
 2747SOL    HW1 9140   4.722   4.797   6.970
 2747SOL    HW2 9141   4.598   4.693   6.993
 2748SOL     OW 9142   4.110   0.145   0.743
 2748SOL    HW1 9143   4.100   0.102   0.654
 2748SOL    HW2 9144   4.194   0.114   0.787
 2749SOL     OW 9145   3.683   0.662   0.252
 2749SOL    HW1 9146   3.683   0.694   0.347
 2749SOL    HW2 9147   3.640   0.572   0.247
 2750SOL     OW 9148   2.080   6.155   2.254
 2750SOL    HW1 9149   2.080   6.244   2.301
 2750SOL    HW2 9150   2.172   6.116   2.257
 2751SOL     OW 9151   6.312   5.170   1.370
 2751SOL    HW1 9152   6.225   5.176   1.420
 2751SOL    HW2 9153   6.382   5.131   1.429
 2752SOL     OW 9154   4.398   5.096   6.261
 2752SOL    HW1 9155   4.477   5.043   6.290
 2752SOL    HW2 9156   4.397   5.183   6.311
 2753SOL     OW 9157   4.814   4.750   6.103
 2753SOL    HW1 9158   4.876   4.816   6.145
 2753SOL    HW2 9159   4.745   4.722   6.170
 2754SOL     OW 9160   1.236   0.607   4.803
 2754SOL    HW1 9161   1.330   0.637   4.792
 2754SOL    HW2 9162   1.187   0.616   4.717
 2755SOL     OW 9163   3.215   0.221   2.528
 2755SOL    HW1 9164   3.283   0.152   2.503
 2755SOL    HW2 9165   3.134   0.175   2.565
 2756SOL     OW 9166   4.875   5.477   6.493
 2756SOL    HW1 9167   4.869   5.568   6.533
 2756SOL    HW2 9168   4.854   5.409   6.562
 2757SOL     OW 9169   0.822   4.921   0.483
 2757SOL    HW1 9170   0.728   4.918   0.449
 2757SOL    HW2 9171   0.842   4.838   0.536
 2758SOL     OW 9172   4.866   0.180   5.931
 2758SOL    HW1 9173   4.924   0.258   5.953
 2758SOL    HW2 9174   4.770   0.206   5.940
 2759SOL     OW 9175   4.657   4.877   4.011
 2759SOL    HW1 9176   4.687   4.864   3.916
 2759SOL    HW2 9177   4.727   4.926   4.062
 2760SOL     OW 9178   0.814   6.045   3.443
 2760SOL    HW1 9179   0.822   6.144   3.440
 2760SOL    HW2 9180   0.895   6.006   3.488
 2761SOL     OW 9181   2.312   5.141   4.855
 2761SOL    HW1 9182   2.401   5.135   4.810
 2761SOL    HW2 9183   2.323   5.118   4.952
 2762SOL     OW 9184   1.687   2.156   5.928
 2762SOL    HW1 9185   1.602   2.200   5.956
 2762SOL    HW2 9186   1.676   2.118   5.837
 2763SOL     OW 9187   5.314   6.837   1.988
 2763SOL    HW1 9188   5.267   6.917   1.950
 2763SOL    HW2 9189   5.248   6.782   2.040
 2764SOL     OW 9190   6.315   0.739   1.938
 2764SOL    HW1 9191   6.268   0.674   1.998
 2764SOL    HW2 9192   6.381   0.689   1.881
 2765SOL     OW 9193   5.561   1.887   3.448
 2765SOL    HW1 9194   5.544   1.901   3.351
 2765SOL    HW2 9195   5.510   1.954   3.501
 2766SOL     OW 9196   5.534   6.891   2.493
 2766SOL    HW1 9197   5.460   6.957   2.497
 2766SOL    HW2 9198   5.568   6.885   2.400
 2767SOL     OW 9199   6.853   4.196   5.219
 2767SOL    HW1 9200   6.802   4.127   5.269
 2767SOL    HW2 9201   6.795   4.276   5.202
 2768SOL     OW 9202   5.729   0.611   6.564
 2768SOL    HW1 9203   5.684   0.635   6.650
 2768SOL    HW2 9204   5.675   0.644   6.487
 2769SOL     OW 9205   1.012   4.053   0.809
 2769SOL    HW1 9206   0.990   4.102   0.894
 2769SOL    HW2 9207   1.084   3.986   0.827
 2770SOL     OW 9208   4.907   5.943   2.485
 2770SOL    HW1 9209   4.991   5.992   2.459
 2770SOL    HW2 9210   4.831   5.976   2.430
 2771SOL     OW 9211   4.910   0.284   1.539
 2771SOL    HW1 9212   4.821   0.267   1.496
 2771SOL    HW2 9213   4.915   0.235   1.626
 2772SOL     OW 9214   3.416   1.094   6.936
 2772SOL    HW1 9215   3.477   1.079   7.014
 2772SOL    HW2 9216   3.455   1.166   6.878
 2773SOL     OW 9217   3.036   4.379   1.478
 2773SOL    HW1 9218   3.014   4.307   1.544
 2773SOL    HW2 9219   2.973   4.374   1.401
 2774SOL     OW 9220   4.945   3.230   1.951
 2774SOL    HW1 9221   4.901   3.314   1.919
 2774SOL    HW2 9222   4.876   3.162   1.973
 2775SOL     OW 9223   0.218   6.881   2.432
 2775SOL    HW1 9224   0.283   6.873   2.357
 2775SOL    HW2 9225   0.260   6.931   2.507
 2776SOL     OW 9226   2.866   6.003   0.442
 2776SOL    HW1 9227   2.944   6.056   0.411
 2776SOL    HW2 9228   2.807   5.980   0.365
 2777SOL     OW 9229   1.561   2.634   4.165
 2777SOL    HW1 9230   1.576   2.671   4.257
 2777SOL    HW2 9231   1.466   2.648   4.138
 2778SOL     OW 9232   3.211   2.112   5.291
 2778SOL    HW1 9233   3.197   2.192   5.233
 2778SOL    HW2 9234   3.305   2.079   5.279
 2779SOL     OW 9235   6.318   1.029   0.718
 2779SOL    HW1 9236   6.226   1.060   0.693
 2779SOL    HW2 9237   6.316   0.930   0.733
 2780SOL     OW 9238   3.368   5.806   6.552
 2780SOL    HW1 9239   3.340   5.768   6.640
 2780SOL    HW2 9240   3.399   5.901   6.566
 2781SOL     OW 9241   5.204   3.869   6.329
 2781SOL    HW1 9242   5.250   3.782   6.308
 2781SOL    HW2 9243   5.272   3.939   6.347
 2782SOL     OW 9244   3.528   0.836   5.310
 2782SOL    HW1 9245   3.522   0.737   5.313
 2782SOL    HW2 9246   3.481   0.870   5.228
 2783SOL     OW 9247   0.515   3.779   5.333
 2783SOL    HW1 9248   0.484   3.844   5.263
 2783SOL    HW2 9249   0.460   3.695   5.326
 2784SOL     OW 9250   2.550   1.851   1.805
 2784SOL    HW1 9251   2.493   1.853   1.887
 2784SOL    HW2 9252   2.578   1.757   1.785
 2785SOL     OW 9253   6.238   2.044   2.180
 2785SOL    HW1 9254   6.146   2.079   2.161
 2785SOL    HW2 9255   6.250   1.956   2.134
 2786SOL     OW 9256   3.775   0.234   1.365
 2786SOL    HW1 9257   3.869   0.259   1.386
 2786SOL    HW2 9258   3.719   0.317   1.355
 2787SOL     OW 9259   1.842   4.095   5.860
 2787SOL    HW1 9260   1.919   4.144   5.819
 2787SOL    HW2 9261   1.801   4.152   5.932
 2788SOL     OW 9262   1.264   3.193   0.361
 2788SOL    HW1 9263   1.239   3.285   0.332
 2788SOL    HW2 9264   1.353   3.169   0.322
 2789SOL     OW 9265   0.529   3.534   3.785
 2789SOL    HW1 9266   0.517   3.490   3.696
 2789SOL    HW2 9267   0.449   3.515   3.842
 2790SOL     OW 9268   4.012   6.602   4.419
 2790SOL    HW1 9269   3.982   6.640   4.506
 2790SOL    HW2 9270   4.103   6.562   4.429
 2791SOL     OW 9271   1.356   3.321   2.440
 2791SOL    HW1 9272   1.334   3.242   2.497
 2791SOL    HW2 9273   1.454   3.325   2.424
 2792SOL     OW 9274   0.630   1.910   5.854
 2792SOL    HW1 9275   0.659   1.965   5.775
 2792SOL    HW2 9276   0.569   1.964   5.911
 2793SOL     OW 9277   4.512   0.575   4.330
 2793SOL    HW1 9278   4.607   0.552   4.307
 2793SOL    HW2 9279   4.511   0.625   4.416
 2794SOL     OW 9280   0.527   1.299   2.100
 2794SOL    HW1 9281   0.462   1.335   2.166
 2794SOL    HW2 9282   0.571   1.374   2.051
 2795SOL     OW 9283   0.670   3.693   0.825
 2795SOL    HW1 9284   0.731   3.768   0.799
 2795SOL    HW2 9285   0.583   3.729   0.858
 2796SOL     OW 9286   4.409   4.699   2.237
 2796SOL    HW1 9287   4.452   4.655   2.159
 2796SOL    HW2 9288   4.446   4.791   2.248
 2797SOL     OW 9289   4.877   4.203   5.398
 2797SOL    HW1 9290   4.879   4.213   5.498
 2797SOL    HW2 9291   4.858   4.291   5.356
 2798SOL     OW 9292   2.121   3.653   2.950
 2798SOL    HW1 9293   2.078   3.711   2.880
 2798SOL    HW2 9294   2.145   3.564   2.910
 2799SOL     OW 9295   6.910   5.977   5.869
 2799SOL    HW1 9296   6.926   5.915   5.947
 2799SOL    HW2 9297   6.965   6.060   5.881
 2800SOL     OW 9298   2.333   0.661   6.044
 2800SOL    HW1 9299   2.388   0.578   6.056
 2800SOL    HW2 9300   2.278   0.677   6.125
 2801SOL     OW 9301   3.781   5.094   2.334
 2801SOL    HW1 9302   3.842   5.137   2.268
 2801SOL    HW2 9303   3.711   5.043   2.284
 2802SOL     OW 9304   6.648   0.462   6.277
 2802SOL    HW1 9305   6.620   0.545   6.229
 2802SOL    HW2 9306   6.743   0.470   6.308
 2803SOL     OW 9307   3.075   5.711   5.179
 2803SOL    HW1 9308   3.099   5.665   5.265
 2803SOL    HW2 9309   2.977   5.705   5.164
 2804SOL     OW 9310   0.460   5.027   2.538
 2804SOL    HW1 9311   0.484   5.075   2.453
 2804SOL    HW2 9312   0.364   5.000   2.535
 2805SOL     OW 9313   6.519   4.250   6.512
 2805SOL    HW1 9314   6.600   4.241   6.570
 2805SOL    HW2 9315   6.519   4.177   6.443
 2806SOL     OW 9316   6.443   5.460   2.925
 2806SOL    HW1 9317   6.360   5.495   2.968
 2806SOL    HW2 9318   6.424   5.372   2.882
 2807SOL     OW 9319   4.068   5.141   3.731
 2807SOL    HW1 9320   4.108   5.081   3.661
 2807SOL    HW2 9321   4.024   5.219   3.687
 2808SOL     OW 9322   4.984   6.423   4.465
 2808SOL    HW1 9323   5.019   6.517   4.461
 2808SOL    HW2 9324   4.925   6.412   4.544
 2809SOL     OW 9325   5.432   2.471   0.334
 2809SOL    HW1 9326   5.477   2.529   0.402
 2809SOL    HW2 9327   5.457   2.375   0.350
 2810SOL     OW 9328   2.157   1.316   6.415
 2810SOL    HW1 9329   2.220   1.241   6.434
 2810SOL    HW2 9330   2.196   1.402   6.447
 2811SOL     OW 9331   0.385   0.439   3.722
 2811SOL    HW1 9332   0.404   0.509   3.791
 2811SOL    HW2 9333   0.471   0.396   3.693
 2812SOL     OW 9334   4.873   4.691   2.920
 2812SOL    HW1 9335   4.868   4.678   2.821
 2812SOL    HW2 9336   4.956   4.742   2.942
 2813SOL     OW 9337   6.063   1.592   6.084
 2813SOL    HW1 9338   6.014   1.553   6.162
 2813SOL    HW2 9339   6.140   1.533   6.060
 2814SOL     OW 9340   5.549   4.490   5.375
 2814SOL    HW1 9341   5.576   4.395   5.391
 2814SOL    HW2 9342   5.621   4.537   5.324
 2815SOL     OW 9343   1.168   0.983   4.413
 2815SOL    HW1 9344   1.180   0.990   4.314
 2815SOL    HW2 9345   1.189   1.070   4.456
 2816SOL     OW 9346   4.729   6.459   3.338
 2816SOL    HW1 9347   4.703   6.514   3.259
 2816SOL    HW2 9348   4.740   6.364   3.311
 2817SOL     OW 9349   1.192   1.396   1.033
 2817SOL    HW1 9350   1.119   1.441   1.084
 2817SOL    HW2 9351   1.266   1.372   1.095
 2818SOL     OW 9352   1.403   2.532   6.825
 2818SOL    HW1 9353   1.481   2.526   6.763
 2818SOL    HW2 9354   1.323   2.489   6.783
 2819SOL     OW 9355   6.501   3.230   1.610
 2819SOL    HW1 9356   6.423   3.293   1.609
 2819SOL    HW2 9357   6.477   3.149   1.664
 2820SOL     OW 9358   5.083   3.345   3.939
 2820SOL    HW1 9359   5.150   3.328   3.867
 2820SOL    HW2 9360   5.129   3.344   4.028
 2821SOL     OW 9361   1.069   3.233   3.106
 2821SOL    HW1 9362   1.083   3.265   3.013
 2821SOL    HW2 9363   1.153   3.189   3.139
 2822SOL     OW 9364   2.825   2.261   0.436
 2822SOL    HW1 9365   2.775   2.213   0.509
 2822SOL    HW2 9366   2.918   2.281   0.467
 2823SOL     OW 9367   1.185   0.204   4.431
 2823SOL    HW1 9368   1.166   0.245   4.341
 2823SOL    HW2 9369   1.283   0.189   4.440
 2824SOL     OW 9370   3.573   2.263   5.993
 2824SOL    HW1 9371   3.503   2.249   6.064
 2824SOL    HW2 9372   3.611   2.355   6.000
 2825SOL     OW 9373   5.522   5.930   0.891
 2825SOL    HW1 9374   5.616   5.904   0.913
 2825SOL    HW2 9375   5.519   6.024   0.859
 2826SOL     OW 9376   4.846   3.896   4.430
 2826SOL    HW1 9377   4.887   3.807   4.447
 2826SOL    HW2 9378   4.843   3.913   4.331
 2827SOL     OW 9379   0.199   6.980   6.056
 2827SOL    HW1 9380   0.201   6.982   5.956
 2827SOL    HW2 9381   0.182   6.887   6.088
 2828SOL     OW 9382   3.347   1.878   6.479
 2828SOL    HW1 9383   3.306   1.875   6.388
 2828SOL    HW2 9384   3.311   1.956   6.530
 2829SOL     OW 9385   2.673   1.210   6.723
 2829SOL    HW1 9386   2.745   1.171   6.665
 2829SOL    HW2 9387   2.613   1.268   6.668
 2830SOL     OW 9388   3.126   3.868   6.758
 2830SOL    HW1 9389   3.049   3.909   6.808
 2830SOL    HW2 9390   3.096   3.784   6.713
 2831SOL     OW 9391   6.394   6.500   4.021
 2831SOL    HW1 9392   6.333   6.427   3.990
 2831SOL    HW2 9393   6.457   6.464   4.090
 2832SOL     OW 9394   0.323   0.807   2.105
 2832SOL    HW1 9395   0.406   0.862   2.113
 2832SOL    HW2 9396   0.243   0.867   2.100
 2833SOL     OW 9397   6.107   3.072   2.255
 2833SOL    HW1 9398   6.172   3.026   2.195
 2833SOL    HW2 9399   6.122   3.171   2.251
 2834SOL     OW 9400   4.478   0.943   5.142
 2834SOL    HW1 9401   4.501   0.878   5.068
 2834SOL    HW2 9402   4.406   0.904   5.199
 2835SOL     OW 9403   6.348   6.243   3.391
 2835SOL    HW1 9404   6.401   6.325   3.370
 2835SOL    HW2 9405   6.390   6.194   3.468
 2836SOL     OW 9406   6.404   0.040   1.040
 2836SOL    HW1 9407   6.317   0.053   1.088
 2836SOL    HW2 9408   6.468   7.016   1.100
 2837SOL     OW 9409   5.954   2.832   4.102
 2837SOL    HW1 9410   5.954   2.932   4.112
 2837SOL    HW2 9411   5.862   2.798   4.119
 2838SOL     OW 9412   1.843   4.463   4.401
 2838SOL    HW1 9413   1.925   4.436   4.351
 2838SOL    HW2 9414   1.846   4.424   4.494
 2839SOL     OW 9415   4.945   3.187   0.522
 2839SOL    HW1 9416   4.870   3.192   0.588
 2839SOL    HW2 9417   5.010   3.117   0.552
 2840SOL     OW 9418   6.803   2.702   4.913
 2840SOL    HW1 9419   6.773   2.695   5.008
 2840SOL    HW2 9420   6.882   2.643   4.898
 2841SOL     OW 9421   6.990   6.087   0.096
 2841SOL    HW1 9422   6.974   6.069   7.024
 2841SOL    HW2 9423   0.012   6.009   0.138
 2842SOL     OW 9424   6.003   3.736   2.917
 2842SOL    HW1 9425   6.025   3.781   2.831
 2842SOL    HW2 9426   5.903   3.731   2.927
 2843SOL     OW 9427   3.978   0.840   3.969
 2843SOL    HW1 9428   3.951   0.931   3.941
 2843SOL    HW2 9429   3.915   0.772   3.931
 2844SOL     OW 9430   1.772   4.294   5.421
 2844SOL    HW1 9431   1.791   4.196   5.418
 2844SOL    HW2 9432   1.676   4.309   5.445
 2845SOL     OW 9433   0.456   3.366   6.256
 2845SOL    HW1 9434   0.551   3.387   6.282
 2845SOL    HW2 9435   0.423   3.437   6.194
 2846SOL     OW 9436   5.420   1.365   6.123
 2846SOL    HW1 9437   5.397   1.461   6.139
 2846SOL    HW2 9438   5.475   1.358   6.039
 2847SOL     OW 9439   4.232   5.167   4.366
 2847SOL    HW1 9440   4.287   5.181   4.448
 2847SOL    HW2 9441   4.161   5.099   4.385
 2848SOL     OW 9442   2.484   0.028   5.669
 2848SOL    HW1 9443   2.506   6.984   5.600
 2848SOL    HW2 9444   2.446   0.108   5.624
 2849SOL     OW 9445   2.282   2.801   1.674
 2849SOL    HW1 9446   2.227   2.845   1.603
 2849SOL    HW2 9447   2.312   2.711   1.643
 2850SOL     OW 9448   4.133   1.370   0.912
 2850SOL    HW1 9449   4.112   1.419   0.996
 2850SOL    HW2 9450   4.134   1.435   0.835
 2851SOL     OW 9451   2.956   5.671   5.696
 2851SOL    HW1 9452   2.871   5.722   5.715
 2851SOL    HW2 9453   2.998   5.707   5.612
 2852SOL     OW 9454   0.318   2.272   6.478
 2852SOL    HW1 9455   0.389   2.342   6.470
 2852SOL    HW2 9456   0.231   2.315   6.502
 2853SOL     OW 9457   3.664   2.670   1.433
 2853SOL    HW1 9458   3.564   2.672   1.434
 2853SOL    HW2 9459   3.697   2.696   1.342
 2854SOL     OW 9460   0.741   0.864   3.686
 2854SOL    HW1 9461   0.752   0.938   3.620
 2854SOL    HW2 9462   0.653   0.872   3.732
 2855SOL     OW 9463   3.334   1.538   4.333
 2855SOL    HW1 9464   3.385   1.457   4.363
 2855SOL    HW2 9465   3.352   1.614   4.397
 2856SOL     OW 9466   3.238   1.500   5.764
 2856SOL    HW1 9467   3.319   1.558   5.772
 2856SOL    HW2 9468   3.236   1.434   5.839
 2857SOL     OW 9469   3.700   2.883   4.022
 2857SOL    HW1 9470   3.630   2.951   3.998
 2857SOL    HW2 9471   3.655   2.796   4.043
 2858SOL     OW 9472   5.493   2.875   3.019
 2858SOL    HW1 9473   5.471   2.783   3.050
 2858SOL    HW2 9474   5.454   2.890   2.928
 2859SOL     OW 9475   5.372   5.595   6.988
 2859SOL    HW1 9476   5.450   5.636   6.942
 2859SOL    HW2 9477   5.381   5.607   0.062
 2860SOL     OW 9478   4.574   2.306   0.944
 2860SOL    HW1 9479   4.535   2.342   1.028
 2860SOL    HW2 9480   4.667   2.273   0.962
 2861SOL     OW 9481   4.380   4.499   6.179
 2861SOL    HW1 9482   4.313   4.505   6.253
 2861SOL    HW2 9483   4.369   4.578   6.118
 2862SOL     OW 9484   6.385   6.890   3.540
 2862SOL    HW1 9485   6.462   6.834   3.508
 2862SOL    HW2 9486   6.417   6.983   3.558
 2863SOL     OW 9487   6.323   0.443   6.950
 2863SOL    HW1 9488   6.285   0.388   7.024
 2863SOL    HW2 9489   6.419   0.418   6.936
 2864SOL     OW 9490   3.976   2.283   0.783
 2864SOL    HW1 9491   3.937   2.370   0.754
 2864SOL    HW2 9492   3.923   2.246   0.860
 2865SOL     OW 9493   4.763   4.853   5.191
 2865SOL    HW1 9494   4.717   4.941   5.202
 2865SOL    HW2 9495   4.856   4.868   5.158
 2866SOL     OW 9496   0.432   6.927   6.649
 2866SOL    HW1 9497   0.457   6.952   6.556
 2866SOL    HW2 9498   0.428   7.009   6.706
 2867SOL     OW 9499   6.405   4.318   4.307
 2867SOL    HW1 9500   6.452   4.350   4.224
 2867SOL    HW2 9501   6.337   4.250   4.282
 2868SOL     OW 9502   1.693   4.662   5.060
 2868SOL    HW1 9503   1.698   4.569   5.024
 2868SOL    HW2 9504   1.615   4.709   5.019
 2869SOL     OW 9505   5.965   1.331   2.082
 2869SOL    HW1 9506   6.060   1.310   2.107
 2869SOL    HW2 9507   5.903   1.269   2.129
 2870SOL     OW 9508   4.225   2.182   2.103
 2870SOL    HW1 9509   4.271   2.270   2.090
 2870SOL    HW2 9510   4.140   2.180   2.051
 2871SOL     OW 9511   1.317   1.639   5.990
 2871SOL    HW1 9512   1.237   1.686   5.952
 2871SOL    HW2 9513   1.396   1.701   5.987
 2872SOL     OW 9514   1.620   0.381   3.826
 2872SOL    HW1 9515   1.598   0.469   3.785
 2872SOL    HW2 9516   1.591   0.381   3.922
 2873SOL     OW 9517   6.368   5.552   2.269
 2873SOL    HW1 9518   6.309   5.511   2.200
 2873SOL    HW2 9519   6.456   5.577   2.227
 2874SOL     OW 9520   5.219   2.486   2.024
 2874SOL    HW1 9521   5.136   2.454   2.071
 2874SOL    HW2 9522   5.196   2.514   1.931
 2875SOL     OW 9523   2.991   4.780   0.821
 2875SOL    HW1 9524   2.979   4.707   0.888
 2875SOL    HW2 9525   2.970   4.744   0.730
 2876SOL     OW 9526   5.908   2.488   1.923
 2876SOL    HW1 9527   5.986   2.460   1.980
 2876SOL    HW2 9528   5.925   2.462   1.828
 2877SOL     OW 9529   1.578   3.896   5.443
 2877SOL    HW1 9530   1.503   3.957   5.418
 2877SOL    HW2 9531   1.558   3.853   5.531
 2878SOL     OW 9532   4.417   4.946   0.352
 2878SOL    HW1 9533   4.422   4.848   0.373
 2878SOL    HW2 9534   4.463   4.963   0.265
 2879SOL     OW 9535   5.171   4.097   6.545
 2879SOL    HW1 9536   5.248   4.086   6.482
 2879SOL    HW2 9537   5.182   4.183   6.595
 2880SOL     OW 9538   1.771   6.500   3.261
 2880SOL    HW1 9539   1.753   6.449   3.345
 2880SOL    HW2 9540   1.784   6.436   3.185
 2881SOL     OW 9541   0.044   0.256   6.993
 2881SOL    HW1 9542   0.038   0.277   0.065
 2881SOL    HW2 9543   0.138   0.232   6.970
 2882SOL     OW 9544   6.912   3.748   3.209
 2882SOL    HW1 9545   6.967   3.700   3.277
 2882SOL    HW2 9546   6.951   3.838   3.192
 2883SOL     OW 9547   3.826   6.561   1.984
 2883SOL    HW1 9548   3.759   6.559   2.058
 2883SOL    HW2 9549   3.788   6.513   1.904
 2884SOL     OW 9550   2.024   4.929   3.027
 2884SOL    HW1 9551   2.083   4.895   3.100
 2884SOL    HW2 9552   1.942   4.970   3.066
 2885SOL     OW 9553   1.039   2.279   4.371
 2885SOL    HW1 9554   0.981   2.232   4.304
 2885SOL    HW2 9555   1.134   2.255   4.355
 2886SOL     OW 9556   2.635   2.650   6.307
 2886SOL    HW1 9557   2.611   2.728   6.248
 2886SOL    HW2 9558   2.668   2.575   6.250
 2887SOL     OW 9559   2.760   1.504   5.304
 2887SOL    HW1 9560   2.669   1.469   5.281
 2887SOL    HW2 9561   2.818   1.502   5.222
 2888SOL     OW 9562   0.021   5.569   7.006
 2888SOL    HW1 9563   0.119   5.585   7.021
 2888SOL    HW2 9564   7.010   5.512   0.055
 2889SOL     OW 9565   1.215   0.478   0.917
 2889SOL    HW1 9566   1.268   0.503   0.836
 2889SOL    HW2 9567   1.213   0.556   0.981
 2890SOL     OW 9568   2.681   0.518   0.716
 2890SOL    HW1 9569   2.656   0.432   0.760
 2890SOL    HW2 9570   2.769   0.507   0.669
 2891SOL     OW 9571   3.019   4.808   5.100
 2891SOL    HW1 9572   2.934   4.755   5.106
 2891SOL    HW2 9573   3.085   4.773   5.166
 2892SOL     OW 9574   4.130   4.120   5.251
 2892SOL    HW1 9575   4.170   4.210   5.231
 2892SOL    HW2 9576   4.042   4.113   5.204
 2893SOL     OW 9577   3.437   0.654   4.910
 2893SOL    HW1 9578   3.401   0.738   4.870
 2893SOL    HW2 9579   3.410   0.648   5.006
 2894SOL     OW 9580   4.205   3.331   1.681
 2894SOL    HW1 9581   4.253   3.404   1.632
 2894SOL    HW2 9582   4.269   3.258   1.703
 2895SOL     OW 9583   3.713   3.226   0.221
 2895SOL    HW1 9584   3.801   3.178   0.216
 2895SOL    HW2 9585   3.641   3.168   0.183
 2896SOL     OW 9586   1.306   4.698   0.345
 2896SOL    HW1 9587   1.296   4.797   0.342
 2896SOL    HW2 9588   1.277   4.665   0.435
 2897SOL     OW 9589   0.751   6.746   3.400
 2897SOL    HW1 9590   0.809   6.708   3.472
 2897SOL    HW2 9591   0.697   6.673   3.358
 2898SOL     OW 9592   1.871   5.052   2.804
 2898SOL    HW1 9593   1.857   5.151   2.803
 2898SOL    HW2 9594   1.937   5.028   2.875
 2899SOL     OW 9595   5.468   0.450   0.753
 2899SOL    HW1 9596   5.459   0.423   0.849
 2899SOL    HW2 9597   5.550   0.507   0.742
 2900SOL     OW 9598   2.749   5.294   6.287
 2900SOL    HW1 9599   2.794   5.343   6.213
 2900SOL    HW2 9600   2.732   5.200   6.260
 2901SOL     OW 9601   2.889   6.673   1.038
 2901SOL    HW1 9602   2.958   6.745   1.032
 2901SOL    HW2 9603   2.852   6.654   0.948
 2902SOL     OW 9604   4.744   5.520   0.927
 2902SOL    HW1 9605   4.723   5.464   0.847
 2902SOL    HW2 9606   4.666   5.518   0.991
 2903SOL     OW 9607   3.009   2.641   1.721
 2903SOL    HW1 9608   3.011   2.562   1.783
 2903SOL    HW2 9609   3.103   2.664   1.693
 2904SOL     OW 9610   2.695   2.002   4.374
 2904SOL    HW1 9611   2.708   2.016   4.276
 2904SOL    HW2 9612   2.645   2.080   4.412
 2905SOL     OW 9613   0.791   2.218   2.202
 2905SOL    HW1 9614   0.730   2.160   2.255
 2905SOL    HW2 9615   0.860   2.161   2.157
 2906SOL     OW 9616   5.310   5.246   2.287
 2906SOL    HW1 9617   5.286   5.319   2.222
 2906SOL    HW2 9618   5.407   5.222   2.275
 2907SOL     OW 9619   5.756   0.766   4.819
 2907SOL    HW1 9620   5.794   0.710   4.744
 2907SOL    HW2 9621   5.830   0.796   4.879
 2908SOL     OW 9622   3.744   5.863   4.823
 2908SOL    HW1 9623   3.826   5.897   4.777
 2908SOL    HW2 9624   3.750   5.763   4.832
 2909SOL     OW 9625   2.469   6.399   5.717
 2909SOL    HW1 9626   2.380   6.357   5.702
 2909SOL    HW2 9627   2.527   6.336   5.770
 2910SOL     OW 9628   4.239   5.836   5.302
 2910SOL    HW1 9629   4.183   5.786   5.368
 2910SOL    HW2 9630   4.313   5.883   5.351
 2911SOL     OW 9631   2.435   4.435   3.265
 2911SOL    HW1 9632   2.391   4.522   3.288
 2911SOL    HW2 9633   2.439   4.425   3.165
 2912SOL     OW 9634   2.966   4.952   1.614
 2912SOL    HW1 9635   3.000   4.955   1.520
 2912SOL    HW2 9636   2.978   4.860   1.651
 2913SOL     OW 9637   0.834   2.915   2.036
 2913SOL    HW1 9638   0.784   2.987   1.988
 2913SOL    HW2 9639   0.930   2.919   2.011
 2914SOL     OW 9640   5.139   4.614   6.028
 2914SOL    HW1 9641   5.183   4.631   5.940
 2914SOL    HW2 9642   5.203   4.635   6.102
 2915SOL     OW 9643   4.933   1.481   3.311
 2915SOL    HW1 9644   4.843   1.441   3.295
 2915SOL    HW2 9645   5.003   1.424   3.268
 2916SOL     OW 9646   4.882   0.100   4.797
 2916SOL    HW1 9647   4.966   0.071   4.843
 2916SOL    HW2 9648   4.836   0.019   4.759
 2917SOL     OW 9649   3.807   0.272   2.132
 2917SOL    HW1 9650   3.792   0.333   2.210
 2917SOL    HW2 9651   3.851   0.323   2.058
 2918SOL     OW 9652   1.084   2.728   4.746
 2918SOL    HW1 9653   1.141   2.726   4.664
 2918SOL    HW2 9654   0.999   2.779   4.726
 2919SOL     OW 9655   5.654   5.691   0.279
 2919SOL    HW1 9656   5.656   5.667   0.183
 2919SOL    HW2 9657   5.729   5.754   0.299
 2920SOL     OW 9658   4.721   1.612   2.688
 2920SOL    HW1 9659   4.818   1.609   2.663
 2920SOL    HW2 9660   4.666   1.620   2.605
 2921SOL     OW 9661   6.471   1.627   0.755
 2921SOL    HW1 9662   6.374   1.606   0.744
 2921SOL    HW2 9663   6.522   1.543   0.771
 2922SOL     OW 9664   4.248   6.918   4.466
 2922SOL    HW1 9665   4.265   6.819   4.462
 2922SOL    HW2 9666   4.210   6.941   4.556
 2923SOL     OW 9667   0.393   4.748   6.529
 2923SOL    HW1 9668   0.492   4.748   6.511
 2923SOL    HW2 9669   0.355   4.837   6.508
 2924SOL     OW 9670   6.564   0.032   6.328
 2924SOL    HW1 9671   6.488   0.090   6.299
 2924SOL    HW2 9672   6.650   0.078   6.309
 2925SOL     OW 9673   6.164   4.739   0.102
 2925SOL    HW1 9674   6.131   4.644   0.101
 2925SOL    HW2 9675   6.250   4.744   0.153
 2926SOL     OW 9676   0.362   1.191   3.099
 2926SOL    HW1 9677   0.320   1.232   3.018
 2926SOL    HW2 9678   0.290   1.156   3.159
 2927SOL     OW 9679   0.178   3.323   2.631
 2927SOL    HW1 9680   0.246   3.269   2.581
 2927SOL    HW2 9681   0.145   3.269   2.710
 2928SOL     OW 9682   5.524   6.113   0.434
 2928SOL    HW1 9683   5.428   6.110   0.463
 2928SOL    HW2 9684   5.579   6.055   0.493
 2929SOL     OW 9685   0.755   0.101   5.461
 2929SOL    HW1 9686   0.751   0.168   5.536
 2929SOL    HW2 9687   0.851   0.076   5.445
 2930SOL     OW 9688   2.850   0.020   4.342
 2930SOL    HW1 9689   2.880   0.112   4.365
 2930SOL    HW2 9690   2.896   6.979   4.402
 2931SOL     OW 9691   4.598   4.955   6.348
 2931SOL    HW1 9692   4.647   4.869   6.336
 2931SOL    HW2 9693   4.596   4.979   6.445
 2932SOL     OW 9694   1.344   4.798   1.670
 2932SOL    HW1 9695   1.296   4.843   1.595
 2932SOL    HW2 9696   1.361   4.864   1.743
 2933SOL     OW 9697   4.879   2.506   3.831
 2933SOL    HW1 9698   4.804   2.570   3.849
 2933SOL    HW2 9699   4.842   2.414   3.815
 2934SOL     OW 9700   2.051   1.251   0.917
 2934SOL    HW1 9701   1.956   1.261   0.888
 2934SOL    HW2 9702   2.081   1.333   0.965
 2935SOL     OW 9703   6.802   1.120   0.918
 2935SOL    HW1 9704   6.823   1.177   0.838
 2935SOL    HW2 9705   6.708   1.135   0.947
 2936SOL     OW 9706   3.607   5.371   0.860
 2936SOL    HW1 9707   3.691   5.318   0.848
 2936SOL    HW2 9708   3.531   5.310   0.880
 2937SOL     OW 9709   2.540   4.634   0.094
 2937SOL    HW1 9710   2.534   4.716   0.037
 2937SOL    HW2 9711   2.500   4.556   0.044
 2938SOL     OW 9712   4.900   4.282   6.625
 2938SOL    HW1 9713   4.883   4.380   6.635
 2938SOL    HW2 9714   4.988   4.259   6.668
 2939SOL     OW 9715   0.069   6.573   5.692
 2939SOL    HW1 9716   0.098   6.626   5.772
 2939SOL    HW2 9717   0.128   6.594   5.615
 2940SOL     OW 9718   3.542   0.001   5.516
 2940SOL    HW1 9719   3.454   7.015   5.561
 2940SOL    HW2 9720   3.531   7.017   5.417
 2941SOL     OW 9721   3.946   1.778   5.138
 2941SOL    HW1 9722   3.900   1.819   5.216
 2941SOL    HW2 9723   3.971   1.683   5.159
 2942SOL     OW 9724   3.166   6.241   4.234
 2942SOL    HW1 9725   3.244   6.190   4.196
 2942SOL    HW2 9726   3.081   6.206   4.195
 2943SOL     OW 9727   5.673   5.046   2.864
 2943SOL    HW1 9728   5.663   4.948   2.845
 2943SOL    HW2 9729   5.751   5.081   2.813
 2944SOL     OW 9730   4.988   5.922   0.523
 2944SOL    HW1 9731   5.022   5.916   0.429
 2944SOL    HW2 9732   4.930   5.844   0.543
 2945SOL     OW 9733   2.906   3.442   4.713
 2945SOL    HW1 9734   3.005   3.452   4.722
 2945SOL    HW2 9735   2.867   3.412   4.800
 2946SOL     OW 9736   1.239   6.408   5.511
 2946SOL    HW1 9737   1.240   6.312   5.540
 2946SOL    HW2 9738   1.147   6.433   5.483
 2947SOL     OW 9739   6.957   5.361   0.147
 2947SOL    HW1 9740   6.925   5.304   0.071
 2947SOL    HW2 9741   6.993   5.302   0.219
 2948SOL     OW 9742   6.056   3.532   5.588
 2948SOL    HW1 9743   6.140   3.518   5.536
 2948SOL    HW2 9744   5.977   3.507   5.533
 2949SOL     OW 9745   0.527   6.621   0.185
 2949SOL    HW1 9746   0.619   6.601   0.152
 2949SOL    HW2 9747   0.462   6.617   0.109
 2950SOL     OW 9748   5.290   3.428   4.942
 2950SOL    HW1 9749   5.331   3.398   5.028
 2950SOL    HW2 9750   5.191   3.439   4.954
 2951SOL     OW 9751   5.668   0.138   0.288
 2951SOL    HW1 9752   5.739   0.143   0.218
 2951SOL    HW2 9753   5.670   0.220   0.344
 2952SOL     OW 9754   0.412   3.337   1.968
 2952SOL    HW1 9755   0.421   3.242   1.937
 2952SOL    HW2 9756   0.490   3.360   2.027
 2953SOL     OW 9757   5.782   1.793   2.303
 2953SOL    HW1 9758   5.832   1.710   2.278
 2953SOL    HW2 9759   5.744   1.835   2.221
 2954SOL     OW 9760   4.975   5.678   2.093
 2954SOL    HW1 9761   5.010   5.673   1.999
 2954SOL    HW2 9762   4.915   5.757   2.102
 2955SOL     OW 9763   6.041   2.081   1.237
 2955SOL    HW1 9764   6.095   2.161   1.261
 2955SOL    HW2 9765   6.090   1.998   1.265
 2956SOL     OW 9766   5.685   5.909   3.736
 2956SOL    HW1 9767   5.592   5.872   3.737
 2956SOL    HW2 9768   5.722   5.905   3.643
 2957SOL     OW 9769   1.514   4.637   1.529
 2957SOL    HW1 9770   1.463   4.696   1.592
 2957SOL    HW2 9771   1.453   4.602   1.459
 2958SOL     OW 9772   2.824   5.060   6.485
 2958SOL    HW1 9773   2.862   4.972   6.516
 2958SOL    HW2 9774   2.789   5.049   6.392
 2959SOL     OW 9775   3.585   4.961   0.509
 2959SOL    HW1 9776   3.522   4.985   0.436
 2959SOL    HW2 9777   3.667   5.018   0.504
 2960SOL     OW 9778   2.972   1.648   0.257
 2960SOL    HW1 9779   3.067   1.680   0.255
 2960SOL    HW2 9780   2.965   1.569   0.318
 2961SOL     OW 9781   5.408   1.394   4.391
 2961SOL    HW1 9782   5.456   1.308   4.373
 2961SOL    HW2 9783   5.436   1.430   4.480
 2962SOL     OW 9784   4.604   0.306   2.831
 2962SOL    HW1 9785   4.615   0.395   2.785
 2962SOL    HW2 9786   4.694   0.264   2.844
 2963SOL     OW 9787   2.157   3.135   5.092
 2963SOL    HW1 9788   2.145   3.207   5.161
 2963SOL    HW2 9789   2.247   3.092   5.103
 2964SOL     OW 9790   3.096   5.861   0.611
 2964SOL    HW1 9791   3.065   5.941   0.560
 2964SOL    HW2 9792   3.051   5.858   0.700
 2965SOL     OW 9793   0.606   2.891   6.155
 2965SOL    HW1 9794   0.558   2.804   6.170
 2965SOL    HW2 9795   0.561   2.964   6.207
 2966SOL     OW 9796   4.783   4.904   3.758
 2966SOL    HW1 9797   4.735   4.979   3.713
 2966SOL    HW2 9798   4.743   4.817   3.729
 2967SOL     OW 9799   6.115   2.618   4.379
 2967SOL    HW1 9800   6.190   2.630   4.314
 2967SOL    HW2 9801   6.145   2.562   4.456
 2968SOL     OW 9802   6.903   4.225   3.431
 2968SOL    HW1 9803   6.875   4.129   3.433
 2968SOL    HW2 9804   6.830   4.281   3.390
 2969SOL     OW 9805   3.637   1.781   4.785
 2969SOL    HW1 9806   3.634   1.760   4.688
 2969SOL    HW2 9807   3.730   1.802   4.813
 2970SOL     OW 9808   1.157   4.161   5.838
 2970SOL    HW1 9809   1.107   4.117   5.913
 2970SOL    HW2 9810   1.154   4.260   5.848
 2971SOL     OW 9811   5.576   3.834   2.195
 2971SOL    HW1 9812   5.647   3.763   2.197
 2971SOL    HW2 9813   5.552   3.860   2.289
 2972SOL     OW 9814   0.605   4.077   4.777
 2972SOL    HW1 9815   0.572   4.024   4.699
 2972SOL    HW2 9816   0.682   4.029   4.819
 2973SOL     OW 9817   5.849   0.030   3.680
 2973SOL    HW1 9818   5.842   0.116   3.628
 2973SOL    HW2 9819   5.933   0.031   3.734
 2974SOL     OW 9820   6.948   4.477   1.024
 2974SOL    HW1 9821   6.849   4.480   1.036
 2974SOL    HW2 9822   6.989   4.427   1.100
 2975SOL     OW 9823   6.404   1.652   4.028
 2975SOL    HW1 9824   6.416   1.653   3.929
 2975SOL    HW2 9825   6.439   1.736   4.067
 2976SOL     OW 9826   2.318   5.999   1.476
 2976SOL    HW1 9827   2.321   5.983   1.574
 2976SOL    HW2 9828   2.381   6.073   1.452
 2977SOL     OW 9829   3.085   6.813   3.580
 2977SOL    HW1 9830   3.029   6.731   3.574
 2977SOL    HW2 9831   3.048   6.874   3.650
 2978SOL     OW 9832   2.377   0.151   6.669
 2978SOL    HW1 9833   2.391   0.066   6.721
 2978SOL    HW2 9834   2.371   0.130   6.572
 2979SOL     OW 9835   2.890   1.277   3.078
 2979SOL    HW1 9836   2.860   1.342   3.008
 2979SOL    HW2 9837   2.908   1.325   3.163
 2980SOL     OW 9838   5.982   6.779   2.988
 2980SOL    HW1 9839   5.973   6.857   3.050
 2980SOL    HW2 9840   6.071   6.736   3.001
 2981SOL     OW 9841   1.967   1.826   5.830
 2981SOL    HW1 9842   1.918   1.849   5.746
 2981SOL    HW2 9843   2.065   1.823   5.811
 2982SOL     OW 9844   4.586   5.709   2.073
 2982SOL    HW1 9845   4.627   5.621   2.099
 2982SOL    HW2 9846   4.534   5.745   2.150
 2983SOL     OW 9847   0.439   1.036   2.711
 2983SOL    HW1 9848   0.490   1.006   2.630
 2983SOL    HW2 9849   0.491   1.106   2.759
 2984SOL     OW 9850   5.910   4.752   1.579
 2984SOL    HW1 9851   5.982   4.780   1.643
 2984SOL    HW2 9852   5.836   4.709   1.631
 2985SOL     OW 9853   6.336   2.481   3.011
 2985SOL    HW1 9854   6.373   2.561   3.059
 2985SOL    HW2 9855   6.241   2.498   2.986
 2986SOL     OW 9856   1.684   3.288   5.154
 2986SOL    HW1 9857   1.750   3.218   5.128
 2986SOL    HW2 9858   1.722   3.378   5.135
 2987SOL     OW 9859   5.195   1.820   5.186
 2987SOL    HW1 9860   5.228   1.734   5.225
 2987SOL    HW2 9861   5.273   1.870   5.146
 2988SOL     OW 9862   1.162   0.200   2.752
 2988SOL    HW1 9863   1.120   0.282   2.790
 2988SOL    HW2 9864   1.193   0.219   2.659
 2989SOL     OW 9865   6.231   5.175   0.716
 2989SOL    HW1 9866   6.210   5.260   0.669
 2989SOL    HW2 9867   6.155   5.151   0.777
 2990SOL     OW 9868   2.724   1.411   1.574
 2990SOL    HW1 9869   2.735   1.474   1.497
 2990SOL    HW2 9870   2.686   1.325   1.542
 2991SOL     OW 9871   6.602   4.442   6.782
 2991SOL    HW1 9872   6.560   4.503   6.849
 2991SOL    HW2 9873   6.596   4.482   6.691
 2992SOL     OW 9874   4.613   4.324   6.869
 2992SOL    HW1 9875   4.657   4.277   6.945
 2992SOL    HW2 9876   4.662   4.304   6.784
 2993SOL     OW 9877   1.512   4.502   6.889
 2993SOL    HW1 9878   1.584   4.571   6.876
 2993SOL    HW2 9879   1.465   4.520   6.975
 2994SOL     OW 9880   4.582   6.135   0.160
 2994SOL    HW1 9881   4.666   6.092   0.192
 2994SOL    HW2 9882   4.544   6.082   0.085
 2995SOL     OW 9883   2.389   0.782   5.705
 2995SOL    HW1 9884   2.338   0.815   5.784
 2995SOL    HW2 9885   2.438   0.698   5.729
 2996SOL     OW 9886   4.404   6.929   5.942
 2996SOL    HW1 9887   4.335   6.904   6.011
 2996SOL    HW2 9888   4.362   6.927   5.851
 2997SOL     OW 9889   3.908   5.845   0.305
 2997SOL    HW1 9890   3.923   5.933   0.351
 2997SOL    HW2 9891   3.881   5.776   0.373
 2998SOL     OW 9892   6.431   4.206   5.781
 2998SOL    HW1 9893   6.399   4.285   5.833
 2998SOL    HW2 9894   6.370   4.129   5.796
 2999SOL     OW 9895   2.031   1.739   1.610
 2999SOL    HW1 9896   1.958   1.672   1.597
 2999SOL    HW2 9897   2.078   1.722   1.696
 3000SOL     OW 9898   1.461   2.098   4.678
 3000SOL    HW1 9899   1.516   2.160   4.622
 3000SOL    HW2 9900   1.390   2.149   4.725
 3001SOL     OW 9901   4.804   6.197   5.671
 3001SOL    HW1 9902   4.741   6.213   5.747
 3001SOL    HW2 9903   4.789   6.266   5.600
 3002SOL     OW 9904   3.176   0.513   4.752
 3002SOL    HW1 9905   3.170   0.559   4.663
 3002SOL    HW2 9906   3.196   0.581   4.823
 3003SOL     OW 9907   1.226   0.138   5.574
 3003SOL    HW1 9908   1.319   0.108   5.555
 3003SOL    HW2 9909   1.216   0.234   5.550
 3004SOL     OW 9910   6.940   2.718   5.832
 3004SOL    HW1 9911   6.980   2.638   5.876
 3004SOL    HW2 9912   6.906   2.781   5.902
 3005SOL     OW 9913   5.108   2.301   0.800
 3005SOL    HW1 9914   5.058   2.286   0.885
 3005SOL    HW2 9915   5.205   2.280   0.814
 3006SOL     OW 9916   4.352   6.850   1.743
 3006SOL    HW1 9917   4.315   6.903   1.819
 3006SOL    HW2 9918   4.375   6.758   1.775
 3007SOL     OW 9919   5.858   5.377   1.851
 3007SOL    HW1 9920   5.952   5.357   1.824
 3007SOL    HW2 9921   5.821   5.300   1.903
 3008SOL     OW 9922   4.302   5.349   5.636
 3008SOL    HW1 9923   4.355   5.269   5.665
 3008SOL    HW2 9924   4.225   5.363   5.699
 3009SOL     OW 9925   1.069   0.422   2.826
 3009SOL    HW1 9926   0.982   0.401   2.871
 3009SOL    HW2 9927   1.095   0.517   2.845
 3010SOL     OW 9928   2.953   0.025   3.102
 3010SOL    HW1 9929   3.038   0.070   3.130
 3010SOL    HW2 9930   2.912   7.003   3.180
 3011SOL     OW 9931   5.439   0.120   0.708
 3011SOL    HW1 9932   5.501   0.111   0.787
 3011SOL    HW2 9933   5.492   0.139   0.626
 3012SOL     OW 9934   6.807   5.486   1.142
 3012SOL    HW1 9935   6.852   5.473   1.054
 3012SOL    HW2 9936   6.868   5.457   1.216
 3013SOL     OW 9937   5.652   4.659   1.679
 3013SOL    HW1 9938   5.661   4.591   1.752
 3013SOL    HW2 9939   5.564   4.706   1.687
 3014SOL     OW 9940   5.180   6.440   5.825
 3014SOL    HW1 9941   5.249   6.396   5.882
 3014SOL    HW2 9942   5.098   6.382   5.822
 3015SOL     OW 9943   2.552   1.085   0.055
 3015SOL    HW1 9944   2.624   1.150   0.030
 3015SOL    HW2 9945   2.563   1.058   0.151
 3016SOL     OW 9946   3.815   6.125   3.759
 3016SOL    HW1 9947   3.724   6.136   3.719
 3016SOL    HW2 9948   3.857   6.214   3.772
 3017SOL     OW 9949   0.611   5.840   1.529
 3017SOL    HW1 9950   0.620   5.772   1.601
 3017SOL    HW2 9951   0.578   5.926   1.568
 3018SOL     OW 9952   4.578   0.182   5.960
 3018SOL    HW1 9953   4.559   0.094   6.004
 3018SOL    HW2 9954   4.514   0.196   5.884
 3019SOL     OW 9955   4.753   0.545   1.710
 3019SOL    HW1 9956   4.752   0.589   1.620
 3019SOL    HW2 9957   4.684   0.473   1.712
 3020SOL     OW 9958   1.913   0.696   1.669
 3020SOL    HW1 9959   1.876   0.653   1.586
 3020SOL    HW2 9960   1.838   0.736   1.722
 3021SOL     OW 9961   4.293   0.744   6.651
 3021SOL    HW1 9962   4.312   0.647   6.634
 3021SOL    HW2 9963   4.226   0.777   6.585
 3022SOL     OW 9964   0.147   0.503   3.151
 3022SOL    HW1 9965   0.108   0.466   3.235
 3022SOL    HW2 9966   0.074   0.526   3.087
 3023SOL     OW 9967   5.627   0.390   1.519
 3023SOL    HW1 9968   5.710   0.439   1.545
 3023SOL    HW2 9969   5.648   0.325   1.445
 3024SOL     OW 9970   2.096   6.973   6.629
 3024SOL    HW1 9971   2.000   7.001   6.638
 3024SOL    HW2 9972   2.129   7.001   6.539
 3025SOL     OW 9973   2.138   2.145   1.562
 3025SOL    HW1 9974   2.130   2.245   1.569
 3025SOL    HW2 9975   2.235   2.120   1.554
 3026SOL     OW 9976   3.032   5.647   0.435
 3026SOL    HW1 9977   3.079   5.726   0.475
 3026SOL    HW2 9978   2.933   5.663   0.435
 3027SOL     OW 9979   1.450   1.745   3.679
 3027SOL    HW1 9980   1.367   1.785   3.716
 3027SOL    HW2 9981   1.433   1.649   3.656
 3028SOL     OW 9982   1.127   0.304   4.794
 3028SOL    HW1 9983   1.144   0.334   4.700
 3028SOL    HW2 9984   1.211   0.314   4.847
 3029SOL     OW 9985   6.410   5.295   5.826
 3029SOL    HW1 9986   6.345   5.370   5.821
 3029SOL    HW2 9987   6.484   5.309   5.761
 3030SOL     OW 9988   1.297   0.669   5.369
 3030SOL    HW1 9989   1.330   0.741   5.431
 3030SOL    HW2 9990   1.208   0.697   5.331
 3031SOL     OW 9991   0.134   5.595   5.904
 3031SOL    HW1 9992   0.152   5.679   5.853
 3031SOL    HW2 9993   0.208   5.529   5.887
 3032SOL     OW 9994   3.915   6.677   5.604
 3032SOL    HW1 9995   3.824   6.687   5.643
 3032SOL    HW2 9996   3.913   6.609   5.531
 3033SOL     OW 9997   4.879   4.766   5.817
 3033SOL    HW1 9998   4.870   4.750   5.915
 3033SOL    HW2 9999   4.909   4.682   5.772
 3034SOL     OW10000   2.718   6.616   4.325
 3034SOL    HW110001   2.766   6.613   4.413
 3034SOL    HW210002   2.620   6.630   4.341
 3035SOL     OW10003   6.299   0.165   0.033
 3035SOL    HW110004   6.325   0.225   0.108
 3035SOL    HW210005   6.202   0.178   0.012
 3036SOL     OW10006   0.943   4.998   5.607
 3036SOL    HW110007   1.001   4.922   5.636
 3036SOL    HW210008   0.983   5.084   5.636
 3037SOL     OW10009   5.411   6.557   6.075
 3037SOL    HW110010   5.493   6.591   6.028
 3037SOL    HW210011   5.338   6.625   6.069
 3038SOL     OW10012   6.185   6.037   5.739
 3038SOL    HW110013   6.134   6.065   5.820
 3038SOL    HW210014   6.125   5.988   5.676
 3039SOL     OW10015   0.491   5.190   0.617
 3039SOL    HW110016   0.414   5.242   0.654
 3039SOL    HW210017   0.575   5.245   0.625
 3040SOL     OW10018   3.030   1.254   0.025
 3040SOL    HW110019   3.115   1.287   0.067
 3040SOL    HW210020   3.048   1.169   7.000
 3041SOL     OW10021   1.594   2.332   6.354
 3041SOL    HW110022   1.691   2.336   6.380
 3041SOL    HW210023   1.577   2.394   6.277
 3042SOL     OW10024   6.115   0.244   1.045
 3042SOL    HW110025   6.186   0.266   1.113
 3042SOL    HW210026   6.102   0.322   0.984
 3043SOL     OW10027   6.991   5.519   6.740
 3043SOL    HW110028   6.966   5.422   6.734
 3043SOL    HW210029   7.017   5.542   6.833
 3044SOL     OW10030   2.566   3.204   6.485
 3044SOL    HW110031   2.586   3.106   6.489
 3044SOL    HW210032   2.514   3.224   6.402
 3045SOL     OW10033   4.915   2.558   4.279
 3045SOL    HW110034   4.967   2.601   4.205
 3045SOL    HW210035   4.819   2.586   4.272
 3046SOL     OW10036   1.956   2.433   6.211
 3046SOL    HW110037   2.047   2.474   6.198
 3046SOL    HW210038   1.889   2.506   6.225
 3047SOL     OW10039   6.996   5.154   1.896
 3047SOL    HW110040   6.900   5.139   1.876
 3047SOL    HW210041   7.015   5.252   1.899
 3048SOL     OW10042   3.316   2.880   1.942
 3048SOL    HW110043   3.402   2.830   1.946
 3048SOL    HW210044   3.324   2.952   1.872
 3049SOL     OW10045   0.849   0.674   1.134
 3049SOL    HW110046   0.818   0.704   1.043
 3049SOL    HW210047   0.834   0.748   1.200
 3050SOL     OW10048   1.718   0.737   4.036
 3050SOL    HW110049   1.624   0.770   4.025
 3050SOL    HW210050   1.739   0.726   4.133
 3051SOL     OW10051   2.625   4.739   6.023
 3051SOL    HW110052   2.654   4.694   6.107
 3051SOL    HW210053   2.666   4.692   5.944
 3052SOL     OW10054   5.234   6.913   2.643
 3052SOL    HW110055   5.257   7.007   2.668
 3052SOL    HW210056   5.233   6.856   2.725
 3053SOL     OW10057   3.892   6.904   1.870
 3053SOL    HW110058   3.946   6.825   1.838
 3053SOL    HW210059   3.887   6.902   1.970
 3054SOL     OW10060   2.004   4.240   5.673
 3054SOL    HW110061   2.074   4.311   5.664
 3054SOL    HW210062   2.029   4.161   5.615
 3055SOL     OW10063   6.361   6.465   2.665
 3055SOL    HW110064   6.282   6.524   2.682
 3055SOL    HW210065   6.437   6.521   2.631
 3056SOL     OW10066   5.377   0.590   1.911
 3056SOL    HW110067   5.414   0.612   1.821
 3056SOL    HW210068   5.340   0.673   1.953
 3057SOL     OW10069   6.593   5.446   2.692
 3057SOL    HW110070   6.508   5.434   2.640
 3057SOL    HW210071   6.576   5.429   2.789
 3058SOL     OW10072   5.936   6.115   1.393
 3058SOL    HW110073   5.938   6.171   1.475
 3058SOL    HW210074   5.939   6.018   1.419
 3059SOL     OW10075   2.360   2.491   6.349
 3059SOL    HW110076   2.311   2.497   6.436
 3059SOL    HW210077   2.455   2.518   6.362
 3060SOL     OW10078   0.576   6.516   6.414
 3060SOL    HW110079   0.540   6.480   6.500
 3060SOL    HW210080   0.508   6.578   6.373
 3061SOL     OW10081   0.679   1.017   6.057
 3061SOL    HW110082   0.631   0.946   6.005
 3061SOL    HW210083   0.778   1.005   6.046
 3062SOL     OW10084   3.237   5.028   6.390
 3062SOL    HW110085   3.261   5.076   6.474
 3062SOL    HW210086   3.301   4.953   6.375
 3063SOL     OW10087   2.568   5.867   1.015
 3063SOL    HW110088   2.645   5.840   1.071
 3063SOL    HW210089   2.564   5.967   1.010
 3064SOL     OW10090   0.353   4.609   3.134
 3064SOL    HW110091   0.435   4.583   3.186
 3064SOL    HW210092   0.287   4.652   3.196
 3065SOL     OW10093   3.074   1.571   1.491
 3065SOL    HW110094   3.097   1.484   1.534
 3065SOL    HW210095   2.978   1.569   1.462
 3066SOL     OW10096   5.349   5.221   0.536
 3066SOL    HW110097   5.429   5.174   0.500
 3066SOL    HW210098   5.369   5.319   0.544
 3067SOL     OW10099   4.163   6.933   3.021
 3067SOL    HW110100   4.176   6.836   3.000
 3067SOL    HW210101   4.225   6.960   3.094
 3068SOL     OW10102   6.436   4.780   6.537
 3068SOL    HW110103   6.371   4.774   6.613
 3068SOL    HW210104   6.470   4.689   6.515
 3069SOL     OW10105   1.010   4.476   3.440
 3069SOL    HW110106   1.005   4.574   3.453
 3069SOL    HW210107   1.023   4.456   3.342
 3070SOL     OW10108   4.293   1.996   3.934
 3070SOL    HW110109   4.300   2.096   3.936
 3070SOL    HW210110   4.379   1.956   3.965
 3071SOL     OW10111   5.708   0.491   3.790
 3071SOL    HW110112   5.789   0.536   3.751
 3071SOL    HW210113   5.738   0.417   3.851
 3072SOL     OW10114   0.217   0.641   1.655
 3072SOL    HW110115   0.232   0.573   1.583
 3072SOL    HW210116   0.207   0.731   1.613
 3073SOL     OW10117   2.192   1.949   4.876
 3073SOL    HW110118   2.135   1.892   4.936
 3073SOL    HW210119   2.176   1.922   4.780
 3074SOL     OW10120   4.699   3.937   5.923
 3074SOL    HW110121   4.735   3.885   5.845
 3074SOL    HW210122   4.758   4.016   5.940
 3075SOL     OW10123   0.216   5.655   0.921
 3075SOL    HW110124   0.190   5.696   1.008
 3075SOL    HW210125   0.223   5.556   0.932
 3076SOL     OW10126   0.831   0.911   5.168
 3076SOL    HW110127   0.871   1.001   5.150
 3076SOL    HW210128   0.772   0.884   5.092
 3077SOL     OW10129   4.735   4.795   3.305
 3077SOL    HW110130   4.664   4.825   3.240
 3077SOL    HW210131   4.798   4.734   3.258
 3078SOL     OW10132   1.700   2.687   0.107
 3078SOL    HW110133   1.672   2.712   0.014
 3078SOL    HW210134   1.628   2.633   0.150
 3079SOL     OW10135   5.339   2.999   5.654
 3079SOL    HW110136   5.431   2.974   5.624
 3079SOL    HW210137   5.294   3.052   5.582
 3080SOL     OW10138   5.898   6.777   1.663
 3080SOL    HW110139   5.880   6.687   1.704
 3080SOL    HW210140   5.938   6.765   1.572
 3081SOL     OW10141   1.203   4.480   5.858
 3081SOL    HW110142   1.157   4.507   5.773
 3081SOL    HW210143   1.255   4.558   5.894
 3082SOL     OW10144   3.387   0.031   2.424
 3082SOL    HW110145   3.338   7.006   2.353
 3082SOL    HW210146   3.433   6.992   2.485
 3083SOL     OW10147   3.645   0.057   2.146
 3083SOL    HW110148   3.710   0.133   2.151
 3083SOL    HW210149   3.552   0.092   2.155
 3084SOL     OW10150   4.052   6.266   4.243
 3084SOL    HW110151   3.975   6.203   4.228
 3084SOL    HW210152   4.085   6.257   4.337
 3085SOL     OW10153   0.843   4.901   2.217
 3085SOL    HW110154   0.801   4.813   2.193
 3085SOL    HW210155   0.890   4.893   2.305
 3086SOL     OW10156   6.057   1.311   4.572
 3086SOL    HW110157   5.982   1.317   4.506
 3086SOL    HW210158   6.123   1.242   4.540
 3087SOL     OW10159   5.763   4.123   1.344
 3087SOL    HW110160   5.762   4.068   1.260
 3087SOL    HW210161   5.680   4.105   1.396
 3088SOL     OW10162   3.012   3.804   6.470
 3088SOL    HW110163   3.073   3.861   6.415
 3088SOL    HW210164   3.035   3.708   6.455
 3089SOL     OW10165   3.598   1.870   1.782
 3089SOL    HW110166   3.640   1.780   1.781
 3089SOL    HW210167   3.647   1.931   1.720
 3090SOL     OW10168   6.176   1.824   0.991
 3090SOL    HW110169   6.274   1.811   0.981
 3090SOL    HW210170   6.140   1.763   1.062
 3091SOL     OW10171   2.378   5.932   0.109
 3091SOL    HW110172   2.352   5.842   0.144
 3091SOL    HW210173   2.304   5.996   0.124
 3092SOL     OW10174   3.562   5.326   0.243
 3092SOL    HW110175   3.484   5.386   0.263
 3092SOL    HW210176   3.562   5.303   0.146
 3093SOL     OW10177   5.071   0.174   3.029
 3093SOL    HW110178   5.029   0.085   3.052
 3093SOL    HW210179   5.120   0.209   3.109
 3094SOL     OW10180   3.508   5.433   4.926
 3094SOL    HW110181   3.442   5.450   4.999
 3094SOL    HW210182   3.551   5.344   4.941
 3095SOL     OW10183   1.843   5.326   5.130
 3095SOL    HW110184   1.800   5.376   5.205
 3095SOL    HW210185   1.793   5.343   5.045
 3096SOL     OW10186   0.698   1.419   5.474
 3096SOL    HW110187   0.762   1.463   5.411
 3096SOL    HW210188   0.701   1.320   5.461
 3097SOL     OW10189   2.137   0.653   0.202
 3097SOL    HW110190   2.115   0.670   0.298
 3097SOL    HW210191   2.053   0.656   0.148
 3098SOL     OW10192   4.253   2.603   0.820
 3098SOL    HW110193   4.266   2.534   0.891
 3098SOL    HW210194   4.322   2.675   0.829
 3099SOL     OW10195   1.529   5.768   5.382
 3099SOL    HW110196   1.528   5.824   5.299
 3099SOL    HW210197   1.585   5.687   5.367
 3100SOL     OW10198   6.594   6.836   6.151
 3100SOL    HW110199   6.520   6.821   6.087
 3100SOL    HW210200   6.582   6.923   6.198
 3101SOL     OW10201   3.588   0.617   1.480
 3101SOL    HW110202   3.557   0.560   1.556
 3101SOL    HW210203   3.534   0.596   1.398
 3102SOL     OW10204   0.956   5.921   0.091
 3102SOL    HW110205   0.928   5.833   0.130
 3102SOL    HW210206   0.904   5.994   0.135
 3103SOL     OW10207   4.252   4.435   1.709
 3103SOL    HW110208   4.292   4.358   1.759
 3103SOL    HW210209   4.186   4.399   1.642
 3104SOL     OW10210   5.661   5.625   3.931
 3104SOL    HW110211   5.659   5.548   3.995
 3104SOL    HW210212   5.631   5.593   3.841
 3105SOL     OW10213   5.938   5.701   3.881
 3105SOL    HW110214   5.926   5.756   3.798
 3105SOL    HW210215   5.851   5.660   3.907
 3106SOL     OW10216   6.580   2.979   4.735
 3106SOL    HW110217   6.566   2.951   4.830
 3106SOL    HW210218   6.642   3.057   4.733
 3107SOL     OW10219   2.614   0.119   4.203
 3107SOL    HW110220   2.688   0.107   4.269
 3107SOL    HW210221   2.621   0.210   4.162
 3108SOL     OW10222   1.870   0.644   3.007
 3108SOL    HW110223   1.931   0.595   3.070
 3108SOL    HW210224   1.922   0.716   2.960
 3109SOL     OW10225   4.711   5.855   3.344
 3109SOL    HW110226   4.617   5.836   3.374
 3109SOL    HW210227   4.775   5.800   3.398
 3110SOL     OW10228   1.100   2.920   1.548
 3110SOL    HW110229   1.143   2.894   1.462
 3110SOL    HW210230   1.147   2.999   1.587
 3111SOL     OW10231   0.487   4.777   2.120
 3111SOL    HW110232   0.552   4.702   2.135
 3111SOL    HW210233   0.395   4.739   2.107
 3112SOL     OW10234   2.854   3.244   5.773
 3112SOL    HW110235   2.920   3.307   5.815
 3112SOL    HW210236   2.871   3.239   5.675
 3113SOL     OW10237   4.305   6.456   4.402
 3113SOL    HW110238   4.332   6.422   4.312
 3113SOL    HW210239   4.362   6.535   4.427
 3114SOL     OW10240   5.100   5.666   0.688
 3114SOL    HW110241   5.035   5.731   0.648
 3114SOL    HW210242   5.111   5.685   0.786
 3115SOL     OW10243   3.120   3.015   2.053
 3115SOL    HW110244   3.044   3.021   1.989
 3115SOL    HW210245   3.187   2.948   2.019
 3116SOL     OW10246   0.318   1.251   6.844
 3116SOL    HW110247   0.369   1.207   6.918
 3116SOL    HW210248   0.382   1.286   6.776
 3117SOL     OW10249   3.715   4.125   5.880
 3117SOL    HW110250   3.753   4.067   5.952
 3117SOL    HW210251   3.660   4.070   5.818
 3118SOL     OW10252   6.208   5.473   6.881
 3118SOL    HW110253   6.113   5.442   6.892
 3118SOL    HW210254   6.216   5.567   6.916
 3119SOL     OW10255   2.304   4.308   6.882
 3119SOL    HW110256   2.315   4.213   6.852
 3119SOL    HW210257   2.220   4.316   6.936
 3120SOL     OW10258   2.579   5.318   6.687
 3120SOL    HW110259   2.576   5.334   6.588
 3120SOL    HW210260   2.558   5.403   6.735
 3121SOL     OW10261   0.563   5.941   3.678
 3121SOL    HW110262   0.551   6.019   3.617
 3121SOL    HW210263   0.478   5.888   3.680
 3122SOL     OW10264   3.447   5.446   1.191
 3122SOL    HW110265   3.403   5.465   1.279
 3122SOL    HW210266   3.458   5.531   1.140
 3123SOL     OW10267   3.527   6.841   4.403
 3123SOL    HW110268   3.562   6.902   4.331
 3123SOL    HW210269   3.516   6.749   4.367
 3124SOL     OW10270   3.541   0.038   5.953
 3124SOL    HW110271   3.463   0.099   5.966
 3124SOL    HW210272   3.581   0.053   5.863
 3125SOL     OW10273   6.763   2.228   6.446
 3125SOL    HW110274   6.750   2.161   6.373
 3125SOL    HW210275   6.778   2.180   6.532
 3126SOL     OW10276   3.975   6.310   6.342
 3126SOL    HW110277   4.001   6.403   6.315
 3126SOL    HW210278   3.977   6.302   6.442
 3127SOL     OW10279   1.000   1.285   4.476
 3127SOL    HW110280   0.957   1.246   4.558
 3127SOL    HW210281   0.980   1.226   4.397
 3128SOL     OW10282   1.697   0.639   1.186
 3128SOL    HW110283   1.772   0.581   1.153
 3128SOL    HW210284   1.613   0.585   1.192
 3129SOL     OW10285   0.863   3.012   3.103
 3129SOL    HW110286   0.913   3.071   3.040
 3129SOL    HW210287   0.775   3.055   3.126
 3130SOL     OW10288   2.562   5.323   3.248
 3130SOL    HW110289   2.612   5.249   3.204
 3130SOL    HW210290   2.464   5.304   3.244
 3131SOL     OW10291   0.460   2.836   4.164
 3131SOL    HW110292   0.440   2.920   4.115
 3131SOL    HW210293   0.378   2.779   4.168
 3132SOL     OW10294   5.141   3.954   5.782
 3132SOL    HW110295   5.074   3.949   5.856
 3132SOL    HW210296   5.173   4.048   5.772
 3133SOL     OW10297   2.327   1.807   3.499
 3133SOL    HW110298   2.395   1.741   3.467
 3133SOL    HW210299   2.344   1.896   3.458
 3134SOL     OW10300   5.632   3.003   2.072
 3134SOL    HW110301   5.551   2.945   2.068
 3134SOL    HW210302   5.695   2.978   1.999
 3135SOL     OW10303   1.357   2.067   2.740
 3135SOL    HW110304   1.271   2.049   2.787
 3135SOL    HW210305   1.405   1.980   2.725
 3136SOL     OW10306   6.196   0.277   4.960
 3136SOL    HW110307   6.181   0.374   4.980
 3136SOL    HW210308   6.166   0.258   4.867
 3137SOL     OW10309   0.428   1.842   4.511
 3137SOL    HW110310   0.390   1.838   4.418
 3137SOL    HW210311   0.399   1.927   4.555
 3138SOL     OW10312   6.238   2.239   4.229
 3138SOL    HW110313   6.201   2.180   4.301
 3138SOL    HW210314   6.169   2.250   4.156
 3139SOL     OW10315   4.776   5.532   5.353
 3139SOL    HW110316   4.822   5.517   5.265
 3139SOL    HW210317   4.693   5.477   5.356
 3140SOL     OW10318   6.049   6.112   5.940
 3140SOL    HW110319   5.986   6.162   5.882
 3140SOL    HW210320   6.005   6.093   6.028
 3141SOL     OW10321   1.008   6.111   2.076
 3141SOL    HW110322   1.106   6.094   2.080
 3141SOL    HW210323   0.961   6.029   2.043
 3142SOL     OW10324   3.555   0.039   0.431
 3142SOL    HW110325   3.546   6.971   0.396
 3142SOL    HW210326   3.533   0.104   0.359
 3143SOL     OW10327   0.182   1.716   0.369
 3143SOL    HW110328   0.204   1.625   0.334
 3143SOL    HW210329   0.136   1.769   0.298
 3144SOL     OW10330   2.527   2.936   6.912
 3144SOL    HW110331   2.466   2.913   6.988
 3144SOL    HW210332   2.610   2.880   6.919
 3145SOL     OW10333   2.922   5.123   3.010
 3145SOL    HW110334   2.940   5.026   2.993
 3145SOL    HW210335   2.988   5.158   3.075
 3146SOL     OW10336   2.085   6.945   4.052
 3146SOL    HW110337   2.132   6.859   4.032
 3146SOL    HW210338   2.046   6.942   4.144
 3147SOL     OW10339   3.758   4.397   0.661
 3147SOL    HW110340   3.684   4.352   0.711
 3147SOL    HW210341   3.719   4.469   0.603
 3148SOL     OW10342   2.850   5.633   4.669
 3148SOL    HW110343   2.916   5.661   4.739
 3148SOL    HW210344   2.812   5.714   4.625
 3149SOL     OW10345   2.701   6.623   5.715
 3149SOL    HW110346   2.742   6.694   5.657
 3149SOL    HW210347   2.609   6.602   5.680
 3150SOL     OW10348   6.533   0.402   4.135
 3150SOL    HW110349   6.507   0.465   4.062
 3150SOL    HW210350   6.466   0.329   4.142
 3151SOL     OW10351   3.358   7.002   1.722
 3151SOL    HW110352   3.329   6.918   1.769
 3151SOL    HW210353   3.457   7.010   1.728
 3152SOL     OW10354   1.427   4.946   6.083
 3152SOL    HW110355   1.424   5.043   6.062
 3152SOL    HW210356   1.433   4.933   6.182
 3153SOL     OW10357   6.617   4.117   3.077
 3153SOL    HW110358   6.700   4.078   3.114
 3153SOL    HW210359   6.556   4.045   3.044
 3154SOL     OW10360   5.880   2.673   6.033
 3154SOL    HW110361   5.834   2.585   6.032
 3154SOL    HW210362   5.835   2.735   5.968
 3155SOL     OW10363   4.163   6.037   0.381
 3155SOL    HW110364   4.123   5.966   0.324
 3155SOL    HW210365   4.258   6.052   0.353
 3156SOL     OW10366   3.423   3.843   3.303
 3156SOL    HW110367   3.337   3.884   3.272
 3156SOL    HW210368   3.497   3.911   3.296
 3157SOL     OW10369   2.230   2.205   4.837
 3157SOL    HW110370   2.211   2.107   4.850
 3157SOL    HW210371   2.290   2.237   4.911
 3158SOL     OW10372   4.637   6.716   1.498
 3158SOL    HW110373   4.584   6.676   1.572
 3158SOL    HW210374   4.725   6.746   1.532
 3159SOL     OW10375   5.153   4.794   0.359
 3159SOL    HW110376   5.240   4.777   0.313
 3159SOL    HW210377   5.079   4.794   0.292
 3160SOL     OW10378   6.626   4.767   0.618
 3160SOL    HW110379   6.566   4.837   0.657
 3160SOL    HW210380   6.644   4.697   0.686
 3161SOL     OW10381   1.013   1.100   4.003
 3161SOL    HW110382   1.086   1.074   4.067
 3161SOL    HW210383   1.010   1.034   3.928
 3162SOL     OW10384   6.906   0.216   6.000
 3162SOL    HW110385   6.925   0.219   6.098
 3162SOL    HW210386   6.817   0.258   5.982
 3163SOL     OW10387   1.888   4.577   5.399
 3163SOL    HW110388   1.881   4.478   5.386
 3163SOL    HW210389   1.955   4.597   5.470
 3164SOL     OW10390   6.632   5.119   5.481
 3164SOL    HW110391   6.608   5.026   5.508
 3164SOL    HW210392   6.567   5.151   5.413
 3165SOL     OW10393   0.251   3.026   1.314
 3165SOL    HW110394   0.274   3.063   1.224
 3165SOL    HW210395   0.334   3.020   1.369
 3166SOL     OW10396   3.775   3.050   6.404
 3166SOL    HW110397   3.781   3.112   6.326
 3166SOL    HW210398   3.695   2.991   6.393
 3167SOL     OW10399   0.045   4.827   2.114
 3167SOL    HW110400   0.104   4.907   2.118
 3167SOL    HW210401   6.988   4.843   2.167
 3168SOL     OW10402   6.113   2.758   1.093
 3168SOL    HW110403   6.072   2.675   1.130
 3168SOL    HW210404   6.080   2.773   0.999
 3169SOL     OW10405   2.653   2.240   5.694
 3169SOL    HW110406   2.580   2.306   5.677
 3169SOL    HW210407   2.720   2.245   5.620
 3170SOL     OW10408   3.475   0.233   5.084
 3170SOL    HW110409   3.538   0.183   5.143
 3170SOL    HW210410   3.514   0.238   4.991
 3171SOL     OW10411   5.910   5.720   2.929
 3171SOL    HW110412   5.957   5.658   2.866
 3171SOL    HW210413   5.896   5.675   3.017
 3172SOL     OW10414   5.619   6.865   5.600
 3172SOL    HW110415   5.580   6.953   5.574
 3172SOL    HW210416   5.569   6.792   5.554
 3173SOL     OW10417   1.760   0.978   1.749
 3173SOL    HW110418   1.806   1.028   1.676
 3173SOL    HW210419   1.812   0.987   1.834
 3174SOL     OW10420   2.470   3.391   6.643
 3174SOL    HW110421   2.515   3.332   6.576
 3174SOL    HW210422   2.478   3.351   6.734
 3175SOL     OW10423   0.212   6.415   0.618
 3175SOL    HW110424   0.282   6.424   0.547
 3175SOL    HW210425   0.244   6.349   0.687
 3176SOL     OW10426   0.754   5.485   0.050
 3176SOL    HW110427   0.727   5.415   0.116
 3176SOL    HW210428   0.823   5.447   7.013
 3177SOL     OW10429   0.900   0.293   4.242
 3177SOL    HW110430   0.952   0.211   4.218
 3177SOL    HW210431   0.915   0.364   4.173
 3178SOL     OW10432   3.502   3.014   0.208
 3178SOL    HW110433   3.520   2.953   0.131
 3178SOL    HW210434   3.484   2.959   0.290
 3179SOL     OW10435   1.095   2.541   4.371
 3179SOL    HW110436   1.027   2.479   4.411
 3179SOL    HW210437   1.182   2.493   4.363
 3180SOL     OW10438   6.431   1.488   6.704
 3180SOL    HW110439   6.389   1.398   6.718
 3180SOL    HW210440   6.359   1.555   6.686
 3181SOL     OW10441   0.561   1.731   2.450
 3181SOL    HW110442   0.625   1.667   2.407
 3181SOL    HW210443   0.535   1.801   2.384
 3182SOL     OW10444   1.705   5.242   5.966
 3182SOL    HW110445   1.765   5.161   5.967
 3182SOL    HW210446   1.749   5.317   6.014
 3183SOL     OW10447   4.704   3.934   1.422
 3183SOL    HW110448   4.789   3.884   1.402
 3183SOL    HW210449   4.686   3.999   1.348
 3184SOL     OW10450   0.547   2.054   3.116
 3184SOL    HW110451   0.568   2.149   3.138
 3184SOL    HW210452   0.578   2.033   3.024
 3185SOL     OW10453   0.145   6.439   6.810
 3185SOL    HW110454   0.126   6.341   6.804
 3185SOL    HW210455   0.132   6.469   6.905
 3186SOL     OW10456   3.211   0.385   1.448
 3186SOL    HW110457   3.131   0.444   1.441
 3186SOL    HW210458   3.223   0.357   1.543
 3187SOL     OW10459   3.099   4.164   0.236
 3187SOL    HW110460   3.054   4.247   0.269
 3187SOL    HW210461   3.192   4.160   0.271
 3188SOL     OW10462   3.745   6.714   3.498
 3188SOL    HW110463   3.775   6.806   3.523
 3188SOL    HW210464   3.712   6.666   3.579
 3189SOL     OW10465   6.386   6.467   2.274
 3189SOL    HW110466   6.479   6.502   2.285
 3189SOL    HW210467   6.387   6.387   2.214
 3190SOL     OW10468   1.339   0.208   2.009
 3190SOL    HW110469   1.399   0.226   1.931
 3190SOL    HW210470   1.387   0.153   2.077
 3191SOL     OW10471   3.327   1.389   0.389
 3191SOL    HW110472   3.248   1.368   0.448
 3191SOL    HW210473   3.407   1.404   0.447
 3192SOL     OW10474   5.451   2.908   4.191
 3192SOL    HW110475   5.521   2.869   4.132
 3192SOL    HW210476   5.361   2.898   4.147
 3193SOL     OW10477   5.283   4.555   1.227
 3193SOL    HW110478   5.226   4.636   1.238
 3193SOL    HW210479   5.323   4.530   1.315
 3194SOL     OW10480   2.799   5.704   5.098
 3194SOL    HW110481   2.705   5.723   5.127
 3194SOL    HW210482   2.802   5.617   5.050
 3195SOL     OW10483   6.813   4.309   3.946
 3195SOL    HW110484   6.855   4.268   4.028
 3195SOL    HW210485   6.879   4.307   3.871
 3196SOL     OW10486   0.045   6.337   6.104
 3196SOL    HW110487   0.106   6.289   6.167
 3196SOL    HW210488   6.977   6.301   6.115
 3197SOL     OW10489   0.945   4.328   5.688
 3197SOL    HW110490   0.900   4.301   5.773
 3197SOL    HW210491   0.894   4.403   5.646
 3198SOL     OW10492   5.825   6.708   0.577
 3198SOL    HW110493   5.766   6.639   0.618
 3198SOL    HW210494   5.800   6.723   0.482
 3199SOL     OW10495   3.139   1.558   3.146
 3199SOL    HW110496   3.177   1.471   3.114
 3199SOL    HW210497   3.065   1.540   3.211
 3200SOL     OW10498   6.261   2.000   0.249
 3200SOL    HW110499   6.312   1.919   0.278
 3200SOL    HW210500   6.165   1.990   0.275
 3201SOL     OW10501   4.018   4.812   3.188
 3201SOL    HW110502   3.959   4.828   3.109
 3201SOL    HW210503   4.088   4.884   3.192
 3202SOL     OW10504   1.222   5.080   1.881
 3202SOL    HW110505   1.312   5.039   1.865
 3202SOL    HW210506   1.184   5.041   1.965
 3203SOL     OW10507   4.636   0.245   0.702
 3203SOL    HW110508   4.576   0.176   0.661
 3203SOL    HW210509   4.666   0.309   0.632
 3204SOL     OW10510   6.628   6.632   2.100
 3204SOL    HW110511   6.543   6.648   2.051
 3204SOL    HW210512   6.704   6.626   2.036
 3205SOL     OW10513   1.163   3.683   4.309
 3205SOL    HW110514   1.234   3.714   4.247
 3205SOL    HW210515   1.182   3.716   4.401
 3206SOL     OW10516   1.886   6.613   0.103
 3206SOL    HW110517   1.896   6.706   0.069
 3206SOL    HW210518   1.939   6.550   0.046
 3207SOL     OW10519   1.707   1.493   3.099
 3207SOL    HW110520   1.753   1.565   3.150
 3207SOL    HW210521   1.722   1.507   3.001
 3208SOL     OW10522   6.003   6.541   5.675
 3208SOL    HW110523   5.907   6.514   5.678
 3208SOL    HW210524   6.040   6.527   5.583
 3209SOL     OW10525   0.819   0.075   3.689
 3209SOL    HW110526   0.745   0.093   3.624
 3209SOL    HW210527   0.898   0.038   3.640
 3210SOL     OW10528   0.559   6.011   1.947
 3210SOL    HW110529   0.619   6.090   1.937
 3210SOL    HW210530   0.467   6.033   1.914
 3211SOL     OW10531   0.585   4.515   3.895
 3211SOL    HW110532   0.625   4.607   3.896
 3211SOL    HW210533   0.656   4.449   3.868
 3212SOL     OW10534   4.683   2.779   5.022
 3212SOL    HW110535   4.630   2.765   4.938
 3212SOL    HW210536   4.761   2.717   5.022
 3213SOL     OW10537   5.402   0.258   1.264
 3213SOL    HW110538   5.496   0.227   1.282
 3213SOL    HW210539   5.340   0.211   1.326
 3214SOL     OW10540   4.745   4.234   0.088
 3214SOL    HW110541   4.831   4.198   0.124
 3214SOL    HW210542   4.668   4.192   0.135
 3215SOL     OW10543   6.191   1.573   6.990
 3215SOL    HW110544   6.106   1.554   0.014
 3215SOL    HW210545   6.197   1.514   6.909
 3216SOL     OW10546   5.158   6.565   5.228
 3216SOL    HW110547   5.227   6.634   5.247
 3216SOL    HW210548   5.202   6.477   5.207
 3217SOL     OW10549   0.002   4.376   6.486
 3217SOL    HW110550   0.053   4.294   6.459
 3217SOL    HW210551   0.052   4.457   6.456
 3218SOL     OW10552   4.018   2.238   1.681
 3218SOL    HW110553   3.926   2.201   1.676
 3218SOL    HW210554   4.042   2.254   1.777
 3219SOL     OW10555   0.555   1.527   3.159
 3219SOL    HW110556   0.522   1.621   3.160
 3219SOL    HW210557   0.605   1.510   3.074
 3220SOL     OW10558   6.706   2.936   6.580
 3220SOL    HW110559   6.689   2.983   6.667
 3220SOL    HW210560   6.755   2.997   6.517
 3221SOL     OW10561   3.611   0.507   1.949
 3221SOL    HW110562   3.616   0.573   2.024
 3221SOL    HW210563   3.683   0.439   1.960
 3222SOL     OW10564   6.370   3.951   2.331
 3222SOL    HW110565   6.405   3.857   2.328
 3222SOL    HW210566   6.426   4.005   2.393
 3223SOL     OW10567   1.389   4.204   5.261
 3223SOL    HW110568   1.462   4.219   5.327
 3223SOL    HW210569   1.414   4.247   5.174
 3224SOL     OW10570   2.790   6.278   1.187
 3224SOL    HW110571   2.801   6.212   1.261
 3224SOL    HW210572   2.822   6.238   1.101
 3225SOL     OW10573   1.525   2.222   0.724
 3225SOL    HW110574   1.596   2.158   0.697
 3225SOL    HW210575   1.552   2.315   0.699
 3226SOL     OW10576   6.586   1.620   3.768
 3226SOL    HW110577   6.658   1.568   3.722
 3226SOL    HW210578   6.496   1.592   3.732
 3227SOL     OW10579   2.556   1.729   5.362
 3227SOL    HW110580   2.528   1.756   5.270
 3227SOL    HW210581   2.627   1.658   5.356
 3228SOL     OW10582   5.013   3.413   4.951
 3228SOL    HW110583   4.947   3.473   4.997
 3228SOL    HW210584   4.966   3.331   4.918
 3229SOL     OW10585   4.411   1.866   4.499
 3229SOL    HW110586   4.373   1.956   4.521
 3229SOL    HW210587   4.380   1.838   4.408
 3230SOL     OW10588   1.577   6.913   4.224
 3230SOL    HW110589   1.523   6.890   4.143
 3230SOL    HW210590   1.640   6.838   4.244
 3231SOL     OW10591   4.294   4.698   0.464
 3231SOL    HW110592   4.268   4.772   0.525
 3231SOL    HW210593   4.212   4.655   0.426
 3232SOL     OW10594   0.871   3.970   3.218
 3232SOL    HW110595   0.869   4.032   3.140
 3232SOL    HW210596   0.962   3.971   3.260
 3233SOL     OW10597   2.467   4.100   0.646
 3233SOL    HW110598   2.431   4.019   0.692
 3233SOL    HW210599   2.525   4.073   0.569
 3234SOL     OW10600   6.661   1.599   4.489
 3234SOL    HW110601   6.604   1.555   4.420
 3234SOL    HW210602   6.647   1.698   4.486
 3235SOL     OW10603   6.275   0.663   2.296
 3235SOL    HW110604   6.255   0.632   2.389
 3235SOL    HW210605   6.266   0.762   2.291
 3236SOL     OW10606   6.889   2.073   1.325
 3236SOL    HW110607   6.916   2.015   1.249
 3236SOL    HW210608   6.875   2.018   1.407
 3237SOL     OW10609   2.566   6.043   4.361
 3237SOL    HW110610   2.545   5.991   4.278
 3237SOL    HW210611   2.661   6.026   4.388
 3238SOL     OW10612   6.352   6.499   6.823
 3238SOL    HW110613   6.341   6.552   6.739
 3238SOL    HW210614   6.285   6.529   6.890
 3239SOL     OW10615   1.935   6.318   6.273
 3239SOL    HW110616   1.955   6.398   6.217
 3239SOL    HW210617   2.021   6.271   6.296
 3240SOL     OW10618   1.434   2.461   4.654
 3240SOL    HW110619   1.432   2.561   4.650
 3240SOL    HW210620   1.393   2.431   4.740
 3241SOL     OW10621   3.373   6.300   5.276
 3241SOL    HW110622   3.342   6.394   5.262
 3241SOL    HW210623   3.423   6.270   5.194
 3242SOL     OW10624   2.414   0.679   0.938
 3242SOL    HW110625   2.351   0.624   0.883
 3242SOL    HW210626   2.366   0.760   0.973
 3243SOL     OW10627   4.056   5.402   2.223
 3243SOL    HW110628   4.046   5.311   2.183
 3243SOL    HW210629   4.073   5.469   2.151
 3244SOL     OW10630   1.204   0.213   5.158
 3244SOL    HW110631   1.105   0.212   5.171
 3244SOL    HW210632   1.231   0.131   5.106
 3245SOL     OW10633   3.471   1.977   5.863
 3245SOL    HW110634   3.400   2.031   5.817
 3245SOL    HW210635   3.539   2.039   5.903
 3246SOL     OW10636   6.095   6.594   2.746
 3246SOL    HW110637   6.051   6.523   2.801
 3246SOL    HW210638   6.038   6.613   2.665
 3247SOL     OW10639   6.158   2.932   5.308
 3247SOL    HW110640   6.251   2.966   5.320
 3247SOL    HW210641   6.146   2.899   5.214
 3248SOL     OW10642   5.178   4.335   3.369
 3248SOL    HW110643   5.111   4.262   3.359
 3248SOL    HW210644   5.262   4.309   3.322
 3249SOL     OW10645   3.614   5.390   6.040
 3249SOL    HW110646   3.684   5.319   6.033
 3249SOL    HW210647   3.527   5.354   6.006
 3250SOL     OW10648   4.175   4.497   0.657
 3250SOL    HW110649   4.241   4.555   0.608
 3250SOL    HW210650   4.124   4.442   0.591
 3251SOL     OW10651   2.260   1.353   3.497
 3251SOL    HW110652   2.323   1.416   3.451
 3251SOL    HW210653   2.201   1.404   3.559
 3252SOL     OW10654   3.051   2.188   3.086
 3252SOL    HW110655   3.121   2.179   3.015
 3252SOL    HW210656   2.962   2.162   3.049
 3253SOL     OW10657   4.926   4.543   1.500
 3253SOL    HW110658   4.941   4.511   1.593
 3253SOL    HW210659   4.956   4.638   1.493
 3254SOL     OW10660   6.262   3.890   2.766
 3254SOL    HW110661   6.297   3.972   2.812
 3254SOL    HW210662   6.168   3.906   2.738
 3255SOL     OW10663   3.677   4.967   1.012
 3255SOL    HW110664   3.619   5.046   1.029
 3255SOL    HW210665   3.723   4.978   0.923
 3256SOL     OW10666   6.562   6.886   5.254
 3256SOL    HW110667   6.599   6.905   5.345
 3256SOL    HW210668   6.637   6.870   5.190
 3257SOL     OW10669   2.366   1.230   1.731
 3257SOL    HW110670   2.451   1.182   1.711
 3257SOL    HW210671   2.361   1.313   1.676
 3258SOL     OW10672   5.034   0.120   2.532
 3258SOL    HW110673   5.082   0.182   2.469
 3258SOL    HW210674   5.098   0.086   2.601
 3259SOL     OW10675   5.810   5.350   3.181
 3259SOL    HW110676   5.768   5.286   3.245
 3259SOL    HW210677   5.780   5.329   3.088
 3260SOL     OW10678   2.437   1.584   1.274
 3260SOL    HW110679   2.377   1.607   1.197
 3260SOL    HW210680   2.531   1.611   1.253
 3261SOL     OW10681   5.612   6.716   4.143
 3261SOL    HW110682   5.693   6.677   4.100
 3261SOL    HW210683   5.531   6.667   4.111
 3262SOL     OW10684   4.449   2.351   3.495
 3262SOL    HW110685   4.528   2.411   3.488
 3262SOL    HW210686   4.466   2.266   3.445
 3263SOL     OW10687   3.234   4.910   3.185
 3263SOL    HW110688   3.312   4.941   3.239
 3263SOL    HW210689   3.262   4.896   3.090
 3264SOL     OW10690   5.392   4.051   6.408
 3264SOL    HW110691   5.466   4.009   6.460
 3264SOL    HW210692   5.427   4.131   6.359
 3265SOL     OW10693   5.171   6.885   5.618
 3265SOL    HW110694   5.078   6.867   5.587
 3265SOL    HW210695   5.221   6.798   5.626
 3266SOL     OW10696   0.815   2.256   6.461
 3266SOL    HW110697   0.808   2.274   6.559
 3266SOL    HW210698   0.864   2.331   6.417
 3267SOL     OW10699   5.471   4.388   1.776
 3267SOL    HW110700   5.571   4.395   1.773
 3267SOL    HW210701   5.445   4.295   1.803
 3268SOL     OW10702   1.714   5.342   0.328
 3268SOL    HW110703   1.697   5.272   0.259
 3268SOL    HW210704   1.677   5.429   0.298
 3269SOL     OW10705   4.529   2.905   1.104
 3269SOL    HW110706   4.595   2.974   1.076
 3269SOL    HW210707   4.555   2.867   1.192
 3270SOL     OW10708   6.820   5.794   3.347
 3270SOL    HW110709   6.901   5.745   3.380
 3270SOL    HW210710   6.754   5.728   3.312
 3271SOL     OW10711   4.956   6.751   0.556
 3271SOL    HW110712   4.962   6.831   0.497
 3271SOL    HW210713   4.948   6.780   0.652
 3272SOL     OW10714   4.299   5.775   5.704
 3272SOL    HW110715   4.368   5.792   5.774
 3272SOL    HW210716   4.308   5.843   5.631
 3273SOL     OW10717   6.923   7.022   3.103
 3273SOL    HW110718   6.880   0.034   3.186
 3273SOL    HW210719   7.012   0.040   3.090
 3274SOL     OW10720   2.954   0.883   1.273
 3274SOL    HW110721   3.019   0.906   1.201
 3274SOL    HW210722   2.862   0.910   1.246
 3275SOL     OW10723   4.057   0.074   6.827
 3275SOL    HW110724   4.026   0.059   6.733
 3275SOL    HW210725   4.134   0.139   6.827
 3276SOL     OW10726   1.216   5.846   1.173
 3276SOL    HW110727   1.255   5.770   1.224
 3276SOL    HW210728   1.138   5.815   1.119
 3277SOL     OW10729   0.143   6.157   6.825
 3277SOL    HW110730   0.210   6.113   6.885
 3277SOL    HW210731   0.059   6.103   6.824
 3278SOL     OW10732   1.593   0.793   0.015
 3278SOL    HW110733   1.617   0.819   6.946
 3278SOL    HW210734   1.631   0.703   0.035
 3279SOL     OW10735   2.095   6.619   1.624
 3279SOL    HW110736   2.046   6.703   1.602
 3279SOL    HW210737   2.052   6.575   1.703
 3280SOL     OW10738   2.794   5.716   3.169
 3280SOL    HW110739   2.782   5.661   3.253
 3280SOL    HW210740   2.729   5.684   3.100
 3281SOL     OW10741   1.381   6.544   0.986
 3281SOL    HW110742   1.462   6.500   0.948
 3281SOL    HW210743   1.405   6.587   1.073
 3282SOL     OW10744   1.644   4.989   2.547
 3282SOL    HW110745   1.674   5.076   2.586
 3282SOL    HW210746   1.671   4.914   2.608
 3283SOL     OW10747   1.427   0.706   3.260
 3283SOL    HW110748   1.414   0.614   3.297
 3283SOL    HW210749   1.362   0.769   3.303
 3284SOL     OW10750   1.914   5.924   5.633
 3284SOL    HW110751   1.852   5.994   5.600
 3284SOL    HW210752   1.974   5.894   5.559
 3285SOL     OW10753   0.518   3.412   4.357
 3285SOL    HW110754   0.453   3.462   4.300
 3285SOL    HW210755   0.607   3.411   4.313
 3286SOL     OW10756   5.312   4.464   6.555
 3286SOL    HW110757   5.222   4.460   6.512
 3286SOL    HW210758   5.366   4.537   6.514
 3287SOL     OW10759   0.101   2.796   1.292
 3287SOL    HW110760   0.144   2.884   1.309
 3287SOL    HW210761   0.171   2.726   1.283
 3288SOL     OW10762   0.620   0.177   0.504
 3288SOL    HW110763   0.644   0.147   0.596
 3288SOL    HW210764   0.539   0.128   0.473
 3289SOL     OW10765   1.417   0.104   3.970
 3289SOL    HW110766   1.353   0.029   3.989
 3289SOL    HW210767   1.388   0.154   3.889
 3290SOL     OW10768   6.976   4.961   4.144
 3290SOL    HW110769   6.962   5.059   4.159
 3290SOL    HW210770   6.963   4.940   4.047
 3291SOL     OW10771   0.997   1.895   1.631
 3291SOL    HW110772   1.041   1.951   1.561
 3291SOL    HW210773   1.060   1.823   1.660
 3292SOL     OW10774   0.743   6.304   4.108
 3292SOL    HW110775   0.688   6.373   4.154
 3292SOL    HW210776   0.822   6.281   4.164
 3293SOL     OW10777   6.157   0.389   2.925
 3293SOL    HW110778   6.217   0.329   2.978
 3293SOL    HW210779   6.094   0.332   2.870
 3294SOL     OW10780   7.008   6.464   1.072
 3294SOL    HW110781   0.030   6.542   1.115
 3294SOL    HW210782   6.947   6.497   1.001
 3295SOL     OW10783   3.155   3.125   6.020
 3295SOL    HW110784   3.085   3.054   6.026
 3295SOL    HW210785   3.241   3.090   6.055
 3296SOL     OW10786   0.768   6.443   1.695
 3296SOL    HW110787   0.730   6.427   1.604
 3296SOL    HW210788   0.750   6.363   1.753
 3297SOL     OW10789   3.498   0.669   5.599
 3297SOL    HW110790   3.529   0.764   5.595
 3297SOL    HW210791   3.418   0.657   5.540
 3298SOL     OW10792   0.609   5.667   3.100
 3298SOL    HW110793   0.524   5.710   3.068
 3298SOL    HW210794   0.648   5.722   3.173
 3299SOL     OW10795   1.784   1.545   4.545
 3299SOL    HW110796   1.700   1.510   4.503
 3299SOL    HW210797   1.821   1.619   4.489
 3300SOL     OW10798   0.375   6.950   5.028
 3300SOL    HW110799   0.366   6.948   4.928
 3300SOL    HW210800   0.453   7.006   5.053
 3301SOL     OW10801   6.501   4.510   2.034
 3301SOL    HW110802   6.414   4.461   2.033
 3301SOL    HW210803   6.556   4.482   1.955
 3302SOL     OW10804   1.733   6.147   5.622
 3302SOL    HW110805   1.770   6.151   5.715
 3302SOL    HW210806   1.767   6.225   5.569
 3303SOL     OW10807   3.446   3.590   5.003
 3303SOL    HW110808   3.367   3.591   5.064
 3303SOL    HW210809   3.415   3.596   4.908
 3304SOL     OW10810   1.466   0.818   3.981
 3304SOL    HW110811   1.393   0.779   3.925
 3304SOL    HW210812   1.468   0.917   3.970
 3305SOL     OW10813   0.629   2.306   0.450
 3305SOL    HW110814   0.621   2.229   0.512
 3305SOL    HW210815   0.698   2.286   0.380
 3306SOL     OW10816   1.573   1.448   0.944
 3306SOL    HW110817   1.491   1.397   0.919
 3306SOL    HW210818   1.563   1.543   0.916
 3307SOL     OW10819   0.198   6.973   7.011
 3307SOL    HW110820   0.206   6.973   0.085
 3307SOL    HW210821   0.288   6.955   6.970
 3308SOL     OW10822   5.248   6.192   0.471
 3308SOL    HW110823   5.217   6.173   0.565
 3308SOL    HW210824   5.254   6.290   0.457
 3309SOL     OW10825   0.803   4.448   2.020
 3309SOL    HW110826   0.717   4.444   1.969
 3309SOL    HW210827   0.878   4.418   1.961
 3310SOL     OW10828   1.975   5.905   2.612
 3310SOL    HW110829   1.939   5.889   2.704
 3310SOL    HW210830   2.015   5.997   2.607
 3311SOL     OW10831   4.204   5.436   1.079
 3311SOL    HW110832   4.282   5.418   1.020
 3311SOL    HW210833   4.202   5.370   1.154
 3312SOL     OW10834   1.851   2.328   6.440
 3312SOL    HW110835   1.855   2.229   6.454
 3312SOL    HW210836   1.918   2.355   6.371
 3313SOL     OW10837   5.728   6.557   5.319
 3313SOL    HW110838   5.699   6.474   5.272
 3313SOL    HW210839   5.648   6.612   5.343
 3314SOL     OW10840   0.373   4.158   6.042
 3314SOL    HW110841   0.295   4.098   6.060
 3314SOL    HW210842   0.430   4.118   5.971
 3315SOL     OW10843   5.942   3.285   3.121
 3315SOL    HW110844   5.998   3.340   3.060
 3315SOL    HW210845   5.902   3.209   3.071
 3316SOL     OW10846   3.260   0.210   6.614
 3316SOL    HW110847   3.236   0.246   6.705
 3316SOL    HW210848   3.212   0.262   6.544
 3317SOL     OW10849   5.330   3.163   1.211
 3317SOL    HW110850   5.352   3.110   1.129
 3317SOL    HW210851   5.262   3.233   1.188
 3318SOL     OW10852   2.474   5.072   6.740
 3318SOL    HW110853   2.420   5.108   6.816
 3318SOL    HW210854   2.545   5.138   6.714
 3319SOL     OW10855   1.081   5.856   6.137
 3319SOL    HW110856   1.004   5.912   6.107
 3319SOL    HW210857   1.167   5.898   6.105
 3320SOL     OW10858   0.874   0.801   1.386
 3320SOL    HW110859   0.809   0.726   1.404
 3320SOL    HW210860   0.966   0.772   1.412
 3321SOL     OW10861   3.492   3.554   4.364
 3321SOL    HW110862   3.580   3.513   4.388
 3321SOL    HW210863   3.481   3.640   4.413
 3322SOL     OW10864   4.874   3.745   2.615
 3322SOL    HW110865   4.828   3.687   2.549
 3322SOL    HW210866   4.853   3.841   2.596
 3323SOL     OW10867   1.420   4.803   0.635
 3323SOL    HW110868   1.405   4.874   0.704
 3323SOL    HW210869   1.344   4.738   0.637
 3324SOL     OW10870   6.654   3.349   1.817
 3324SOL    HW110871   6.587   3.328   1.746
 3324SOL    HW210872   6.741   3.375   1.774
 3325SOL     OW10873   1.147   5.037   4.980
 3325SOL    HW110874   1.083   4.965   5.004
 3325SOL    HW210875   1.236   5.017   5.020
 3326SOL     OW10876   4.590   6.781   2.087
 3326SOL    HW110877   4.519   6.851   2.077
 3326SOL    HW210878   4.678   6.826   2.106
 3327SOL     OW10879   4.825   6.376   1.576
 3327SOL    HW110880   4.726   6.357   1.578
 3327SOL    HW210881   4.873   6.294   1.543
 3328SOL     OW10882   6.071   6.310   3.483
 3328SOL    HW110883   6.151   6.276   3.434
 3328SOL    HW210884   6.079   6.409   3.496
 3329SOL     OW10885   5.723   0.066   6.351
 3329SOL    HW110886   5.773   0.138   6.399
 3329SOL    HW210887   5.648   0.107   6.299
 3330SOL     OW10888   6.011   0.223   2.768
 3330SOL    HW110889   6.017   0.123   2.758
 3330SOL    HW210890   5.934   0.257   2.715
 3331SOL     OW10891   0.911   3.330   2.364
 3331SOL    HW110892   0.945   3.361   2.453
 3331SOL    HW210893   0.865   3.406   2.318
 3332SOL     OW10894   4.261   5.163   0.715
 3332SOL    HW110895   4.275   5.076   0.762
 3332SOL    HW210896   4.349   5.198   0.684
 3333SOL     OW10897   2.536   4.084   1.202
 3333SOL    HW110898   2.537   4.076   1.302
 3333SOL    HW210899   2.581   4.003   1.162
 3334SOL     OW10900   1.577   2.732   2.397
 3334SOL    HW110901   1.629   2.655   2.432
 3334SOL    HW210902   1.538   2.708   2.308
 3335SOL     OW10903   4.784   4.231   6.280
 3335SOL    HW110904   4.850   4.156   6.272
 3335SOL    HW210905   4.695   4.195   6.306
 3336SOL     OW10906   3.869   6.003   5.880
 3336SOL    HW110907   3.780   5.958   5.871
 3336SOL    HW210908   3.940   5.934   5.895
 3337SOL     OW10909   2.906   3.662   3.898
 3337SOL    HW110910   2.943   3.727   3.831
 3337SOL    HW210911   2.881   3.710   3.982
 3338SOL     OW10912   3.407   2.798   1.391
 3338SOL    HW110913   3.441   2.880   1.438
 3338SOL    HW210914   3.357   2.825   1.309
 3339SOL     OW10915   0.785   6.805   6.016
 3339SOL    HW110916   0.769   6.887   6.071
 3339SOL    HW210917   0.879   6.773   6.030
 3340SOL     OW10918   4.622   1.687   6.628
 3340SOL    HW110919   4.657   1.779   6.645
 3340SOL    HW210920   4.662   1.652   6.543
 3341SOL     OW10921   1.249   4.214   1.740
 3341SOL    HW110922   1.195   4.160   1.676
 3341SOL    HW210923   1.312   4.273   1.689
 3342SOL     OW10924   5.743   0.529   2.836
 3342SOL    HW110925   5.773   0.438   2.866
 3342SOL    HW210926   5.645   0.527   2.817
 3343SOL     OW10927   3.742   4.684   1.029
 3343SOL    HW110928   3.823   4.668   1.084
 3343SOL    HW210929   3.716   4.781   1.035
 3344SOL     OW10930   1.558   3.415   1.016
 3344SOL    HW110931   1.557   3.406   0.917
 3344SOL    HW210932   1.586   3.507   1.042
 3345SOL     OW10933   4.499   5.067   1.034
 3345SOL    HW110934   4.500   5.142   1.100
 3345SOL    HW210935   4.563   4.996   1.065
 3346SOL     OW10936   1.309   0.717   6.978
 3346SOL    HW110937   1.398   0.762   6.982
 3346SOL    HW210938   1.266   0.722   0.043
 3347SOL     OW10939   0.709   3.261   5.794
 3347SOL    HW110940   0.695   3.234   5.889
 3347SOL    HW210941   0.787   3.211   5.756
 3348SOL     OW10942   3.185   4.139   5.940
 3348SOL    HW110943   3.089   4.112   5.940
 3348SOL    HW210944   3.195   4.229   5.898
 3349SOL     OW10945   2.307   5.066   1.951
 3349SOL    HW110946   2.399   5.035   1.928
 3349SOL    HW210947   2.311   5.133   2.026
 3350SOL     OW10948   3.141   5.442   3.958
 3350SOL    HW110949   3.072   5.392   4.011
 3350SOL    HW210950   3.231   5.426   3.998
 3351SOL     OW10951   5.035   7.005   1.621
 3351SOL    HW110952   4.994   6.916   1.598
 3351SOL    HW210953   4.963   0.044   1.646
 3352SOL     OW10954   6.069   0.951   0.249
 3352SOL    HW110955   6.076   0.925   0.153
 3352SOL    HW210956   5.977   0.929   0.282
 3353SOL     OW10957   4.262   0.810   5.917
 3353SOL    HW110958   4.247   0.788   5.821
 3353SOL    HW210959   4.335   0.878   5.925
 3354SOL     OW10960   2.885   2.173   0.071
 3354SOL    HW110961   2.926   2.121   0.145
 3354SOL    HW210962   2.886   2.119   7.011
 3355SOL     OW10963   1.084   2.065   5.288
 3355SOL    HW110964   1.048   2.047   5.197
 3355SOL    HW210965   1.145   2.144   5.285
 3356SOL     OW10966   3.072   0.513   5.277
 3356SOL    HW110967   3.136   0.439   5.254
 3356SOL    HW210968   3.095   0.551   5.367
 3357SOL     OW10969   2.963   3.630   4.466
 3357SOL    HW110970   2.895   3.594   4.530
 3357SOL    HW210971   2.968   3.729   4.476
 3358SOL     OW10972   6.654   1.977   1.602
 3358SOL    HW110973   6.751   1.955   1.604
 3358SOL    HW210974   6.639   2.066   1.646
 3359SOL     OW10975   1.336   6.705   3.731
 3359SOL    HW110976   1.313   6.641   3.658
 3359SOL    HW210977   1.387   6.782   3.693
 3360SOL     OW10978   1.148   5.469   4.721
 3360SOL    HW110979   1.143   5.422   4.633
 3360SOL    HW210980   1.128   5.404   4.794
 3361SOL     OW10981   0.442   0.176   4.404
 3361SOL    HW110982   0.451   0.110   4.329
 3361SOL    HW210983   0.358   0.229   4.393
 3362SOL     OW10984   3.173   0.971   5.227
 3362SOL    HW110985   3.212   1.008   5.142
 3362SOL    HW210986   3.205   1.026   5.304
 3363SOL     OW10987   4.809   3.612   0.644
 3363SOL    HW110988   4.767   3.606   0.735
 3363SOL    HW210989   4.844   3.704   0.630
 3364SOL     OW10990   1.874   2.697   1.234
 3364SOL    HW110991   1.938   2.644   1.290
 3364SOL    HW210992   1.786   2.703   1.282
 3365SOL     OW10993   0.349   2.804   2.650
 3365SOL    HW110994   0.419   2.736   2.628
 3365SOL    HW210995   0.309   2.839   2.565
 3366SOL     OW10996   5.696   3.658   3.426
 3366SOL    HW110997   5.608   3.657   3.474
 3366SOL    HW210998   5.717   3.567   3.392
 3367SOL     OW10999   2.905   3.448   3.662
 3367SOL    HW111000   2.904   3.373   3.727
 3367SOL    HW211001   2.829   3.510   3.681
 3368SOL     OW11002   1.077   1.084   3.595
 3368SOL    HW111003   1.135   1.155   3.553
 3368SOL    HW211004   0.982   1.098   3.566
 3369SOL     OW11005   5.597   2.642   0.522
 3369SOL    HW111006   5.634   2.714   0.464
 3369SOL    HW211007   5.513   2.674   0.566
 3370SOL     OW11008   0.701   5.841   3.308
 3370SOL    HW111009   0.741   5.919   3.356
 3370SOL    HW211010   0.618   5.811   3.356
 3371SOL     OW11011   2.988   3.028   1.282
 3371SOL    HW111012   3.029   3.068   1.364
 3371SOL    HW211013   2.990   2.928   1.289
 3372SOL     OW11014   5.058   3.059   3.134
 3372SOL    HW111015   5.149   3.074   3.172
 3372SOL    HW211016   5.038   3.130   3.067
 3373SOL     OW11017   0.603   4.798   1.037
 3373SOL    HW111018   0.644   4.876   0.989
 3373SOL    HW211019   0.626   4.802   1.134
 3374SOL     OW11020   1.341   5.550   4.116
 3374SOL    HW111021   1.289   5.508   4.042
 3374SOL    HW211022   1.396   5.481   4.163
 3375SOL     OW11023   6.700   7.020   5.515
 3375SOL    HW111024   6.785   6.972   5.497
 3375SOL    HW211025   6.708   0.090   5.484
 3376SOL     OW11026   3.639   4.014   4.733
 3376SOL    HW111027   3.568   4.066   4.780
 3376SOL    HW211028   3.615   4.003   4.637
 3377SOL     OW11029   6.630   5.731   4.521
 3377SOL    HW111030   6.568   5.654   4.540
 3377SOL    HW211031   6.596   5.813   4.567
 3378SOL     OW11032   1.212   5.990   0.230
 3378SOL    HW111033   1.137   5.946   0.182
 3378SOL    HW211034   1.298   5.972   0.182
 3379SOL     OW11035   5.509   4.782   3.995
 3379SOL    HW111036   5.602   4.817   3.981
 3379SOL    HW211037   5.486   4.717   3.923
 3380SOL     OW11038   1.451   4.456   2.177
 3380SOL    HW111039   1.499   4.534   2.136
 3380SOL    HW211040   1.371   4.490   2.227
 3381SOL     OW11041   3.149   4.382   6.653
 3381SOL    HW111042   3.198   4.457   6.697
 3381SOL    HW211043   3.214   4.326   6.601
 3382SOL     OW11044   0.353   3.694   6.542
 3382SOL    HW111045   0.275   3.632   6.553
 3382SOL    HW211046   0.376   3.735   6.630
 3383SOL     OW11047   4.033   6.267   0.320
 3383SOL    HW111048   3.977   6.266   0.238
 3383SOL    HW211049   4.082   6.180   0.329
 3384SOL     OW11050   3.751   2.557   6.445
 3384SOL    HW111051   3.652   2.567   6.436
 3384SOL    HW211052   3.778   2.579   6.539
 3385SOL     OW11053   6.006   1.911   4.544
 3385SOL    HW111054   6.022   1.868   4.454
 3385SOL    HW211055   6.078   1.882   4.607
 3386SOL     OW11056   0.002   4.857   5.168
 3386SOL    HW111057   0.049   4.929   5.218
 3386SOL    HW211058   0.029   4.768   5.206
 3387SOL     OW11059   6.235   0.638   2.847
 3387SOL    HW111060   6.326   0.624   2.808
 3387SOL    HW211061   6.200   0.550   2.882
 3388SOL     OW11062   1.117   3.735   0.678
 3388SOL    HW111063   1.159   3.772   0.595
 3388SOL    HW211064   1.158   3.778   0.758
 3389SOL     OW11065   6.088   5.221   5.636
 3389SOL    HW111066   6.028   5.293   5.601
 3389SOL    HW211067   6.175   5.223   5.587
 3390SOL     OW11068   2.927   4.565   0.977
 3390SOL    HW111069   2.832   4.567   0.943
 3390SOL    HW211070   2.930   4.604   1.069
 3391SOL     OW11071   5.291   3.813   5.605
 3391SOL    HW111072   5.219   3.845   5.667
 3391SOL    HW211073   5.330   3.891   5.555
 3392SOL     OW11074   4.818   5.937   5.610
 3392SOL    HW111075   4.795   6.032   5.588
 3392SOL    HW211076   4.794   5.918   5.705
 3393SOL     OW11077   3.064   0.979   0.602
 3393SOL    HW111078   2.973   0.963   0.640
 3393SOL    HW211079   3.070   0.936   0.512
 3394SOL     OW11080   3.065   5.848   2.085
 3394SOL    HW111081   3.153   5.888   2.060
 3394SOL    HW211082   3.045   5.869   2.181
 3395SOL     OW11083   1.625   5.869   3.225
 3395SOL    HW111084   1.575   5.794   3.267
 3395SOL    HW211085   1.561   5.932   3.181
 3396SOL     OW11086   3.869   0.001   3.940
 3396SOL    HW111087   3.788   0.005   3.999
 3396SOL    HW211088   3.947   0.042   3.986
 3397SOL     OW11089   2.809   6.106   2.105
 3397SOL    HW111090   2.906   6.115   2.083
 3397SOL    HW211091   2.778   6.014   2.085
 3398SOL     OW11092   6.556   0.519   0.536
 3398SOL    HW111093   6.572   0.437   0.591
 3398SOL    HW211094   6.485   0.500   0.468
 3399SOL     OW11095   6.701   6.463   2.331
 3399SOL    HW111096   6.680   6.515   2.248
 3399SOL    HW211097   6.794   6.425   2.323
 3400SOL     OW11098   3.428   3.554   5.603
 3400SOL    HW111099   3.404   3.596   5.516
 3400SOL    HW211100   3.396   3.612   5.678
 3401SOL     OW11101   6.697   3.690   3.819
 3401SOL    HW111102   6.628   3.713   3.750
 3401SOL    HW211103   6.663   3.614   3.875
 3402SOL     OW11104   6.226   3.602   0.321
 3402SOL    HW111105   6.131   3.602   0.353
 3402SOL    HW211106   6.286   3.632   0.395
 3403SOL     OW11107   5.589   7.016   3.689
 3403SOL    HW111108   5.538   0.074   3.711
 3403SOL    HW211109   5.687   0.008   3.700
 3404SOL     OW11110   5.187   4.868   2.617
 3404SOL    HW111111   5.237   4.816   2.687
 3404SOL    HW211112   5.093   4.835   2.611
 3405SOL     OW11113   4.375   0.029   1.240
 3405SOL    HW111114   4.426   0.028   1.154
 3405SOL    HW211115   4.339   6.962   1.258
 3406SOL     OW11116   4.479   5.421   0.992
 3406SOL    HW111117   4.484   5.357   0.916
 3406SOL    HW211118   4.490   5.372   1.078
 3407SOL     OW11119   2.115   1.797   0.910
 3407SOL    HW111120   2.113   1.758   0.818
 3407SOL    HW211121   2.081   1.891   0.908
 3408SOL     OW11122   3.132   6.954   4.135
 3408SOL    HW111123   3.033   6.966   4.139
 3408SOL    HW211124   3.177   0.018   4.130
 3409SOL     OW11125   4.527   2.231   6.696
 3409SOL    HW111126   4.437   2.228   6.651
 3409SOL    HW211127   4.549   2.326   6.720
 3410SOL     OW11128   6.262   1.588   2.473
 3410SOL    HW111129   6.357   1.591   2.442
 3410SOL    HW211130   6.227   1.495   2.464
 3411SOL     OW11131   5.845   3.428   6.649
 3411SOL    HW111132   5.937   3.387   6.650
 3411SOL    HW211133   5.777   3.356   6.636
 3412SOL     OW11134   5.242   3.595   3.331
 3412SOL    HW111135   5.186   3.596   3.414
 3412SOL    HW211136   5.210   3.522   3.270
 3413SOL     OW11137   1.104   2.697   0.631
 3413SOL    HW111138   1.152   2.738   0.709
 3413SOL    HW211139   1.159   2.711   0.548
 3414SOL     OW11140   3.741   3.198   2.056
 3414SOL    HW111141   3.650   3.185   2.097
 3414SOL    HW211142   3.768   3.294   2.067
 3415SOL     OW11143   2.911   0.739   6.540
 3415SOL    HW111144   2.841   0.742   6.468
 3415SOL    HW211145   2.924   0.644   6.569
 3416SOL     OW11146   5.397   6.153   6.427
 3416SOL    HW111147   5.347   6.111   6.351
 3416SOL    HW211148   5.359   6.121   6.514
 3417SOL     OW11149   6.087   0.640   2.105
 3417SOL    HW111150   6.104   0.556   2.054
 3417SOL    HW211151   6.138   0.638   2.192
 3418SOL     OW11152   4.192   5.258   1.301
 3418SOL    HW111153   4.192   5.160   1.285
 3418SOL    HW211154   4.286   5.289   1.319
 3419SOL     OW11155   3.120   4.686   5.315
 3419SOL    HW111156   3.051   4.625   5.275
 3419SOL    HW211157   3.135   4.660   5.410
 3420SOL     OW11158   5.241   0.813   1.982
 3420SOL    HW111159   5.292   0.877   2.040
 3420SOL    HW211160   5.274   0.821   1.888
 3421SOL     OW11161   0.501   1.341   4.094
 3421SOL    HW111162   0.476   1.282   4.017
 3421SOL    HW211163   0.418   1.379   4.135
 3422SOL     OW11164   3.048   4.986   1.361
 3422SOL    HW111165   3.021   4.946   1.274
 3422SOL    HW211166   3.007   5.078   1.369
 3423SOL     OW11167   1.793   5.541   5.848
 3423SOL    HW111168   1.781   5.498   5.938
 3423SOL    HW211169   1.709   5.588   5.823
 3424SOL     OW11170   5.688   5.816   2.300
 3424SOL    HW111171   5.700   5.813   2.399
 3424SOL    HW211172   5.650   5.729   2.268
 3425SOL     OW11173   5.492   3.001   6.175
 3425SOL    HW111174   5.446   2.972   6.259
 3425SOL    HW211175   5.449   2.956   6.097
 3426SOL     OW11176   6.678   5.486   6.091
 3426SOL    HW111177   6.677   5.535   6.178
 3426SOL    HW211178   6.584   5.468   6.062
 3427SOL     OW11179   1.487   1.203   6.844
 3427SOL    HW111180   1.562   1.138   6.829
 3427SOL    HW211181   1.445   1.227   6.757
 3428SOL     OW11182   4.115   0.831   4.303
 3428SOL    HW111183   4.091   0.916   4.256
 3428SOL    HW211184   4.204   0.843   4.348
 3429SOL     OW11185   5.039   5.429   0.083
 3429SOL    HW111186   5.025   5.527   0.073
 3429SOL    HW211187   5.083   5.410   0.171
 3430SOL     OW11188   2.613   4.200   6.773
 3430SOL    HW111189   2.580   4.107   6.786
 3430SOL    HW211190   2.711   4.203   6.793
 3431SOL     OW11191   1.210   3.954   1.994
 3431SOL    HW111192   1.190   4.043   2.036
 3431SOL    HW211193   1.309   3.943   1.985
 3432SOL     OW11194   0.104   5.555   6.385
 3432SOL    HW111195   0.031   5.621   6.406
 3432SOL    HW211196   0.166   5.548   6.462
 3433SOL     OW11197   0.815   1.341   0.170
 3433SOL    HW111198   0.803   1.402   0.248
 3433SOL    HW211199   0.792   1.247   0.197
 3434SOL     OW11200   4.124   2.521   1.697
 3434SOL    HW111201   4.086   2.445   1.645
 3434SOL    HW211202   4.069   2.603   1.682
 3435SOL     OW11203   3.004   2.773   1.332
 3435SOL    HW111204   2.910   2.746   1.356
 3435SOL    HW211205   3.064   2.694   1.336
 3436SOL     OW11206   4.230   5.377   5.381
 3436SOL    HW111207   4.209   5.473   5.366
 3436SOL    HW211208   4.239   5.359   5.479
 3437SOL     OW11209   2.645   5.765   0.781
 3437SOL    HW111210   2.608   5.673   0.778
 3437SOL    HW211211   2.632   5.805   0.872
 3438SOL     OW11212   2.542   4.305   0.337
 3438SOL    HW111213   2.558   4.218   0.383
 3438SOL    HW211214   2.527   4.289   0.239
 3439SOL     OW11215   2.804   5.820   1.141
 3439SOL    HW111216   2.767   5.732   1.171
 3439SOL    HW211217   2.903   5.814   1.133
 3440SOL     OW11218   4.268   5.009   5.842
 3440SOL    HW111219   4.309   5.052   5.922
 3440SOL    HW211220   4.233   4.918   5.868
 3441SOL     OW11221   0.173   5.670   5.530
 3441SOL    HW111222   0.093   5.720   5.564
 3441SOL    HW211223   0.246   5.735   5.510
 3442SOL     OW11224   1.691   2.021   0.626
 3442SOL    HW111225   1.787   2.046   0.618
 3442SOL    HW211226   1.675   1.934   0.579
 3443SOL     OW11227   6.794   5.670   2.721
 3443SOL    HW111228   6.801   5.657   2.821
 3443SOL    HW211229   6.698   5.671   2.695
 3444SOL     OW11230   1.099   3.685   6.125
 3444SOL    HW111231   1.145   3.771   6.104
 3444SOL    HW211232   1.017   3.703   6.179
 3445SOL     OW11233   6.095   4.899   4.361
 3445SOL    HW111234   6.031   4.867   4.431
 3445SOL    HW211235   6.188   4.896   4.397
 3446SOL     OW11236   5.275   1.506   6.969
 3446SOL    HW111237   5.328   1.441   7.025
 3446SOL    HW211238   5.308   1.599   6.986
 3447SOL     OW11239   4.819   1.732   5.775
 3447SOL    HW111240   4.739   1.748   5.717
 3447SOL    HW211241   4.848   1.637   5.766
 3448SOL     OW11242   0.611   5.226   4.533
 3448SOL    HW111243   0.523   5.252   4.574
 3448SOL    HW211244   0.632   5.288   4.457
 3449SOL     OW11245   1.298   4.352   4.626
 3449SOL    HW111246   1.353   4.383   4.548
 3449SOL    HW211247   1.213   4.312   4.593
 3450SOL     OW11248   1.997   6.055   3.343
 3450SOL    HW111249   2.029   6.150   3.346
 3450SOL    HW211250   1.939   6.042   3.262
 3451SOL     OW11251   2.559   1.738   0.978
 3451SOL    HW111252   2.471   1.690   0.984
 3451SOL    HW211253   2.544   1.837   0.985
 3452SOL     OW11254   4.459   1.210   5.182
 3452SOL    HW111255   4.460   1.270   5.101
 3452SOL    HW211256   4.466   1.115   5.152
 3453SOL     OW11257   4.543   6.770   5.606
 3453SOL    HW111258   4.461   6.725   5.639
 3453SOL    HW211259   4.577   6.723   5.524
 3454SOL     OW11260   1.232   3.149   4.014
 3454SOL    HW111261   1.327   3.146   4.046
 3454SOL    HW211262   1.186   3.227   4.057
 3455SOL     OW11263   1.422   4.151   5.996
 3455SOL    HW111264   1.494   4.196   6.049
 3455SOL    HW211265   1.464   4.093   5.926
 3456SOL     OW11266   4.450   5.489   2.768
 3456SOL    HW111267   4.367   5.445   2.734
 3456SOL    HW211268   4.445   5.587   2.750
 3457SOL     OW11269   3.781   4.018   0.487
 3457SOL    HW111270   3.709   3.951   0.508
 3457SOL    HW211271   3.859   4.004   0.548
 3458SOL     OW11272   3.747   1.806   1.250
 3458SOL    HW111273   3.829   1.850   1.285
 3458SOL    HW211274   3.739   1.824   1.152
 3459SOL     OW11275   6.577   0.418   2.993
 3459SOL    HW111276   6.666   0.407   2.950
 3459SOL    HW211277   6.562   0.342   3.057
 3460SOL     OW11278   4.700   1.821   4.977
 3460SOL    HW111279   4.656   1.767   4.905
 3460SOL    HW211280   4.630   1.858   5.039
 3461SOL     OW11281   4.627   4.484   4.079
 3461SOL    HW111282   4.540   4.524   4.051
 3461SOL    HW211283   4.644   4.401   4.025
 3462SOL     OW11284   1.466   4.271   6.787
 3462SOL    HW111285   1.389   4.224   6.829
 3462SOL    HW211286   1.476   4.362   6.829
 3463SOL     OW11287   6.304   3.697   6.887
 3463SOL    HW111288   6.258   3.786   6.888
 3463SOL    HW211289   6.239   3.626   6.915
 3464SOL     OW11290   0.022   5.221   4.457
 3464SOL    HW111291   0.096   5.153   4.453
 3464SOL    HW211292   7.010   5.224   4.549
 3465SOL     OW11293   0.666   2.926   1.172
 3465SOL    HW111294   0.657   3.022   1.198
 3465SOL    HW211295   0.697   2.873   1.251
 3466SOL     OW11296   5.589   4.071   3.306
 3466SOL    HW111297   5.604   4.053   3.403
 3466SOL    HW211298   5.673   4.051   3.255
 3467SOL     OW11299   2.442   1.762   5.991
 3467SOL    HW111300   2.438   1.844   6.049
 3467SOL    HW211301   2.411   1.683   6.043
 3468SOL     OW11302   5.429   4.894   1.975
 3468SOL    HW111303   5.464   4.895   2.068
 3468SOL    HW211304   5.384   4.981   1.956
 3469SOL     OW11305   5.742   3.713   0.855
 3469SOL    HW111306   5.812   3.739   0.922
 3469SOL    HW211307   5.680   3.790   0.840
 3470SOL     OW11308   6.480   5.929   6.741
 3470SOL    HW111309   6.429   5.893   6.663
 3470SOL    HW211310   6.453   6.024   6.758
 3471SOL     OW11311   4.142   7.015   4.219
 3471SOL    HW111312   4.080   6.937   4.212
 3471SOL    HW211313   4.190   7.012   4.306
 3472SOL     OW11314   3.454   1.115   4.467
 3472SOL    HW111315   3.355   1.122   4.458
 3472SOL    HW211316   3.485   1.026   4.432
 3473SOL     OW11317   5.051   6.908   3.649
 3473SOL    HW111318   5.074   6.827   3.704
 3473SOL    HW211319   5.116   6.981   3.668
 3474SOL     OW11320   5.521   4.983   0.424
 3474SOL    HW111321   5.617   4.987   0.397
 3474SOL    HW211322   5.512   5.007   0.521
 3475SOL     OW11323   2.130   5.802   5.178
 3475SOL    HW111324   2.088   5.712   5.165
 3475SOL    HW211325   2.124   5.854   5.093
 3476SOL     OW11326   2.859   1.783   3.292
 3476SOL    HW111327   2.822   1.831   3.372
 3476SOL    HW211328   2.958   1.777   3.299
 3477SOL     OW11329   4.675   5.224   2.519
 3477SOL    HW111330   4.668   5.161   2.596
 3477SOL    HW211331   4.767   5.261   2.514
 3478SOL     OW11332   3.537   4.862   0.156
 3478SOL    HW111333   3.502   4.931   0.220
 3478SOL    HW211334   3.505   4.771   0.184
 3479SOL     OW11335   1.530   0.468   0.520
 3479SOL    HW111336   1.524   0.438   0.425
 3479SOL    HW211337   1.447   0.520   0.543
 3480SOL     OW11338   1.382   6.341   4.335
 3480SOL    HW111339   1.477   6.346   4.366
 3480SOL    HW211340   1.322   6.368   4.410
 3481SOL     OW11341   2.258   4.219   0.465
 3481SOL    HW111342   2.324   4.175   0.526
 3481SOL    HW211343   2.182   4.256   0.519
 3482SOL     OW11344   0.010   2.352   1.831
 3482SOL    HW111345   0.070   2.430   1.854
 3482SOL    HW211346   7.010   2.304   1.915
 3483SOL     OW11347   4.391   1.800   1.389
 3483SOL    HW111348   4.474   1.824   1.439
 3483SOL    HW211349   4.322   1.768   1.454
 3484SOL     OW11350   3.219   3.976   3.628
 3484SOL    HW111351   3.197   3.989   3.531
 3484SOL    HW211352   3.220   4.064   3.674
 3485SOL     OW11353   6.542   2.469   3.924
 3485SOL    HW111354   6.458   2.480   3.870
 3485SOL    HW211355   6.535   2.388   3.982
 3486SOL     OW11356   6.111   1.818   2.425
 3486SOL    HW111357   6.070   1.808   2.335
 3486SOL    HW211358   6.170   1.740   2.444
 3487SOL     OW11359   1.648   6.327   1.358
 3487SOL    HW111360   1.692   6.387   1.290
 3487SOL    HW211361   1.691   6.341   1.447
 3488SOL     OW11362   6.560   3.340   5.446
 3488SOL    HW111363   6.555   3.307   5.351
 3488SOL    HW211364   6.475   3.386   5.469
 3489SOL     OW11365   3.016   5.581   6.801
 3489SOL    HW111366   2.981   5.643   6.871
 3489SOL    HW211367   3.041   5.633   6.719
 3490SOL     OW11368   5.824   3.421   0.319
 3490SOL    HW111369   5.727   3.399   0.330
 3490SOL    HW211370   5.878   3.337   0.325
 3491SOL     OW11371   6.002   2.585   5.182
 3491SOL    HW111372   6.011   2.676   5.143
 3491SOL    HW211373   6.012   2.590   5.281
 3492SOL     OW11374   0.492   4.369   6.420
 3492SOL    HW111375   0.558   4.405   6.486
 3492SOL    HW211376   0.439   4.296   6.462
 3493SOL     OW11377   0.042   5.173   1.185
 3493SOL    HW111378   0.124   5.115   1.184
 3493SOL    HW211379   0.002   5.177   1.094
 3494SOL     OW11380   3.074   0.277   0.947
 3494SOL    HW111381   3.079   0.340   1.024
 3494SOL    HW211382   3.107   0.322   0.864
 3495SOL     OW11383   5.884   4.593   5.723
 3495SOL    HW111384   5.800   4.559   5.681
 3495SOL    HW211385   5.963   4.561   5.670
 3496SOL     OW11386   0.830   6.157   1.441
 3496SOL    HW111387   0.892   6.137   1.517
 3496SOL    HW211388   0.780   6.074   1.417
 3497SOL     OW11389   2.878   0.498   4.840
 3497SOL    HW111390   2.972   0.531   4.835
 3497SOL    HW211391   2.879   0.398   4.849
 3498SOL     OW11392   1.499   1.775   0.321
 3498SOL    HW111393   1.475   1.805   0.229
 3498SOL    HW211394   1.422   1.790   0.382
 3499SOL     OW11395   6.865   4.048   2.890
 3499SOL    HW111396   6.766   4.062   2.886
 3499SOL    HW211397   6.888   3.964   2.842
 3500SOL     OW11398   6.676   2.242   0.642
 3500SOL    HW111399   6.600   2.180   0.659
 3500SOL    HW211400   6.751   2.193   0.598
 3501SOL     OW11401   6.861   5.233   3.444
 3501SOL    HW111402   6.784   5.240   3.380
 3501SOL    HW211403   6.938   5.286   3.409
 3502SOL     OW11404   0.875   6.576   1.337
 3502SOL    HW111405   0.962   6.548   1.297
 3502SOL    HW211406   0.876   6.674   1.354
 3503SOL     OW11407   2.613   0.753   3.682
 3503SOL    HW111408   2.682   0.692   3.721
 3503SOL    HW211409   2.635   0.848   3.707
 3504SOL     OW11410   2.119   2.871   2.616
 3504SOL    HW111411   2.082   2.928   2.542
 3504SOL    HW211412   2.173   2.928   2.678
 3505SOL     OW11413   4.264   6.498   4.819
 3505SOL    HW111414   4.180   6.454   4.850
 3505SOL    HW211415   4.342   6.462   4.870
 3506SOL     OW11416   6.952   3.824   2.771
 3506SOL    HW111417   7.024   3.883   2.734
 3506SOL    HW211418   6.915   3.767   2.699
 3507SOL     OW11419   6.647   0.348   5.416
 3507SOL    HW111420   6.647   0.409   5.337
 3507SOL    HW211421   6.553   0.333   5.447
 3508SOL     OW11422   0.513   4.591   6.824
 3508SOL    HW111423   0.610   4.574   6.840
 3508SOL    HW211424   0.485   4.546   6.739
 3509SOL     OW11425   4.196   6.516   6.497
 3509SOL    HW111426   4.156   6.607   6.504
 3509SOL    HW211427   4.206   6.477   6.588
 3510SOL     OW11428   2.054   1.342   2.490
 3510SOL    HW111429   2.123   1.408   2.516
 3510SOL    HW211430   2.007   1.309   2.572
 3511SOL     OW11431   1.220   0.983   4.140
 3511SOL    HW111432   1.318   0.993   4.121
 3511SOL    HW211433   1.188   0.895   4.106
 3512SOL     OW11434   3.075   3.371   1.874
 3512SOL    HW111435   3.149   3.363   1.941
 3512SOL    HW211436   3.002   3.306   1.897
 3513SOL     OW11437   6.929   5.182   0.829
 3513SOL    HW111438   6.841   5.149   0.863
 3513SOL    HW211439   6.922   5.204   0.732
 3514SOL     OW11440   3.635   5.692   3.607
 3514SOL    HW111441   3.633   5.753   3.527
 3514SOL    HW211442   3.573   5.727   3.677
 3515SOL     OW11443   3.693   5.815   4.380
 3515SOL    HW111444   3.657   5.722   4.372
 3515SOL    HW211445   3.793   5.812   4.374
 3516SOL     OW11446   1.185   1.549   0.518
 3516SOL    HW111447   1.160   1.641   0.489
 3516SOL    HW211448   1.273   1.551   0.565
 3517SOL     OW11449   0.479   0.486   6.844
 3517SOL    HW111450   0.464   0.483   6.943
 3517SOL    HW211451   0.398   0.524   6.799
 3518SOL     OW11452   3.993   3.641   6.175
 3518SOL    HW111453   4.015   3.545   6.153
 3518SOL    HW211454   4.055   3.674   6.246
 3519SOL     OW11455   4.126   6.838   0.220
 3519SOL    HW111456   4.144   6.904   0.294
 3519SOL    HW211457   4.187   6.760   0.229
 3520SOL     OW11458   4.190   4.979   1.307
 3520SOL    HW111459   4.149   4.939   1.225
 3520SOL    HW211460   4.263   4.919   1.340
 3521SOL     OW11461   0.154   1.809   5.562
 3521SOL    HW111462   0.152   1.842   5.656
 3521SOL    HW211463   0.229   1.743   5.552
 3522SOL     OW11464   2.335   0.213   0.991
 3522SOL    HW111465   2.361   0.201   0.895
 3522SOL    HW211466   2.374   0.299   1.026
 3523SOL     OW11467   2.278   4.302   4.918
 3523SOL    HW111468   2.287   4.205   4.941
 3523SOL    HW211469   2.357   4.352   4.955
 3524SOL     OW11470   2.533   1.633   3.818
 3524SOL    HW111471   2.577   1.653   3.731
 3524SOL    HW211472   2.542   1.535   3.839
 3525SOL     OW11473   2.016   3.270   3.857
 3525SOL    HW111474   1.970   3.338   3.799
 3525SOL    HW211475   2.076   3.213   3.801
 3526SOL     OW11476   3.568   6.070   3.603
 3526SOL    HW111477   3.530   6.071   3.511
 3526SOL    HW211478   3.524   5.998   3.657
 3527SOL     OW11479   6.864   4.139   6.360
 3527SOL    HW111480   6.845   4.200   6.437
 3527SOL    HW211481   6.801   4.062   6.361
 3528SOL     OW11482   1.200   6.559   4.129
 3528SOL    HW111483   1.245   6.500   4.196
 3528SOL    HW211484   1.228   6.532   4.037
 3529SOL     OW11485   3.615   6.334   0.365
 3529SOL    HW111486   3.583   6.397   0.436
 3529SOL    HW211487   3.587   6.241   0.389
 3530SOL     OW11488   1.755   5.748   2.345
 3530SOL    HW111489   1.834   5.806   2.325
 3530SOL    HW211490   1.764   5.662   2.295
 3531SOL     OW11491   5.641   4.212   6.808
 3531SOL    HW111492   5.692   4.148   6.865
 3531SOL    HW211493   5.673   4.206   6.713
 3532SOL     OW11494   2.753   6.761   6.539
 3532SOL    HW111495   2.752   6.663   6.561
 3532SOL    HW211496   2.847   6.792   6.529
 3533SOL     OW11497   1.235   1.371   3.492
 3533SOL    HW111498   1.329   1.374   3.527
 3533SOL    HW211499   1.173   1.410   3.560
 3534SOL     OW11500   4.709   6.460   4.295
 3534SOL    HW111501   4.779   6.507   4.241
 3534SOL    HW211502   4.744   6.442   4.387
 3535SOL     OW11503   4.167   4.874   0.080
 3535SOL    HW111504   4.140   4.904   0.172
 3535SOL    HW211505   4.261   4.900   0.063
 3536SOL     OW11506   2.011   2.986   2.412
 3536SOL    HW111507   2.072   2.992   2.333
 3536SOL    HW211508   1.923   3.028   2.389
 3537SOL     OW11509   3.343   5.268   1.874
 3537SOL    HW111510   3.403   5.315   1.809
 3537SOL    HW211511   3.252   5.308   1.870
 3538SOL     OW11512   3.142   0.668   3.343
 3538SOL    HW111513   3.199   0.596   3.305
 3538SOL    HW211514   3.105   0.639   3.431
 3539SOL     OW11515   5.483   5.569   5.627
 3539SOL    HW111516   5.570   5.566   5.676
 3539SOL    HW211517   5.432   5.485   5.646
 3540SOL     OW11518   5.000   4.134   0.231
 3540SOL    HW111519   5.079   4.188   0.260
 3540SOL    HW211520   5.027   4.075   0.155
 3541SOL     OW11521   0.799   2.970   2.534
 3541SOL    HW111522   0.845   2.968   2.445
 3541SOL    HW211523   0.867   2.955   2.606
 3542SOL     OW11524   5.760   1.220   6.818
 3542SOL    HW111525   5.816   1.184   6.744
 3542SOL    HW211526   5.818   1.242   6.897
 3543SOL     OW11527   0.228   2.751   4.901
 3543SOL    HW111528   0.269   2.823   4.957
 3543SOL    HW211529   0.205   2.673   4.959
 3544SOL     OW11530   3.979   4.885   6.046
 3544SOL    HW111531   4.063   4.840   6.076
 3544SOL    HW211532   3.900   4.838   6.085
 3545SOL     OW11533   2.778   6.528   1.283
 3545SOL    HW111534   2.796   6.440   1.239
 3545SOL    HW211535   2.763   6.598   1.214
 3546SOL     OW11536   0.463   4.839   1.347
 3546SOL    HW111537   0.455   4.931   1.309
 3546SOL    HW211538   0.371   4.799   1.358
 3547SOL     OW11539   1.712   3.763   4.343
 3547SOL    HW111540   1.624   3.739   4.302
 3547SOL    HW211541   1.777   3.788   4.272
 3548SOL     OW11542   6.325   0.115   5.593
 3548SOL    HW111543   6.337   0.058   5.511
 3548SOL    HW211544   6.394   0.091   5.661
 3549SOL     OW11545   1.883   0.333   6.473
 3549SOL    HW111546   1.959   0.281   6.511
 3549SOL    HW211547   1.797   0.286   6.491
 3550SOL     OW11548   6.379   2.220   4.817
 3550SOL    HW111549   6.279   2.215   4.828
 3550SOL    HW211550   6.404   2.188   4.726
 3551SOL     OW11551   6.338   1.200   5.294
 3551SOL    HW111552   6.390   1.224   5.212
 3551SOL    HW211553   6.355   1.268   5.365
 3552SOL     OW11554   6.274   0.759   3.623
 3552SOL    HW111555   6.201   0.806   3.574
 3552SOL    HW211556   6.305   0.816   3.699
 3553SOL     OW11557   5.655   6.202   6.516
 3553SOL    HW111558   5.576   6.179   6.459
 3553SOL    HW211559   5.633   6.186   6.612
 3554SOL     OW11560   6.140   3.928   6.381
 3554SOL    HW111561   6.072   3.931   6.454
 3554SOL    HW211562   6.205   3.854   6.400
 3555SOL     OW11563   3.461   1.047   5.478
 3555SOL    HW111564   3.482   1.019   5.572
 3555SOL    HW211565   3.469   0.968   5.417
 3556SOL     OW11566   5.306   1.232   0.984
 3556SOL    HW111567   5.242   1.156   0.979
 3556SOL    HW211568   5.386   1.213   0.927
 3557SOL     OW11569   4.642   0.277   1.186
 3557SOL    HW111570   4.605   0.223   1.111
 3557SOL    HW211571   4.659   0.218   1.265
 3558SOL     OW11572   4.402   5.831   3.263
 3558SOL    HW111573   4.304   5.816   3.267
 3558SOL    HW211574   4.449   5.745   3.244
 3559SOL     OW11575   4.484   6.102   6.494
 3559SOL    HW111576   4.488   6.200   6.472
 3559SOL    HW211577   4.389   6.071   6.493
 3560SOL     OW11578   1.945   5.958   4.484
 3560SOL    HW111579   1.866   6.016   4.465
 3560SOL    HW211580   1.927   5.865   4.450
 3561SOL     OW11581   3.925   2.792   6.403
 3561SOL    HW111582   3.882   2.881   6.387
 3561SOL    HW211583   3.862   2.732   6.453
 3562SOL     OW11584   2.821   1.072   0.296
 3562SOL    HW111585   2.845   1.169   0.293
 3562SOL    HW211586   2.903   1.018   0.312
 3563SOL     OW11587   6.275   1.883   6.423
 3563SOL    HW111588   6.207   1.831   6.371
 3563SOL    HW211589   6.233   1.967   6.457
 3564SOL     OW11590   5.810   3.071   2.961
 3564SOL    HW111591   5.776   3.028   2.877
 3564SOL    HW211592   5.826   3.000   3.030
 3565SOL     OW11593   4.839   6.222   4.679
 3565SOL    HW111594   4.887   6.156   4.738
 3565SOL    HW211595   4.784   6.283   4.736
 3566SOL     OW11596   0.585   0.896   4.932
 3566SOL    HW111597   0.489   0.886   4.957
 3566SOL    HW211598   0.608   0.829   4.861
 3567SOL     OW11599   1.042   4.394   6.668
 3567SOL    HW111600   1.027   4.327   6.594
 3567SOL    HW211601   1.138   4.421   6.670
 3568SOL     OW11602   2.263   4.414   5.599
 3568SOL    HW111603   2.352   4.455   5.577
 3568SOL    HW211604   2.265   4.317   5.575
 3569SOL     OW11605   0.583   0.185   3.436
 3569SOL    HW111606   0.535   0.103   3.467
 3569SOL    HW211607   0.597   0.247   3.514
 3570SOL     OW11608   0.465   2.031   4.868
 3570SOL    HW111609   0.534   1.969   4.906
 3570SOL    HW211610   0.463   2.022   4.769
 3571SOL     OW11611   6.722   5.453   4.872
 3571SOL    HW111612   6.694   5.400   4.791
 3571SOL    HW211613   6.772   5.393   4.935
 3572SOL     OW11614   5.539   6.578   5.757
 3572SOL    HW111615   5.583   6.628   5.831
 3572SOL    HW211616   5.608   6.528   5.704
 3573SOL     OW11617   0.570   2.793   1.836
 3573SOL    HW111618   0.552   2.734   1.757
 3573SOL    HW211619   0.631   2.748   1.899
 3574SOL     OW11620   7.007   3.718   7.012
 3574SOL    HW111621   0.028   3.641   6.968
 3574SOL    HW211622   0.041   3.798   7.011
 3575SOL     OW11623   6.771   0.617   2.632
 3575SOL    HW111624   6.834   0.620   2.554
 3575SOL    HW211625   6.752   0.710   2.662
 3576SOL     OW11626   0.424   0.847   0.650
 3576SOL    HW111627   0.513   0.891   0.639
 3576SOL    HW211628   0.435   0.748   0.638
 3577SOL     OW11629   2.329   4.666   0.574
 3577SOL    HW111630   2.357   4.626   0.487
 3577SOL    HW211631   2.268   4.602   0.621
 3578SOL     OW11632   3.333   4.675   1.729
 3578SOL    HW111633   3.416   4.676   1.784
 3578SOL    HW211634   3.312   4.768   1.698
 3579SOL     OW11635   2.576   2.924   6.607
 3579SOL    HW111636   2.597   2.827   6.592
 3579SOL    HW211637   2.568   2.941   6.705
 3580SOL     OW11638   5.679   1.465   2.294
 3580SOL    HW111639   5.713   1.372   2.308
 3580SOL    HW211640   5.629   1.496   2.375
 3581SOL     OW11641   6.556   1.263   2.880
 3581SOL    HW111642   6.550   1.247   2.979
 3581SOL    HW211643   6.468   1.294   2.846
 3582SOL     OW11644   0.887   0.649   5.533
 3582SOL    HW111645   0.834   0.577   5.578
 3582SOL    HW211646   0.965   0.609   5.485
 3583SOL     OW11647   1.374   6.833   2.085
 3583SOL    HW111648   1.440   6.772   2.042
 3583SOL    HW211649   1.326   6.785   2.158
 3584SOL     OW11650   5.248   0.375   4.720
 3584SOL    HW111651   5.203   0.306   4.664
 3584SOL    HW211652   5.261   0.340   4.813
 3585SOL     OW11653   2.212   4.536   3.552
 3585SOL    HW111654   2.257   4.448   3.533
 3585SOL    HW211655   2.268   4.588   3.617
 3586SOL     OW11656   1.150   1.212   0.225
 3586SOL    HW111657   1.152   1.311   0.240
 3586SOL    HW211658   1.194   1.190   0.138
 3587SOL     OW11659   3.491   6.753   5.438
 3587SOL    HW111660   3.528   6.678   5.493
 3587SOL    HW211661   3.506   6.840   5.486
 3588SOL     OW11662   2.737   2.580   5.372
 3588SOL    HW111663   2.725   2.678   5.358
 3588SOL    HW211664   2.684   2.530   5.303
 3589SOL     OW11665   2.797   6.041   4.511
 3589SOL    HW111666   2.807   6.060   4.609
 3589SOL    HW211667   2.797   5.942   4.496
 3590SOL     OW11668   1.062   5.906   6.842
 3590SOL    HW111669   1.022   5.923   6.932
 3590SOL    HW211670   1.091   5.810   6.836
 3591SOL     OW11671   5.100   1.682   4.893
 3591SOL    HW111672   5.083   1.613   4.823
 3591SOL    HW211673   5.126   1.638   4.979
 3592SOL     OW11674   5.544   1.677   2.449
 3592SOL    HW111675   5.465   1.734   2.473
 3592SOL    HW211676   5.589   1.714   2.368
 3593SOL     OW11677   0.471   5.044   4.165
 3593SOL    HW111678   0.496   5.105   4.090
 3593SOL    HW211679   0.403   5.088   4.223
 3594SOL     OW11680   4.322   1.246   4.655
 3594SOL    HW111681   4.347   1.181   4.727
 3594SOL    HW211682   4.232   1.284   4.674
 3595SOL     OW11683   2.099   6.692   6.382
 3595SOL    HW111684   2.067   6.659   6.471
 3595SOL    HW211685   2.196   6.716   6.388
 3596SOL     OW11686   6.569   3.620   2.851
 3596SOL    HW111687   6.530   3.650   2.764
 3596SOL    HW211688   6.666   3.597   2.838
 3597SOL     OW11689   4.300   0.415   4.074
 3597SOL    HW111690   4.290   0.401   4.173
 3597SOL    HW211691   4.364   0.490   4.057
 3598SOL     OW11692   2.188   6.770   6.793
 3598SOL    HW111693   2.157   6.840   6.729
 3598SOL    HW211694   2.169   6.800   6.887
 3599SOL     OW11695   0.348   2.329   3.921
 3599SOL    HW111696   0.284   2.279   3.862
 3599SOL    HW211697   0.440   2.324   3.883
 3600SOL     OW11698   6.539   6.920   1.259
 3600SOL    HW111699   6.557   6.986   1.332
 3600SOL    HW211700   6.473   6.852   1.291
 3601SOL     OW11701   6.965   3.750   5.813
 3601SOL    HW111702   6.965   3.848   5.791
 3601SOL    HW211703   6.905   3.702   5.749
 3602SOL     OW11704   3.396   2.743   0.825
 3602SOL    HW111705   3.395   2.670   0.893
 3602SOL    HW211706   3.309   2.744   0.776
 3603SOL     OW11707   3.950   5.055   5.096
 3603SOL    HW111708   4.036   5.101   5.119
 3603SOL    HW211709   3.958   4.957   5.116
 3604SOL     OW11710   5.574   4.480   3.467
 3604SOL    HW111711   5.520   4.438   3.540
 3604SOL    HW211712   5.548   4.576   3.458
 3605SOL     OW11713   5.282   1.730   6.341
 3605SOL    HW111714   5.293   1.712   6.243
 3605SOL    HW211715   5.204   1.678   6.375
 3606SOL     OW11716   1.661   3.334   2.634
 3606SOL    HW111717   1.618   3.303   2.549
 3606SOL    HW211718   1.712   3.258   2.675
 3607SOL     OW11719   4.216   6.558   5.398
 3607SOL    HW111720   4.227   6.653   5.428
 3607SOL    HW211721   4.263   6.546   5.310
 3608SOL     OW11722   6.918   3.368   2.917
 3608SOL    HW111723   6.984   3.293   2.908
 3608SOL    HW211724   6.967   3.451   2.946
 3609SOL     OW11725   0.135   0.905   3.862
 3609SOL    HW111726   0.127   1.000   3.833
 3609SOL    HW211727   0.045   0.861   3.857
 3610SOL     OW11728   1.669   4.942   5.616
 3610SOL    HW111729   1.644   4.857   5.569
 3610SOL    HW211730   1.649   5.020   5.557
 3611SOL     OW11731   4.729   4.447   6.134
 3611SOL    HW111732   4.761   4.362   6.175
 3611SOL    HW211733   4.662   4.490   6.195
 3612SOL     OW11734   2.245   5.807   1.286
 3612SOL    HW111735   2.273   5.879   1.349
 3612SOL    HW211736   2.195   5.847   1.209
 3613SOL     OW11737   5.835   4.795   6.004
 3613SOL    HW111738   5.747   4.751   5.984
 3613SOL    HW211739   5.886   4.809   5.919
 3614SOL     OW11740   3.760   3.252   4.782
 3614SOL    HW111741   3.702   3.318   4.830
 3614SOL    HW211742   3.704   3.179   4.745
 3615SOL     OW11743   5.934   6.388   6.610
 3615SOL    HW111744   5.918   6.480   6.646
 3615SOL    HW211745   5.875   6.323   6.659
 3616SOL     OW11746   6.496   1.449   4.320
 3616SOL    HW111747   6.496   1.350   4.310
 3616SOL    HW211748   6.404   1.485   4.303
 3617SOL     OW11749   0.129   0.602   1.129
 3617SOL    HW111750   0.195   0.559   1.068
 3617SOL    HW211751   0.154   0.583   1.224
 3618SOL     OW11752   3.937   5.627   6.063
 3618SOL    HW111753   3.958   5.531   6.084
 3618SOL    HW211754   3.902   5.672   6.144
 3619SOL     OW11755   4.974   3.748   3.971
 3619SOL    HW111756   5.019   3.685   3.908
 3619SOL    HW211757   4.951   3.700   4.056
 3620SOL     OW11758   5.813   1.706   5.082
 3620SOL    HW111759   5.728   1.679   5.126
 3620SOL    HW211760   5.858   1.625   5.045
 3621SOL     OW11761   1.899   2.742   6.646
 3621SOL    HW111762   1.902   2.649   6.609
 3621SOL    HW211763   1.982   2.759   6.699
 3622SOL     OW11764   1.244   3.882   0.856
 3622SOL    HW111765   1.282   3.864   0.947
 3622SOL    HW211766   1.311   3.932   0.801
 3623SOL     OW11767   6.641   4.901   4.979
 3623SOL    HW111768   6.722   4.871   4.928
 3623SOL    HW211769   6.670   4.957   5.057
 3624SOL     OW11770   1.867   0.386   1.873
 3624SOL    HW111771   1.813   0.329   1.811
 3624SOL    HW211772   1.959   0.347   1.883
 3625SOL     OW11773   1.228   2.308   5.390
 3625SOL    HW111774   1.305   2.348   5.340
 3625SOL    HW211775   1.250   2.306   5.488
 3626SOL     OW11776   1.968   3.353   5.878
 3626SOL    HW111777   1.904   3.355   5.800
 3626SOL    HW211778   1.966   3.441   5.925
 3627SOL     OW11779   4.155   3.601   4.551
 3627SOL    HW111780   4.140   3.502   4.553
 3627SOL    HW211781   4.144   3.635   4.458
 3628SOL     OW11782   3.094   5.513   3.706
 3628SOL    HW111783   3.191   5.533   3.694
 3628SOL    HW211784   3.078   5.477   3.798
 3629SOL     OW11785   5.782   3.539   4.903
 3629SOL    HW111786   5.882   3.545   4.896
 3629SOL    HW211787   5.752   3.451   4.866
 3630SOL     OW11788   5.959   1.748   4.806
 3630SOL    HW111789   6.003   1.807   4.874
 3630SOL    HW211790   6.020   1.734   4.729
 3631SOL     OW11791   1.876   0.799   4.283
 3631SOL    HW111792   1.865   0.894   4.252
 3631SOL    HW211793   1.930   0.749   4.215
 3632SOL     OW11794   5.050   6.456   6.149
 3632SOL    HW111795   5.105   6.422   6.225
 3632SOL    HW211796   5.095   6.537   6.110
 3633SOL     OW11797   0.559   2.583   5.584
 3633SOL    HW111798   0.592   2.598   5.677
 3633SOL    HW211799   0.481   2.520   5.586
 3634SOL     OW11800   2.703   4.824   6.341
 3634SOL    HW111801   2.702   4.741   6.397
 3634SOL    HW211802   2.616   4.871   6.348
 3635SOL     OW11803   2.058   1.869   4.234
 3635SOL    HW111804   2.064   1.823   4.146
 3635SOL    HW211805   2.074   1.967   4.222
 3636SOL     OW11806   1.023   6.879   1.581
 3636SOL    HW111807   1.076   6.887   1.497
 3636SOL    HW211808   1.065   6.812   1.641
 3637SOL     OW11809   5.286   1.503   2.530
 3637SOL    HW111810   5.288   1.596   2.567
 3637SOL    HW211811   5.202   1.458   2.558
 3638SOL     OW11812   6.968   4.749   3.165
 3638SOL    HW111813   6.987   4.807   3.085
 3638SOL    HW211814   6.975   4.653   3.139
 3639SOL     OW11815   2.841   6.143   6.698
 3639SOL    HW111816   2.794   6.223   6.736
 3639SOL    HW211817   2.940   6.156   6.705
 3640SOL     OW11818   2.257   6.592   2.553
 3640SOL    HW111819   2.231   6.684   2.580
 3640SOL    HW211820   2.235   6.528   2.626
 3641SOL     OW11821   1.867   1.206   5.281
 3641SOL    HW111822   1.893   1.152   5.361
 3641SOL    HW211823   1.778   1.175   5.247
 3642SOL     OW11824   6.228   0.114   2.539
 3642SOL    HW111825   6.279   0.199   2.554
 3642SOL    HW211826   6.281   0.036   2.571
 3643SOL     OW11827   4.030   6.655   4.018
 3643SOL    HW111828   3.941   6.616   3.996
 3643SOL    HW211829   4.101   6.584   4.007
 3644SOL     OW11830   5.824   0.373   1.797
 3644SOL    HW111831   5.757   0.395   1.867
 3644SOL    HW211832   5.837   0.452   1.737
 3645SOL     OW11833   4.620   5.589   3.955
 3645SOL    HW111834   4.526   5.623   3.951
 3645SOL    HW211835   4.634   5.538   4.040
 3646SOL     OW11836   0.656   5.288   5.133
 3646SOL    HW111837   0.636   5.352   5.058
 3646SOL    HW211838   0.746   5.308   5.172
 3647SOL     OW11839   3.259   3.134   0.914
 3647SOL    HW111840   3.278   3.197   0.989
 3647SOL    HW211841   3.188   3.068   0.942
 3648SOL     OW11842   2.787   6.239   3.289
 3648SOL    HW111843   2.768   6.160   3.231
 3648SOL    HW211844   2.754   6.220   3.382
 3649SOL     OW11845   3.440   2.880   3.060
 3649SOL    HW111846   3.341   2.884   3.048
 3649SOL    HW211847   3.462   2.874   3.157
 3650SOL     OW11848   5.445   6.300   1.760
 3650SOL    HW111849   5.499   6.216   1.765
 3650SOL    HW211850   5.503   6.376   1.729
 3651SOL     OW11851   1.632   5.498   1.687
 3651SOL    HW111852   1.692   5.542   1.620
 3651SOL    HW211853   1.618   5.402   1.660
 3652SOL     OW11854   4.328   6.154   3.936
 3652SOL    HW111855   4.270   6.107   3.869
 3652SOL    HW211856   4.293   6.138   4.028
 3653SOL     OW11857   0.710   3.607   3.510
 3653SOL    HW111858   0.686   3.659   3.592
 3653SOL    HW211859   0.680   3.512   3.522
 3654SOL     OW11860   2.029   6.858   2.165
 3654SOL    HW111861   2.083   6.942   2.153
 3654SOL    HW211862   2.012   6.816   2.076
 3655SOL     OW11863   6.394   0.927   3.801
 3655SOL    HW111864   6.484   0.922   3.758
 3655SOL    HW211865   6.405   0.931   3.900
 3656SOL     OW11866   2.013   1.856   3.034
 3656SOL    HW111867   2.037   1.765   3.068
 3656SOL    HW211868   2.092   1.917   3.041
 3657SOL     OW11869   5.642   5.181   1.426
 3657SOL    HW111870   5.661   5.268   1.471
 3657SOL    HW211871   5.659   5.106   1.490
 3658SOL     OW11872   2.865   4.447   5.542
 3658SOL    HW111873   2.807   4.463   5.462
 3658SOL    HW211874   2.942   4.510   5.540
 3659SOL     OW11875   1.447   3.747   6.141
 3659SOL    HW111876   1.482   3.822   6.197
 3659SOL    HW211877   1.351   3.765   6.119
 3660SOL     OW11878   4.905   4.086   0.843
 3660SOL    HW111879   4.876   4.059   0.934
 3660SOL    HW211880   4.882   4.182   0.827
 3661SOL     OW11881   5.671   1.109   1.995
 3661SOL    HW111882   5.692   1.158   1.910
 3661SOL    HW211883   5.694   1.012   1.983
 3662SOL     OW11884   1.536   6.550   4.165
 3662SOL    HW111885   1.542   6.450   4.166
 3662SOL    HW211886   1.557   6.585   4.074
 3663SOL     OW11887   2.418   2.349   5.927
 3663SOL    HW111888   2.414   2.436   5.879
 3663SOL    HW211889   2.388   2.276   5.866
 3664SOL     OW11890   3.812   0.437   2.361
 3664SOL    HW111891   3.899   0.439   2.410
 3664SOL    HW211892   3.738   0.413   2.424
 3665SOL     OW11893   2.429   1.539   5.494
 3665SOL    HW111894   2.474   1.612   5.443
 3665SOL    HW211895   2.442   1.554   5.592
 3666SOL     OW11896   0.854   4.600   3.198
 3666SOL    HW111897   0.804   4.657   3.263
 3666SOL    HW211898   0.790   4.537   3.153
 3667SOL     OW11899   6.825   1.047   7.017
 3667SOL    HW111900   6.754   1.059   0.061
 3667SOL    HW211901   6.867   0.957   0.003
 3668SOL     OW11902   1.999   6.859   1.549
 3668SOL    HW111903   2.042   6.915   1.620
 3668SOL    HW211904   2.050   6.870   1.463
 3669SOL     OW11905   5.388   1.597   4.234
 3669SOL    HW111906   5.391   1.521   4.299
 3669SOL    HW211907   5.357   1.563   4.145
 3670SOL     OW11908   3.240   4.959   5.808
 3670SOL    HW111909   3.145   4.989   5.799
 3670SOL    HW211910   3.285   4.965   5.720
 3671SOL     OW11911   2.025   1.324   3.309
 3671SOL    HW111912   2.092   1.318   3.383
 3671SOL    HW211913   1.979   1.235   3.299
 3672SOL     OW11914   6.347   6.262   0.290
 3672SOL    HW111915   6.375   6.243   0.384
 3672SOL    HW211916   6.352   6.360   0.273
 3673SOL     OW11917   4.179   0.204   6.489
 3673SOL    HW111918   4.128   0.277   6.443
 3673SOL    HW211919   4.250   0.169   6.428
 3674SOL     OW11920   0.999   6.335   0.853
 3674SOL    HW111921   0.966   6.424   0.821
 3674SOL    HW211922   0.943   6.305   0.930
 3675SOL     OW11923   2.400   2.129   4.169
 3675SOL    HW111924   2.379   2.199   4.238
 3675SOL    HW211925   2.374   2.162   4.079
 3676SOL     OW11926   1.347   5.262   2.626
 3676SOL    HW111927   1.319   5.235   2.533
 3676SOL    HW211928   1.323   5.357   2.642
 3677SOL     OW11929   6.090   0.823   3.424
 3677SOL    HW111930   6.007   0.770   3.439
 3677SOL    HW211931   6.082   0.875   3.339
 3678SOL     OW11932   0.607   2.632   4.018
 3678SOL    HW111933   0.617   2.546   4.069
 3678SOL    HW211934   0.537   2.689   4.062
 3679SOL     OW11935   6.197   1.426   1.912
 3679SOL    HW111936   6.140   1.452   1.990
 3679SOL    HW211937   6.138   1.408   1.833
 3680SOL     OW11938   6.143   4.420   4.705
 3680SOL    HW111939   6.226   4.410   4.651
 3680SOL    HW211940   6.148   4.504   4.759
 3681SOL     OW11941   5.321   0.447   5.320
 3681SOL    HW111942   5.290   0.507   5.394
 3681SOL    HW211943   5.242   0.416   5.267
 3682SOL     OW11944   6.980   1.714   6.948
 3682SOL    HW111945   7.022   1.805   6.953
 3682SOL    HW211946   0.004   1.659   6.880
 3683SOL     OW11947   5.126   6.545   3.461
 3683SOL    HW111948   5.077   6.626   3.430
 3683SOL    HW211949   5.208   6.573   3.511
 3684SOL     OW11950   2.367   4.203   1.814
 3684SOL    HW111951   2.321   4.217   1.726
 3684SOL    HW211952   2.299   4.204   1.887
 3685SOL     OW11953   5.603   5.835   5.419
 3685SOL    HW111954   5.630   5.858   5.326
 3685SOL    HW211955   5.504   5.846   5.429
 3686SOL     OW11956   0.342   3.941   0.395
 3686SOL    HW111957   0.258   3.894   0.422
 3686SOL    HW211958   0.329   4.040   0.402
 3687SOL     OW11959   4.104   0.865   0.568
 3687SOL    HW111960   4.101   0.832   0.662
 3687SOL    HW211961   4.146   0.956   0.566
 3688SOL     OW11962   0.235   3.092   0.158
 3688SOL    HW111963   0.175   3.091   0.078
 3688SOL    HW211964   0.227   3.004   0.206
 3689SOL     OW11965   1.934   6.354   3.775
 3689SOL    HW111966   1.980   6.272   3.808
 3689SOL    HW211967   1.880   6.395   3.849
 3690SOL     OW11968   4.879   5.005   5.687
 3690SOL    HW111969   4.957   5.040   5.634
 3690SOL    HW211970   4.904   4.917   5.728
 3691SOL     OW11971   3.263   3.213   6.291
 3691SOL    HW111972   3.295   3.258   6.208
 3691SOL    HW211973   3.173   3.248   6.316
 3692SOL     OW11974   6.702   0.524   5.231
 3692SOL    HW111975   6.623   0.568   5.187
 3692SOL    HW211976   6.783   0.535   5.173
 3693SOL     OW11977   1.315   1.148   3.880
 3693SOL    HW111978   1.317   1.239   3.922
 3693SOL    HW211979   1.222   1.128   3.849
 3694SOL     OW11980   1.864   4.938   3.877
 3694SOL    HW111981   1.807   4.881   3.936
 3694SOL    HW211982   1.932   4.986   3.932
 3695SOL     OW11983   2.103   2.550   0.582
 3695SOL    HW111984   2.008   2.566   0.612
 3695SOL    HW211985   2.148   2.638   0.568
 3696SOL     OW11986   3.010   6.094   5.644
 3696SOL    HW111987   3.033   6.048   5.730
 3696SOL    HW211988   3.035   6.035   5.568
 3697SOL     OW11989   5.420   1.013   3.335
 3697SOL    HW111990   5.497   1.064   3.373
 3697SOL    HW211991   5.337   1.034   3.386
 3698SOL     OW11992   2.979   6.831   6.194
 3698SOL    HW111993   2.984   6.754   6.131
 3698SOL    HW211994   3.071   6.865   6.212
 3699SOL     OW11995   0.894   5.273   2.245
 3699SOL    HW111996   0.951   5.191   2.238
 3699SOL    HW211997   0.941   5.343   2.299
 3700SOL     OW11998   6.286   0.518   3.764
 3700SOL    HW111999   6.287   0.578   3.684
 3700SOL    HW212000   6.191   0.495   3.787
 3701SOL     OW12001   4.387   1.313   3.851
 3701SOL    HW112002   4.413   1.217   3.858
 3701SOL    HW212003   4.289   1.322   3.868
 3702SOL     OW12004   4.761   1.657   6.367
 3702SOL    HW112005   4.753   1.569   6.321
 3702SOL    HW212006   4.682   1.714   6.345
 3703SOL     OW12007   3.962   4.687   1.194
 3703SOL    HW112008   3.983   4.668   1.290
 3703SOL    HW212009   4.047   4.708   1.145
 3704SOL     OW12010   3.070   6.430   1.275
 3704SOL    HW112011   2.972   6.442   1.259
 3704SOL    HW212012   3.114   6.519   1.285
 3705SOL     OW12013   6.982   0.827   4.354
 3705SOL    HW112014   6.995   0.926   4.345
 3705SOL    HW212015   6.981   0.785   4.264
 3706SOL     OW12016   2.577   2.002   3.296
 3706SOL    HW112017   2.653   2.062   3.323
 3706SOL    HW212018   2.496   2.023   3.351
 3707SOL     OW12019   4.258   2.352   5.554
 3707SOL    HW112020   4.355   2.340   5.575
 3707SOL    HW212021   4.204   2.344   5.638
 3708SOL     OW12022   6.683   0.491   0.181
 3708SOL    HW112023   6.764   0.435   0.201
 3708SOL    HW212024   6.712   0.581   0.149
 3709SOL     OW12025   0.047   6.476   6.456
 3709SOL    HW112026   0.067   6.530   6.538
 3709SOL    HW212027   7.015   6.529   6.394
 3710SOL     OW12028   0.629   5.141   6.288
 3710SOL    HW112029   0.719   5.151   6.331
 3710SOL    HW212030   0.638   5.147   6.189
 3711SOL     OW12031   6.762   5.335   2.066
 3711SOL    HW112032   6.687   5.326   2.000
 3711SOL    HW212033   6.760   5.258   2.130
 3712SOL     OW12034   1.196   6.585   6.420
 3712SOL    HW112035   1.165   6.521   6.350
 3712SOL    HW212036   1.173   6.678   6.393
 3713SOL     OW12037   3.563   4.941   6.050
 3713SOL    HW112038   3.654   4.902   6.062
 3713SOL    HW212039   3.570   5.030   6.005
 3714SOL     OW12040   4.736   2.086   5.101
 3714SOL    HW112041   4.638   2.084   5.123
 3714SOL    HW212042   4.762   2.000   5.057
 3715SOL     OW12043   4.936   4.087   3.592
 3715SOL    HW112044   5.001   4.162   3.604
 3715SOL    HW212045   4.844   4.117   3.617
 3716SOL     OW12046   0.977   1.086   4.700
 3716SOL    HW112047   0.951   0.991   4.716
 3716SOL    HW212048   1.064   1.105   4.747
 3717SOL     OW12049   5.917   0.638   6.897
 3717SOL    HW112050   5.821   0.613   6.886
 3717SOL    HW212051   5.975   0.575   6.846
 3718SOL     OW12052   0.666   6.201   6.245
 3718SOL    HW112053   0.624   6.245   6.165
 3718SOL    HW212054   0.594   6.174   6.309
 3719SOL     OW12055   3.316   4.197   0.378
 3719SOL    HW112056   3.407   4.191   0.336
 3719SOL    HW212057   3.309   4.282   0.430
 3720SOL     OW12058   6.966   1.201   6.447
 3720SOL    HW112059   6.886   1.142   6.459
 3720SOL    HW212060   6.996   1.234   6.536
 3721SOL     OW12061   4.941   3.191   0.253
 3721SOL    HW112062   4.939   3.199   0.353
 3721SOL    HW212063   4.850   3.207   0.217
 3722SOL     OW12064   4.355   5.914   1.121
 3722SOL    HW112065   4.375   5.998   1.170
 3722SOL    HW212066   4.315   5.936   1.032
 3723SOL     OW12067   4.451   1.215   0.649
 3723SOL    HW112068   4.545   1.211   0.617
 3723SOL    HW212069   4.443   1.283   0.722
 3724SOL     OW12070   0.824   4.104   6.251
 3724SOL    HW112071   0.783   4.193   6.268
 3724SOL    HW212072   0.755   4.033   6.258
 3725SOL     OW12073   5.303   6.169   1.520
 3725SOL    HW112074   5.341   6.198   1.608
 3725SOL    HW212075   5.326   6.236   1.450
 3726SOL     OW12076   6.258   3.338   1.902
 3726SOL    HW112077   6.181   3.354   1.840
 3726SOL    HW212078   6.236   3.375   1.992
 3727SOL     OW12079   2.900   2.909   5.515
 3727SOL    HW112080   2.927   2.830   5.571
 3727SOL    HW212081   2.966   2.922   5.442
 3728SOL     OW12082   0.661   3.852   6.422
 3728SOL    HW112083   0.617   3.762   6.421
 3728SOL    HW212084   0.593   3.922   6.400
 3729SOL     OW12085   0.929   3.395   3.816
 3729SOL    HW112086   0.918   3.295   3.815
 3729SOL    HW212087   0.871   3.434   3.888
 3730SOL     OW12088   2.324   7.016   1.570
 3730SOL    HW112089   2.391   0.064   1.580
 3730SOL    HW212090   2.362   6.943   1.514
 3731SOL     OW12091   2.535   5.865   0.474
 3731SOL    HW112092   2.625   5.824   0.457
 3731SOL    HW212093   2.478   5.801   0.524
 3732SOL     OW12094   2.112   3.720   4.281
 3732SOL    HW112095   2.021   3.755   4.261
 3732SOL    HW212096   2.122   3.628   4.242
 3733SOL     OW12097   3.296   3.075   1.758
 3733SOL    HW112098   3.300   3.152   1.694
 3733SOL    HW212099   3.227   3.009   1.726
 3734SOL     OW12100   4.053   1.535   3.211
 3734SOL    HW112101   4.124   1.471   3.181
 3734SOL    HW212102   4.001   1.494   3.286
 3735SOL     OW12103   3.983   2.163   1.958
 3735SOL    HW112104   3.991   2.066   1.932
 3735SOL    HW212105   3.888   2.183   1.982
 3736SOL     OW12106   4.677   0.942   6.185
 3736SOL    HW112107   4.744   1.015   6.169
 3736SOL    HW212108   4.719   0.869   6.239
 3737SOL     OW12109   2.957   7.022   3.710
 3737SOL    HW112110   2.940   0.019   3.807
 3737SOL    HW212111   3.009   0.072   3.668
 3738SOL     OW12112   0.369   0.774   4.604
 3738SOL    HW112113   0.292   0.759   4.667
 3738SOL    HW212114   0.427   0.692   4.604
 3739SOL     OW12115   0.177   3.302   0.791
 3739SOL    HW112116   0.124   3.351   0.721
 3739SOL    HW212117   0.233   3.231   0.748
 3740SOL     OW12118   5.838   6.770   6.928
 3740SOL    HW112119   5.904   6.805   6.994
 3740SOL    HW212120   5.756   6.826   6.930
 3741SOL     OW12121   3.535   1.149   0.235
 3741SOL    HW112122   3.606   1.215   0.259
 3741SOL    HW212123   3.497   1.110   0.319
 3742SOL     OW12124   3.628   3.521   5.923
 3742SOL    HW112125   3.677   3.514   6.011
 3742SOL    HW212126   3.653   3.607   5.879
 3743SOL     OW12127   0.808   5.958   5.817
 3743SOL    HW112128   0.832   5.864   5.842
 3743SOL    HW212129   0.710   5.962   5.797
 3744SOL     OW12130   6.536   4.934   3.089
 3744SOL    HW112131   6.479   4.875   3.146
 3744SOL    HW212132   6.625   4.890   3.073
 3745SOL     OW12133   5.138   4.803   1.219
 3745SOL    HW112134   5.114   4.833   1.127
 3745SOL    HW212135   5.229   4.835   1.242
 3746SOL     OW12136   4.121   1.437   1.340
 3746SOL    HW112137   4.057   1.472   1.272
 3746SOL    HW212138   4.118   1.337   1.340
 3747SOL     OW12139   2.669   6.763   1.176
 3747SOL    HW112140   2.756   6.785   1.133
 3747SOL    HW212141   2.623   6.692   1.122
 3748SOL     OW12142   5.773   0.617   1.611
 3748SOL    HW112143   5.807   0.663   1.529
 3748SOL    HW212144   5.770   0.682   1.686
 3749SOL     OW12145   0.727   0.557   3.837
 3749SOL    HW112146   0.711   0.642   3.788
 3749SOL    HW212147   0.682   0.561   3.926
 3750SOL     OW12148   0.602   3.905   6.898
 3750SOL    HW112149   0.590   3.822   6.951
 3750SOL    HW212150   0.685   3.953   6.929
 3751SOL     OW12151   1.817   5.185   1.912
 3751SOL    HW112152   1.802   5.147   1.820
 3751SOL    HW212153   1.733   5.177   1.966
 3752SOL     OW12154   5.340   5.331   6.450
 3752SOL    HW112155   5.243   5.355   6.448
 3752SOL    HW212156   5.368   5.297   6.360
 3753SOL     OW12157   0.110   1.139   3.544
 3753SOL    HW112158   0.128   1.146   3.642
 3753SOL    HW212159   0.173   1.073   3.503
 3754SOL     OW12160   3.592   1.761   1.490
 3754SOL    HW112161   3.503   1.808   1.491
 3754SOL    HW212162   3.646   1.794   1.412
 3755SOL     OW12163   2.765   5.600   3.795
 3755SOL    HW112164   2.723   5.650   3.870
 3755SOL    HW212165   2.857   5.571   3.822
 3756SOL     OW12166   1.279   6.409   0.653
 3756SOL    HW112167   1.258   6.332   0.713
 3756SOL    HW212168   1.246   6.493   0.693
 3757SOL     OW12169   0.652   5.307   0.270
 3757SOL    HW112170   0.590   5.367   0.320
 3757SOL    HW212171   0.724   5.274   0.331
 3758SOL     OW12172   0.550   6.010   4.187
 3758SOL    HW112173   0.508   5.929   4.228
 3758SOL    HW212174   0.532   6.010   4.089
 3759SOL     OW12175   4.748   0.513   3.931
 3759SOL    HW112176   4.654   0.541   3.950
 3759SOL    HW212177   4.807   0.594   3.932
 3760SOL     OW12178   0.695   0.970   3.316
 3760SOL    HW112179   0.678   0.993   3.220
 3760SOL    HW212180   0.608   0.950   3.361
 3761SOL     OW12181   4.537   1.403   4.929
 3761SOL    HW112182   4.510   1.498   4.914
 3761SOL    HW212183   4.508   1.348   4.850
 3762SOL     OW12184   0.216   2.293   3.512
 3762SOL    HW112185   0.235   2.376   3.564
 3762SOL    HW212186   0.128   2.302   3.465
 3763SOL     OW12187   0.999   6.722   6.754
 3763SOL    HW112188   0.998   6.813   6.795
 3763SOL    HW212189   0.949   6.725   6.667
 3764SOL     OW12190   3.831   1.326   2.488
 3764SOL    HW112191   3.930   1.324   2.470
 3764SOL    HW212192   3.813   1.389   2.564
 3765SOL     OW12193   5.766   3.843   2.572
 3765SOL    HW112194   5.770   3.914   2.502
 3765SOL    HW212195   5.696   3.776   2.548
 3766SOL     OW12196   2.145   3.031   2.172
 3766SOL    HW112197   2.180   3.124   2.188
 3766SOL    HW212198   2.179   2.998   2.084
 3767SOL     OW12199   1.562   6.355   6.152
 3767SOL    HW112200   1.636   6.416   6.122
 3767SOL    HW212201   1.535   6.296   6.076
 3768SOL     OW12202   2.088   6.912   3.715
 3768SOL    HW112203   2.135   6.840   3.766
 3768SOL    HW212204   2.032   6.966   3.778
 3769SOL     OW12205   5.260   4.954   5.672
 3769SOL    HW112206   5.350   4.974   5.634
 3769SOL    HW212207   5.249   5.001   5.759
 3770SOL     OW12208   2.759   6.512   0.816
 3770SOL    HW112209   2.821   6.567   0.760
 3770SOL    HW212210   2.771   6.415   0.793
 3771SOL     OW12211   6.551   6.094   5.965
 3771SOL    HW112212   6.615   6.120   6.036
 3771SOL    HW212213   6.457   6.103   5.999
 3772SOL     OW12214   3.334   5.562   2.006
 3772SOL    HW112215   3.282   5.476   2.012
 3772SOL    HW212216   3.307   5.621   2.082
 3773SOL     OW12217   5.089   4.273   6.866
 3773SOL    HW112218   5.177   4.256   6.821
 3773SOL    HW212219   5.103   4.333   6.945
 3774SOL     OW12220   0.048   4.666   0.535
 3774SOL    HW112221   0.086   4.652   0.627
 3774SOL    HW212222   7.017   4.749   0.535
 3775SOL     OW12223   5.504   6.758   5.000
 3775SOL    HW112224   5.458   6.679   4.958
 3775SOL    HW212225   5.601   6.737   5.013
 3776SOL     OW12226   4.267   2.703   6.795
 3776SOL    HW112227   4.273   2.777   6.729
 3776SOL    HW212228   4.308   2.731   6.882
 3777SOL     OW12229   3.443   4.985   3.357
 3777SOL    HW112230   3.476   4.945   3.443
 3777SOL    HW212231   3.434   5.084   3.369
 3778SOL     OW12232   3.071   5.802   6.513
 3778SOL    HW112233   3.120   5.843   6.436
 3778SOL    HW212234   3.091   5.704   6.517
 3779SOL     OW12235   0.035   5.015   5.820
 3779SOL    HW112236   0.091   5.001   5.902
 3779SOL    HW212237   0.088   5.064   5.752
 3780SOL     OW12238   5.968   2.441   1.663
 3780SOL    HW112239   5.879   2.458   1.621
 3780SOL    HW212240   6.029   2.398   1.597
 3781SOL     OW12241   1.268   0.034   6.258
 3781SOL    HW112242   1.288   0.067   6.350
 3781SOL    HW212243   1.352   0.030   6.205
 3782SOL     OW12244   3.696   5.260   6.724
 3782SOL    HW112245   3.728   5.346   6.765
 3782SOL    HW212246   3.726   5.256   6.628
 3783SOL     OW12247   4.614   5.078   5.230
 3783SOL    HW112248   4.626   5.154   5.293
 3783SOL    HW212249   4.533   5.025   5.256
 3784SOL     OW12250   5.510   3.521   4.622
 3784SOL    HW112251   5.434   3.584   4.605
 3784SOL    HW212252   5.509   3.493   4.718
 3785SOL     OW12253   0.700   3.232   2.579
 3785SOL    HW112254   0.793   3.218   2.545
 3785SOL    HW212255   0.659   3.143   2.602
 3786SOL     OW12256   3.056   2.854   5.915
 3786SOL    HW112257   2.981   2.919   5.901
 3786SOL    HW212258   3.025   2.780   5.975
 3787SOL     OW12259   4.869   6.223   4.989
 3787SOL    HW112260   4.802   6.189   5.055
 3787SOL    HW212261   4.933   6.149   4.967
 3788SOL     OW12262   5.520   3.294   6.177
 3788SOL    HW112263   5.584   3.314   6.103
 3788SOL    HW212264   5.509   3.195   6.185
 3789SOL     OW12265   2.068   4.194   0.950
 3789SOL    HW112266   2.133   4.118   0.941
 3789SOL    HW212267   2.118   4.280   0.961
 3790SOL     OW12268   2.134   6.989   1.767
 3790SOL    HW112269   2.218   6.997   1.714
 3790SOL    HW212270   2.115   0.051   1.813
 3791SOL     OW12271   4.809   0.529   4.294
 3791SOL    HW112272   4.797   0.441   4.248
 3791SOL    HW212273   4.829   0.599   4.225
 3792SOL     OW12274   6.287   0.293   3.133
 3792SOL    HW112275   6.285   0.340   3.221
 3792SOL    HW212276   6.379   0.256   3.117
 3793SOL     OW12277   4.855   3.438   6.992
 3793SOL    HW112278   4.947   3.422   6.957
 3793SOL    HW212279   4.833   3.536   6.984
 3794SOL     OW12280   1.406   5.257   5.716
 3794SOL    HW112281   1.441   5.238   5.807
 3794SOL    HW212282   1.360   5.175   5.680
 3795SOL     OW12283   3.153   6.142   0.573
 3795SOL    HW112284   3.201   6.070   0.623
 3795SOL    HW212285   3.147   6.225   0.629
 3796SOL     OW12286   5.273   0.847   6.955
 3796SOL    HW112287   5.238   0.881   0.017
 3796SOL    HW212288   5.240   0.754   6.941
 3797SOL     OW12289   6.898   2.259   0.970
 3797SOL    HW112290   6.940   2.330   1.026
 3797SOL    HW212291   6.799   2.265   0.978
 3798SOL     OW12292   0.296   4.436   4.265
 3798SOL    HW112293   0.394   4.419   4.280
 3798SOL    HW212294   0.284   4.522   4.215
 3799SOL     OW12295   6.772   1.852   2.498
 3799SOL    HW112296   6.810   1.926   2.444
 3799SOL    HW212297   6.789   1.765   2.453
 3800SOL     OW12298   5.218   3.682   2.432
 3800SOL    HW112299   5.130   3.690   2.386
 3800SOL    HW212300   5.288   3.652   2.367
 3801SOL     OW12301   5.596   1.599   1.176
 3801SOL    HW112302   5.547   1.511   1.176
 3801SOL    HW212303   5.629   1.618   1.268
 3802SOL     OW12304   6.249   3.552   3.234
 3802SOL    HW112305   6.274   3.493   3.157
 3802SOL    HW212306   6.224   3.642   3.200
 3803SOL     OW12307   3.668   4.269   6.194
 3803SOL    HW112308   3.631   4.228   6.277
 3803SOL    HW212309   3.612   4.243   6.116
 3804SOL     OW12310   3.075   6.126   2.918
 3804SOL    HW112311   3.039   6.167   3.002
 3804SOL    HW212312   3.098   6.030   2.936
 3805SOL     OW12313   2.724   1.908   6.753
 3805SOL    HW112314   2.741   1.844   6.678
 3805SOL    HW212315   2.700   1.856   6.835
 3806SOL     OW12316   1.621   3.582   2.270
 3806SOL    HW112317   1.664   3.651   2.329
 3806SOL    HW212318   1.581   3.627   2.191
 3807SOL     OW12319   0.427   4.177   4.097
 3807SOL    HW112320   0.398   4.258   4.047
 3807SOL    HW212321   0.346   4.124   4.124
 3808SOL     OW12322   2.797   6.404   5.826
 3808SOL    HW112323   2.722   6.337   5.821
 3808SOL    HW212324   2.775   6.482   5.767
 3809SOL     OW12325   5.353   1.420   1.422
 3809SOL    HW112326   5.421   1.427   1.495
 3809SOL    HW212327   5.299   1.337   1.435
 3810SOL     OW12328   4.966   2.188   3.810
 3810SOL    HW112329   4.998   2.192   3.905
 3810SOL    HW212330   5.011   2.112   3.763
 3811SOL     OW12331   7.001   5.829   5.101
 3811SOL    HW112332   6.959   5.738   5.090
 3811SOL    HW212333   0.009   5.839   5.195
 3812SOL     OW12334   3.903   5.719   0.059
 3812SOL    HW112335   3.918   5.772   0.142
 3812SOL    HW212336   3.844   5.770   7.022
 3813SOL     OW12337   6.623   3.366   6.834
 3813SOL    HW112338   6.643   3.426   6.912
 3813SOL    HW212339   6.560   3.411   6.772
 3814SOL     OW12340   6.425   0.508   5.249
 3814SOL    HW112341   6.389   0.456   5.327
 3814SOL    HW212342   6.413   0.606   5.265
 3815SOL     OW12343   5.086   2.023   5.348
 3815SOL    HW112344   5.121   1.985   5.263
 3815SOL    HW212345   5.159   2.027   5.416
 3816SOL     OW12346   6.913   6.452   1.517
 3816SOL    HW112347   6.923   6.462   1.616
 3816SOL    HW212348   6.894   6.542   1.476
 3817SOL     OW12349   3.779   3.819   2.724
 3817SOL    HW112350   3.723   3.902   2.714
 3817SOL    HW212351   3.729   3.752   2.779
 3818SOL     OW12352   4.371   5.575   2.397
 3818SOL    HW112353   4.467   5.588   2.424
 3818SOL    HW212354   4.329   5.664   2.382
 3819SOL     OW12355   6.327   3.466   2.969
 3819SOL    HW112356   6.401   3.506   2.916
 3819SOL    HW212357   6.343   3.368   2.980
 3820SOL     OW12358   2.956   6.220   6.081
 3820SOL    HW112359   2.994   6.308   6.053
 3820SOL    HW212360   3.019   6.175   6.145
 3821SOL     OW12361   1.728   6.642   1.351
 3821SOL    HW112362   1.771   6.726   1.319
 3821SOL    HW212363   1.788   6.596   1.416
 3822SOL     OW12364   5.764   7.005   1.612
 3822SOL    HW112365   5.672   7.002   1.652
 3822SOL    HW212366   5.812   6.920   1.632
 3823SOL     OW12367   5.239   5.751   4.686
 3823SOL    HW112368   5.224   5.750   4.587
 3823SOL    HW212369   5.251   5.845   4.718
 3824SOL     OW12370   1.860   2.612   0.690
 3824SOL    HW112371   1.879   2.603   0.788
 3824SOL    HW212372   1.809   2.696   0.674
 3825SOL     OW12373   0.324   4.575   5.707
 3825SOL    HW112374   0.297   4.515   5.782
 3825SOL    HW212375   0.351   4.664   5.744
 3826SOL     OW12376   5.009   4.127   3.962
 3826SOL    HW112377   5.033   4.217   3.925
 3826SOL    HW212378   5.086   4.064   3.947
 3827SOL     OW12379   0.584   1.402   7.011
 3827SOL    HW112380   0.673   1.368   0.017
 3827SOL    HW212381   0.511   1.344   0.022
 3828SOL     OW12382   3.083   3.691   5.210
 3828SOL    HW112383   3.016   3.684   5.136
 3828SOL    HW212384   3.037   3.677   5.298
 3829SOL     OW12385   6.857   3.049   1.354
 3829SOL    HW112386   6.953   3.024   1.364
 3829SOL    HW212387   6.803   2.968   1.331
 3830SOL     OW12388   5.348   6.661   3.534
 3830SOL    HW112389   5.346   6.686   3.631
 3830SOL    HW212390   5.375   6.740   3.480
 3831SOL     OW12391   5.270   2.735   3.801
 3831SOL    HW112392   5.351   2.677   3.793
 3831SOL    HW212393   5.200   2.704   3.737
 3832SOL     OW12394   6.443   1.254   3.974
 3832SOL    HW112395   6.420   1.213   3.886
 3832SOL    HW212396   6.456   1.352   3.964
 3833SOL     OW12397   2.039   2.978   6.150
 3833SOL    HW112398   2.022   2.924   6.068
 3833SOL    HW212399   1.963   3.041   6.166
 3834SOL     OW12400   4.724   4.753   0.861
 3834SOL    HW112401   4.747   4.739   0.957
 3834SOL    HW212402   4.783   4.824   0.822
 3835SOL     OW12403   4.684   5.166   4.324
 3835SOL    HW112404   4.750   5.109   4.275
 3835SOL    HW212405   4.599   5.171   4.273
 3836SOL     OW12406   0.111   0.063   4.687
 3836SOL    HW112407   0.147   0.134   4.626
 3836SOL    HW212408   0.095   0.101   4.778
 3837SOL     OW12409   5.081   3.992   5.420
 3837SOL    HW112410   5.024   4.066   5.384
 3837SOL    HW212411   5.177   4.008   5.396
 3838SOL     OW12412   0.018   1.509   3.859
 3838SOL    HW112413   7.013   1.430   3.806
 3838SOL    HW212414   0.051   1.580   3.797
 3839SOL     OW12415   4.180   1.601   3.709
 3839SOL    HW112416   4.146   1.507   3.713
 3839SOL    HW212417   4.179   1.633   3.614
 3840SOL     OW12418   3.986   1.273   6.281
 3840SOL    HW112419   3.997   1.234   6.372
 3840SOL    HW212420   3.998   1.372   6.285
 3841SOL     OW12421   5.507   4.459   2.689
 3841SOL    HW112422   5.420   4.420   2.657
 3841SOL    HW212423   5.508   4.461   2.789
 3842SOL     OW12424   1.594   3.744   5.213
 3842SOL    HW112425   1.558   3.794   5.292
 3842SOL    HW212426   1.646   3.807   5.155
 3843SOL     OW12427   5.733   2.276   6.628
 3843SOL    HW112428   5.762   2.355   6.574
 3843SOL    HW212429   5.641   2.248   6.600
 3844SOL     OW12430   6.230   6.654   0.359
 3844SOL    HW112431   6.224   6.611   0.449
 3844SOL    HW212432   6.320   6.635   0.319
 3845SOL     OW12433   2.281   5.183   6.914
 3845SOL    HW112434   2.288   5.187   7.014
 3845SOL    HW212435   2.185   5.180   6.888
 3846SOL     OW12436   6.586   3.246   2.553
 3846SOL    HW112437   6.629   3.251   2.643
 3846SOL    HW212438   6.508   3.309   2.551
 3847SOL     OW12439   0.896   0.990   6.907
 3847SOL    HW112440   0.932   0.899   6.891
 3847SOL    HW212441   0.797   0.985   6.922
 3848SOL     OW12442   6.373   4.813   2.388
 3848SOL    HW112443   6.440   4.740   2.378
 3848SOL    HW212444   6.314   4.815   2.307
 3849SOL     OW12445   6.948   2.950   5.525
 3849SOL    HW112446   6.939   2.860   5.483
 3849SOL    HW212447   6.861   2.998   5.519
 3850SOL     OW12448   3.554   3.009   1.531
 3850SOL    HW112449   3.552   3.105   1.558
 3850SOL    HW212450   3.553   2.951   1.613
 3851SOL     OW12451   0.146   5.434   2.387
 3851SOL    HW112452   0.136   5.524   2.431
 3851SOL    HW212453   0.072   5.374   2.417
 3852SOL     OW12454   3.018   1.112   5.475
 3852SOL    HW112455   3.091   1.180   5.470
 3852SOL    HW212456   2.940   1.142   5.421
 3853SOL     OW12457   2.265   1.121   3.049
 3853SOL    HW112458   2.280   1.219   3.060
 3853SOL    HW212459   2.350   1.072   3.064
 3854SOL     OW12460   0.411   1.758   1.600
 3854SOL    HW112461   0.489   1.741   1.659
 3854SOL    HW212462   0.334   1.790   1.655
 3855SOL     OW12463   3.087   6.172   6.504
 3855SOL    HW112464   3.151   6.235   6.459
 3855SOL    HW212465   3.050   6.108   6.438
 3856SOL     OW12466   6.618   2.639   6.413
 3856SOL    HW112467   6.641   2.716   6.354
 3856SOL    HW212468   6.599   2.672   6.505
 3857SOL     OW12469   1.086   0.247   6.250
 3857SOL    HW112470   1.144   0.167   6.233
 3857SOL    HW212471   1.135   0.330   6.223
 3858SOL     OW12472   3.929   1.276   5.086
 3858SOL    HW112473   3.872   1.230   5.155
 3858SOL    HW212474   4.008   1.219   5.064
 3859SOL     OW12475   5.556   0.153   2.059
 3859SOL    HW112476   5.650   0.173   2.033
 3859SOL    HW212477   5.554   0.071   2.117
 3860SOL     OW12478   1.680   6.596   4.505
 3860SOL    HW112479   1.581   6.596   4.522
 3860SOL    HW212480   1.725   6.656   4.571
 3861SOL     OW12481   2.989   5.847   2.417
 3861SOL    HW112482   3.048   5.927   2.419
 3861SOL    HW212483   3.034   5.770   2.463
 3862SOL     OW12484   1.628   0.525   4.248
 3862SOL    HW112485   1.710   0.468   4.262
 3862SOL    HW212486   1.591   0.508   4.156
 3863SOL     OW12487   4.237   0.409   0.982
 3863SOL    HW112488   4.188   0.373   1.061
 3863SOL    HW212489   4.181   0.398   0.900
 3864SOL     OW12490   0.927   6.868   4.376
 3864SOL    HW112491   0.981   6.851   4.294
 3864SOL    HW212492   0.959   6.951   4.421
 3865SOL     OW12493   5.236   0.998   0.649
 3865SOL    HW112494   5.216   0.919   0.707
 3865SOL    HW212495   5.286   0.967   0.568
 3866SOL     OW12496   3.549   0.560   6.582
 3866SOL    HW112497   3.591   0.520   6.664
 3866SOL    HW212498   3.506   0.647   6.606
 3867SOL     OW12499   6.113   3.361   2.264
 3867SOL    HW112500   6.212   3.368   2.251
 3867SOL    HW212501   6.083   3.429   2.331
 3868SOL     OW12502   3.797   0.099   0.222
 3868SOL    HW112503   3.842   0.153   0.151
 3868SOL    HW212504   3.803   0.149   0.309
 3869SOL     OW12505   3.535   1.186   4.088
 3869SOL    HW112506   3.572   1.093   4.091
 3869SOL    HW212507   3.596   1.247   4.137
 3870SOL     OW12508   0.201   1.388   5.512
 3870SOL    HW112509   0.234   1.454   5.580
 3870SOL    HW212510   0.242   1.408   5.424
 3871SOL     OW12511   3.102   5.251   3.613
 3871SOL    HW112512   3.080   5.341   3.653
 3871SOL    HW212513   3.018   5.198   3.604
 3872SOL     OW12514   2.947   4.060   5.278
 3872SOL    HW112515   2.928   3.991   5.209
 3872SOL    HW212516   2.877   4.055   5.350
 3873SOL     OW12517   4.779   1.917   6.679
 3873SOL    HW112518   4.866   1.867   6.683
 3873SOL    HW212519   4.791   2.008   6.719
 3874SOL     OW12520   2.096   1.446   1.103
 3874SOL    HW112521   2.186   1.479   1.076
 3874SOL    HW212522   2.073   1.482   1.194
 3875SOL     OW12523   1.189   1.104   6.781
 3875SOL    HW112524   1.218   1.061   6.866
 3875SOL    HW212525   1.155   1.034   6.718
 3876SOL     OW12526   3.678   5.392   2.494
 3876SOL    HW112527   3.672   5.424   2.589
 3876SOL    HW212528   3.613   5.317   2.480
 3877SOL     OW12529   1.041   1.439   5.513
 3877SOL    HW112530   0.955   1.396   5.487
 3877SOL    HW212531   1.026   1.502   5.589
 3878SOL     OW12532   4.799   1.452   4.831
 3878SOL    HW112533   4.818   1.539   4.785
 3878SOL    HW212534   4.725   1.464   4.896
 3879SOL     OW12535   5.307   5.418   6.743
 3879SOL    HW112536   5.302   5.458   6.652
 3879SOL    HW212537   5.333   5.489   6.809
 3880SOL     OW12538   5.115   4.791   4.160
 3880SOL    HW112539   5.026   4.747   4.156
 3880SOL    HW212540   5.164   4.759   4.241
 3881SOL     OW12541   1.546   3.081   0.324
 3881SOL    HW112542   1.480   3.016   0.286
 3881SOL    HW212543   1.629   3.080   0.269
 3882SOL     OW12544   0.484   1.734   5.704
 3882SOL    HW112545   0.542   1.801   5.749
 3882SOL    HW212546   0.419   1.696   5.770
 3883SOL     OW12547   4.432   6.128   4.292
 3883SOL    HW112548   4.458   6.044   4.243
 3883SOL    HW212549   4.387   6.104   4.377
 3884SOL     OW12550   0.170   3.264   2.114
 3884SOL    HW112551   0.147   3.317   2.196
 3884SOL    HW212552   0.248   3.305   2.068
 3885SOL     OW12553   4.176   5.551   1.751
 3885SOL    HW112554   4.106   5.564   1.822
 3885SOL    HW212555   4.266   5.576   1.788
 3886SOL     OW12556   3.101   5.382   6.189
 3886SOL    HW112557   3.069   5.370   6.282
 3886SOL    HW212558   3.087   5.476   6.160
 3887SOL     OW12559   2.023   5.453   2.167
 3887SOL    HW112560   1.946   5.500   2.125
 3887SOL    HW212561   2.005   5.355   2.169
 3888SOL     OW12562   5.222   5.041   3.796
 3888SOL    HW112563   5.216   4.957   3.741
 3888SOL    HW212564   5.240   5.017   3.892
 3889SOL     OW12565   5.678   4.198   0.280
 3889SOL    HW112566   5.759   4.184   0.222
 3889SOL    HW212567   5.707   4.229   0.370
 3890SOL     OW12568   5.677   3.995   3.838
 3890SOL    HW112569   5.754   3.931   3.848
 3890SOL    HW212570   5.668   4.021   3.742
 3891SOL     OW12571   4.795   5.245   3.904
 3891SOL    HW112572   4.756   5.197   3.825
 3891SOL    HW212573   4.720   5.274   3.965
 3892SOL     OW12574   6.703   2.361   1.621
 3892SOL    HW112575   6.665   2.451   1.641
 3892SOL    HW212576   6.642   2.290   1.657
 3893SOL     OW12577   4.036   3.172   3.694
 3893SOL    HW112578   3.985   3.115   3.758
 3893SOL    HW212579   4.045   3.126   3.606
 3894SOL     OW12580   4.481   0.994   5.908
 3894SOL    HW112581   4.572   0.954   5.919
 3894SOL    HW212582   4.485   1.067   5.839
 3895SOL     OW12583   0.384   0.422   4.172
 3895SOL    HW112584   0.337   0.336   4.190
 3895SOL    HW212585   0.317   0.494   4.152
 3896SOL     OW12586   1.917   1.223   6.306
 3896SOL    HW112587   1.858   1.303   6.296
 3896SOL    HW212588   2.005   1.251   6.344
 3897SOL     OW12589   3.336   6.079   1.047
 3897SOL    HW112590   3.401   6.026   0.994
 3897SOL    HW212591   3.352   6.063   1.145
 3898SOL     OW12592   3.717   3.008   1.331
 3898SOL    HW112593   3.680   3.001   1.424
 3898SOL    HW212594   3.723   2.917   1.291
 3899SOL     OW12595   2.821   0.014   5.719
 3899SOL    HW112596   2.857   6.976   5.788
 3899SOL    HW212597   2.887   0.087   5.703
 3900SOL     OW12598   4.368   4.764   2.935
 3900SOL    HW112599   4.377   4.830   2.860
 3900SOL    HW212600   4.275   4.728   2.938
 3901SOL     OW12601   2.709   1.280   6.967
 3901SOL    HW112602   2.699   1.272   6.868
 3901SOL    HW212603   2.805   1.298   6.989
 3902SOL     OW12604   5.113   2.718   2.750
 3902SOL    HW112605   5.107   2.771   2.665
 3902SOL    HW212606   5.189   2.653   2.742
 3903SOL     OW12607   3.730   4.404   6.814
 3903SOL    HW112608   3.701   4.491   6.854
 3903SOL    HW212609   3.650   4.353   6.782
 3904SOL     OW12610   2.069   6.769   0.709
 3904SOL    HW112611   1.997   6.777   0.639
 3904SOL    HW212612   2.101   6.675   0.714
 3905SOL     OW12613   0.017   6.487   5.160
 3905SOL    HW112614   0.055   6.532   5.079
 3905SOL    HW212615   0.082   6.492   5.235
 3906SOL     OW12616   6.990   6.213   5.404
 3906SOL    HW112617   6.994   6.113   5.399
 3906SOL    HW212618   0.053   6.251   5.376
 3907SOL     OW12619   5.665   2.466   3.918
 3907SOL    HW112620   5.655   2.374   3.957
 3907SOL    HW212621   5.743   2.467   3.856
 3908SOL     OW12622   2.667   3.786   6.005
 3908SOL    HW112623   2.679   3.728   5.924
 3908SOL    HW212624   2.753   3.789   6.056
 3909SOL     OW12625   5.270   5.642   3.549
 3909SOL    HW112626   5.185   5.692   3.566
 3909SOL    HW212627   5.271   5.608   3.455
 3910SOL     OW12628   3.707   3.551   2.554
 3910SOL    HW112629   3.805   3.541   2.571
 3910SOL    HW212630   3.677   3.479   2.491
 3911SOL     OW12631   5.986   2.257   5.733
 3911SOL    HW112632   5.945   2.170   5.759
 3911SOL    HW212633   5.999   2.314   5.814
 3912SOL     OW12634   5.395   2.879   5.948
 3912SOL    HW112635   5.391   2.921   5.858
 3912SOL    HW212636   5.331   2.802   5.953
 3913SOL     OW12637   1.461   6.845   1.577
 3913SOL    HW112638   1.512   6.761   1.594
 3913SOL    HW212639   1.458   6.863   1.478
 3914SOL     OW12640   3.085   5.628   5.441
 3914SOL    HW112641   3.007   5.567   5.433
 3914SOL    HW212642   3.151   5.590   5.506
 3915SOL     OW12643   6.348   5.712   1.707
 3915SOL    HW112644   6.370   5.709   1.804
 3915SOL    HW212645   6.346   5.807   1.676
 3916SOL     OW12646   0.080   0.391   3.807
 3916SOL    HW112647   0.174   0.421   3.824
 3916SOL    HW212648   0.067   0.378   3.709
 3917SOL     OW12649   2.932   0.167   6.440
 3917SOL    HW112650   3.013   0.208   6.399
 3917SOL    HW212651   2.883   0.114   6.371
 3918SOL     OW12652   6.001   3.631   6.802
 3918SOL    HW112653   5.907   3.616   6.772
 3918SOL    HW212654   6.008   3.721   6.847
 3919SOL     OW12655   3.135   6.257   1.045
 3919SOL    HW112656   3.125   6.301   1.134
 3919SOL    HW212657   3.194   6.177   1.053
 3920SOL     OW12658   2.407   0.733   0.093
 3920SOL    HW112659   2.330   0.671   0.105
 3920SOL    HW212660   2.465   0.700   0.018
 3921SOL     OW12661   0.848   3.590   1.201
 3921SOL    HW112662   0.905   3.569   1.121
 3921SOL    HW212663   0.752   3.596   1.173
 3922SOL     OW12664   1.122   5.484   1.345
 3922SOL    HW112665   1.208   5.529   1.320
 3922SOL    HW212666   1.126   5.456   1.441
 3923SOL     OW12667   0.089   6.245   0.940
 3923SOL    HW112668   0.013   6.181   0.952
 3923SOL    HW212669   0.064   6.334   0.977
 3924SOL     OW12670   6.490   4.887   4.700
 3924SOL    HW112671   6.407   4.904   4.753
 3924SOL    HW212672   6.546   4.818   4.747
 3925SOL     OW12673   1.292   5.194   1.475
 3925SOL    HW112674   1.270   5.288   1.502
 3925SOL    HW212675   1.228   5.131   1.519
 3926SOL     OW12676   3.373   5.198   3.126
 3926SOL    HW112677   3.456   5.237   3.166
 3926SOL    HW212678   3.346   5.252   3.046
 3927SOL     OW12679   2.101   3.661   6.508
 3927SOL    HW112680   2.130   3.568   6.531
 3927SOL    HW212681   2.010   3.658   6.465
 3928SOL     OW12682   6.089   6.673   6.442
 3928SOL    HW112683   5.990   6.669   6.436
 3928SOL    HW212684   6.129   6.646   6.354
 3929SOL     OW12685   1.108   1.548   4.733
 3929SOL    HW112686   1.115   1.621   4.665
 3929SOL    HW212687   1.165   1.471   4.705
 3930SOL     OW12688   2.854   1.679   4.024
 3930SOL    HW112689   2.815   1.669   4.115
 3930SOL    HW212690   2.808   1.753   3.976
 3931SOL     OW12691   4.207   0.091   1.909
 3931SOL    HW112692   4.221   0.184   1.876
 3931SOL    HW212693   4.117   0.085   1.954
 3932SOL     OW12694   1.869   3.002   3.527
 3932SOL    HW112695   1.906   2.982   3.618
 3932SOL    HW212696   1.920   3.078   3.486
 3933SOL     OW12697   1.852   1.042   6.108
 3933SOL    HW112698   1.870   1.097   6.189
 3933SOL    HW212699   1.837   0.947   6.135
 3934SOL     OW12700   5.212   6.132   0.014
 3934SOL    HW112701   5.312   6.121   0.008
 3934SOL    HW212702   5.188   6.228   7.024
 3935SOL     OW12703   4.918   6.773   1.530
 3935SOL    HW112704   4.967   6.689   1.554
 3935SOL    HW212705   4.940   6.800   1.436
 3936SOL     OW12706   0.549   4.495   2.378
 3936SOL    HW112707   0.557   4.442   2.462
 3936SOL    HW212708   0.536   4.433   2.301
 3937SOL     OW12709   0.208   2.023   2.251
 3937SOL    HW112710   0.129   2.039   2.311
 3937SOL    HW212711   0.252   2.111   2.230
 3938SOL     OW12712   6.596   2.968   3.413
 3938SOL    HW112713   6.607   3.019   3.328
 3938SOL    HW212714   6.519   3.006   3.465
 3939SOL     OW12715   1.932   1.983   1.549
 3939SOL    HW112716   2.013   2.041   1.539
 3939SOL    HW212717   1.960   1.892   1.579
 3940SOL     OW12718   4.246   4.468   1.027
 3940SOL    HW112719   4.331   4.502   0.987
 3940SOL    HW212720   4.242   4.494   1.124
 3941SOL     OW12721   5.191   3.665   0.036
 3941SOL    HW112722   5.146   3.631   6.978
 3941SOL    HW212723   5.215   3.587   0.095
 3942SOL     OW12724   6.609   0.343   0.720
 3942SOL    HW112725   6.644   0.259   0.678
 3942SOL    HW212726   6.527   0.321   0.774
 3943SOL     OW12727   6.649   2.958   5.172
 3943SOL    HW112728   6.749   2.963   5.177
 3943SOL    HW212729   6.611   2.967   5.264
 3944SOL     OW12730   5.476   1.495   4.871
 3944SOL    HW112731   5.556   1.439   4.892
 3944SOL    HW212732   5.450   1.483   4.775
 3945SOL     OW12733   0.147   0.191   1.236
 3945SOL    HW112734   0.182   0.150   1.152
 3945SOL    HW212735   0.051   0.167   1.248
 3946SOL     OW12736   3.909   5.685   3.287
 3946SOL    HW112737   3.842   5.611   3.277
 3946SOL    HW212738   3.936   5.691   3.383
 3947SOL     OW12739   6.937   3.977   6.069
 3947SOL    HW112740   6.847   4.021   6.072
 3947SOL    HW212741   6.929   3.887   6.025
 3948SOL     OW12742   6.702   3.596   0.824
 3948SOL    HW112743   6.734   3.665   0.889
 3948SOL    HW212744   6.711   3.631   0.731
 3949SOL     OW12745   5.424   6.413   3.265
 3949SOL    HW112746   5.355   6.430   3.335
 3949SOL    HW212747   5.432   6.493   3.205
 3950SOL     OW12748   1.847   6.747   0.569
 3950SOL    HW112749   1.854   6.700   0.481
 3950SOL    HW212750   1.809   6.839   0.555
 3951SOL     OW12751   5.630   5.818   1.782
 3951SOL    HW112752   5.643   5.750   1.854
 3951SOL    HW212753   5.551   5.793   1.725
 3952SOL     OW12754   5.807   1.657   6.224
 3952SOL    HW112755   5.712   1.676   6.248
 3952SOL    HW212756   5.840   1.581   6.279
 3953SOL     OW12757   2.927   3.653   2.614
 3953SOL    HW112758   2.930   3.554   2.607
 3953SOL    HW212759   2.908   3.693   2.525
 3954SOL     OW12760   3.956   4.668   5.711
 3954SOL    HW112761   3.962   4.605   5.788
 3954SOL    HW212762   3.862   4.698   5.700
 3955SOL     OW12763   3.711   1.584   5.014
 3955SOL    HW112764   3.723   1.677   4.977
 3955SOL    HW212765   3.709   1.588   5.113
 3956SOL     OW12766   1.860   1.675   0.950
 3956SOL    HW112767   1.838   1.602   1.014
 3956SOL    HW212768   1.958   1.694   0.954
 3957SOL     OW12769   3.857   1.093   3.890
 3957SOL    HW112770   3.813   1.043   3.965
 3957SOL    HW212771   3.792   1.105   3.815
 3958SOL     OW12772   5.715   6.341   6.068
 3958SOL    HW112773   5.749   6.331   6.162
 3958SOL    HW212774   5.793   6.341   6.005
 3959SOL     OW12775   5.437   5.254   6.216
 3959SOL    HW112776   5.513   5.277   6.155
 3959SOL    HW212777   5.431   5.155   6.227
 3960SOL     OW12778   6.124   2.233   4.876
 3960SOL    HW112779   6.036   2.198   4.845
 3960SOL    HW212780   6.113   2.275   4.967
 3961SOL     OW12781   5.147   6.870   4.267
 3961SOL    HW112782   5.055   6.860   4.305
 3961SOL    HW212783   5.191   6.780   4.261
 3962SOL     OW12784   6.295   5.070   5.027
 3962SOL    HW112785   6.353   5.134   4.976
 3962SOL    HW212786   6.199   5.099   5.020
 3963SOL     OW12787   4.351   0.080   2.489
 3963SOL    HW112788   4.395   0.085   2.578
 3963SOL    HW212789   4.400   0.016   2.430
 3964SOL     OW12790   5.215   3.040   3.754
 3964SOL    HW112791   5.275   2.960   3.754
 3964SOL    HW212792   5.159   3.041   3.671
 3965SOL     OW12793   5.181   4.240   4.484
 3965SOL    HW112794   5.133   4.313   4.435
 3965SOL    HW212795   5.279   4.248   4.468
 3966SOL     OW12796   2.379   6.741   6.412
 3966SOL    HW112797   2.466   6.749   6.362
 3966SOL    HW212798   2.397   6.745   6.510
 3967SOL     OW12799   1.649   3.918   3.982
 3967SOL    HW112800   1.576   3.926   3.914
 3967SOL    HW212801   1.674   4.009   4.015
 3968SOL     OW12802   3.693   0.291   0.723
 3968SOL    HW112803   3.774   0.285   0.780
 3968SOL    HW212804   3.618   0.239   0.764
 3969SOL     OW12805   0.158   4.727   3.336
 3969SOL    HW112806   0.076   4.728   3.280
 3969SOL    HW212807   0.156   4.647   3.397
 3970SOL     OW12808   4.742   5.812   1.834
 3970SOL    HW112809   4.769   5.746   1.764
 3970SOL    HW212810   4.714   5.764   1.916
 3971SOL     OW12811   1.614   6.007   4.021
 3971SOL    HW112812   1.576   5.938   4.081
 3971SOL    HW212813   1.714   5.999   4.019
 3972SOL     OW12814   1.576   3.481   0.218
 3972SOL    HW112815   1.502   3.467   0.152
 3972SOL    HW212816   1.663   3.490   0.169
 3973SOL     OW12817   1.687   4.735   0.550
 3973SOL    HW112818   1.593   4.703   0.534
 3973SOL    HW212819   1.684   4.819   0.604
 3974SOL     OW12820   2.914   0.863   5.354
 3974SOL    HW112821   2.995   0.914   5.324
 3974SOL    HW212822   2.860   0.920   5.415
 3975SOL     OW12823   6.114   3.035   0.023
 3975SOL    HW112824   6.064   3.019   6.963
 3975SOL    HW212825   6.210   3.053   0.003
 3976SOL     OW12826   1.918   3.758   2.788
 3976SOL    HW112827   1.866   3.837   2.820
 3976SOL    HW212828   1.862   3.702   2.727
 3977SOL     OW12829   0.880   2.835   7.015
 3977SOL    HW112830   0.835   2.820   0.078
 3977SOL    HW212831   0.814   2.821   6.941
 3978SOL     OW12832   6.206   4.354   3.977
 3978SOL    HW112833   6.216   4.439   3.925
 3978SOL    HW212834   6.295   4.309   3.985
 3979SOL     OW12835   4.476   5.750   5.954
 3979SOL    HW112836   4.452   5.654   5.937
 3979SOL    HW212837   4.442   5.778   6.043
 3980SOL     OW12838   5.733   5.149   5.958
 3980SOL    HW112839   5.804   5.126   5.891
 3980SOL    HW212840   5.758   5.111   6.048
 3981SOL     OW12841   4.675   5.539   6.960
 3981SOL    HW112842   4.577   5.537   6.941
 3981SOL    HW212843   4.701   5.629   6.993
 3982SOL     OW12844   2.613   6.129   2.887
 3982SOL    HW112845   2.679   6.146   2.959
 3982SOL    HW212846   2.522   6.161   2.916
 3983SOL     OW12847   3.215   6.007   4.464
 3983SOL    HW112848   3.205   6.014   4.364
 3983SOL    HW212849   3.305   5.970   4.486
 3984SOL     OW12850   6.735   3.338   3.185
 3984SOL    HW112851   6.774   3.359   3.275
 3984SOL    HW212852   6.792   3.377   3.114
 3985SOL     OW12853   4.151   5.260   6.447
 3985SOL    HW112854   4.189   5.187   6.503
 3985SOL    HW212855   4.220   5.291   6.382
 3986SOL     OW12856   5.157   0.717   2.686
 3986SOL    HW112857   5.207   0.747   2.767
 3986SOL    HW212858   5.114   0.796   2.642
 3987SOL     OW12859   3.641   5.266   5.641
 3987SOL    HW112860   3.614   5.177   5.604
 3987SOL    HW212861   3.686   5.253   5.729
 3988SOL     OW12862   4.828   5.718   0.571
 3988SOL    HW112863   4.733   5.714   0.540
 3988SOL    HW212864   4.878   5.639   0.537
 3989SOL     OW12865   6.378   2.778   1.119
 3989SOL    HW112866   6.417   2.763   1.027
 3989SOL    HW212867   6.279   2.789   1.112
 3990SOL     OW12868   0.037   1.448   1.998
 3990SOL    HW112869   0.091   1.443   2.082
 3990SOL    HW212870   6.989   1.380   2.001
 3991SOL     OW12871   5.804   1.307   2.893
 3991SOL    HW112872   5.878   1.370   2.918
 3991SOL    HW212873   5.842   1.230   2.842
 3992SOL     OW12874   4.367   1.892   1.703
 3992SOL    HW112875   4.280   1.896   1.751
 3992SOL    HW212876   4.418   1.811   1.731
 3993SOL     OW12877   0.732   3.333   1.685
 3993SOL    HW112878   0.675   3.413   1.665
 3993SOL    HW212879   0.781   3.306   1.602
 3994SOL     OW12880   2.278   5.420   4.459
 3994SOL    HW112881   2.207   5.351   4.472
 3994SOL    HW212882   2.359   5.377   4.418
 3995SOL     OW12883   1.914   2.335   4.264
 3995SOL    HW112884   1.976   2.396   4.313
 3995SOL    HW212885   1.883   2.263   4.325
 3996SOL     OW12886   0.260   5.772   4.557
 3996SOL    HW112887   0.253   5.742   4.461
 3996SOL    HW212888   0.345   5.823   4.569
 3997SOL     OW12889   2.953   1.425   3.306
 3997SOL    HW112890   3.037   1.376   3.328
 3997SOL    HW212891   2.884   1.407   3.377
 3998SOL     OW12892   4.616   2.534   2.890
 3998SOL    HW112893   4.697   2.500   2.938
 3998SOL    HW212894   4.544   2.554   2.956
 3999SOL     OW12895   4.797   1.611   4.296
 3999SOL    HW112896   4.712   1.658   4.272
 3999SOL    HW212897   4.787   1.565   4.384
 4000SOL     OW12898   3.781   6.095   4.361
 4000SOL    HW112899   3.746   6.032   4.430
 4000SOL    HW212900   3.837   6.044   4.295
 4001SOL     OW12901   0.775   1.622   4.306
 4001SOL    HW112902   0.821   1.538   4.333
 4001SOL    HW212903   0.755   1.677   4.388
 4002SOL     OW12904   1.817   4.360   1.317
 4002SOL    HW112905   1.789   4.265   1.303
 4002SOL    HW212906   1.871   4.390   1.239
 4003SOL     OW12907   4.001   2.203   5.081
 4003SOL    HW112908   4.044   2.286   5.117
 4003SOL    HW212909   3.933   2.170   5.147
 4004SOL     OW12910   6.733   1.471   6.055
 4004SOL    HW112911   6.795   1.453   6.131
 4004SOL    HW212912   6.760   1.555   6.009
 4005SOL     OW12913   6.358   4.587   4.629
 4005SOL    HW112914   6.425   4.641   4.680
 4005SOL    HW212915   6.378   4.594   4.531
 4006SOL     OW12916   3.377   6.463   2.947
 4006SOL    HW112917   3.404   6.380   2.897
 4006SOL    HW212918   3.399   6.452   3.044
 4007SOL     OW12919   0.552   1.425   5.698
 4007SOL    HW112920   0.597   1.438   5.610
 4007SOL    HW212921   0.557   1.511   5.750
 4008SOL     OW12922   3.183   1.485   5.478
 4008SOL    HW112923   3.209   1.396   5.442
 4008SOL    HW212924   3.206   1.490   5.575
 4009SOL     OW12925   3.493   3.923   2.902
 4009SOL    HW112926   3.484   3.834   2.946
 4009SOL    HW212927   3.463   3.917   2.807
 4010SOL     OW12928   1.002   3.101   0.084
 4010SOL    HW112929   0.949   3.049   0.017
 4010SOL    HW212930   1.056   3.038   0.140
 4011SOL     OW12931   0.271   2.193   0.871
 4011SOL    HW112932   0.249   2.281   0.911
 4011SOL    HW212933   0.370   2.181   0.868
 4012SOL     OW12934   5.524   3.331   3.269
 4012SOL    HW112935   5.602   3.392   3.257
 4012SOL    HW212936   5.526   3.262   3.196
 4013SOL     OW12937   5.137   2.806   3.048
 4013SOL    HW112938   5.133   2.777   2.952
 4013SOL    HW212939   5.102   2.899   3.057
 4014SOL     OW12940   5.462   5.343   2.014
 4014SOL    HW112941   5.447   5.428   1.963
 4014SOL    HW212942   5.398   5.273   1.982
 4015SOL     OW12943   4.801   3.713   6.999
 4015SOL    HW112944   4.774   3.805   7.025
 4015SOL    HW212945   4.857   3.717   6.916
 4016SOL     OW12946   2.914   6.087   4.248
 4016SOL    HW112947   2.951   5.998   4.221
 4016SOL    HW212948   2.880   6.082   4.342
 4017SOL     OW12949   5.973   6.453   6.006
 4017SOL    HW112950   5.983   6.551   6.020
 4017SOL    HW212951   5.968   6.433   5.909
 4018SOL     OW12952   2.143   0.359   6.800
 4018SOL    HW112953   2.237   0.361   6.834
 4018SOL    HW212954   2.144   0.341   6.702
 4019SOL     OW12955   5.409   5.857   3.720
 4019SOL    HW112956   5.374   5.808   3.800
 4019SOL    HW212957   5.364   5.822   3.638
 4020SOL     OW12958   5.344   1.969   4.977
 4020SOL    HW112959   5.269   2.025   5.013
 4020SOL    HW212960   5.332   1.957   4.878
 4021SOL     OW12961   5.340   4.049   7.019
 4021SOL    HW112962   5.429   4.049   0.041
 4021SOL    HW212963   5.292   3.963   0.015
 4022SOL     OW12964   5.628   0.883   0.660
 4022SOL    HW112965   5.663   0.900   0.753
 4022SOL    HW212966   5.624   0.970   0.610
 4023SOL     OW12967   6.570   6.217   5.652
 4023SOL    HW112968   6.555   6.208   5.750
 4023SOL    HW212969   6.666   6.202   5.631
 4024SOL     OW12970   4.550   4.419   5.134
 4024SOL    HW112971   4.539   4.381   5.226
 4024SOL    HW212972   4.468   4.468   5.107
 4025SOL     OW12973   0.893   4.003   4.225
 4025SOL    HW112974   0.888   3.909   4.192
 4025SOL    HW212975   0.827   4.059   4.176
 4026SOL     OW12976   5.691   0.726   5.502
 4026SOL    HW112977   5.662   0.639   5.542
 4026SOL    HW212978   5.614   0.768   5.454
 4027SOL     OW12979   3.010   5.279   2.508
 4027SOL    HW112980   2.951   5.217   2.458
 4027SOL    HW212981   3.005   5.370   2.467
 4028SOL     OW12982   1.870   5.403   3.062
 4028SOL    HW112983   1.900   5.494   3.091
 4028SOL    HW212984   1.783   5.381   3.106
 4029SOL     OW12985   1.901   3.948   3.216
 4029SOL    HW112986   1.958   3.865   3.214
 4029SOL    HW212987   1.830   3.941   3.146
 4030SOL     OW12988   1.825   1.421   6.540
 4030SOL    HW112989   1.733   1.459   6.552
 4030SOL    HW212990   1.892   1.490   6.567
 4031SOL     OW12991   6.572   6.020   4.124
 4031SOL    HW112992   6.486   6.039   4.172
 4031SOL    HW212993   6.619   5.944   4.168
 4032SOL     OW12994   3.472   6.984   4.860
 4032SOL    HW112995   3.402   6.971   4.930
 4032SOL    HW212996   3.561   6.992   4.903
 4033SOL     OW12997   3.752   3.503   6.177
 4033SOL    HW112998   3.837   3.556   6.166
 4033SOL    HW212999   3.699   3.542   6.252
 4034SOL     OW13000   5.794   3.285   4.788
 4034SOL    HW113001   5.841   3.216   4.844
 4034SOL    HW213002   5.861   3.333   4.732
 4035SOL     OW13003   6.920   6.500   2.056
 4035SOL    HW113004   6.933   6.550   2.141
 4035SOL    HW213005   6.979   6.419   2.056
 4036SOL     OW13006   5.888   5.815   1.448
 4036SOL    HW113007   5.971   5.782   1.402
 4036SOL    HW213008   5.909   5.836   1.544
 4037SOL     OW13009   0.591   3.594   6.464
 4037SOL    HW113010   0.658   3.590   6.538
 4037SOL    HW213011   0.499   3.604   6.504
 4038SOL     OW13012   5.923   5.231   3.496
 4038SOL    HW113013   5.831   5.205   3.467
 4038SOL    HW213014   5.961   5.161   3.556
 4039SOL     OW13015   2.344   5.261   1.062
 4039SOL    HW113016   2.359   5.344   1.116
 4039SOL    HW213017   2.400   5.186   1.099
 4040SOL     OW13018   3.164   6.535   0.102
 4040SOL    HW113019   3.156   6.633   0.080
 4040SOL    HW213020   3.200   6.525   0.195
 4041SOL     OW13021   0.707   6.100   3.097
 4041SOL    HW113022   0.732   6.004   3.108
 4041SOL    HW213023   0.779   6.158   3.135
 4042SOL     OW13024   5.864   6.165   1.922
 4042SOL    HW113025   5.959   6.136   1.915
 4042SOL    HW213026   5.854   6.258   1.888
 4043SOL     OW13027   6.813   3.374   0.907
 4043SOL    HW113028   6.865   3.395   0.989
 4043SOL    HW213029   6.767   3.456   0.874
 4044SOL     OW13030   5.998   5.101   2.465
 4044SOL    HW113031   5.971   5.131   2.374
 4044SOL    HW213032   5.927   5.128   2.531
 4045SOL     OW13033   2.688   4.603   5.823
 4045SOL    HW113034   2.654   4.632   5.734
 4045SOL    HW213035   2.633   4.527   5.857
 4046SOL     OW13036   0.541   3.338   0.565
 4046SOL    HW113037   0.548   3.350   0.664
 4046SOL    HW213038   0.467   3.273   0.545
 4047SOL     OW13039   2.947   3.368   3.275
 4047SOL    HW113040   2.919   3.292   3.216
 4047SOL    HW213041   2.962   3.334   3.368
 4048SOL     OW13042   4.531   2.514   0.511
 4048SOL    HW113043   4.527   2.478   0.604
 4048SOL    HW213044   4.590   2.595   0.509
 4049SOL     OW13045   6.756   6.682   6.680
 4049SOL    HW113046   6.818   6.729   6.744
 4049SOL    HW213047   6.667   6.670   6.724
 4050SOL     OW13048   2.464   0.855   3.043
 4050SOL    HW113049   2.546   0.800   3.058
 4050SOL    HW213050   2.488   0.938   2.993
 4051SOL     OW13051   2.473   3.294   0.859
 4051SOL    HW113052   2.403   3.351   0.901
 4051SOL    HW213053   2.468   3.303   0.759
 4052SOL     OW13054   1.563   0.153   1.314
 4052SOL    HW113055   1.601   0.230   1.364
 4052SOL    HW213056   1.468   0.172   1.289
 4053SOL     OW13057   2.993   5.507   2.355
 4053SOL    HW113058   3.071   5.555   2.315
 4053SOL    HW213059   2.960   5.557   2.435
 4054SOL     OW13060   5.350   1.491   6.664
 4054SOL    HW113061   5.333   1.521   6.757
 4054SOL    HW213062   5.281   1.424   6.636
 4055SOL     OW13063   4.741   3.688   0.333
 4055SOL    HW113064   4.785   3.603   0.362
 4055SOL    HW213065   4.794   3.731   0.261
 4056SOL     OW13066   4.347   3.096   6.752
 4056SOL    HW113067   4.321   3.008   6.712
 4056SOL    HW213068   4.447   3.099   6.761
 4057SOL     OW13069   5.941   2.584   0.720
 4057SOL    HW113070   5.909   2.555   0.811
 4057SOL    HW213071   5.969   2.504   0.668
 4058SOL     OW13072   0.929   3.106   3.899
 4058SOL    HW113073   1.027   3.107   3.920
 4058SOL    HW213074   0.878   3.078   3.981
 4059SOL     OW13075   0.056   1.924   4.689
 4059SOL    HW113076   0.103   1.899   4.774
 4059SOL    HW213077   0.046   1.844   4.631
 4060SOL     OW13078   2.900   6.780   5.569
 4060SOL    HW113079   2.967   6.734   5.511
 4060SOL    HW213080   2.835   6.830   5.512
 4061SOL     OW13081   2.421   2.845   1.360
 4061SOL    HW113082   2.321   2.857   1.364
 4061SOL    HW213083   2.465   2.927   1.396
 4062SOL     OW13084   2.826   0.052   2.850
 4062SOL    HW113085   2.744   0.030   2.902
 4062SOL    HW213086   2.907   0.034   2.906
 4063SOL     OW13087   3.340   5.925   6.006
 4063SOL    HW113088   3.378   5.859   6.071
 4063SOL    HW213089   3.386   6.013   6.016
 4064SOL     OW13090   6.379   6.906   4.809
 4064SOL    HW113091   6.334   6.947   4.889
 4064SOL    HW213092   6.324   6.830   4.775
 4065SOL     OW13093   1.502   4.308   5.519
 4065SOL    HW113094   1.575   4.338   5.580
 4065SOL    HW213095   1.441   4.245   5.568
 4066SOL     OW13096   4.427   5.652   1.803
 4066SOL    HW113097   4.440   5.553   1.802
 4066SOL    HW213098   4.472   5.691   1.883
 4067SOL     OW13099   5.727   0.520   1.076
 4067SOL    HW113100   5.687   0.501   0.987
 4067SOL    HW213101   5.711   0.442   1.137
 4068SOL     OW13102   5.027   0.551   4.724
 4068SOL    HW113103   5.017   0.588   4.631
 4068SOL    HW213104   5.106   0.490   4.728
 4069SOL     OW13105   6.725   6.491   0.507
 4069SOL    HW113106   6.778   6.483   0.423
 4069SOL    HW213107   6.782   6.463   0.585
 4070SOL     OW13108   6.416   3.713   2.641
 4070SOL    HW113109   6.378   3.786   2.698
 4070SOL    HW213110   6.441   3.750   2.551
 4071SOL     OW13111   2.492   0.274   4.802
 4071SOL    HW113112   2.487   0.179   4.833
 4071SOL    HW213113   2.524   0.332   4.876
 4072SOL     OW13114   0.658   0.334   4.431
 4072SOL    HW113115   0.578   0.281   4.403
 4072SOL    HW213116   0.742   0.285   4.406
 4073SOL     OW13117   2.739   4.695   2.182
 4073SOL    HW113118   2.718   4.612   2.234
 4073SOL    HW213119   2.773   4.670   2.091
 4074SOL     OW13120   0.226   2.898   0.962
 4074SOL    HW113121   0.292   2.832   0.925
 4074SOL    HW213122   0.274   2.983   0.987
 4075SOL     OW13123   6.448   0.334   3.433
 4075SOL    HW113124   6.356   0.296   3.428
 4075SOL    HW213125   6.482   0.327   3.527
 4076SOL     OW13126   1.657   3.274   3.454
 4076SOL    HW113127   1.570   3.296   3.412
 4076SOL    HW213128   1.709   3.214   3.394
 4077SOL     OW13129   3.408   1.001   1.252
 4077SOL    HW113130   3.466   1.009   1.333
 4077SOL    HW213131   3.429   1.075   1.188
 4078SOL     OW13132   4.803   5.008   3.081
 4078SOL    HW113133   4.736   4.937   3.061
 4078SOL    HW213134   4.884   4.967   3.124
 4079SOL     OW13135   4.679   1.021   3.745
 4079SOL    HW113136   4.686   1.089   3.818
 4079SOL    HW213137   4.724   1.055   3.663
 4080SOL     OW13138   3.215   4.049   4.614
 4080SOL    HW113139   3.282   4.100   4.561
 4080SOL    HW213140   3.231   4.062   4.711
 4081SOL     OW13141   2.434   0.276   0.019
 4081SOL    HW113142   2.485   0.362   0.011
 4081SOL    HW213143   2.457   0.217   6.967
 4082SOL     OW13144   1.451   1.394   5.638
 4082SOL    HW113145   1.543   1.405   5.600
 4082SOL    HW213146   1.389   1.460   5.596
 4083SOL     OW13147   6.262   5.022   2.525
 4083SOL    HW113148   6.270   4.930   2.485
 4083SOL    HW213149   6.170   5.058   2.507
 4084SOL     OW13150   4.298   6.547   2.410
 4084SOL    HW113151   4.387   6.591   2.399
 4084SOL    HW213152   4.250   6.587   2.488
 4085SOL     OW13153   1.886   4.067   2.670
 4085SOL    HW113154   1.964   4.115   2.709
 4085SOL    HW213155   1.826   4.036   2.744
 4086SOL     OW13156   5.290   5.104   5.186
 4086SOL    HW113157   5.325   5.133   5.097
 4086SOL    HW213158   5.246   5.181   5.232
 4087SOL     OW13159   1.552   0.801   1.759
 4087SOL    HW113160   1.617   0.877   1.753
 4087SOL    HW213161   1.490   0.804   1.681
 4088SOL     OW13162   0.286   2.092   5.420
 4088SOL    HW113163   0.278   2.037   5.337
 4088SOL    HW213164   0.247   2.043   5.497
 4089SOL     OW13165   7.023   6.823   2.788
 4089SOL    HW113166   6.930   6.794   2.810
 4089SOL    HW213167   0.010   6.919   2.815
 4090SOL     OW13168   3.495   2.644   5.460
 4090SOL    HW113169   3.591   2.654   5.435
 4090SOL    HW213170   3.467   2.549   5.445
 4091SOL     OW13171   3.973   6.569   2.832
 4091SOL    HW113172   3.980   6.472   2.809
 4091SOL    HW213173   3.894   6.609   2.786
 4092SOL     OW13174   5.083   1.992   6.370
 4092SOL    HW113175   5.155   2.057   6.342
 4092SOL    HW213176   5.109   1.950   6.457
 4093SOL     OW13177   5.798   4.018   2.364
 4093SOL    HW113178   5.729   4.075   2.319
 4093SOL    HW213179   5.815   3.937   2.309
 4094SOL     OW13180   6.480   6.568   0.282
 4094SOL    HW113181   6.522   6.621   0.209
 4094SOL    HW213182   6.551   6.536   0.345
 4095SOL     OW13183   1.293   4.965   0.441
 4095SOL    HW113184   1.231   4.964   0.519
 4095SOL    HW213185   1.384   4.934   0.470
 4096SOL     OW13186   0.657   6.383   5.846
 4096SOL    HW113187   0.741   6.342   5.881
 4096SOL    HW213188   0.674   6.425   5.757
 4097SOL     OW13189   1.359   4.104   5.667
 4097SOL    HW113190   1.424   4.052   5.723
 4097SOL    HW213191   1.275   4.118   5.718
 4098SOL     OW13192   1.155   6.152   1.810
 4098SOL    HW113193   1.209   6.136   1.892
 4098SOL    HW213194   1.121   6.246   1.811
 4099SOL     OW13195   0.047   2.498   5.961
 4099SOL    HW113196   6.989   2.442   5.964
 4099SOL    HW213197   0.117   2.457   6.019
 4100SOL     OW13198   2.311   0.878   3.640
 4100SOL    HW113199   2.355   0.793   3.609
 4100SOL    HW213200   2.339   0.897   3.734
 4101SOL     OW13201   6.196   6.339   6.158
 4101SOL    HW113202   6.140   6.301   6.231
 4101SOL    HW213203   6.137   6.378   6.087
 4102SOL     OW13204   2.628   5.022   0.702
 4102SOL    HW113205   2.590   5.039   0.793
 4102SOL    HW213206   2.601   4.932   0.671
 4103SOL     OW13207   2.463   4.973   3.144
 4103SOL    HW113208   2.400   5.050   3.136
 4103SOL    HW213209   2.557   5.007   3.143
 4104SOL     OW13210   2.541   5.574   5.877
 4104SOL    HW113211   2.475   5.641   5.911
 4104SOL    HW213212   2.492   5.503   5.826
 4105SOL     OW13213   3.468   0.202   1.552
 4105SOL    HW113214   3.555   0.211   1.504
 4105SOL    HW213215   3.452   0.105   1.574
 4106SOL     OW13216   1.743   6.759   3.199
 4106SOL    HW113217   1.743   6.664   3.230
 4106SOL    HW213218   1.781   6.764   3.107
 4107SOL     OW13219   2.219   1.974   0.626
 4107SOL    HW113220   2.226   1.994   0.529
 4107SOL    HW213221   2.172   1.886   0.639
 4108SOL     OW13222   0.638   5.728   4.931
 4108SOL    HW113223   0.731   5.756   4.910
 4108SOL    HW213224   0.578   5.808   4.929
 4109SOL     OW13225   5.102   0.387   5.164
 4109SOL    HW113226   5.098   0.469   5.107
 4109SOL    HW213227   5.160   0.319   5.119
 4110SOL     OW13228   4.928   2.660   0.723
 4110SOL    HW113229   4.895   2.698   0.637
 4110SOL    HW213230   4.871   2.582   0.749
 4111SOL     OW13231   6.691   4.978   3.656
 4111SOL    HW113232   6.611   4.999   3.600
 4111SOL    HW213233   6.754   4.920   3.605
 4112SOL     OW13234   4.080   5.823   5.900
 4112SOL    HW113235   4.155   5.792   5.843
 4112SOL    HW213236   4.047   5.747   5.956
 4113SOL     OW13237   5.066   6.093   5.657
 4113SOL    HW113238   4.974   6.132   5.668
 4113SOL    HW213239   5.119   6.110   5.741
 4114SOL     OW13240   6.660   1.644   3.413
 4114SOL    HW113241   6.686   1.591   3.493
 4114SOL    HW213242   6.680   1.741   3.429
 4115SOL     OW13243   4.212   6.732   4.703
 4115SOL    HW113244   4.232   6.635   4.721
 4115SOL    HW213245   4.119   6.740   4.667
 4116SOL     OW13246   6.603   4.193   3.550
 4116SOL    HW113247   6.605   4.224   3.646
 4116SOL    HW213248   6.623   4.271   3.490
 4117SOL     OW13249   0.057   2.339   2.749
 4117SOL    HW113250   6.997   2.353   2.698
 4117SOL    HW213251   0.055   2.249   2.793
 4118SOL     OW13252   1.046   0.514   2.116
 4118SOL    HW113253   1.027   0.423   2.079
 4118SOL    HW213254   1.110   0.506   2.192
 4119SOL     OW13255   6.458   1.058   4.829
 4119SOL    HW113256   6.504   1.052   4.918
 4119SOL    HW213257   6.441   0.966   4.794
 4120SOL     OW13258   1.421   0.711   6.685
 4120SOL    HW113259   1.380   0.704   6.594
 4120SOL    HW213260   1.351   0.739   6.751
 4121SOL     OW13261   6.516   0.444   1.291
 4121SOL    HW113262   6.584   0.444   1.218
 4121SOL    HW213263   6.454   0.366   1.279
 4122SOL     OW13264   1.393   4.521   4.014
 4122SOL    HW113265   1.314   4.476   3.971
 4122SOL    HW213266   1.424   4.466   4.091
 4123SOL     OW13267   5.837   4.418   2.075
 4123SOL    HW113268   5.850   4.328   2.116
 4123SOL    HW213269   5.840   4.488   2.146
 4124SOL     OW13270   6.000   6.614   0.215
 4124SOL    HW113271   5.992   6.710   0.187
 4124SOL    HW213272   6.073   6.605   0.282
 4125SOL     OW13273   0.169   2.717   0.078
 4125SOL    HW113274   0.126   2.768   0.152
 4125SOL    HW213275   0.121   2.735   7.017
 4126SOL     OW13276   1.551   4.352   3.657
 4126SOL    HW113277   1.583   4.259   3.674
 4126SOL    HW213278   1.462   4.349   3.613
 4127SOL     OW13279   4.636   2.749   4.325
 4127SOL    HW113280   4.558   2.771   4.266
 4127SOL    HW213281   4.688   2.833   4.344
 4128SOL     OW13282   5.861   2.783   6.322
 4128SOL    HW113283   5.842   2.753   6.228
 4128SOL    HW213284   5.960   2.798   6.332
 4129SOL     OW13285   3.075   0.110   2.178
 4129SOL    HW113286   3.064   0.017   2.142
 4129SOL    HW213287   3.144   0.110   2.250
 4130SOL     OW13288   4.869   1.290   0.252
 4130SOL    HW113289   4.844   1.387   0.252
 4130SOL    HW213290   4.851   1.251   0.343
 4131SOL     OW13291   5.247   6.417   3.832
 4131SOL    HW113292   5.210   6.342   3.887
 4131SOL    HW213293   5.319   6.383   3.772
 4132SOL     OW13294   6.509   3.692   2.384
 4132SOL    HW113295   6.592   3.740   2.357
 4132SOL    HW213296   6.462   3.656   2.303
 4133SOL     OW13297   5.646   6.279   3.377
 4133SOL    HW113298   5.714   6.265   3.305
 4133SOL    HW213299   5.577   6.344   3.345
 4134SOL     OW13300   1.644   2.619   1.377
 4134SOL    HW113301   1.596   2.612   1.464
 4134SOL    HW213302   1.659   2.528   1.339
 4135SOL     OW13303   6.129   1.206   0.616
 4135SOL    HW113304   6.035   1.179   0.595
 4135SOL    HW213305   6.140   1.303   0.599
 4136SOL     OW13306   0.594   4.610   0.177
 4136SOL    HW113307   0.659   4.541   0.148
 4136SOL    HW213308   0.546   4.578   0.259
 4137SOL     OW13309   0.136   2.410   5.335
 4137SOL    HW113310   0.176   2.322   5.358
 4137SOL    HW213311   0.047   2.396   5.292
 4138SOL     OW13312   6.203   6.652   6.204
 4138SOL    HW113313   6.245   6.743   6.201
 4138SOL    HW213314   6.256   6.589   6.148
 4139SOL     OW13315   1.512   3.959   2.264
 4139SOL    HW113316   1.541   4.051   2.236
 4139SOL    HW213317   1.547   3.939   2.355
 4140SOL     OW13318   2.378   6.538   0.213
 4140SOL    HW113319   2.463   6.486   0.218
 4140SOL    HW213320   2.310   6.486   0.162
 4141SOL     OW13321   4.976   0.456   6.012
 4141SOL    HW113322   5.032   0.532   6.045
 4141SOL    HW213323   4.957   0.394   6.089
 4142SOL     OW13324   0.150   6.712   1.673
 4142SOL    HW113325   0.237   6.746   1.708
 4142SOL    HW213326   0.163   6.668   1.584
 4143SOL     OW13327   6.451   3.387   6.341
 4143SOL    HW113328   6.429   3.461   6.278
 4143SOL    HW213329   6.430   3.415   6.435
 4144SOL     OW13330   5.049   0.900   1.687
 4144SOL    HW113331   5.087   0.993   1.683
 4144SOL    HW213332   4.953   0.905   1.714
 4145SOL     OW13333   4.612   1.030   1.327
 4145SOL    HW113334   4.513   1.011   1.328
 4145SOL    HW213335   4.629   1.120   1.365
 4146SOL     OW13336   3.417   1.104   2.468
 4146SOL    HW113337   3.340   1.113   2.404
 4146SOL    HW213338   3.494   1.158   2.435
 4147SOL     OW13339   4.734   3.899   6.684
 4147SOL    HW113340   4.668   3.838   6.640
 4147SOL    HW213341   4.809   3.917   6.621
 4148SOL     OW13342   3.436   1.055   6.043
 4148SOL    HW113343   3.352   1.068   5.991
 4148SOL    HW213344   3.443   0.960   6.073
 4149SOL     OW13345   1.372   2.884   0.166
 4149SOL    HW113346   1.430   2.803   0.173
 4149SOL    HW213347   1.278   2.855   0.145
 4150SOL     OW13348   0.037   1.260   1.057
 4150SOL    HW113349   6.963   1.252   1.062
 4150SOL    HW213350   0.062   1.354   1.034
 4151SOL     OW13351   2.760   5.375   4.740
 4151SOL    HW113352   2.728   5.392   4.832
 4151SOL    HW213353   2.774   5.462   4.692
 4152SOL     OW13354   2.561   3.978   1.467
 4152SOL    HW113355   2.622   3.999   1.544
 4152SOL    HW213356   2.466   3.998   1.494
 4153SOL     OW13357   6.493   6.402   0.636
 4153SOL    HW113358   6.570   6.441   0.586
 4153SOL    HW213359   6.460   6.468   0.703
 4154SOL     OW13360   0.298   6.528   4.001
 4154SOL    HW113361   0.343   6.441   4.023
 4154SOL    HW213362   0.210   6.533   4.048
 4155SOL     OW13363   5.615   1.882   2.054
 4155SOL    HW113364   5.616   1.916   1.960
 4155SOL    HW213365   5.522   1.851   2.077
 4156SOL     OW13366   1.040   5.263   5.649
 4156SOL    HW113367   0.977   5.317   5.593
 4156SOL    HW213368   1.103   5.325   5.697
 4157SOL     OW13369   4.978   6.306   0.359
 4157SOL    HW113370   4.976   6.220   0.410
 4157SOL    HW213371   4.944   6.291   0.266
 4158SOL     OW13372   6.126   1.404   6.776
 4158SOL    HW113373   6.064   1.467   6.730
 4158SOL    HW213374   6.120   1.314   6.733
 4159SOL     OW13375   3.114   0.634   4.994
 4159SOL    HW113376   3.078   0.606   5.083
 4159SOL    HW213377   3.067   0.717   4.964
 4160SOL     OW13378   1.475   7.019   6.072
 4160SOL    HW113379   1.530   0.072   6.102
 4160SOL    HW213380   1.534   6.940   6.057
 4161SOL     OW13381   3.572   3.357   4.942
 4161SOL    HW113382   3.511   3.302   4.999
 4161SOL    HW213383   3.555   3.454   4.959
 4162SOL     OW13384   4.365   6.128   1.290
 4162SOL    HW113385   4.356   6.124   1.390
 4162SOL    HW213386   4.347   6.222   1.259
 4163SOL     OW13387   3.495   5.911   0.917
 4163SOL    HW113388   3.591   5.932   0.901
 4163SOL    HW213389   3.486   5.817   0.948
 4164SOL     OW13390   5.553   1.396   0.068
 4164SOL    HW113391   5.571   1.412   6.996
 4164SOL    HW213392   5.584   1.305   0.094
 4165SOL     OW13393   3.501   2.133   4.344
 4165SOL    HW113394   3.530   2.095   4.432
 4165SOL    HW213395   3.567   2.108   4.273
 4166SOL     OW13396   5.780   2.084   2.830
 4166SOL    HW113397   5.684   2.060   2.846
 4166SOL    HW213398   5.834   2.000   2.824
 4167SOL     OW13399   3.955   6.736   4.645
 4167SOL    HW113400   3.867   6.767   4.609
 4167SOL    HW213401   3.956   6.747   4.745
 4168SOL     OW13402   5.259   3.927   6.722
 4168SOL    HW113403   5.271   3.981   6.806
 4168SOL    HW213404   5.193   3.973   6.663
 4169SOL     OW13405   4.933   3.843   6.441
 4169SOL    HW113406   4.883   3.841   6.354
 4169SOL    HW213407   5.024   3.881   6.426
 4170SOL     OW13408   1.089   2.944   5.188
 4170SOL    HW113409   1.158   2.982   5.125
 4170SOL    HW213410   1.004   2.997   5.180
 4171SOL     OW13411   0.112   1.159   6.238
 4171SOL    HW113412   0.199   1.122   6.270
 4171SOL    HW213413   0.049   1.168   6.315
 4172SOL     OW13414   3.230   2.766   0.212
 4172SOL    HW113415   3.169   2.814   0.148
 4172SOL    HW213416   3.281   2.833   0.266
 4173SOL     OW13417   5.529   1.294   5.871
 4173SOL    HW113418   5.485   1.370   5.824
 4173SOL    HW213419   5.628   1.311   5.876
 4174SOL     OW13420   2.628   6.707   3.482
 4174SOL    HW113421   2.568   6.735   3.557
 4174SOL    HW213422   2.649   6.787   3.425
 4175SOL     OW13423   1.022   4.211   6.469
 4175SOL    HW113424   1.003   4.114   6.483
 4175SOL    HW213425   0.995   4.237   6.376
 4176SOL     OW13426   4.141   6.715   4.988
 4176SOL    HW113427   4.189   6.742   4.904
 4176SOL    HW213428   4.158   6.618   5.007
 4177SOL     OW13429   4.520   6.324   3.750
 4177SOL    HW113430   4.537   6.231   3.782
 4177SOL    HW213431   4.475   6.376   3.823
 4178SOL     OW13432   3.494   6.780   0.998
 4178SOL    HW113433   3.584   6.746   1.025
 4178SOL    HW213434   3.497   6.879   0.986
 4179SOL     OW13435   4.251   1.859   0.180
 4179SOL    HW113436   4.305   1.778   0.157
 4179SOL    HW213437   4.155   1.833   0.191
 4180SOL     OW13438   3.767   4.215   0.105
 4180SOL    HW113439   3.865   4.228   0.121
 4180SOL    HW213440   3.748   4.119   0.084
 4181SOL     OW13441   5.641   6.225   5.541
 4181SOL    HW113442   5.588   6.158   5.594
 4181SOL    HW213443   5.677   6.182   5.459
 4182SOL     OW13444   6.827   5.291   5.476
 4182SOL    HW113445   6.916   5.249   5.456
 4182SOL    HW213446   6.756   5.221   5.472
 4183SOL     OW13447   5.079   2.546   6.851
 4183SOL    HW113448   5.064   2.479   6.779
 4183SOL    HW213449   5.086   2.499   6.939
 4184SOL     OW13450   3.413   5.645   2.959
 4184SOL    HW113451   3.496   5.610   3.003
 4184SOL    HW213452   3.348   5.570   2.947
 4185SOL     OW13453   4.448   4.481   3.261
 4185SOL    HW113454   4.381   4.544   3.223
 4185SOL    HW213455   4.416   4.447   3.349
 4186SOL     OW13456   1.350   5.646   0.518
 4186SOL    HW113457   1.292   5.668   0.597
 4186SOL    HW213458   1.292   5.629   0.439
 4187SOL     OW13459   1.907   4.229   6.721
 4187SOL    HW113460   1.993   4.206   6.676
 4187SOL    HW213461   1.840   4.156   6.706
 4188SOL     OW13462   5.382   0.989   6.287
 4188SOL    HW113463   5.478   0.984   6.312
 4188SOL    HW213464   5.329   0.929   6.347
 4189SOL     OW13465   4.506   5.875   3.559
 4189SOL    HW113466   4.512   5.926   3.646
 4189SOL    HW213467   4.487   5.940   3.485
 4190SOL     OW13468   6.100   5.722   1.286
 4190SOL    HW113469   6.102   5.820   1.267
 4190SOL    HW213470   6.189   5.692   1.321
 4191SOL     OW13471   4.504   2.790   5.747
 4191SOL    HW113472   4.559   2.707   5.762
 4191SOL    HW213473   4.565   2.868   5.737
 4192SOL     OW13474   1.891   3.600   6.366
 4192SOL    HW113475   1.818   3.663   6.341
 4192SOL    HW213476   1.907   3.535   6.292
 4193SOL     OW13477   5.732   6.900   1.337
 4193SOL    HW113478   5.652   6.841   1.336
 4193SOL    HW213479   5.740   6.944   1.427
 4194SOL     OW13480   5.296   0.193   6.585
 4194SOL    HW113481   5.236   0.164   6.660
 4194SOL    HW213482   5.334   0.113   6.539
 4195SOL     OW13483   2.271   6.164   0.798
 4195SOL    HW113484   2.190   6.156   0.739
 4195SOL    HW213485   2.243   6.192   0.890
 4196SOL     OW13486   7.024   3.003   3.744
 4196SOL    HW113487   6.953   2.975   3.679
 4196SOL    HW213488   0.076   3.044   3.694
 4197SOL     OW13489   4.235   0.533   0.291
 4197SOL    HW113490   4.189   0.611   0.250
 4197SOL    HW213491   4.223   0.535   0.391
 4198SOL     OW13492   6.339   2.350   1.536
 4198SOL    HW113493   6.377   2.442   1.531
 4198SOL    HW213494   6.386   2.291   1.471
 4199SOL     OW13495   1.073   3.732   6.749
 4199SOL    HW113496   1.023   3.759   6.831
 4199SOL    HW213497   1.133   3.807   6.720
 4200SOL     OW13498   5.848   1.580   2.662
 4200SOL    HW113499   5.772   1.537   2.613
 4200SOL    HW213500   5.934   1.535   2.635
 4201SOL     OW13501   4.659   0.149   4.975
 4201SOL    HW113502   4.741   0.159   4.919
 4201SOL    HW213503   4.670   0.199   5.060
 4202SOL     OW13504   4.606   4.096   1.693
 4202SOL    HW113505   4.547   4.165   1.735
 4202SOL    HW213506   4.620   4.118   1.597
 4203SOL     OW13507   6.454   4.204   4.656
 4203SOL    HW113508   6.514   4.235   4.581
 4203SOL    HW213509   6.370   4.167   4.617
 4204SOL     OW13510   2.456   4.095   5.739
 4204SOL    HW113511   2.543   4.124   5.698
 4204SOL    HW213512   2.382   4.109   5.674
 4205SOL     OW13513   5.801   5.769   5.609
 4205SOL    HW113514   5.744   5.759   5.527
 4205SOL    HW213515   5.868   5.841   5.594
 4206SOL     OW13516   2.610   2.473   5.163
 4206SOL    HW113517   2.573   2.558   5.127
 4206SOL    HW213518   2.669   2.431   5.094
 4207SOL     OW13519   2.032   2.546   1.388
 4207SOL    HW113520   2.063   2.555   1.483
 4207SOL    HW213521   2.052   2.454   1.355
 4208SOL     OW13522   1.817   2.222   3.175
 4208SOL    HW113523   1.733   2.189   3.131
 4208SOL    HW213524   1.885   2.244   3.106
 4209SOL     OW13525   6.334   5.439   2.491
 4209SOL    HW113526   6.237   5.416   2.506
 4209SOL    HW213527   6.344   5.487   2.404
 4210SOL     OW13528   3.288   5.305   5.678
 4210SOL    HW113529   3.315   5.240   5.607
 4210SOL    HW213530   3.331   5.394   5.659
 4211SOL     OW13531   4.676   2.555   5.809
 4211SOL    HW113532   4.672   2.524   5.904
 4211SOL    HW213533   4.761   2.523   5.767
 4212SOL     OW13534   0.773   2.349   2.796
 4212SOL    HW113535   0.787   2.415   2.870
 4212SOL    HW213536   0.679   2.356   2.762
 4213SOL     OW13537   3.067   0.889   3.610
 4213SOL    HW113538   3.056   0.790   3.600
 4213SOL    HW213539   3.130   0.922   3.540
 4214SOL     OW13540   6.071   6.415   3.990
 4214SOL    HW113541   6.060   6.457   4.081
 4214SOL    HW213542   6.062   6.485   3.920
 4215SOL     OW13543   5.406   0.184   5.330
 4215SOL    HW113544   5.376   0.278   5.313
 4215SOL    HW213545   5.467   0.154   5.257
 4216SOL     OW13546   2.130   5.568   2.372
 4216SOL    HW113547   2.078   5.536   2.292
 4216SOL    HW213548   2.071   5.569   2.452
 4217SOL     OW13549   0.394   0.162   2.973
 4217SOL    HW113550   0.437   0.219   3.044
 4217SOL    HW213551   0.464   0.107   2.928
 4218SOL     OW13552   2.770   0.773   1.635
 4218SOL    HW113553   2.723   0.709   1.573
 4218SOL    HW213554   2.710   0.795   1.712
 4219SOL     OW13555   3.185   5.727   2.610
 4219SOL    HW113556   3.265   5.776   2.645
 4219SOL    HW213557   3.111   5.732   2.677
 4220SOL     OW13558   5.874   1.865   1.528
 4220SOL    HW113559   5.933   1.843   1.450
 4220SOL    HW213560   5.814   1.787   1.546
 4221SOL     OW13561   0.678   6.736   1.186
 4221SOL    HW113562   0.730   6.651   1.183
 4221SOL    HW213563   0.721   6.798   1.253
 4222SOL     OW13564   5.008   3.577   4.222
 4222SOL    HW113565   4.976   3.600   4.314
 4222SOL    HW213566   5.040   3.483   4.220
 4223SOL     OW13567   3.659   4.014   3.243
 4223SOL    HW113568   3.684   3.966   3.159
 4223SOL    HW213569   3.724   3.990   3.315
 4224SOL     OW13570   4.879   4.265   4.723
 4224SOL    HW113571   4.892   4.351   4.674
 4224SOL    HW213572   4.836   4.282   4.811
 4225SOL     OW13573   0.746   1.597   6.234
 4225SOL    HW113574   0.742   1.678   6.174
 4225SOL    HW213575   0.841   1.581   6.262
 4226SOL     OW13576   5.496   4.679   4.420
 4226SOL    HW113577   5.567   4.629   4.370
 4226SOL    HW213578   5.515   4.675   4.518
 4227SOL     OW13579   5.598   5.635   1.218
 4227SOL    HW113580   5.632   5.690   1.141
 4227SOL    HW213581   5.660   5.557   1.232
 4228SOL     OW13582   1.890   4.090   3.649
 4228SOL    HW113583   1.975   4.039   3.664
 4228SOL    HW213584   1.887   4.168   3.711
 4229SOL     OW13585   6.232   6.339   5.627
 4229SOL    HW113586   6.239   6.304   5.721
 4229SOL    HW213587   6.198   6.433   5.629
 4230SOL     OW13588   0.597   0.925   2.509
 4230SOL    HW113589   0.519   0.862   2.502
 4230SOL    HW213590   0.671   0.893   2.451
 4231SOL     OW13591   0.386   0.603   5.881
 4231SOL    HW113592   0.301   0.592   5.828
 4231SOL    HW213593   0.442   0.521   5.870
 4232SOL     OW13594   1.688   4.768   2.696
 4232SOL    HW113595   1.747   4.699   2.654
 4232SOL    HW213596   1.594   4.734   2.701
 4233SOL     OW13597   4.201   5.438   2.656
 4233SOL    HW113598   4.192   5.537   2.654
 4233SOL    HW213599   4.121   5.396   2.613
 4234SOL     OW13600   3.620   5.137   6.304
 4234SOL    HW113601   3.548   5.103   6.242
 4234SOL    HW213602   3.669   5.060   6.343
 4235SOL     OW13603   6.692   6.141   6.865
 4235SOL    HW113604   6.658   6.202   6.792
 4235SOL    HW213605   6.649   6.167   6.951
 4236SOL     OW13606   6.879   4.957   3.395
 4236SOL    HW113607   6.873   5.053   3.424
 4236SOL    HW213608   6.940   4.951   3.316
 4237SOL     OW13609   6.461   4.669   3.987
 4237SOL    HW113610   6.494   4.755   3.948
 4237SOL    HW213611   6.403   4.622   3.920
 4238SOL     OW13612   2.335   5.547   2.728
 4238SOL    HW113613   2.319   5.639   2.693
 4238SOL    HW213614   2.249   5.495   2.728
 4239SOL     OW13615   4.055   1.187   3.238
 4239SOL    HW113616   4.085   1.099   3.275
 4239SOL    HW213617   3.979   1.221   3.293
 4240SOL     OW13618   4.757   6.767   1.774
 4240SOL    HW113619   4.822   6.738   1.703
 4240SOL    HW213620   4.663   6.755   1.740
 4241SOL     OW13621   0.370   4.400   6.968
 4241SOL    HW113622   0.428   4.476   6.937
 4241SOL    HW213623   0.274   4.429   6.969
 4242SOL     OW13624   3.857   2.153   2.682
 4242SOL    HW113625   3.848   2.170   2.780
 4242SOL    HW213626   3.767   2.156   2.639
 4243SOL     OW13627   3.324   2.122   2.913
 4243SOL    HW113628   3.268   2.046   2.879
 4243SOL    HW213629   3.417   2.113   2.877
 4244SOL     OW13630   2.824   3.536   5.146
 4244SOL    HW113631   2.778   3.623   5.129
 4244SOL    HW213632   2.779   3.489   5.222
 4245SOL     OW13633   6.754   1.233   5.373
 4245SOL    HW113634   6.801   1.264   5.456
 4245SOL    HW213635   6.708   1.310   5.330
 4246SOL     OW13636   1.033   4.775   6.067
 4246SOL    HW113637   0.989   4.699   6.115
 4246SOL    HW213638   1.124   4.747   6.036
 4247SOL     OW13639   0.105   4.633   5.261
 4247SOL    HW113640   0.110   4.582   5.347
 4247SOL    HW213641   0.181   4.607   5.202
 4248SOL     OW13642   2.197   3.623   6.833
 4248SOL    HW113643   2.220   3.677   6.752
 4248SOL    HW213644   2.108   3.581   6.821
 4249SOL     OW13645   5.110   3.210   6.098
 4249SOL    HW113646   5.112   3.175   6.005
 4249SOL    HW213647   5.142   3.138   6.161
 4250SOL     OW13648   6.943   4.302   3.717
 4250SOL    HW113649   0.008   4.264   3.737
 4250SOL    HW213650   6.925   4.296   3.618
 4251SOL     OW13651   6.242   4.832   6.099
 4251SOL    HW113652   6.171   4.897   6.073
 4251SOL    HW213653   6.304   4.875   6.166
 4252SOL     OW13654   6.749   4.928   5.247
 4252SOL    HW113655   6.724   4.978   5.330
 4252SOL    HW213656   6.848   4.933   5.234
 4253SOL     OW13657   3.223   6.857   2.929
 4253SOL    HW113658   3.293   6.802   2.882
 4253SOL    HW213659   3.214   6.945   2.882
 4254SOL     OW13660   3.273   3.056   2.531
 4254SOL    HW113661   3.340   3.117   2.488
 4254SOL    HW213662   3.321   2.994   2.593
 4255SOL     OW13663   0.370   2.206   4.209
 4255SOL    HW113664   0.315   2.272   4.157
 4255SOL    HW213665   0.433   2.159   4.147
 4256SOL     OW13666   1.388   0.947   2.192
 4256SOL    HW113667   1.384   0.873   2.259
 4256SOL    HW213668   1.483   0.965   2.168
 4257SOL     OW13669   4.408   2.259   5.229
 4257SOL    HW113670   4.324   2.249   5.176
 4257SOL    HW213671   4.432   2.355   5.235
 4258SOL     OW13672   5.310   5.742   2.068
 4258SOL    HW113673   5.265   5.830   2.057
 4258SOL    HW213674   5.318   5.720   2.166
 4259SOL     OW13675   2.668   3.046   1.636
 4259SOL    HW113676   2.744   2.980   1.641
 4259SOL    HW213677   2.588   3.007   1.681
 4260SOL     OW13678   4.027   6.320   4.751
 4260SOL    HW113679   3.930   6.324   4.726
 4260SOL    HW213680   4.039   6.258   4.829
 4261SOL     OW13681   0.991   1.448   3.112
 4261SOL    HW113682   1.001   1.531   3.057
 4261SOL    HW213683   1.070   1.388   3.096
 4262SOL     OW13684   0.770   6.812   5.251
 4262SOL    HW113685   0.731   6.734   5.202
 4262SOL    HW213686   0.795   6.883   5.185
 4263SOL     OW13687   4.710   5.105   6.849
 4263SOL    HW113688   4.674   5.152   6.929
 4263SOL    HW213689   4.784   5.043   6.876
 4264SOL     OW13690   1.301   0.272   1.406
 4264SOL    HW113691   1.276   0.234   1.495
 4264SOL    HW213692   1.229   0.333   1.374
 4265SOL     OW13693   1.806   1.411   0.563
 4265SOL    HW113694   1.886   1.426   0.505
 4265SOL    HW213695   1.724   1.442   0.515
 4266SOL     OW13696   2.920   4.709   0.561
 4266SOL    HW113697   2.848   4.657   0.514
 4266SOL    HW213698   2.980   4.751   0.493
 4267SOL     OW13699   1.829   3.681   5.516
 4267SOL    HW113700   1.892   3.733   5.573
 4267SOL    HW213701   1.879   3.638   5.441
 4268SOL     OW13702   1.111   1.262   0.793
 4268SOL    HW113703   1.035   1.300   0.739
 4268SOL    HW213704   1.144   1.332   0.857
 4269SOL     OW13705   2.821   3.457   0.428
 4269SOL    HW113706   2.775   3.474   0.340
 4269SOL    HW213707   2.879   3.376   0.420
 4270SOL     OW13708   3.655   2.870   6.989
 4270SOL    HW113709   3.747   2.910   6.985
 4270SOL    HW213710   3.630   2.834   6.900
 4271SOL     OW13711   1.598   0.614   1.455
 4271SOL    HW113712   1.618   0.623   1.358
 4271SOL    HW213713   1.527   0.680   1.481
 4272SOL     OW13714   1.102   4.249   3.920
 4272SOL    HW113715   1.041   4.328   3.915
 4272SOL    HW213716   1.169   4.263   3.993
 4273SOL     OW13717   6.048   6.625   3.437
 4273SOL    HW113718   6.025   6.555   3.370
 4273SOL    HW213719   5.980   6.698   3.433
 4274SOL     OW13720   2.510   0.298   3.555
 4274SOL    HW113721   2.433   0.349   3.593
 4274SOL    HW213722   2.587   0.300   3.619
 4275SOL     OW13723   0.717   0.356   5.206
 4275SOL    HW113724   0.791   0.387   5.265
 4275SOL    HW213725   0.670   0.435   5.165
 4276SOL     OW13726   2.057   3.722   3.196
 4276SOL    HW113727   2.054   3.628   3.232
 4276SOL    HW213728   2.090   3.720   3.101
 4277SOL     OW13729   0.921   5.597   5.385
 4277SOL    HW113730   0.965   5.686   5.380
 4277SOL    HW213731   0.922   5.554   5.295
 4278SOL     OW13732   1.124   6.092   6.423
 4278SOL    HW113733   1.116   6.127   6.516
 4278SOL    HW213734   1.178   6.007   6.423
 4279SOL     OW13735   3.443   5.912   2.920
 4279SOL    HW113736   3.514   5.946   2.982
 4279SOL    HW213737   3.431   5.814   2.934
 4280SOL     OW13738   5.033   2.681   3.657
 4280SOL    HW113739   4.991   2.597   3.690
 4280SOL    HW213740   4.995   2.704   3.568
 4281SOL     OW13741   1.729   3.925   5.102
 4281SOL    HW113742   1.761   3.931   5.008
 4281SOL    HW213743   1.800   3.959   5.164
 4282SOL     OW13744   0.771   1.555   0.346
 4282SOL    HW113745   0.690   1.613   0.359
 4282SOL    HW213746   0.819   1.583   0.263
 4283SOL     OW13747   2.886   1.063   4.346
 4283SOL    HW113748   2.977   1.071   4.305
 4283SOL    HW213749   2.884   1.115   4.432
 4284SOL     OW13750   6.862   2.179   2.966
 4284SOL    HW113751   6.917   2.134   2.896
 4284SOL    HW213752   6.901   2.159   3.056
 4285SOL     OW13753   1.010   6.214   4.184
 4285SOL    HW113754   1.079   6.238   4.116
 4285SOL    HW213755   1.053   6.206   4.274
 4286SOL     OW13756   4.482   5.711   6.411
 4286SOL    HW113757   4.512   5.664   6.328
 4286SOL    HW213758   4.554   5.772   6.443
 4287SOL     OW13759   3.910   5.495   5.609
 4287SOL    HW113760   3.855   5.578   5.605
 4287SOL    HW213761   3.851   5.414   5.602
 4288SOL     OW13762   1.493   6.162   3.827
 4288SOL    HW113763   1.530   6.090   3.885
 4288SOL    HW213764   1.461   6.238   3.884
 4289SOL     OW13765   0.253   4.117   6.795
 4289SOL    HW113766   0.253   4.067   6.881
 4289SOL    HW213767   0.210   4.206   6.808
 4290SOL     OW13768   1.663   1.937   2.987
 4290SOL    HW113769   1.727   1.932   3.063
 4290SOL    HW213770   1.659   2.031   2.953
 4291SOL     OW13771   0.230   4.139   1.513
 4291SOL    HW113772   0.305   4.169   1.572
 4291SOL    HW213773   0.266   4.080   1.441
 4292SOL     OW13774   5.698   5.314   5.196
 4292SOL    HW113775   5.624   5.252   5.221
 4292SOL    HW213776   5.783   5.283   5.238
 4293SOL     OW13777   0.363   1.891   0.499
 4293SOL    HW113778   0.340   1.985   0.475
 4293SOL    HW213779   0.285   1.831   0.481
 4294SOL     OW13780   4.731   1.914   5.966
 4294SOL    HW113781   4.805   1.907   6.033
 4294SOL    HW213782   4.730   1.831   5.910
 4295SOL     OW13783   3.719   5.712   5.562
 4295SOL    HW113784   3.651   5.667   5.504
 4295SOL    HW213785   3.683   5.718   5.655
 4296SOL     OW13786   2.505   1.214   2.428
 4296SOL    HW113787   2.584   1.275   2.422
 4296SOL    HW213788   2.430   1.262   2.473
 4297SOL     OW13789   5.864   0.308   0.754
 4297SOL    HW113790   5.963   0.308   0.771
 4297SOL    HW213791   5.835   0.215   0.732
 4298SOL     OW13792   1.298   4.570   1.825
 4298SOL    HW113793   1.246   4.591   1.908
 4298SOL    HW213794   1.286   4.644   1.759
 4299SOL     OW13795   1.311   5.942   5.188
 4299SOL    HW113796   1.361   5.977   5.108
 4299SOL    HW213797   1.331   5.999   5.267
 4300SOL     OW13798   6.083   6.898   5.605
 4300SOL    HW113799   6.060   6.939   5.516
 4300SOL    HW213800   6.152   6.827   5.592
 4301SOL     OW13801   3.188   1.416   1.105
 4301SOL    HW113802   3.148   1.378   1.188
 4301SOL    HW213803   3.136   1.498   1.078
 4302SOL     OW13804   0.912   0.520   6.633
 4302SOL    HW113805   0.827   0.569   6.653
 4302SOL    HW213806   0.917   0.438   6.689
 4303SOL     OW13807   0.536   4.100   1.497
 4303SOL    HW113808   0.484   4.016   1.511
 4303SOL    HW213809   0.605   4.108   1.568
 4304SOL     OW13810   2.981   3.562   5.744
 4304SOL    HW113811   2.980   3.656   5.778
 4304SOL    HW213812   3.017   3.501   5.814
 4305SOL     OW13813   0.488   1.592   5.024
 4305SOL    HW113814   0.570   1.538   5.009
 4305SOL    HW213815   0.440   1.605   4.937
 4306SOL     OW13816   6.454   5.464   5.449
 4306SOL    HW113817   6.525   5.535   5.446
 4306SOL    HW213818   6.486   5.387   5.504
 4307SOL     OW13819   5.719   3.466   0.742
 4307SOL    HW113820   5.796   3.467   0.678
 4307SOL    HW213821   5.706   3.558   0.780
 4308SOL     OW13822   3.232   0.132   4.941
 4308SOL    HW113823   3.195   0.147   4.849
 4308SOL    HW213824   3.318   0.183   4.950
 4309SOL     OW13825   1.119   6.651   1.708
 4309SOL    HW113826   1.201   6.697   1.741
 4309SOL    HW213827   1.056   6.635   1.784
 4310SOL     OW13828   1.776   6.780   2.908
 4310SOL    HW113829   1.876   6.778   2.918
 4310SOL    HW213830   1.744   6.690   2.879
 4311SOL     OW13831   1.100   5.107   4.269
 4311SOL    HW113832   1.078   5.183   4.330
 4311SOL    HW213833   1.029   5.098   4.199
 4312SOL     OW13834   1.248   5.664   2.134
 4312SOL    HW113835   1.306   5.659   2.215
 4312SOL    HW213836   1.157   5.698   2.160
 4313SOL     OW13837   5.082   1.425   1.301
 4313SOL    HW113838   5.178   1.397   1.295
 4313SOL    HW213839   5.043   1.429   1.208
 4314SOL     OW13840   6.115   3.418   1.054
 4314SOL    HW113841   6.046   3.430   1.125
 4314SOL    HW213842   6.102   3.329   1.011
 4315SOL     OW13843   2.100   1.062   2.837
 4315SOL    HW113844   2.020   1.122   2.836
 4315SOL    HW213845   2.160   1.087   2.913
 4316SOL     OW13846   0.421   1.333   2.380
 4316SOL    HW113847   0.339   1.349   2.435
 4316SOL    HW213848   0.426   1.236   2.354
 4317SOL     OW13849   4.588   0.546   3.130
 4317SOL    HW113850   4.532   0.565   3.049
 4317SOL    HW213851   4.685   0.555   3.106
 4318SOL     OW13852   6.909   2.140   5.053
 4318SOL    HW113853   6.809   2.140   5.051
 4318SOL    HW213854   6.941   2.072   5.118
 4319SOL     OW13855   3.735   2.274   6.532
 4319SOL    HW113856   3.795   2.349   6.561
 4319SOL    HW213857   3.642   2.291   6.565
 4320SOL     OW13858   6.709   6.538   3.486
 4320SOL    HW113859   6.653   6.495   3.416
 4320SOL    HW213860   6.677   6.511   3.577
 4321SOL     OW13861   0.529   0.488   4.856
 4321SOL    HW113862   0.511   0.390   4.865
 4321SOL    HW213863   0.527   0.531   4.946
 4322SOL     OW13864   6.424   1.026   1.073
 4322SOL    HW113865   6.465   0.944   1.034
 4322SOL    HW213866   6.327   1.009   1.091
 4323SOL     OW13867   6.898   2.040   3.827
 4323SOL    HW113868   6.859   2.131   3.834
 4323SOL    HW213869   6.828   1.972   3.851
 4324SOL     OW13870   5.818   2.646   5.470
 4324SOL    HW113871   5.841   2.739   5.442
 4324SOL    HW213872   5.754   2.649   5.547
 4325SOL     OW13873   1.790   2.899   6.835
 4325SOL    HW113874   1.827   2.846   6.759
 4325SOL    HW213875   1.690   2.907   6.825
 4326SOL     OW13876   6.645   2.162   5.025
 4326SOL    HW113877   6.572   2.228   5.043
 4326SOL    HW213878   6.644   2.137   4.928
 4327SOL     OW13879   4.737   0.881   3.025
 4327SOL    HW113880   4.702   0.917   3.112
 4327SOL    HW213881   4.694   0.931   2.949
 4328SOL     OW13882   6.074   4.977   0.254
 4328SOL    HW113883   6.085   4.882   0.224
 4328SOL    HW213884   5.977   4.994   0.273
 4329SOL     OW13885   4.917   1.490   6.518
 4329SOL    HW113886   4.883   1.582   6.501
 4329SOL    HW213887   4.956   1.485   6.609
 4330SOL     OW13888   0.875   0.961   6.465
 4330SOL    HW113889   0.907   1.048   6.428
 4330SOL    HW213890   0.950   0.894   6.462
 4331SOL     OW13891   4.971   2.680   6.325
 4331SOL    HW113892   5.022   2.717   6.247
 4331SOL    HW213893   4.881   2.723   6.329
 4332SOL     OW13894   6.227   4.208   1.636
 4332SOL    HW113895   6.202   4.303   1.658
 4332SOL    HW213896   6.144   4.151   1.635
 4333SOL     OW13897   6.263   1.291   4.809
 4333SOL    HW113898   6.331   1.363   4.794
 4333SOL    HW213899   6.296   1.205   4.770
 4334SOL     OW13900   3.910   0.393   1.905
 4334SOL    HW113901   3.871   0.323   1.846
 4334SOL    HW213902   3.899   0.483   1.862
 4335SOL     OW13903   3.742   4.431   5.796
 4335SOL    HW113904   3.761   4.439   5.698
 4335SOL    HW213905   3.747   4.335   5.824
 4336SOL     OW13906   1.269   6.938   5.903
 4336SOL    HW113907   1.195   6.992   5.943
 4336SOL    HW213908   1.356   6.968   5.941
 4337SOL     OW13909   0.925   5.485   6.284
 4337SOL    HW113910   0.962   5.530   6.203
 4337SOL    HW213911   0.845   5.536   6.317
 4338SOL     OW13912   5.420   6.645   3.112
 4338SOL    HW113913   5.331   6.643   3.068
 4338SOL    HW213914   5.488   6.683   3.048
 4339SOL     OW13915   6.413   0.876   0.070
 4339SOL    HW113916   6.390   0.968   0.102
 4339SOL    HW213917   6.507   0.854   0.097
 4340SOL     OW13918   4.724   3.719   1.674
 4340SOL    HW113919   4.822   3.739   1.684
 4340SOL    HW213920   4.687   3.770   1.597
 4341SOL     OW13921   0.842   3.249   0.620
 4341SOL    HW113922   0.780   3.302   0.678
 4341SOL    HW213923   0.913   3.309   0.583
 4342SOL     OW13924   0.275   2.307   2.485
 4342SOL    HW113925   0.254   2.398   2.521
 4342SOL    HW213926   0.323   2.316   2.397
 4343SOL     OW13927   3.363   2.515   0.994
 4343SOL    HW113928   3.282   2.458   0.983
 4343SOL    HW213929   3.413   2.487   1.076
 4344SOL     OW13930   2.256   3.212   1.590
 4344SOL    HW113931   2.334   3.158   1.558
 4344SOL    HW213932   2.187   3.218   1.517
 4345SOL     OW13933   3.181   1.053   5.918
 4345SOL    HW113934   3.160   0.965   5.961
 4345SOL    HW213935   3.121   1.067   5.839
 4346SOL     OW13936   0.318   3.985   1.051
 4346SOL    HW113937   0.382   4.037   1.107
 4346SOL    HW213938   0.267   4.048   0.992
 4347SOL     OW13939   5.046   5.700   2.509
 4347SOL    HW113940   5.060   5.680   2.606
 4347SOL    HW213941   5.000   5.788   2.499
 4348SOL     OW13942   1.381   3.599   0.397
 4348SOL    HW113943   1.413   3.629   0.487
 4348SOL    HW213944   1.453   3.547   0.351
 4349SOL     OW13945   6.564   1.044   1.603
 4349SOL    HW113946   6.540   0.994   1.520
 4349SOL    HW213947   6.646   1.098   1.587
 4350SOL     OW13948   3.972   0.606   2.990
 4350SOL    HW113949   3.879   0.598   2.954
 4350SOL    HW213950   4.038   0.592   2.916
 4351SOL     OW13951   3.179   7.001   6.882
 4351SOL    HW113952   3.118   6.952   6.944
 4351SOL    HW213953   3.272   6.968   6.892
 4352SOL     OW13954   6.554   1.864   1.937
 4352SOL    HW113955   6.516   1.955   1.957
 4352SOL    HW213956   6.654   1.871   1.930
 4353SOL     OW13957   3.240   5.642   0.931
 4353SOL    HW113958   3.195   5.693   1.004
 4353SOL    HW213959   3.172   5.602   0.871
 4354SOL     OW13960   2.955   0.938   1.541
 4354SOL    HW113961   2.969   0.908   1.447
 4354SOL    HW213962   2.887   0.880   1.585
 4355SOL     OW13963   4.742   6.859   6.670
 4355SOL    HW113964   4.815   6.913   6.629
 4355SOL    HW213965   4.676   6.833   6.600
 4356SOL     OW13966   3.336   3.645   1.061
 4356SOL    HW113967   3.276   3.722   1.040
 4356SOL    HW213968   3.381   3.662   1.149
 4357SOL     OW13969   6.068   0.517   0.427
 4357SOL    HW113970   6.163   0.545   0.441
 4357SOL    HW213971   6.011   0.598   0.414
 4358SOL     OW13972   6.075   0.655   1.277
 4358SOL    HW113973   6.172   0.629   1.272
 4358SOL    HW213974   6.027   0.619   1.197
 4359SOL     OW13975   0.454   3.964   4.535
 4359SOL    HW113976   0.515   4.018   4.477
 4359SOL    HW213977   0.486   3.869   4.539
 4360SOL     OW13978   2.270   3.414   1.000
 4360SOL    HW113979   2.229   3.505   1.001
 4360SOL    HW213980   2.283   3.383   1.094
 4361SOL     OW13981   5.540   2.435   2.811
 4361SOL    HW113982   5.583   2.392   2.731
 4361SOL    HW213983   5.604   2.433   2.888
 4362SOL     OW13984   4.818   4.233   2.683
 4362SOL    HW113985   4.753   4.285   2.738
 4362SOL    HW213986   4.886   4.295   2.644
 4363SOL     OW13987   5.056   0.616   6.485
 4363SOL    HW113988   5.022   0.601   6.578
 4363SOL    HW213989   4.981   0.646   6.426
 4364SOL     OW13990   3.839   3.626   4.674
 4364SOL    HW113991   3.886   3.707   4.641
 4364SOL    HW213992   3.906   3.555   4.695
 4365SOL     OW13993   4.568   2.155   0.117
 4365SOL    HW113994   4.552   2.252   0.136
 4365SOL    HW213995   4.609   2.112   0.197
 4366SOL     OW13996   4.220   5.092   0.436
 4366SOL    HW113997   4.293   5.029   0.413
 4366SOL    HW213998   4.196   5.082   0.533
 4367SOL     OW13999   6.559   6.759   0.755
 4367SOL    HW114000   6.582   6.850   0.791
 4367SOL    HW214001   6.635   6.726   0.699
 4368SOL     OW14002   3.963   5.146   2.086
 4368SOL    HW114003   3.957   5.047   2.075
 4368SOL    HW214004   3.894   5.190   2.028
 4369SOL     OW14005   3.103   5.377   2.044
 4369SOL    HW114006   3.037   5.452   2.040
 4369SOL    HW214007   3.105   5.340   2.137
 4370SOL     OW14008   5.273   4.209   1.627
 4370SOL    HW114009   5.253   4.302   1.658
 4370SOL    HW214010   5.188   4.165   1.597
 4371SOL     OW14011   1.258   1.615   2.141
 4371SOL    HW114012   1.292   1.629   2.234
 4371SOL    HW214013   1.253   1.703   2.094
 4372SOL     OW14014   5.340   6.907   4.027
 4372SOL    HW114015   5.246   6.935   4.014
 4372SOL    HW214016   5.364   6.914   4.124
 4373SOL     OW14017   0.375   1.643   5.480
 4373SOL    HW114018   0.445   1.647   5.409
 4373SOL    HW214019   0.418   1.653   5.570
 4374SOL     OW14020   3.275   1.280   0.122
 4374SOL    HW114021   3.283   1.307   0.218
 4374SOL    HW214022   3.347   1.215   0.100
 4375SOL     OW14023   3.549   5.567   4.392
 4375SOL    HW114024   3.604   5.500   4.343
 4375SOL    HW214025   3.510   5.525   4.474
 4376SOL     OW14026   6.978   2.694   3.503
 4376SOL    HW114027   6.935   2.698   3.413
 4376SOL    HW214028   0.031   2.757   3.505
 4377SOL     OW14029   6.890   4.642   6.048
 4377SOL    HW114030   6.891   4.559   5.993
 4377SOL    HW214031   6.807   4.645   6.104
 4378SOL     OW14032   3.186   2.071   3.918
 4378SOL    HW114033   3.221   1.978   3.923
 4378SOL    HW214034   3.212   2.121   4.001
 4379SOL     OW14035   3.669   1.647   6.350
 4379SOL    HW114036   3.652   1.586   6.273
 4379SOL    HW214037   3.729   1.721   6.322
 4380SOL     OW14038   0.064   2.546   3.055
 4380SOL    HW114039   0.131   2.488   3.102
 4380SOL    HW214040   0.071   2.531   2.956
 4381SOL     OW14041   1.343   5.163   6.806
 4381SOL    HW114042   1.285   5.138   6.884
 4381SOL    HW214043   1.286   5.203   6.734
 4382SOL     OW14044   1.266   4.708   4.548
 4382SOL    HW114045   1.225   4.796   4.524
 4382SOL    HW214046   1.215   4.667   4.624
 4383SOL     OW14047   0.446   4.638   0.453
 4383SOL    HW114048   0.460   4.593   0.541
 4383SOL    HW214049   0.351   4.668   0.445
 4384SOL     OW14050   4.923   6.929   3.418
 4384SOL    HW114051   4.989   6.911   3.490
 4384SOL    HW214052   4.835   6.955   3.458
 4385SOL     OW14053   4.443   0.450   5.584
 4385SOL    HW114054   4.516   0.509   5.618
 4385SOL    HW214055   4.371   0.508   5.543
 4386SOL     OW14056   2.094   3.278   4.372
 4386SOL    HW114057   2.050   3.246   4.288
 4386SOL    HW214058   2.194   3.274   4.361
 4387SOL     OW14059   5.160   2.373   1.451
 4387SOL    HW114060   5.224   2.298   1.466
 4387SOL    HW214061   5.168   2.440   1.525
 4388SOL     OW14062   5.477   3.378   0.639
 4388SOL    HW114063   5.567   3.407   0.670
 4388SOL    HW214064   5.464   3.406   0.544
 4389SOL     OW14065   2.558   1.494   7.022
 4389SOL    HW114066   2.605   1.407   7.013
 4389SOL    HW214067   2.476   1.493   6.964
 4390SOL     OW14068   6.954   1.580   0.803
 4390SOL    HW114069   0.019   1.539   0.790
 4390SOL    HW214070   6.915   1.549   0.889
 4391SOL     OW14071   0.113   5.935   1.831
 4391SOL    HW114072   0.181   5.979   1.772
 4391SOL    HW214073   0.137   5.839   1.843
 4392SOL     OW14074   1.527   2.846   6.323
 4392SOL    HW114075   1.516   2.915   6.252
 4392SOL    HW214076   1.618   2.854   6.364
 4393SOL     OW14077   6.294   0.273   2.087
 4393SOL    HW114078   6.204   0.286   2.047
 4393SOL    HW214079   6.289   0.208   2.162
 4394SOL     OW14080   6.964   0.571   3.023
 4394SOL    HW114081   6.910   0.517   2.959
 4394SOL    HW214082   6.987   0.659   2.981
 4395SOL     OW14083   1.248   3.597   1.609
 4395SOL    HW114084   1.157   3.596   1.568
 4395SOL    HW214085   1.264   3.685   1.652
 4396SOL     OW14086   2.524   1.479   2.675
 4396SOL    HW114087   2.482   1.436   2.754
 4396SOL    HW214088   2.555   1.571   2.699
 4397SOL     OW14089   3.571   0.406   4.859
 4397SOL    HW114090   3.661   0.433   4.893
 4397SOL    HW214091   3.511   0.486   4.858
 4398SOL     OW14092   2.188   3.348   6.097
 4398SOL    HW114093   2.122   3.277   6.072
 4398SOL    HW214094   2.140   3.430   6.128
 4399SOL     OW14095   3.098   5.973   1.624
 4399SOL    HW114096   3.189   6.015   1.623
 4399SOL    HW214097   3.105   5.876   1.643
 4400SOL     OW14098   1.617   6.064   5.145
 4400SOL    HW114099   1.596   6.150   5.193
 4400SOL    HW214100   1.556   6.054   5.066
 4401SOL     OW14101   2.793   6.993   6.319
 4401SOL    HW114102   2.703   6.982   6.362
 4401SOL    HW214103   2.814   6.912   6.264
 4402SOL     OW14104   1.214   1.019   2.884
 4402SOL    HW114105   1.159   0.985   2.960
 4402SOL    HW214106   1.169   1.099   2.843
 4403SOL     OW14107   6.406   5.923   3.294
 4403SOL    HW114108   6.426   5.948   3.389
 4403SOL    HW214109   6.379   6.004   3.243
 4404SOL     OW14110   0.649   6.597   5.143
 4404SOL    HW114111   0.567   6.542   5.159
 4404SOL    HW214112   0.645   6.637   5.052
 4405SOL     OW14113   1.331   4.969   2.640
 4405SOL    HW114114   1.396   4.968   2.564
 4405SOL    HW214115   1.321   5.063   2.673
 4406SOL     OW14116   6.197   4.576   2.520
 4406SOL    HW114117   6.245   4.560   2.606
 4406SOL    HW214118   6.137   4.655   2.530
 4407SOL     OW14119   5.482   6.786   1.260
 4407SOL    HW114120   5.508   6.690   1.259
 4407SOL    HW214121   5.400   6.799   1.204
 4408SOL     OW14122   4.572   0.527   0.669
 4408SOL    HW114123   4.579   0.626   0.682
 4408SOL    HW214124   4.538   0.485   0.753
 4409SOL     OW14125   3.494   0.731   3.735
 4409SOL    HW114126   3.487   0.717   3.636
 4409SOL    HW214127   3.557   0.807   3.753
 4410SOL     OW14128   0.908   0.436   1.264
 4410SOL    HW114129   0.834   0.396   1.317
 4410SOL    HW214130   0.871   0.501   1.198
 4411SOL     OW14131   4.423   4.745   4.979
 4411SOL    HW114132   4.523   4.749   4.981
 4411SOL    HW214133   4.392   4.654   5.003
 4412SOL     OW14134   4.352   6.078   1.559
 4412SOL    HW114135   4.292   5.999   1.544
 4412SOL    HW214136   4.401   6.067   1.645
 4413SOL     OW14137   5.491   6.248   4.350
 4413SOL    HW114138   5.580   6.227   4.392
 4413SOL    HW214139   5.496   6.230   4.251
 4414SOL     OW14140   5.830   4.098   0.923
 4414SOL    HW114141   5.849   4.043   0.842
 4414SOL    HW214142   5.798   4.038   0.997
 4415SOL     OW14143   1.696   4.090   1.299
 4415SOL    HW114144   1.762   4.018   1.278
 4415SOL    HW214145   1.665   4.132   1.214
 4416SOL     OW14146   4.884   3.370   4.488
 4416SOL    HW114147   4.926   3.315   4.416
 4416SOL    HW214148   4.932   3.356   4.574
 4417SOL     OW14149   0.578   4.091   1.987
 4417SOL    HW114150   0.666   4.115   1.946
 4417SOL    HW214151   0.591   4.072   2.085
 4418SOL     OW14152   6.680   1.494   5.262
 4418SOL    HW114153   6.774   1.518   5.235
 4418SOL    HW214154   6.615   1.548   5.209
 4419SOL     OW14155   6.373   6.331   6.495
 4419SOL    HW114156   6.392   6.416   6.545
 4419SOL    HW214157   6.451   6.269   6.504
 4420SOL     OW14158   3.654   1.286   0.710
 4420SOL    HW114159   3.752   1.278   0.689
 4420SOL    HW214160   3.622   1.377   0.686
 4421SOL     OW14161   2.785   2.876   0.212
 4421SOL    HW114162   2.767   2.809   0.284
 4421SOL    HW214163   2.709   2.941   0.207
 4422SOL     OW14164   1.082   2.949   6.305
 4422SOL    HW114165   1.040   3.037   6.284
 4422SOL    HW214166   1.011   2.886   6.338
 4423SOL     OW14167   5.449   4.283   4.439
 4423SOL    HW114168   5.482   4.306   4.530
 4423SOL    HW214169   5.500   4.204   4.405
 4424SOL     OW14170   4.064   5.916   2.969
 4424SOL    HW114171   4.103   5.962   2.889
 4424SOL    HW214172   4.137   5.876   3.023
 4425SOL     OW14173   0.201   6.182   1.314
 4425SOL    HW114174   0.215   6.093   1.271
 4425SOL    HW214175   0.105   6.209   1.304
 4426SOL     OW14176   0.647   0.904   4.482
 4426SOL    HW114177   0.665   0.853   4.398
 4426SOL    HW214178   0.565   0.960   4.471
 4427SOL     OW14179   3.543   5.983   1.891
 4427SOL    HW114180   3.580   5.970   1.799
 4427SOL    HW214181   3.578   5.911   1.951
 4428SOL     OW14182   6.316   6.597   3.449
 4428SOL    HW114183   6.324   6.517   3.508
 4428SOL    HW214184   6.222   6.630   3.449
 4429SOL     OW14185   2.705   5.770   2.842
 4429SOL    HW114186   2.664   5.857   2.867
 4429SOL    HW214187   2.651   5.727   2.770
 4430SOL     OW14188   6.164   3.909   4.411
 4430SOL    HW114189   6.192   3.855   4.332
 4430SOL    HW214190   6.097   3.858   4.464
 4431SOL     OW14191   3.904   6.823   4.891
 4431SOL    HW114192   3.953   6.909   4.907
 4431SOL    HW214193   3.947   6.750   4.944
 4432SOL     OW14194   1.378   3.607   6.558
 4432SOL    HW114195   1.322   3.689   6.572
 4432SOL    HW214196   1.345   3.534   6.618
 4433SOL     OW14197   0.745   0.218   4.810
 4433SOL    HW114198   0.779   0.309   4.835
 4433SOL    HW214199   0.651   0.207   4.843
 4434SOL     OW14200   6.374   0.947   2.420
 4434SOL    HW114201   6.378   0.885   2.498
 4434SOL    HW214202   6.458   0.938   2.366
 4435SOL     OW14203   2.377   4.512   1.269
 4435SOL    HW114204   2.465   4.515   1.317
 4435SOL    HW214205   2.376   4.434   1.207
 4436SOL     OW14206   4.860   2.297   1.745
 4436SOL    HW114207   4.778   2.342   1.710
 4436SOL    HW214208   4.880   2.331   1.838
 4437SOL     OW14209   6.794   5.069   6.590
 4437SOL    HW114210   6.802   5.002   6.516
 4437SOL    HW214211   6.760   5.023   6.672
 4438SOL     OW14212   4.475   1.564   4.578
 4438SOL    HW114213   4.416   1.641   4.552
 4438SOL    HW214214   4.439   1.522   4.661
 4439SOL     OW14215   2.678   4.762   1.801
 4439SOL    HW114216   2.713   4.751   1.708
 4439SOL    HW214217   2.724   4.696   1.861
 4440SOL     OW14218   2.043   5.379   5.544
 4440SOL    HW114219   2.071   5.436   5.622
 4440SOL    HW214220   1.999   5.436   5.475
 4441SOL     OW14221   6.460   1.253   0.919
 4441SOL    HW114222   6.466   1.250   0.819
 4441SOL    HW214223   6.432   1.164   0.953
 4442SOL     OW14224   1.515   4.789   1.172
 4442SOL    HW114225   1.454   4.867   1.186
 4442SOL    HW214226   1.610   4.817   1.189
 4443SOL     OW14227   1.154   6.223   4.993
 4443SOL    HW114228   1.174   6.132   4.956
 4443SOL    HW214229   1.123   6.214   5.088
 4444SOL     OW14230   5.015   5.927   6.961
 4444SOL    HW114231   4.971   5.975   6.885
 4444SOL    HW214232   5.077   5.989   7.009
 4445SOL     OW14233   2.014   3.586   0.674
 4445SOL    HW114234   1.995   3.588   0.772
 4445SOL    HW214235   1.969   3.506   0.634
 4446SOL     OW14236   5.347   2.219   2.040
 4446SOL    HW114237   5.439   2.208   2.076
 4446SOL    HW214238   5.318   2.314   2.048
 4447SOL     OW14239   4.792   6.084   5.214
 4447SOL    HW114240   4.746   6.008   5.259
 4447SOL    HW214241   4.871   6.112   5.269
 4448SOL     OW14242   3.121   6.659   2.639
 4448SOL    HW114243   3.063   6.723   2.589
 4448SOL    HW214244   3.152   6.586   2.578
 4449SOL     OW14245   4.150   1.752   5.980
 4449SOL    HW114246   4.142   1.652   5.973
 4449SOL    HW214247   4.159   1.791   5.889
 4450SOL     OW14248   2.031   6.193   0.684
 4450SOL    HW114249   2.032   6.127   0.608
 4450SOL    HW214250   1.938   6.224   0.700
 4451SOL     OW14251   4.849   6.021   3.821
 4451SOL    HW114252   4.862   6.006   3.919
 4451SOL    HW214253   4.908   6.096   3.790
 4452SOL     OW14254   5.177   4.586   3.480
 4452SOL    HW114255   5.186   4.501   3.428
 4452SOL    HW214256   5.080   4.610   3.488
 4453SOL     OW14257   0.295   5.634   1.366
 4453SOL    HW114258   0.360   5.570   1.325
 4453SOL    HW214259   0.332   5.726   1.362
 4454SOL     OW14260   0.484   0.894   0.387
 4454SOL    HW114261   0.421   0.838   0.440
 4454SOL    HW214262   0.556   0.930   0.447
 4455SOL     OW14263   1.259   0.705   4.303
 4455SOL    HW114264   1.267   0.647   4.222
 4455SOL    HW214265   1.340   0.763   4.311
 4456SOL     OW14266   1.431   5.772   4.001
 4456SOL    HW114267   1.381   5.695   4.041
 4456SOL    HW214268   1.430   5.763   3.901
 4457SOL     OW14269   1.638   2.081   4.270
 4457SOL    HW114270   1.727   2.091   4.315
 4457SOL    HW214271   1.602   2.172   4.249
 4458SOL     OW14272   2.136   2.035   6.015
 4458SOL    HW114273   2.216   2.029   6.075
 4458SOL    HW214274   2.060   2.077   6.064
 4459SOL     OW14275   0.718   4.420   3.034
 4459SOL    HW114276   0.686   4.343   3.089
 4459SOL    HW214277   0.810   4.401   2.999
 4460SOL     OW14278   6.997   2.791   5.211
 4460SOL    HW114279   0.049   2.743   5.170
 4460SOL    HW214280   7.005   2.889   5.194
 4461SOL     OW14281   2.245   0.466   0.829
 4461SOL    HW114282   2.315   0.398   0.806
 4461SOL    HW214283   2.156   0.436   0.794
 4462SOL     OW14284   0.110   4.408   2.281
 4462SOL    HW114285   0.160   4.467   2.218
 4462SOL    HW214286   0.136   4.313   2.265
 4463SOL     OW14287   5.774   2.167   6.885
 4463SOL    HW114288   5.733   2.236   6.825
 4463SOL    HW214289   5.873   2.175   6.881
 4464SOL     OW14290   0.571   3.591   1.155
 4464SOL    HW114291   0.543   3.622   1.246
 4464SOL    HW214292   0.527   3.648   1.086
 4465SOL     OW14293   4.409   4.893   1.448
 4465SOL    HW114294   4.355   4.868   1.529
 4465SOL    HW214295   4.504   4.866   1.463
 4466SOL     OW14296   0.577   3.018   2.694
 4466SOL    HW114297   0.504   2.951   2.696
 4466SOL    HW214298   0.662   2.975   2.662
 4467SOL     OW14299   4.968   4.825   1.429
 4467SOL    HW114300   4.974   4.925   1.433
 4467SOL    HW214301   5.009   4.792   1.344
 4468SOL     OW14302   1.878   3.293   0.257
 4468SOL    HW114303   1.945   3.280   0.331
 4468SOL    HW214304   1.858   3.205   0.215
 4469SOL     OW14305   1.902   5.862   2.072
 4469SOL    HW114306   1.826   5.888   2.012
 4469SOL    HW214307   1.921   5.935   2.137
 4470SOL     OW14308   0.895   0.015   3.039
 4470SOL    HW114309   0.850   7.019   3.126
 4470SOL    HW214310   0.954   0.094   3.051
 4471SOL     OW14311   1.049   0.724   6.865
 4471SOL    HW114312   1.140   0.694   6.894
 4471SOL    HW214313   0.987   0.645   6.867
 4472SOL     OW14314   1.792   2.909   0.607
 4472SOL    HW114315   1.824   2.989   0.658
 4472SOL    HW214316   1.844   2.899   0.523
 4473SOL     OW14317   0.179   2.594   5.137
 4473SOL    HW114318   0.272   2.623   5.159
 4473SOL    HW214319   0.143   2.537   5.211
 4474SOL     OW14320   2.412   6.536   1.273
 4474SOL    HW114321   2.473   6.586   1.211
 4474SOL    HW214322   2.404   6.441   1.241
 4475SOL     OW14323   0.677   3.573   0.429
 4475SOL    HW114324   0.692   3.663   0.472
 4475SOL    HW214325   0.648   3.508   0.499
 4476SOL     OW14326   4.936   0.717   3.586
 4476SOL    HW114327   4.922   0.696   3.489
 4476SOL    HW214328   4.952   0.633   3.637
 4477SOL     OW14329   6.943   1.308   4.821
 4477SOL    HW114330   6.895   1.270   4.900
 4477SOL    HW214331   0.006   1.263   4.811
 4478SOL     OW14332   1.071   0.493   2.510
 4478SOL    HW114333   1.136   0.506   2.585
 4478SOL    HW214334   1.094   0.553   2.434
 4479SOL     OW14335   2.582   3.069   0.176
 4479SOL    HW114336   2.530   3.154   0.170
 4479SOL    HW214337   2.542   3.001   0.115
 4480SOL     OW14338   6.547   0.157   3.122
 4480SOL    HW114339   6.497   0.075   3.092
 4480SOL    HW214340   6.613   0.133   3.193
 4481SOL     OW14341   2.268   3.828   6.098
 4481SOL    HW114342   2.252   3.927   6.103
 4481SOL    HW214343   2.325   3.808   6.018
 4482SOL     OW14344   2.541   7.022   1.206
 4482SOL    HW114345   2.521   6.945   1.266
 4482SOL    HW214346   2.545   0.081   1.260
 4483SOL     OW14347   1.001   3.234   0.853
 4483SOL    HW114348   0.963   3.214   0.943
 4483SOL    HW214349   0.935   3.206   0.783
 4484SOL     OW14350   3.799   0.032   1.189
 4484SOL    HW114351   3.811   0.111   1.249
 4484SOL    HW214352   3.856   0.042   1.108
 4485SOL     OW14353   0.327   2.914   5.095
 4485SOL    HW114354   0.305   2.926   5.192
 4485SOL    HW214355   0.427   2.910   5.084
 4486SOL     OW14356   5.225   4.817   3.618
 4486SOL    HW114357   5.133   4.855   3.614
 4486SOL    HW214358   5.229   4.732   3.566
 4487SOL     OW14359   0.426   2.680   6.334
 4487SOL    HW114360   0.432   2.740   6.414
 4487SOL    HW214361   0.496   2.609   6.340
 4488SOL     OW14362   5.495   4.782   3.471
 4488SOL    HW114363   5.424   4.850   3.452
 4488SOL    HW214364   5.579   4.806   3.422
 4489SOL     OW14365   3.562   6.329   6.133
 4489SOL    HW114366   3.549   6.427   6.120
 4489SOL    HW214367   3.659   6.309   6.143
 4490SOL     OW14368   5.350   1.882   2.346
 4490SOL    HW114369   5.274   1.921   2.399
 4490SOL    HW214370   5.412   1.955   2.318
 4491SOL     OW14371   0.188   4.061   2.939
 4491SOL    HW114372   0.282   4.043   2.910
 4491SOL    HW214373   0.188   4.119   3.021
 4492SOL     OW14374   6.882   1.263   2.084
 4492SOL    HW114375   6.883   1.211   1.999
 4492SOL    HW214376   6.949   1.223   2.148
 4493SOL     OW14377   5.446   1.225   6.439
 4493SOL    HW114378   5.356   1.266   6.453
 4493SOL    HW214379   5.448   1.178   6.351
 4494SOL     OW14380   1.406   1.658   2.373
 4494SOL    HW114381   1.327   1.680   2.431
 4494SOL    HW214382   1.440   1.567   2.397
 4495SOL     OW14383   3.915   6.333   1.197
 4495SOL    HW114384   3.817   6.316   1.188
 4495SOL    HW214385   3.963   6.246   1.205
 4496SOL     OW14386   2.126   5.133   5.511
 4496SOL    HW114387   2.215   5.121   5.555
 4496SOL    HW214388   2.094   5.227   5.526
 4497SOL     OW14389   4.158   6.822   5.524
 4497SOL    HW114390   4.177   6.850   5.430
 4497SOL    HW214391   4.064   6.790   5.532
 4498SOL     OW14392   1.889   4.732   4.388
 4498SOL    HW114393   1.873   4.634   4.389
 4498SOL    HW214394   1.845   4.775   4.467
 4499SOL     OW14395   5.605   2.163   2.144
 4499SOL    HW114396   5.616   2.078   2.092
 4499SOL    HW214397   5.626   2.146   2.241
 4500SOL     OW14398   3.567   6.702   0.111
 4500SOL    HW114399   3.623   6.620   0.120
 4500SOL    HW214400   3.594   6.751   0.027
 4501SOL     OW14401   5.748   0.271   2.939
 4501SOL    HW114402   5.732   0.239   2.846
 4501SOL    HW214403   5.749   0.193   3.001
 4502SOL     OW14404   1.090   4.170   0.062
 4502SOL    HW114405   1.013   4.207   0.010
 4502SOL    HW214406   1.159   4.133   7.024
 4503SOL     OW14407   3.860   1.365   3.024
 4503SOL    HW114408   3.853   1.285   3.084
 4503SOL    HW214409   3.802   1.439   3.060
 4504SOL     OW14410   1.218   2.535   3.905
 4504SOL    HW114411   1.171   2.607   3.957
 4504SOL    HW214412   1.151   2.469   3.871
 4505SOL     OW14413   6.758   3.462   3.453
 4505SOL    HW114414   6.701   3.542   3.433
 4505SOL    HW214415   6.847   3.472   3.408
 4506SOL     OW14416   4.397   3.966   6.994
 4506SOL    HW114417   4.341   3.932   0.044
 4506SOL    HW214418   4.347   3.955   6.908
 4507SOL     OW14419   6.072   2.520   3.003
 4507SOL    HW114420   6.022   2.447   2.957
 4507SOL    HW214421   6.056   2.514   3.102
 4508SOL     OW14422   5.796   5.118   0.188
 4508SOL    HW114423   5.816   5.073   0.101
 4508SOL    HW214424   5.777   5.048   0.258
 4509SOL     OW14425   4.562   1.828   2.906
 4509SOL    HW114426   4.490   1.847   2.839
 4509SOL    HW214427   4.580   1.730   2.909
 4510SOL     OW14428   5.002   1.952   3.670
 4510SOL    HW114429   5.039   1.884   3.607
 4510SOL    HW214430   4.914   1.921   3.705
 4511SOL     OW14431   0.896   4.289   6.895
 4511SOL    HW114432   0.964   4.329   6.833
 4511SOL    HW214433   0.851   4.362   6.946
 4512SOL     OW14434   2.709   3.623   5.756
 4512SOL    HW114435   2.670   3.626   5.664
 4512SOL    HW214436   2.807   3.606   5.749
 4513SOL     OW14437   0.551   1.519   1.282
 4513SOL    HW114438   0.545   1.524   1.381
 4513SOL    HW214439   0.484   1.453   1.247
 4514SOL     OW14440   4.516   4.336   6.474
 4514SOL    HW114441   4.556   4.425   6.497
 4514SOL    HW214442   4.558   4.266   6.532
 4515SOL     OW14443   4.392   0.211   5.738
 4515SOL    HW114444   4.371   0.125   5.693
 4515SOL    HW214445   4.423   0.277   5.669
 4516SOL     OW14446   3.648   1.606   5.293
 4516SOL    HW114447   3.599   1.684   5.332
 4516SOL    HW214448   3.693   1.555   5.366
 4517SOL     OW14449   3.526   0.112   4.217
 4517SOL    HW114450   3.484   0.156   4.296
 4517SOL    HW214451   3.623   0.134   4.214
 4518SOL     OW14452   6.671   0.097   0.626
 4518SOL    HW114453   6.580   0.064   0.651
 4518SOL    HW214454   6.693   0.067   0.533
 4519SOL     OW14455   5.133   0.057   6.327
 4519SOL    HW114456   5.230   0.062   6.349
 4519SOL    HW214457   5.120   0.064   6.228
 4520SOL     OW14458   4.385   5.216   4.592
 4520SOL    HW114459   4.465   5.270   4.566
 4520SOL    HW214460   4.333   5.265   4.661
 4521SOL     OW14461   4.523   2.495   4.286
 4521SOL    HW114462   4.516   2.458   4.194
 4521SOL    HW214463   4.582   2.576   4.285
 4522SOL     OW14464   5.413   4.225   3.149
 4522SOL    HW114465   5.436   4.196   3.056
 4522SOL    HW214466   5.470   4.176   3.215
 4523SOL     OW14467   0.420   2.987   6.894
 4523SOL    HW114468   0.350   3.008   6.962
 4523SOL    HW214469   0.404   2.896   6.857
 4524SOL     OW14470   2.167   3.706   1.819
 4524SOL    HW114471   2.202   3.626   1.868
 4524SOL    HW214472   2.233   3.781   1.826
 4525SOL     OW14473   3.575   1.458   5.755
 4525SOL    HW114474   3.567   1.358   5.746
 4525SOL    HW214475   3.597   1.481   5.850
 4526SOL     OW14476   0.757   6.831   5.513
 4526SOL    HW114477   0.785   6.926   5.528
 4526SOL    HW214478   0.759   6.811   5.415
 4527SOL     OW14479   0.953   2.628   2.388
 4527SOL    HW114480   1.018   2.702   2.375
 4527SOL    HW214481   0.995   2.541   2.361
 4528SOL     OW14482   5.485   2.069   4.531
 4528SOL    HW114483   5.488   2.150   4.589
 4528SOL    HW214484   5.562   2.009   4.555
 4529SOL     OW14485   1.590   2.676   3.655
 4529SOL    HW114486   1.500   2.636   3.637
 4529SOL    HW214487   1.634   2.626   3.729
 4530SOL     OW14488   3.990   4.545   5.948
 4530SOL    HW114489   3.894   4.521   5.962
 4530SOL    HW214490   4.030   4.575   6.034
 4531SOL     OW14491   1.610   6.758   5.156
 4531SOL    HW114492   1.521   6.756   5.111
 4531SOL    HW214493   1.605   6.819   5.236
 4532SOL     OW14494   5.831   0.941   2.359
 4532SOL    HW114495   5.898   0.920   2.430
 4532SOL    HW214496   5.748   0.888   2.375
 4533SOL     OW14497   2.735   5.547   1.232
 4533SOL    HW114498   2.674   5.513   1.160
 4533SOL    HW214499   2.751   5.475   1.299
 4534SOL     OW14500   5.657   1.515   4.550
 4534SOL    HW114501   5.678   1.429   4.504
 4534SOL    HW214502   5.698   1.515   4.641
 4535SOL     OW14503   1.839   7.015   0.641
 4535SOL    HW114504   1.923   0.020   0.686
 4535SOL    HW214505   1.798   0.067   0.592
 4536SOL     OW14506   3.839   0.499   5.369
 4536SOL    HW114507   3.816   0.592   5.396
 4536SOL    HW214508   3.933   0.496   5.334
 4537SOL     OW14509   3.227   3.647   3.358
 4537SOL    HW114510   3.129   3.666   3.363
 4537SOL    HW214511   3.278   3.732   3.350
 4538SOL     OW14512   1.185   2.999   0.516
 4538SOL    HW114513   1.222   2.921   0.466
 4538SOL    HW214514   1.216   3.084   0.473
 4539SOL     OW14515   0.844   4.781   5.095
 4539SOL    HW114516   0.806   4.861   5.049
 4539SOL    HW214517   0.936   4.763   5.059
 4540SOL     OW14518   1.735   1.753   0.491
 4540SOL    HW114519   1.810   1.700   0.449
 4540SOL    HW214520   1.654   1.746   0.434
 4541SOL     OW14521   4.348   3.153   0.329
 4541SOL    HW114522   4.276   3.190   0.387
 4541SOL    HW214523   4.319   3.155   0.234
 4542SOL     OW14524   6.978   1.539   0.161
 4542SOL    HW114525   7.023   1.470   0.104
 4542SOL    HW214526   6.964   1.623   0.109
 4543SOL     OW14527   4.054   0.982   1.117
 4543SOL    HW114528   3.972   0.961   1.063
 4543SOL    HW214529   4.126   0.917   1.093
 4544SOL     OW14530   4.852   6.016   0.248
 4544SOL    HW114531   4.865   5.917   0.254
 4544SOL    HW214532   4.940   6.063   0.250
 4545SOL     OW14533   3.155   3.284   5.396
 4545SOL    HW114534   3.237   3.231   5.374
 4545SOL    HW214535   3.088   3.225   5.441
 4546SOL     OW14536   4.873   6.621   5.631
 4546SOL    HW114537   4.874   6.705   5.576
 4546SOL    HW214538   4.880   6.645   5.727
 4547SOL     OW14539   6.658   1.063   0.193
 4547SOL    HW114540   6.580   1.124   0.186
 4547SOL    HW214541   6.645   1.000   0.271
 4548SOL     OW14542   3.199   1.412   1.938
 4548SOL    HW114543   3.238   1.504   1.944
 4548SOL    HW214544   3.174   1.392   1.843
 4549SOL     OW14545   6.825   4.760   3.571
 4549SOL    HW114546   6.861   4.830   3.509
 4549SOL    HW214547   6.893   4.740   3.642
 4550SOL     OW14548   2.486   5.564   6.823
 4550SOL    HW114549   2.507   5.653   6.862
 4550SOL    HW214550   2.431   5.575   6.740
 4551SOL     OW14551   3.579   3.103   5.904
 4551SOL    HW114552   3.679   3.105   5.894
 4551SOL    HW214553   3.540   3.185   5.862
 4552SOL     OW14554   4.944   0.533   6.708
 4552SOL    HW114555   4.864   0.494   6.661
 4552SOL    HW214556   4.973   0.471   6.781
 4553SOL     OW14557   0.011   6.919   0.713
 4553SOL    HW114558   0.088   6.857   0.728
 4553SOL    HW214559   6.976   6.918   0.793
 4554SOL     OW14560   5.717   6.504   2.763
 4554SOL    HW114561   5.751   6.447   2.688
 4554SOL    HW214562   5.655   6.573   2.726
 4555SOL     OW14563   0.237   0.035   3.150
 4555SOL    HW114564   0.289   0.096   3.090
 4555SOL    HW214565   0.286   6.973   3.159
 4556SOL     OW14566   5.247   4.313   5.063
 4556SOL    HW114567   5.195   4.247   5.010
 4556SOL    HW214568   5.185   4.361   5.126
 4557SOL     OW14569   0.024   5.388   4.884
 4557SOL    HW114570   0.065   5.451   4.818
 4557SOL    HW214571   7.020   5.438   4.965
 4558SOL     OW14572   0.746   4.370   3.707
 4558SOL    HW114573   0.831   4.353   3.658
 4558SOL    HW214574   0.715   4.286   3.753
 4559SOL     OW14575   6.937   3.652   4.330
 4559SOL    HW114576   6.910   3.584   4.262
 4559SOL    HW214577   6.976   3.731   4.282
 4560SOL     OW14578   6.840   3.944   3.445
 4560SOL    HW114579   6.755   3.892   3.444
 4560SOL    HW214580   6.885   3.936   3.356
 4561SOL     OW14581   5.215   3.328   4.179
 4561SOL    HW114582   5.306   3.293   4.158
 4561SOL    HW214583   5.211   3.356   4.275
 4562SOL     OW14584   4.747   1.288   1.273
 4562SOL    HW114585   4.834   1.335   1.285
 4562SOL    HW214586   4.759   1.211   1.211
 4563SOL     OW14587   0.873   4.157   1.952
 4563SOL    HW114588   0.943   4.142   2.022
 4563SOL    HW214589   0.899   4.234   1.895
 4564SOL     OW14590   2.099   3.652   2.190
 4564SOL    HW114591   2.153   3.599   2.124
 4564SOL    HW214592   2.018   3.689   2.145
 4565SOL     OW14593   2.190   6.637   5.324
 4565SOL    HW114594   2.204   6.675   5.233
 4565SOL    HW214595   2.106   6.674   5.363
 4566SOL     OW14596   6.985   4.768   2.897
 4566SOL    HW114597   0.011   4.696   2.849
 4566SOL    HW214598   6.894   4.776   2.857
 4567SOL     OW14599   1.070   7.012   0.262
 4567SOL    HW114600   1.008   0.046   0.313
 4567SOL    HW214601   1.116   0.040   0.191
 4568SOL     OW14602   0.160   4.201   3.840
 4568SOL    HW114603   0.206   4.123   3.798
 4568SOL    HW214604   0.218   4.282   3.832
 4569SOL     OW14605   0.278   2.580   3.665
 4569SOL    HW114606   0.371   2.585   3.702
 4569SOL    HW214607   0.249   2.671   3.635
 4570SOL     OW14608   4.989   6.141   1.558
 4570SOL    HW114609   5.083   6.149   1.526
 4570SOL    HW214610   4.981   6.063   1.620
 4571SOL     OW14611   2.049   2.458   5.315
 4571SOL    HW114612   1.975   2.516   5.350
 4571SOL    HW214613   2.041   2.367   5.355
 4572SOL     OW14614   4.897   3.438   1.701
 4572SOL    HW114615   4.895   3.495   1.620
 4572SOL    HW214616   4.828   3.366   1.694
 4573SOL     OW14617   1.637   5.121   1.208
 4573SOL    HW114618   1.649   5.220   1.199
 4573SOL    HW214619   1.654   5.094   1.303
 4574SOL     OW14620   5.058   0.522   1.693
 4574SOL    HW114621   5.097   0.516   1.785
 4574SOL    HW214622   4.959   0.529   1.699
 4575SOL     OW14623   0.369   1.811   5.138
 4575SOL    HW114624   0.403   1.718   5.126
 4575SOL    HW214625   0.431   1.876   5.094
 4576SOL     OW14626   2.864   3.642   6.774
 4576SOL    HW114627   2.769   3.672   6.768
 4576SOL    HW214628   2.897   3.617   6.683
 4577SOL     OW14629   0.492   2.242   1.949
 4577SOL    HW114630   0.421   2.304   1.915
 4577SOL    HW214631   0.577   2.259   1.899
 4578SOL     OW14632   1.628   0.763   3.044
 4578SOL    HW114633   1.570   0.731   3.119
 4578SOL    HW214634   1.701   0.697   3.028
 4579SOL     OW14635   4.304   0.883   2.843
 4579SOL    HW114636   4.380   0.947   2.859
 4579SOL    HW214637   4.217   0.931   2.857
 4580SOL     OW14638   1.019   0.263   1.569
 4580SOL    HW114639   0.951   0.303   1.630
 4580SOL    HW214640   1.048   0.174   1.605
 4581SOL     OW14641   3.275   0.741   1.624
 4581SOL    HW114642   3.218   0.733   1.706
 4581SOL    HW214643   3.255   0.665   1.562
 4582SOL     OW14644   5.725   0.929   4.472
 4582SOL    HW114645   5.775   0.850   4.435
 4582SOL    HW214646   5.629   0.922   4.446
 4583SOL     OW14647   1.952   6.075   6.774
 4583SOL    HW114648   1.933   5.997   6.834
 4583SOL    HW214649   2.051   6.086   6.764
 4584SOL     OW14650   6.820   0.977   4.758
 4584SOL    HW114651   6.824   1.046   4.830
 4584SOL    HW214652   6.901   0.984   4.700
 4585SOL     OW14653   0.643   2.693   2.785
 4585SOL    HW114654   0.739   2.711   2.765
 4585SOL    HW214655   0.636   2.637   2.868
 4586SOL     OW14656   7.016   4.934   5.556
 4586SOL    HW114657   6.971   4.845   5.543
 4586SOL    HW214658   7.002   4.964   5.651
 4587SOL     OW14659   4.266   3.087   6.328
 4587SOL    HW114660   4.186   3.141   6.300
 4587SOL    HW214661   4.238   2.993   6.347
 4588SOL     OW14662   2.295   4.685   6.396
 4588SOL    HW114663   2.350   4.755   6.442
 4588SOL    HW214664   2.322   4.681   6.300
 4589SOL     OW14665   4.781   5.899   2.107
 4589SOL    HW114666   4.713   5.825   2.098
 4589SOL    HW214667   4.748   5.966   2.174
 4590SOL     OW14668   2.105   4.867   1.914
 4590SOL    HW114669   2.181   4.883   1.977
 4590SOL    HW214670   2.136   4.885   1.820
 4591SOL     OW14671   2.119   1.780   5.113
 4591SOL    HW114672   2.101   1.704   5.051
 4591SOL    HW214673   2.162   1.747   5.197
 4592SOL     OW14674   2.779   2.308   3.197
 4592SOL    HW114675   2.850   2.335   3.132
 4592SOL    HW214676   2.811   2.231   3.252
 4593SOL     OW14677   1.633   5.809   4.652
 4593SOL    HW114678   1.566   5.739   4.626
 4593SOL    HW214679   1.585   5.889   4.689
 4594SOL     OW14680   1.133   6.178   3.751
 4594SOL    HW114681   1.230   6.152   3.749
 4594SOL    HW214682   1.101   6.177   3.846
 4595SOL     OW14683   5.661   1.893   6.712
 4595SOL    HW114684   5.663   1.831   6.791
 4595SOL    HW214685   5.736   1.959   6.719
 4596SOL     OW14686   0.564   1.686   2.710
 4596SOL    HW114687   0.524   1.759   2.764
 4596SOL    HW214688   0.577   1.718   2.616
 4597SOL     OW14689   1.737   5.241   0.604
 4597SOL    HW114690   1.729   5.330   0.649
 4597SOL    HW214691   1.726   5.253   0.505
 4598SOL     OW14692   0.356   2.688   0.381
 4598SOL    HW114693   0.354   2.671   0.282
 4598SOL    HW214694   0.447   2.668   0.417
 4599SOL     OW14695   2.918   6.560   3.286
 4599SOL    HW114696   2.928   6.549   3.385
 4599SOL    HW214697   2.964   6.644   3.257
 4600SOL     OW14698   0.626   6.884   5.747
 4600SOL    HW114699   0.697   6.866   5.815
 4600SOL    HW214700   0.666   6.882   5.656
 4601SOL     OW14701   1.836   0.838   5.069
 4601SOL    HW114702   1.794   0.926   5.090
 4601SOL    HW214703   1.892   0.847   4.986
 4602SOL     OW14704   4.157   0.601   6.279
 4602SOL    HW114705   4.153   0.690   6.325
 4602SOL    HW214706   4.217   0.607   6.199
 4603SOL     OW14707   4.558   6.774   1.060
 4603SOL    HW114708   4.594   6.709   0.993
 4603SOL    HW214709   4.589   6.867   1.037
 4604SOL     OW14710   0.628   6.345   3.451
 4604SOL    HW114711   0.562   6.385   3.388
 4604SOL    HW214712   0.706   6.406   3.462
 4605SOL     OW14713   4.846   1.607   1.856
 4605SOL    HW114714   4.881   1.699   1.872
 4605SOL    HW214715   4.908   1.558   1.795
 4606SOL     OW14716   0.140   0.281   4.517
 4606SOL    HW114717   0.134   0.311   4.421
 4606SOL    HW214718   0.067   0.325   4.569
 4607SOL     OW14719   2.758   1.727   0.795
 4607SOL    HW114720   2.686   1.733   0.864
 4607SOL    HW214721   2.801   1.817   0.784
 4608SOL     OW14722   0.612   1.993   5.592
 4608SOL    HW114723   0.618   1.897   5.563
 4608SOL    HW214724   0.582   2.049   5.515
 4609SOL     OW14725   6.063   5.121   6.061
 4609SOL    HW114726   6.005   5.106   5.980
 4609SOL    HW214727   6.006   5.154   6.136
 4610SOL     OW14728   4.994   4.068   6.200
 4610SOL    HW114729   5.050   3.989   6.226
 4610SOL    HW214730   5.050   4.151   6.205
 4611SOL     OW14731   0.147   0.343   6.378
 4611SOL    HW114732   0.133   0.387   6.289
 4611SOL    HW214733   0.190   0.254   6.364
 4612SOL     OW14734   1.513   0.748   2.784
 4612SOL    HW114735   1.555   0.742   2.874
 4612SOL    HW214736   1.492   0.844   2.764
 4613SOL     OW14737   1.652   5.165   3.392
 4613SOL    HW114738   1.745   5.129   3.386
 4613SOL    HW214739   1.598   5.110   3.456
 4614SOL     OW14740   6.756   5.011   2.517
 4614SOL    HW114741   6.796   4.921   2.497
 4614SOL    HW214742   6.697   5.004   2.597
 4615SOL     OW14743   0.779   4.554   6.875
 4615SOL    HW114744   0.753   4.532   6.969
 4615SOL    HW214745   0.860   4.612   6.875
 4616SOL     OW14746   1.509   3.981   6.256
 4616SOL    HW114747   1.585   4.045   6.248
 4616SOL    HW214748   1.436   4.022   6.310
 4617SOL     OW14749   0.565   4.424   4.479
 4617SOL    HW114750   0.561   4.446   4.382
 4617SOL    HW214751   0.651   4.379   4.500
 4618SOL     OW14752   2.132   4.090   5.170
 4618SOL    HW114753   2.166   4.040   5.249
 4618SOL    HW214754   2.202   4.089   5.098
 4619SOL     OW14755   4.605   5.874   6.867
 4619SOL    HW114756   4.680   5.868   6.933
 4619SOL    HW214757   4.519   5.890   6.916
 4620SOL     OW14758   1.316   4.253   1.995
 4620SOL    HW114759   1.386   4.320   2.016
 4620SOL    HW214760   1.311   4.240   1.896
 4621SOL     OW14761   3.178   0.202   2.981
 4621SOL    HW114762   3.251   0.179   3.045
 4621SOL    HW214763   3.119   0.271   3.022
 4622SOL     OW14764   6.232   0.291   0.471
 4622SOL    HW114765   6.159   0.356   0.453
 4622SOL    HW214766   6.210   0.237   0.552
 4623SOL     OW14767   2.854   4.768   2.696
 4623SOL    HW114768   2.767   4.736   2.659
 4623SOL    HW214769   2.893   4.836   2.634
 4624SOL     OW14770   5.561   1.685   0.578
 4624SOL    HW114771   5.584   1.761   0.517
 4624SOL    HW214772   5.645   1.651   0.621
 4625SOL     OW14773   0.598   6.350   1.999
 4625SOL    HW114774   0.679   6.295   1.980
 4625SOL    HW214775   0.623   6.428   2.055
 4626SOL     OW14776   4.092   3.766   2.158
 4626SOL    HW114777   4.101   3.705   2.237
 4626SOL    HW214778   4.047   3.851   2.187
 4627SOL     OW14779   5.598   6.582   4.661
 4627SOL    HW114780   5.533   6.578   4.585
 4627SOL    HW214781   5.580   6.664   4.716
 4628SOL     OW14782   6.667   4.350   2.925
 4628SOL    HW114783   6.591   4.363   2.861
 4628SOL    HW214784   6.645   4.274   2.987
 4629SOL     OW14785   1.356   5.636   1.260
 4629SOL    HW114786   1.394   5.607   1.172
 4629SOL    HW214787   1.427   5.683   1.312
 4630SOL     OW14788   1.922   3.575   1.304
 4630SOL    HW114789   2.005   3.615   1.343
 4630SOL    HW214790   1.946   3.488   1.261
 4631SOL     OW14791   6.155   1.864   1.917
 4631SOL    HW114792   6.178   1.950   1.873
 4631SOL    HW214793   6.064   1.834   1.887
 4632SOL     OW14794   3.017   4.809   3.700
 4632SOL    HW114795   3.101   4.846   3.661
 4632SOL    HW214796   3.027   4.798   3.799
 4633SOL     OW14797   5.416   3.558   3.921
 4633SOL    HW114798   5.396   3.461   3.933
 4633SOL    HW214799   5.496   3.569   3.863
 4634SOL     OW14800   3.891   2.981   5.064
 4634SOL    HW114801   3.858   2.955   4.974
 4634SOL    HW214802   3.813   2.998   5.125
 4635SOL     OW14803   4.279   0.203   2.176
 4635SOL    HW114804   4.211   0.148   2.126
 4635SOL    HW214805   4.302   0.158   2.262
 4636SOL     OW14806   1.531   5.650   6.765
 4636SOL    HW114807   1.618   5.636   6.813
 4636SOL    HW214808   1.521   5.582   6.693
 4637SOL     OW14809   1.813   2.654   3.214
 4637SOL    HW114810   1.877   2.593   3.259
 4637SOL    HW214811   1.766   2.710   3.283
 4638SOL     OW14812   4.193   4.248   6.952
 4638SOL    HW114813   4.205   4.256   6.853
 4638SOL    HW214814   4.270   4.198   6.991
 4639SOL     OW14815   3.908   2.676   1.683
 4639SOL    HW114816   3.819   2.685   1.729
 4639SOL    HW214817   3.896   2.624   1.599
 4640SOL     OW14818   0.142   2.299   0.466
 4640SOL    HW114819   0.085   2.225   0.431
 4640SOL    HW214820   0.087   2.357   0.527
 4641SOL     OW14821   1.153   6.012   4.827
 4641SOL    HW114822   1.076   6.047   4.774
 4641SOL    HW214823   1.139   5.915   4.845
 4642SOL     OW14824   5.699   1.400   6.532
 4642SOL    HW114825   5.673   1.487   6.576
 4642SOL    HW214826   5.633   1.378   6.461
 4643SOL     OW14827   0.505   2.011   0.103
 4643SOL    HW114828   0.433   1.948   0.074
 4643SOL    HW214829   0.577   1.960   0.151
 4644SOL     OW14830   1.199   1.676   0.951
 4644SOL    HW114831   1.143   1.746   0.994
 4644SOL    HW214832   1.196   1.592   1.005
 4645SOL     OW14833   5.582   2.400   5.844
 4645SOL    HW114834   5.527   2.480   5.823
 4645SOL    HW214835   5.618   2.408   5.937
 4646SOL     OW14836   1.243   4.003   2.334
 4646SOL    HW114837   1.333   3.958   2.326
 4646SOL    HW214838   1.177   3.937   2.370
 4647SOL     OW14839   2.101   6.161   2.605
 4647SOL    HW114840   2.050   6.219   2.542
 4647SOL    HW214841   2.199   6.171   2.589
 4648SOL     OW14842   2.718   0.951   4.165
 4648SOL    HW114843   2.774   1.001   4.231
 4648SOL    HW214844   2.624   0.984   4.169
 4649SOL     OW14845   4.513   3.369   0.783
 4649SOL    HW114846   4.528   3.451   0.728
 4649SOL    HW214847   4.505   3.395   0.879
 4650SOL     OW14848   3.812   5.182   0.835
 4650SOL    HW114849   3.812   5.130   0.750
 4650SOL    HW214850   3.904   5.217   0.853
 4651SOL     OW14851   1.442   3.116   0.019
 4651SOL    HW114852   1.451   3.026   0.061
 4651SOL    HW214853   1.531   3.146   7.011
 4652SOL     OW14854   0.130   0.185   5.376
 4652SOL    HW114855   0.150   0.142   5.287
 4652SOL    HW214856   0.162   0.126   5.449
 4653SOL     OW14857   0.624   6.487   0.672
 4653SOL    HW114858   0.722   6.490   0.690
 4653SOL    HW214859   0.604   6.539   0.589
 4654SOL     OW14860   1.095   1.382   5.126
 4654SOL    HW114861   1.117   1.427   5.039
 4654SOL    HW214862   1.171   1.392   5.189
 4655SOL     OW14863   5.707   5.306   2.930
 4655SOL    HW114864   5.618   5.350   2.919
 4655SOL    HW214865   5.695   5.208   2.944
 4656SOL     OW14866   5.950   0.827   1.820
 4656SOL    HW114867   5.995   0.813   1.732
 4656SOL    HW214868   6.015   0.866   1.885
 4657SOL     OW14869   3.797   1.695   2.581
 4657SOL    HW114870   3.769   1.757   2.654
 4657SOL    HW214871   3.788   1.600   2.612
 4658SOL     OW14872   1.579   1.443   0.397
 4658SOL    HW114873   1.589   1.542   0.387
 4658SOL    HW214874   1.523   1.407   0.322
 4659SOL     OW14875   2.234   4.662   0.896
 4659SOL    HW114876   2.158   4.658   0.831
 4659SOL    HW214877   2.255   4.758   0.917
 4660SOL     OW14878   0.261   5.090   4.474
 4660SOL    HW114879   0.287   5.148   4.551
 4660SOL    HW214880   0.317   5.007   4.474
 4661SOL     OW14881   1.028   1.032   6.040
 4661SOL    HW114882   0.999   0.958   5.980
 4661SOL    HW214883   1.066   0.994   6.125
 4662SOL     OW14884   2.987   0.649   5.821
 4662SOL    HW114885   2.971   0.550   5.828
 4662SOL    HW214886   2.989   0.674   5.724
 4663SOL     OW14887   0.465   0.543   1.332
 4663SOL    HW114888   0.395   0.523   1.400
 4663SOL    HW214889   0.552   0.504   1.361
 4664SOL     OW14890   5.873   6.423   4.968
 4664SOL    HW114891   5.817   6.426   5.052
 4664SOL    HW214892   5.873   6.330   4.932
 4665SOL     OW14893   0.026   1.079   2.915
 4665SOL    HW114894   0.071   1.008   2.860
 4665SOL    HW214895   0.030   1.053   3.011
 4666SOL     OW14896   1.543   2.519   6.165
 4666SOL    HW114897   1.616   2.585   6.186
 4666SOL    HW214898   1.463   2.567   6.129
 4667SOL     OW14899   6.646   2.628   1.134
 4667SOL    HW114900   6.661   2.543   1.184
 4667SOL    HW214901   6.727   2.686   1.140
 4668SOL     OW14902   4.688   1.464   5.363
 4668SOL    HW114903   4.732   1.533   5.305
 4668SOL    HW214904   4.651   1.507   5.445
 4669SOL     OW14905   5.493   6.432   6.309
 4669SOL    HW114906   5.481   6.335   6.290
 4669SOL    HW214907   5.450   6.486   6.237
 4670SOL     OW14908   0.717   2.967   0.256
 4670SOL    HW114909   0.666   3.053   0.259
 4670SOL    HW214910   0.800   2.976   0.311
 4671SOL     OW14911   0.021   2.074   1.747
 4671SOL    HW114912   0.006   2.063   1.846
 4671SOL    HW214913   7.020   2.166   1.719
 4672SOL     OW14914   3.965   2.936   1.015
 4672SOL    HW114915   4.028   2.880   0.962
 4672SOL    HW214916   3.871   2.917   0.986
 4673SOL     OW14917   5.101   1.058   0.985
 4673SOL    HW114918   5.130   0.968   0.953
 4673SOL    HW214919   5.085   1.055   1.084
 4674SOL     OW14920   0.843   3.350   0.158
 4674SOL    HW114921   0.757   3.327   0.204
 4674SOL    HW214922   0.900   3.268   0.151
 4675SOL     OW14923   2.079   6.185   0.361
 4675SOL    HW114924   2.078   6.098   0.411
 4675SOL    HW214925   2.141   6.249   0.407
 4676SOL     OW14926   1.126   5.703   4.852
 4676SOL    HW114927   1.154   5.612   4.823
 4676SOL    HW214928   1.131   5.710   4.952
 4677SOL     OW14929   4.395   6.960   6.646
 4677SOL    HW114930   4.421   0.031   6.656
 4677SOL    HW214931   4.396   6.915   6.736
 4678SOL     OW14932   2.400   4.557   0.357
 4678SOL    HW114933   2.400   4.597   0.266
 4678SOL    HW214934   2.441   4.465   0.353
 4679SOL     OW14935   2.302   6.974   5.298
 4679SOL    HW114936   2.283   6.931   5.386
 4679SOL    HW214937   2.226   6.956   5.236
 4680SOL     OW14938   1.157   5.425   6.021
 4680SOL    HW114939   1.084   5.492   6.029
 4680SOL    HW214940   1.155   5.363   6.099
 4681SOL     OW14941   6.633   5.951   4.914
 4681SOL    HW114942   6.634   6.001   5.000
 4681SOL    HW214943   6.702   5.878   4.916
 4682SOL     OW14944   3.204   0.636   1.129
 4682SOL    HW114945   3.140   0.563   1.151
 4682SOL    HW214946   3.154   0.713   1.089
 4683SOL     OW14947   0.740   4.877   3.728
 4683SOL    HW114948   0.777   4.968   3.711
 4683SOL    HW214949   0.790   4.810   3.673
 4684SOL     OW14950   2.088   1.460   5.114
 4684SOL    HW114951   1.988   1.463   5.121
 4684SOL    HW214952   2.127   1.449   5.206
 4685SOL     OW14953   5.184   4.426   4.004
 4685SOL    HW114954   5.246   4.386   4.072
 4685SOL    HW214955   5.220   4.515   3.975
 4686SOL     OW14956   5.290   5.526   6.184
 4686SOL    HW114957   5.194   5.500   6.168
 4686SOL    HW214958   5.349   5.446   6.169
 4687SOL     OW14959   4.792   0.441   4.836
 4687SOL    HW114960   4.862   0.464   4.768
 4687SOL    HW214961   4.727   0.377   4.797
 4688SOL     OW14962   6.807   0.898   1.062
 4688SOL    HW114963   6.838   0.965   0.995
 4688SOL    HW214964   6.799   0.941   1.152
 4689SOL     OW14965   1.925   5.524   4.199
 4689SOL    HW114966   1.828   5.541   4.178
 4689SOL    HW214967   1.951   5.578   4.279
 4690SOL     OW14968   2.547   1.789   0.600
 4690SOL    HW114969   2.632   1.763   0.646
 4690SOL    HW214970   2.510   1.871   0.642
 4691SOL     OW14971   3.442   4.622   0.190
 4691SOL    HW114972   3.352   4.612   0.148
 4691SOL    HW214973   3.488   4.534   0.192
 4692SOL     OW14974   1.363   5.015   3.329
 4692SOL    HW114975   1.372   5.112   3.306
 4692SOL    HW214976   1.440   4.986   3.384
 4693SOL     OW14977   0.599   1.982   2.007
 4693SOL    HW114978   0.671   1.979   1.938
 4693SOL    HW214979   0.539   2.060   1.990
 4694SOL     OW14980   1.684   1.071   5.113
 4694SOL    HW114981   1.633   1.017   5.181
 4694SOL    HW214982   1.620   1.128   5.061
 4695SOL     OW14983   3.063   3.874   3.105
 4695SOL    HW114984   3.058   3.886   3.006
 4695SOL    HW214985   3.027   3.784   3.129
 4696SOL     OW14986   6.845   2.789   0.670
 4696SOL    HW114987   6.859   2.770   0.572
 4696SOL    HW214988   6.930   2.825   0.709
 4697SOL     OW14989   0.920   5.726   6.519
 4697SOL    HW114990   0.852   5.667   6.475
 4697SOL    HW214991   0.905   5.821   6.491
 4698SOL     OW14992   5.413   3.270   2.448
 4698SOL    HW114993   5.337   3.327   2.476
 4698SOL    HW214994   5.438   3.293   2.353
 4699SOL     OW14995   6.769   6.898   3.612
 4699SOL    HW114996   6.795   6.984   3.656
 4699SOL    HW214997   6.850   6.855   3.573
 4700SOL     OW14998   4.930   6.951   6.005
 4700SOL    HW114999   4.905   0.017   5.970
 4700SOL    HW215000   4.884   6.936   6.093
 4701SOL     OW15001   2.196   0.732   6.576
 4701SOL    HW115002   2.259   0.806   6.597
 4701SOL    HW215003   2.138   0.713   6.656
 4702SOL     OW15004   3.291   2.831   1.146
 4702SOL    HW115005   3.357   2.789   1.084
 4702SOL    HW215006   3.204   2.843   1.098
 4703SOL     OW15007   0.706   6.492   2.222
 4703SOL    HW115008   0.768   6.567   2.243
 4703SOL    HW215009   0.741   6.407   2.261
 4704SOL     OW15010   4.629   6.562   6.360
 4704SOL    HW115011   4.555   6.502   6.391
 4704SOL    HW215012   4.614   6.654   6.396
 4705SOL     OW15013   3.732   2.965   4.818
 4705SOL    HW115014   3.745   2.926   4.727
 4705SOL    HW215015   3.638   2.948   4.849
 4706SOL     OW15016   5.869   3.556   0.067
 4706SOL    HW115017   5.952   3.562   0.012
 4706SOL    HW215018   5.888   3.506   0.152
 4707SOL     OW15019   2.625   4.889   0.412
 4707SOL    HW115020   2.627   4.840   0.499
 4707SOL    HW215021   2.533   4.884   0.373
 4708SOL     OW15022   1.709   2.973   2.453
 4708SOL    HW115023   1.691   3.030   2.372
 4708SOL    HW215024   1.670   2.882   2.439
 4709SOL     OW15025   2.827   4.051   0.653
 4709SOL    HW115026   2.778   4.035   0.568
 4709SOL    HW215027   2.917   4.007   0.649
 4710SOL     OW15028   4.896   3.082   1.494
 4710SOL    HW115029   4.849   3.040   1.572
 4710SOL    HW215030   4.881   3.027   1.412
 4711SOL     OW15031   2.943   6.862   3.342
 4711SOL    HW115032   2.845   6.877   3.348
 4711SOL    HW215033   2.989   6.906   3.419
 4712SOL     OW15034   1.728   3.791   7.016
 4712SOL    HW115035   1.691   3.788   6.923
 4712SOL    HW215036   1.727   3.698   0.030
 4713SOL     OW15037   0.580   5.542   1.000
 4713SOL    HW115038   0.596   5.586   0.912
 4713SOL    HW215039   0.636   5.459   1.007
 4714SOL     OW15040   3.934   2.305   1.278
 4714SOL    HW115041   4.024   2.277   1.245
 4714SOL    HW215042   3.944   2.368   1.355
 4715SOL     OW15043   4.897   3.732   4.848
 4715SOL    HW115044   4.831   3.801   4.818
 4715SOL    HW215045   4.860   3.682   4.926
 4716SOL     OW15046   2.042   5.291   6.538
 4716SOL    HW115047   1.989   5.372   6.565
 4716SOL    HW215048   2.105   5.267   6.612
 4717SOL     OW15049   2.420   5.450   4.771
 4717SOL    HW115050   2.417   5.350   4.764
 4717SOL    HW215051   2.438   5.476   4.866
 4718SOL     OW15052   4.987   0.138   0.249
 4718SOL    HW115053   5.056   0.096   0.309
 4718SOL    HW215054   4.936   0.066   0.203
 4719SOL     OW15055   4.564   3.502   1.687
 4719SOL    HW115056   4.616   3.416   1.695
 4719SOL    HW215057   4.627   3.576   1.662
 4720SOL     OW15058   2.076   1.579   3.108
 4720SOL    HW115059   2.159   1.588   3.053
 4720SOL    HW215060   2.027   1.496   3.079
 4721SOL     OW15061   1.767   1.309   1.665
 4721SOL    HW115062   1.756   1.395   1.615
 4721SOL    HW215063   1.760   1.327   1.764
 4722SOL     OW15064   2.733   1.062   3.100
 4722SOL    HW115065   2.724   1.011   3.185
 4722SOL    HW215066   2.773   1.152   3.118
 4723SOL     OW15067   2.922   0.077   5.323
 4723SOL    HW115068   2.932   7.005   5.341
 4723SOL    HW215069   2.867   0.119   5.396
 4724SOL     OW15070   4.750   5.541   1.313
 4724SOL    HW115071   4.712   5.613   1.256
 4724SOL    HW215072   4.697   5.533   1.397
 4725SOL     OW15073   6.062   5.378   3.287
 4725SOL    HW115074   6.035   5.340   3.376
 4725SOL    HW215075   5.980   5.405   3.236
 4726SOL     OW15076   0.098   6.598   4.419
 4726SOL    HW115077   0.109   6.698   4.423
 4726SOL    HW215078   0.095   6.562   4.512
 4727SOL     OW15079   5.695   6.695   1.915
 4727SOL    HW115080   5.631   6.749   1.861
 4727SOL    HW215081   5.720   6.745   1.998
 4728SOL     OW15082   6.538   0.067   6.661
 4728SOL    HW115083   6.545   7.009   6.606
 4728SOL    HW215084   6.557   0.146   6.603
 4729SOL     OW15085   3.187   0.907   1.097
 4729SOL    HW115086   3.240   0.933   1.178
 4729SOL    HW215087   3.232   0.941   1.015
 4730SOL     OW15088   1.913   0.513   6.000
 4730SOL    HW115089   1.903   0.441   6.069
 4730SOL    HW215090   1.834   0.575   6.004
 4731SOL     OW15091   4.838   1.208   5.620
 4731SOL    HW115092   4.756   1.224   5.566
 4731SOL    HW215093   4.857   1.110   5.623
 4732SOL     OW15094   0.788   6.672   0.049
 4732SOL    HW115095   0.771   6.742   7.005
 4732SOL    HW215096   0.796   6.582   0.004
 4733SOL     OW15097   5.970   4.125   3.445
 4733SOL    HW115098   6.029   4.174   3.510
 4733SOL    HW215099   5.891   4.181   3.422
 4734SOL     OW15100   6.506   3.844   5.651
 4734SOL    HW115101   6.407   3.858   5.656
 4734SOL    HW215102   6.529   3.803   5.562
 4735SOL     OW15103   0.606   4.271   3.232
 4735SOL    HW115104   0.657   4.222   3.303
 4735SOL    HW215105   0.517   4.227   3.219
 4736SOL     OW15106   1.935   6.858   2.644
 4736SOL    HW115107   1.884   6.774   2.626
 4736SOL    HW215108   1.871   6.934   2.654
 4737SOL     OW15109   3.418   5.264   2.169
 4737SOL    HW115110   3.371   5.230   2.087
 4737SOL    HW215111   3.351   5.285   2.239
 4738SOL     OW15112   1.281   6.987   2.871
 4738SOL    HW115113   1.349   0.022   2.913
 4738SOL    HW215114   1.214   0.017   2.822
 4739SOL     OW15115   3.842   0.439   1.576
 4739SOL    HW115116   3.758   0.389   1.597
 4739SOL    HW215117   3.863   0.501   1.651
 4740SOL     OW15118   0.682   1.669   4.056
 4740SOL    HW115119   0.736   1.629   4.129
 4740SOL    HW215120   0.715   1.636   3.967
 4741SOL     OW15121   3.911   3.760   3.242
 4741SOL    HW115122   3.909   3.679   3.300
 4741SOL    HW215123   3.890   3.841   3.297
 4742SOL     OW15124   5.383   1.123   2.466
 4742SOL    HW115125   5.348   1.179   2.390
 4742SOL    HW215126   5.351   1.161   2.553
 4743SOL     OW15127   0.826   5.254   0.831
 4743SOL    HW115128   0.896   5.183   0.823
 4743SOL    HW215129   0.809   5.274   0.927
 4744SOL     OW15130   1.815   5.614   1.520
 4744SOL    HW115131   1.882   5.544   1.546
 4744SOL    HW215132   1.816   5.628   1.421
 4745SOL     OW15133   1.788   3.005   0.159
 4745SOL    HW115134   1.793   2.910   0.189
 4745SOL    HW215135   1.826   3.014   0.067
 4746SOL     OW15136   5.551   5.589   4.515
 4746SOL    HW115137   5.453   5.607   4.530
 4746SOL    HW215138   5.577   5.508   4.567
 4747SOL     OW15139   3.935   0.561   1.060
 4747SOL    HW115140   3.872   0.582   0.985
 4747SOL    HW215141   4.023   0.606   1.044
 4748SOL     OW15142   2.032   6.635   3.282
 4748SOL    HW115143   2.024   6.685   3.368
 4748SOL    HW215144   1.941   6.622   3.242
 4749SOL     OW15145   2.200   1.154   1.160
 4749SOL    HW115146   2.124   1.169   1.097
 4749SOL    HW215147   2.240   1.064   1.143
 4750SOL     OW15148   4.921   3.600   6.570
 4750SOL    HW115149   4.821   3.592   6.572
 4750SOL    HW215150   4.946   3.683   6.521
 4751SOL     OW15151   4.383   1.229   2.638
 4751SOL    HW115152   4.443   1.264   2.566
 4751SOL    HW215153   4.347   1.140   2.611
 4752SOL     OW15154   5.682   0.285   6.844
 4752SOL    HW115155   5.782   0.294   6.844
 4752SOL    HW215156   5.646   0.312   6.755
 4753SOL     OW15157   2.812   5.612   5.363
 4753SOL    HW115158   2.733   5.645   5.415
 4753SOL    HW215159   2.800   5.636   5.267
 4754SOL     OW15160   5.396   4.845   0.223
 4754SOL    HW115161   5.451   4.896   0.288
 4754SOL    HW215162   5.441   4.757   0.204
 4755SOL     OW15163   0.341   1.061   1.427
 4755SOL    HW115164   0.313   1.141   1.481
 4755SOL    HW215165   0.342   1.086   1.330
 4756SOL     OW15166   0.083   3.752   5.109
 4756SOL    HW115167   0.102   3.711   5.020
 4756SOL    HW215168   0.064   3.850   5.097
 4757SOL     OW15169   2.352   2.970   1.065
 4757SOL    HW115170   2.363   2.904   0.991
 4757SOL    HW215171   2.438   3.019   1.079
 4758SOL     OW15172   1.943   4.877   2.172
 4758SOL    HW115173   2.031   4.914   2.201
 4758SOL    HW215174   1.943   4.864   2.073
 4759SOL     OW15175   0.541   6.766   2.553
 4759SOL    HW115176   0.583   6.854   2.530
 4759SOL    HW215177   0.464   6.749   2.491
 4760SOL     OW15178   1.262   6.688   2.287
 4760SOL    HW115179   1.172   6.684   2.331
 4760SOL    HW215180   1.325   6.627   2.334
 4761SOL     OW15181   4.319   6.251   2.106
 4761SOL    HW115182   4.397   6.255   2.169
 4761SOL    HW215183   4.265   6.335   2.115
 4762SOL     OW15184   0.929   1.082   2.337
 4762SOL    HW115185   0.960   1.176   2.353
 4762SOL    HW215186   0.846   1.083   2.281
 4763SOL     OW15187   5.369   4.957   1.272
 4763SOL    HW115188   5.347   4.938   1.367
 4763SOL    HW215189   5.344   5.052   1.250
 4764SOL     OW15190   4.707   2.948   6.518
 4764SOL    HW115191   4.669   2.914   6.604
 4764SOL    HW215192   4.678   2.887   6.443
 4765SOL     OW15193   3.836   1.077   5.871
 4765SOL    HW115194   3.824   1.041   5.964
 4765SOL    HW215195   3.928   1.058   5.839
 4766SOL     OW15196   1.103   0.743   4.041
 4766SOL    HW115197   1.031   0.708   4.101
 4766SOL    HW215198   1.061   0.796   3.967
 4767SOL     OW15199   2.677   4.606   3.435
 4767SOL    HW115200   2.725   4.630   3.350
 4767SOL    HW215201   2.610   4.535   3.416
 4768SOL     OW15202   4.580   1.888   6.264
 4768SOL    HW115203   4.617   1.956   6.327
 4768SOL    HW215204   4.492   1.920   6.228
 4769SOL     OW15205   2.682   3.093   0.576
 4769SOL    HW115206   2.637   3.176   0.607
 4769SOL    HW215207   2.749   3.115   0.505
 4770SOL     OW15208   6.737   1.832   3.886
 4770SOL    HW115209   6.697   1.747   3.852
 4770SOL    HW215210   6.803   1.811   3.958
 4771SOL     OW15211   2.919   0.820   4.526
 4771SOL    HW115212   2.974   0.895   4.561
 4771SOL    HW215213   2.880   0.845   4.438
 4772SOL     OW15214   2.454   4.949   2.864
 4772SOL    HW115215   2.476   4.982   2.956
 4772SOL    HW215216   2.508   4.999   2.796
 4773SOL     OW15217   2.975   5.315   4.128
 4773SOL    HW115218   3.064   5.302   4.173
 4773SOL    HW215219   2.947   5.230   4.085
 4774SOL     OW15220   0.998   4.813   0.309
 4774SOL    HW115221   1.041   4.769   0.388
 4774SOL    HW215222   0.935   4.884   0.341
 4775SOL     OW15223   5.818   4.938   4.279
 4775SOL    HW115224   5.756   4.988   4.339
 4775SOL    HW215225   5.907   4.984   4.277
 4776SOL     OW15226   6.537   1.466   4.870
 4776SOL    HW115227   6.592   1.439   4.791
 4776SOL    HW215228   6.585   1.538   4.921
 4777SOL     OW15229   1.608   6.555   3.890
 4777SOL    HW115230   1.664   6.634   3.868
 4777SOL    HW215231   1.666   6.479   3.920
 4778SOL     OW15232   1.643   6.927   0.817
 4778SOL    HW115233   1.566   6.986   0.794
 4778SOL    HW215234   1.714   6.934   0.747
 4779SOL     OW15235   4.824   1.701   4.690
 4779SOL    HW115236   4.894   1.767   4.719
 4779SOL    HW215237   4.823   1.696   4.590
 4780SOL     OW15238   5.110   2.866   4.936
 4780SOL    HW115239   5.133   2.954   4.977
 4780SOL    HW215240   5.018   2.870   4.898
 4781SOL     OW15241   2.303   5.273   2.120
 4781SOL    HW115242   2.336   5.275   2.214
 4781SOL    HW215243   2.240   5.349   2.105
 4782SOL     OW15244   1.119   6.362   3.375
 4782SOL    HW115245   1.162   6.452   3.386
 4782SOL    HW215246   1.189   6.291   3.380
 4783SOL     OW15247   0.793   4.053   0.000
 4783SOL    HW115248   0.825   4.131   6.972
 4783SOL    HW215249   0.747   4.085   0.083
 4784SOL     OW15250   6.006   2.667   0.182
 4784SOL    HW115251   6.050   2.596   0.237
 4784SOL    HW215252   5.907   2.663   0.196
 4785SOL     OW15253   6.967   0.731   4.100
 4785SOL    HW115254   6.949   0.650   4.043
 4785SOL    HW215255   6.923   0.811   4.060
 4786SOL     OW15256   1.826   5.911   0.182
 4786SOL    HW115257   1.830   5.995   0.127
 4786SOL    HW215258   1.730   5.885   0.195
 4787SOL     OW15259   5.043   0.923   4.819
 4787SOL    HW115260   5.116   0.865   4.783
 4787SOL    HW215261   5.068   0.955   4.910
 4788SOL     OW15262   6.599   6.235   1.268
 4788SOL    HW115263   6.667   6.168   1.239
 4788SOL    HW215264   6.560   6.280   1.187
 4789SOL     OW15265   6.354   1.267   2.446
 4789SOL    HW115266   6.370   1.172   2.421
 4789SOL    HW215267   6.441   1.315   2.457
 4790SOL     OW15268   0.246   2.504   5.784
 4790SOL    HW115269   0.180   2.483   5.856
 4790SOL    HW215270   0.206   2.568   5.719
 4791SOL     OW15271   0.670   0.603   6.652
 4791SOL    HW115272   0.617   0.568   6.575
 4791SOL    HW215273   0.615   0.595   6.736
 4792SOL     OW15274   0.353   3.575   1.393
 4792SOL    HW115275   0.283   3.534   1.452
 4792SOL    HW215276   0.438   3.523   1.401
 4793SOL     OW15277   0.806   3.135   5.179
 4793SOL    HW115278   0.858   3.193   5.117
 4793SOL    HW215279   0.711   3.130   5.148
 4794SOL     OW15280   5.507   0.816   6.637
 4794SOL    HW115281   5.519   0.784   6.543
 4794SOL    HW215282   5.507   0.916   6.638
 4795SOL     OW15283   6.816   0.276   6.876
 4795SOL    HW115284   6.905   0.260   6.920
 4795SOL    HW215285   6.771   0.188   6.861
 4796SOL     OW15286   5.991   0.925   5.860
 4796SOL    HW115287   5.996   0.848   5.797
 4796SOL    HW215288   5.897   0.938   5.890
 4797SOL     OW15289   3.091   4.612   5.592
 4797SOL    HW115290   3.184   4.637   5.619
 4797SOL    HW215291   3.026   4.676   5.632
 4798SOL     OW15292   3.426   5.907   0.034
 4798SOL    HW115293   3.420   5.835   0.103
 4798SOL    HW215294   3.421   5.866   6.968
 4799SOL     OW15295   4.475   4.127   1.077
 4799SOL    HW115296   4.513   4.113   0.985
 4799SOL    HW215297   4.550   4.136   1.143
 4800SOL     OW15298   0.849   5.207   0.446
 4800SOL    HW115299   0.837   5.113   0.480
 4800SOL    HW215300   0.939   5.215   0.403
 4801SOL     OW15301   4.876   3.602   3.633
 4801SOL    HW115302   4.973   3.607   3.655
 4801SOL    HW215303   4.834   3.692   3.646
 4802SOL     OW15304   6.835   0.801   5.275
 4802SOL    HW115305   6.887   0.831   5.355
 4802SOL    HW215306   6.796   0.711   5.292
 4803SOL     OW15307   5.357   3.522   5.562
 4803SOL    HW115308   5.357   3.606   5.616
 4803SOL    HW215309   5.423   3.457   5.601
 4804SOL     OW15310   5.270   3.253   0.755
 4804SOL    HW115311   5.352   3.296   0.718
 4804SOL    HW215312   5.241   3.179   0.695
 4805SOL     OW15313   5.979   0.701   6.453
 4805SOL    HW115314   5.900   0.662   6.500
 4805SOL    HW215315   6.054   0.713   6.518
 4806SOL     OW15316   1.519   2.942   3.633
 4806SOL    HW115317   1.495   2.982   3.544
 4806SOL    HW215318   1.528   2.843   3.623
 4807SOL     OW15319   1.249   3.846   0.467
 4807SOL    HW115320   1.189   3.912   0.420
 4807SOL    HW215321   1.259   3.765   0.410
 4808SOL     OW15322   3.127   6.546   2.891
 4808SOL    HW115323   3.131   6.605   2.810
 4808SOL    HW215324   3.220   6.526   2.922
 4809SOL     OW15325   2.606   4.044   0.415
 4809SOL    HW115326   2.549   3.986   0.356
 4809SOL    HW215327   2.699   4.046   0.379
 4810SOL     OW15328   1.898   4.993   5.045
 4810SOL    HW115329   1.908   4.901   5.084
 4810SOL    HW215330   1.938   5.060   5.107
 4811SOL     OW15331   3.155   2.988   4.527
 4811SOL    HW115332   3.122   3.082   4.533
 4811SOL    HW215333   3.199   2.973   4.439
 4812SOL     OW15334   2.670   6.684   1.798
 4812SOL    HW115335   2.702   6.646   1.711
 4812SOL    HW215336   2.716   6.637   1.874
 4813SOL     OW15337   1.215   2.745   4.490
 4813SOL    HW115338   1.302   2.712   4.525
 4813SOL    HW215339   1.165   2.670   4.448
 4814SOL     OW15340   4.856   0.976   0.810
 4814SOL    HW115341   4.932   0.959   0.873
 4814SOL    HW215342   4.773   0.935   0.846
 4815SOL     OW15343   6.685   4.645   3.013
 4815SOL    HW115344   6.658   4.663   3.108
 4815SOL    HW215345   6.671   4.548   2.992
 4816SOL     OW15346   2.332   0.669   2.833
 4816SOL    HW115347   2.395   0.734   2.874
 4816SOL    HW215348   2.320   0.691   2.736
 4817SOL     OW15349   3.790   3.028   0.467
 4817SOL    HW115350   3.691   3.038   0.482
 4817SOL    HW215351   3.819   2.938   0.498
 4818SOL     OW15352   4.676   6.515   5.148
 4818SOL    HW115353   4.690   6.549   5.055
 4818SOL    HW215354   4.750   6.451   5.171
 4819SOL     OW15355   3.626   0.747   0.506
 4819SOL    HW115356   3.589   0.685   0.575
 4819SOL    HW215357   3.679   0.818   0.550
 4820SOL     OW15358   0.296   4.941   1.634
 4820SOL    HW115359   0.308   4.989   1.721
 4820SOL    HW215360   0.208   4.967   1.594
 4821SOL     OW15361   0.079   6.249   1.730
 4821SOL    HW115362   0.089   6.344   1.757
 4821SOL    HW215363   7.007   6.229   1.715
 4822SOL     OW15364   0.428   3.842   1.543
 4822SOL    HW115365   0.381   3.818   1.628
 4822SOL    HW215366   0.362   3.846   1.468
 4823SOL     OW15367   0.238   2.090   2.647
 4823SOL    HW115368   0.239   2.015   2.581
 4823SOL    HW215369   0.244   2.177   2.598
 4824SOL     OW15370   4.743   1.948   2.447
 4824SOL    HW115371   4.827   1.909   2.408
 4824SOL    HW215372   4.728   2.039   2.410
 4825SOL     OW15373   1.923   3.520   4.671
 4825SOL    HW115374   1.854   3.564   4.728
 4825SOL    HW215375   1.889   3.513   4.577
 4826SOL     OW15376   0.411   6.461   0.429
 4826SOL    HW115377   0.408   6.367   0.395
 4826SOL    HW215378   0.451   6.521   0.359
 4827SOL     OW15379   5.147   1.090   6.799
 4827SOL    HW115380   5.125   1.103   6.896
 4827SOL    HW215381   5.205   1.009   6.788
 4828SOL     OW15382   6.184   3.092   6.630
 4828SOL    HW115383   6.101   3.077   6.684
 4828SOL    HW215384   6.262   3.049   6.676
 4829SOL     OW15385   2.505   0.551   5.784
 4829SOL    HW115386   2.593   0.546   5.830
 4829SOL    HW215387   2.431   0.551   5.852
 4830SOL     OW15388   4.849   4.562   4.605
 4830SOL    HW115389   4.766   4.508   4.594
 4830SOL    HW215390   4.832   4.656   4.577
 4831SOL     OW15391   6.280   2.227   6.310
 4831SOL    HW115392   6.353   2.295   6.320
 4831SOL    HW215393   6.307   2.158   6.243
 4832SOL     OW15394   1.511   2.644   6.538
 4832SOL    HW115395   1.573   2.571   6.567
 4832SOL    HW215396   1.551   2.694   6.462
 4833SOL     OW15397   6.731   3.014   2.752
 4833SOL    HW115398   6.690   2.992   2.663
 4833SOL    HW215399   6.787   2.938   2.783
 4834SOL     OW15400   5.577   0.764   2.666
 4834SOL    HW115401   5.527   0.828   2.724
 4834SOL    HW215402   5.514   0.700   2.624
 4835SOL     OW15403   2.014   1.652   6.057
 4835SOL    HW115404   2.038   1.744   6.025
 4835SOL    HW215405   1.920   1.651   6.089
 4836SOL     OW15406   5.964   4.483   3.394
 4836SOL    HW115407   6.053   4.439   3.407
 4836SOL    HW215408   5.892   4.413   3.396
 4837SOL     OW15409   0.028   4.941   1.543
 4837SOL    HW115410   6.971   4.992   1.570
 4837SOL    HW215411   0.021   4.915   1.447
 4838SOL     OW15412   2.707   6.195   2.590
 4838SOL    HW115413   2.723   6.293   2.600
 4838SOL    HW215414   2.700   6.153   2.680
 4839SOL     OW15415   0.734   0.007   6.186
 4839SOL    HW115416   0.723   0.097   6.144
 4839SOL    HW215417   0.820   0.004   6.236
 4840SOL     OW15418   6.677   5.745   5.995
 4840SOL    HW115419   6.679   5.648   6.022
 4840SOL    HW215420   6.770   5.778   5.985
 4841SOL     OW15421   1.754   5.695   1.217
 4841SOL    HW115422   1.819   5.760   1.179
 4841SOL    HW215423   1.737   5.621   1.152
 4842SOL     OW15424   3.410   6.518   0.500
 4842SOL    HW115425   3.444   6.611   0.483
 4842SOL    HW215426   3.440   6.488   0.591
 4843SOL     OW15427   1.700   3.801   0.321
 4843SOL    HW115428   1.680   3.778   0.226
 4843SOL    HW215429   1.666   3.893   0.341
 4844SOL     OW15430   0.408   1.205   4.939
 4844SOL    HW115431   0.469   1.191   4.861
 4844SOL    HW215432   0.461   1.241   5.016
 4845SOL     OW15433   5.678   6.828   3.274
 4845SOL    HW115434   5.657   6.771   3.195
 4845SOL    HW215435   5.602   6.826   3.339
 4846SOL     OW15436   6.674   4.508   5.773
 4846SOL    HW115437   6.704   4.603   5.766
 4846SOL    HW215438   6.739   4.449   5.724
 4847SOL     OW15439   4.852   3.167   4.886
 4847SOL    HW115440   4.777   3.229   4.864
 4847SOL    HW215441   4.917   3.164   4.810
 4848SOL     OW15442   3.111   3.462   1.182
 4848SOL    HW115443   3.018   3.460   1.218
 4848SOL    HW215444   3.118   3.534   1.112
 4849SOL     OW15445   2.154   6.179   6.348
 4849SOL    HW115446   2.123   6.086   6.366
 4849SOL    HW215447   2.227   6.203   6.412
 4850SOL     OW15448   3.433   6.949   2.723
 4850SOL    HW115449   3.513   6.974   2.777
 4850SOL    HW215450   3.359   7.015   2.739
 4851SOL     OW15451   5.343   1.057   5.425
 4851SOL    HW115452   5.256   1.078   5.381
 4851SOL    HW215453   5.338   1.079   5.522
 4852SOL     OW15454   1.400   1.812   1.540
 4852SOL    HW115455   1.372   1.826   1.445
 4852SOL    HW215456   1.496   1.785   1.544
 4853SOL     OW15457   3.564   1.061   1.459
 4853SOL    HW115458   3.661   1.069   1.433
 4853SOL    HW215459   3.554   0.988   1.527
 4854SOL     OW15460   3.951   6.921   5.723
 4854SOL    HW115461   4.037   6.968   5.745
 4854SOL    HW215462   3.971   6.828   5.693
 4855SOL     OW15463   0.445   2.559   2.520
 4855SOL    HW115464   0.543   2.581   2.527
 4855SOL    HW215465   0.412   2.583   2.429
 4856SOL     OW15466   0.321   4.796   2.708
 4856SOL    HW115467   0.362   4.749   2.787
 4856SOL    HW215468   0.342   4.746   2.625
 4857SOL     OW15469   0.342   0.864   5.496
 4857SOL    HW115470   0.410   0.895   5.562
 4857SOL    HW215471   0.253   0.901   5.520
 4858SOL     OW15472   1.569   0.623   3.719
 4858SOL    HW115473   1.471   0.602   3.707
 4858SOL    HW215474   1.584   0.659   3.810
 4859SOL     OW15475   3.449   6.580   6.076
 4859SOL    HW115476   3.361   6.615   6.044
 4859SOL    HW215477   3.521   6.646   6.052
 4860SOL     OW15478   3.180   5.135   0.300
 4860SOL    HW115479   3.126   5.199   0.355
 4860SOL    HW215480   3.148   5.042   0.317
 4861SOL     OW15481   3.938   4.234   6.244
 4861SOL    HW115482   3.841   4.260   6.235
 4861SOL    HW215483   3.964   4.234   6.340
 4862SOL     OW15484   2.321   7.005   0.533
 4862SOL    HW115485   2.337   6.956   0.447
 4862SOL    HW215486   2.409   0.010   0.571
 4863SOL     OW15487   5.406   3.847   5.908
 4863SOL    HW115488   5.307   3.836   5.913
 4863SOL    HW215489   5.433   3.869   5.814
 4864SOL     OW15490   3.273   1.221   4.132
 4864SOL    HW115491   3.232   1.312   4.129
 4864SOL    HW215492   3.368   1.226   4.100
 4865SOL     OW15493   1.407   6.590   5.330
 4865SOL    HW115494   1.326   6.552   5.376
 4865SOL    HW215495   1.470   6.516   5.307
 4866SOL     OW15496   0.322   4.399   5.904
 4866SOL    HW115497   0.352   4.331   5.971
 4866SOL    HW215498   0.248   4.454   5.943
 4867SOL     OW15499   3.815   0.887   3.307
 4867SOL    HW115500   3.869   0.883   3.222
 4867SOL    HW215501   3.876   0.898   3.385
 4868SOL     OW15502   0.517   5.510   1.255
 4868SOL    HW115503   0.545   5.559   1.172
 4868SOL    HW215504   0.589   5.520   1.324
 4869SOL     OW15505   0.143   1.485   0.949
 4869SOL    HW115506   0.203   1.465   0.872
 4869SOL    HW215507   0.172   1.569   0.994
 4870SOL     OW15508   0.495   6.853   1.392
 4870SOL    HW115509   0.557   6.793   1.342
 4870SOL    HW215510   0.508   6.842   1.490
 4871SOL     OW15511   0.510   1.900   3.694
 4871SOL    HW115512   0.454   1.878   3.773
 4871SOL    HW215513   0.451   1.929   3.618
 4872SOL     OW15514   5.777   0.064   3.132
 4872SOL    HW115515   5.876   0.076   3.137
 4872SOL    HW215516   5.756   6.991   3.132
 4873SOL     OW15517   0.079   5.924   3.825
 4873SOL    HW115518   0.041   5.856   3.763
 4873SOL    HW215519   0.035   6.013   3.809
 4874SOL     OW15520   5.976   4.691   2.245
 4874SOL    HW115521   5.938   4.783   2.255
 4874SOL    HW215522   5.965   4.641   2.330
 4875SOL     OW15523   6.401   6.722   4.359
 4875SOL    HW115524   6.465   6.778   4.411
 4875SOL    HW215525   6.333   6.681   4.420
 4876SOL     OW15526   6.634   1.376   2.230
 4876SOL    HW115527   6.721   1.357   2.184
 4876SOL    HW215528   6.571   1.418   2.165
 4877SOL     OW15529   0.423   1.598   6.876
 4877SOL    HW115530   0.452   1.587   6.781
 4877SOL    HW215531   0.470   1.530   6.933
 4878SOL     OW15532   5.951   4.310   4.078
 4878SOL    HW115533   6.046   4.311   4.049
 4878SOL    HW215534   5.900   4.382   4.029
 4879SOL     OW15535   5.792   0.639   3.081
 4879SOL    HW115536   5.887   0.622   3.108
 4879SOL    HW215537   5.776   0.600   2.990
 4880SOL     OW15538   0.094   2.900   6.415
 4880SOL    HW115539   0.051   2.824   6.365
 4880SOL    HW215540   0.125   2.867   6.504
 4881SOL     OW15541   7.007   3.753   2.076
 4881SOL    HW115542   0.046   3.679   2.055
 4881SOL    HW215543   0.002   3.832   2.019
 4882SOL     OW15544   5.354   2.502   4.675
 4882SOL    HW115545   5.409   2.419   4.689
 4882SOL    HW215546   5.345   2.521   4.577
 4883SOL     OW15547   0.091   4.086   6.435
 4883SOL    HW115548   0.140   3.999   6.435
 4883SOL    HW215549   7.018   4.068   6.423
 4884SOL     OW15550   1.902   1.960   2.233
 4884SOL    HW115551   1.880   1.885   2.170
 4884SOL    HW215552   1.818   1.991   2.277
 4885SOL     OW15553   1.163   5.453   6.856
 4885SOL    HW115554   1.176   5.501   6.769
 4885SOL    HW215555   1.180   5.355   6.843
 4886SOL     OW15556   3.121   1.029   2.574
 4886SOL    HW115557   3.163   1.106   2.623
 4886SOL    HW215558   3.115   1.052   2.477
 4887SOL     OW15559   4.870   5.459   0.403
 4887SOL    HW115560   4.808   5.404   0.347
 4887SOL    HW215561   4.964   5.433   0.383
 4888SOL     OW15562   4.558   0.087   2.669
 4888SOL    HW115563   4.617   0.114   2.594
 4888SOL    HW215564   4.542   0.165   2.730
 4889SOL     OW15565   5.619   3.670   3.782
 4889SOL    HW115566   5.554   3.742   3.759
 4889SOL    HW215567   5.711   3.699   3.754
 4890SOL     OW15568   6.408   2.096   4.548
 4890SOL    HW115569   6.314   2.119   4.527
 4890SOL    HW215570   6.469   2.170   4.518
 4891SOL     OW15571   2.091   5.270   0.495
 4891SOL    HW115572   2.054   5.235   0.581
 4891SOL    HW215573   2.017   5.309   0.440
 4892SOL     OW15574   5.046   5.141   1.972
 4892SOL    HW115575   4.965   5.128   2.029
 4892SOL    HW215576   5.090   5.228   1.995
 4893SOL     OW15577   2.018   2.273   1.319
 4893SOL    HW115578   2.081   2.271   1.241
 4893SOL    HW215579   2.055   2.215   1.392
 4894SOL     OW15580   5.162   6.548   0.327
 4894SOL    HW115581   5.257   6.517   0.330
 4894SOL    HW215582   5.101   6.471   0.348
 4895SOL     OW15583   6.293   3.210   5.162
 4895SOL    HW115584   6.357   3.287   5.156
 4895SOL    HW215585   6.275   3.174   5.071
 4896SOL     OW15586   2.574   5.183   4.762
 4896SOL    HW115587   2.605   5.139   4.847
 4896SOL    HW215588   2.642   5.250   4.732
 4897SOL     OW15589   2.235   1.802   5.769
 4897SOL    HW115590   2.304   1.813   5.840
 4897SOL    HW215591   2.271   1.834   5.681
 4898SOL     OW15592   4.177   2.237   3.494
 4898SOL    HW115593   4.207   2.178   3.570
 4898SOL    HW215594   4.236   2.317   3.489
 4899SOL     OW15595   6.614   6.714   1.589
 4899SOL    HW115596   6.702   6.722   1.544
 4899SOL    HW215597   6.625   6.662   1.674
 4900SOL     OW15598   3.620   5.661   6.202
 4900SOL    HW115599   3.625   5.627   6.296
 4900SOL    HW215600   3.608   5.585   6.139
 4901SOL     OW15601   1.913   0.485   6.872
 4901SOL    HW115602   2.007   0.456   6.853
 4901SOL    HW215603   1.912   0.539   6.957
 4902SOL     OW15604   2.175   0.220   5.417
 4902SOL    HW115605   2.096   0.242   5.359
 4902SOL    HW215606   2.253   0.198   5.359
 4903SOL     OW15607   4.965   3.947   2.348
 4903SOL    HW115608   4.907   4.003   2.287
 4903SOL    HW215609   4.943   3.851   2.334
 4904SOL     OW15610   2.339   0.807   1.870
 4904SOL    HW115611   2.341   0.811   1.970
 4904SOL    HW215612   2.255   0.764   1.840
 4905SOL     OW15613   2.240   1.501   2.146
 4905SOL    HW115614   2.208   1.410   2.118
 4905SOL    HW215615   2.203   1.569   2.083
 4906SOL     OW15616   5.036   3.211   4.680
 4906SOL    HW115617   5.041   3.133   4.617
 4906SOL    HW215618   5.129   3.237   4.708
 4907SOL     OW15619   4.002   2.714   0.765
 4907SOL    HW115620   4.028   2.794   0.711
 4907SOL    HW215621   4.085   2.670   0.801
 4908SOL     OW15622   2.514   6.456   6.096
 4908SOL    HW115623   2.557   6.472   6.185
 4908SOL    HW215624   2.448   6.381   6.104
 4909SOL     OW15625   4.794   5.770   4.638
 4909SOL    HW115626   4.812   5.682   4.595
 4909SOL    HW215627   4.782   5.757   4.737
 4910SOL     OW15628   4.336   1.845   6.780
 4910SOL    HW115629   4.356   1.914   6.849
 4910SOL    HW215630   4.417   1.830   6.723
 4911SOL     OW15631   6.717   4.391   3.306
 4911SOL    HW115632   6.782   4.459   3.271
 4911SOL    HW215633   6.634   4.394   3.252
 4912SOL     OW15634   5.789   3.038   4.344
 4912SOL    HW115635   5.880   2.999   4.328
 4912SOL    HW215636   5.756   3.008   4.434
 4913SOL     OW15637   0.921   3.812   5.760
 4913SOL    HW115638   0.864   3.843   5.683
 4913SOL    HW215639   0.934   3.713   5.754
 4914SOL     OW15640   3.321   0.041   3.778
 4914SOL    HW115641   3.303   0.043   3.876
 4914SOL    HW215642   3.372   6.983   3.755
 4915SOL     OW15643   4.518   5.341   5.332
 4915SOL    HW115644   4.442   5.349   5.396
 4915SOL    HW215645   4.483   5.331   5.239
 4916SOL     OW15646   5.926   2.576   3.589
 4916SOL    HW115647   5.836   2.581   3.547
 4916SOL    HW215648   5.932   2.495   3.647
 4917SOL     OW15649   4.825   6.600   6.759
 4917SOL    HW115650   4.819   6.582   6.858
 4917SOL    HW215651   4.785   6.689   6.739
 4918SOL     OW15652   4.970   6.240   3.719
 4918SOL    HW115653   5.056   6.280   3.688
 4918SOL    HW215654   4.921   6.306   3.777
 4919SOL     OW15655   4.253   4.027   1.680
 4919SOL    HW115656   4.160   4.039   1.715
 4919SOL    HW215657   4.316   4.081   1.735
 4920SOL     OW15658   6.431   1.073   5.814
 4920SOL    HW115659   6.460   1.102   5.906
 4920SOL    HW215660   6.352   1.127   5.786
 4921SOL     OW15661   6.566   0.097   2.365
 4921SOL    HW115662   6.600   0.190   2.383
 4921SOL    HW215663   6.586   0.039   2.443
 4922SOL     OW15664   3.822   0.298   6.110
 4922SOL    HW115665   3.857   0.255   6.027
 4922SOL    HW215666   3.814   0.229   6.182
 4923SOL     OW15667   4.180   1.260   1.734
 4923SOL    HW115668   4.122   1.308   1.800
 4923SOL    HW215669   4.122   1.210   1.669
 4924SOL     OW15670   2.922   1.584   5.495
 4924SOL    HW115671   3.011   1.540   5.487
 4924SOL    HW215672   2.865   1.562   5.416
 4925SOL     OW15673   5.176   0.202   4.041
 4925SOL    HW115674   5.217   0.173   4.127
 4925SOL    HW215675   5.111   0.132   4.010
 4926SOL     OW15676   4.677   2.644   1.844
 4926SOL    HW115677   4.764   2.640   1.795
 4926SOL    HW215678   4.607   2.685   1.786
 4927SOL     OW15679   2.329   1.522   0.342
 4927SOL    HW115680   2.419   1.497   0.305
 4927SOL    HW215681   2.266   1.446   0.332
 4928SOL     OW15682   0.528   1.810   0.900
 4928SOL    HW115683   0.454   1.812   0.832
 4928SOL    HW215684   0.610   1.852   0.861
 4929SOL     OW15685   6.493   0.238   4.754
 4929SOL    HW115686   6.561   0.305   4.725
 4929SOL    HW215687   6.536   0.169   4.812
 4930SOL     OW15688   4.725   5.763   2.753
 4930SOL    HW115689   4.777   5.844   2.782
 4930SOL    HW215690   4.789   5.690   2.728
 4931SOL     OW15691   4.945   6.866   1.281
 4931SOL    HW115692   4.870   6.877   1.216
 4931SOL    HW215693   5.020   6.927   1.256
 4932SOL     OW15694   3.242   4.094   3.165
 4932SOL    HW115695   3.162   4.079   3.108
 4932SOL    HW215696   3.317   4.131   3.110
 4933SOL     OW15697   1.899   0.245   5.283
 4933SOL    HW115698   1.909   0.344   5.294
 4933SOL    HW215699   1.817   0.226   5.229
 4934SOL     OW15700   2.186   0.101   3.160
 4934SOL    HW115701   2.200   0.184   3.215
 4934SOL    HW215702   2.099   0.059   3.185
 4935SOL     OW15703   6.059   0.200   4.674
 4935SOL    HW115704   5.969   0.242   4.661
 4935SOL    HW215705   6.065   0.118   4.617
 4936SOL     OW15706   4.829   3.451   0.441
 4936SOL    HW115707   4.881   3.367   0.456
 4936SOL    HW215708   4.813   3.497   0.529
 4937SOL     OW15709   3.781   2.721   5.434
 4937SOL    HW115710   3.754   2.798   5.492
 4937SOL    HW215711   3.853   2.751   5.370
 4938SOL     OW15712   2.985   4.535   0.156
 4938SOL    HW115713   2.902   4.590   0.168
 4938SOL    HW215714   3.004   4.485   0.240
 4939SOL     OW15715   5.009   3.554   6.154
 4939SOL    HW115716   4.990   3.482   6.222
 4939SOL    HW215717   5.108   3.558   6.137
 4940SOL     OW15718   1.464   5.732   3.707
 4940SOL    HW115719   1.557   5.735   3.672
 4940SOL    HW215720   1.400   5.762   3.636
 4941SOL     OW15721   6.312   0.748   0.787
 4941SOL    HW115722   6.257   0.702   0.857
 4941SOL    HW215723   6.397   0.696   0.772
 4942SOL     OW15724   5.433   2.567   5.692
 4942SOL    HW115725   5.428   2.488   5.631
 4942SOL    HW215726   5.365   2.635   5.663
 4943SOL     OW15727   6.021   3.260   1.362
 4943SOL    HW115728   5.984   3.332   1.303
 4943SOL    HW215729   5.958   3.182   1.363
 4944SOL     OW15730   1.729   3.099   2.186
 4944SOL    HW115731   1.658   3.148   2.135
 4944SOL    HW215732   1.782   3.042   2.123
 4945SOL     OW15733   0.104   5.852   4.220
 4945SOL    HW115734   0.144   5.926   4.165
 4945SOL    HW215735   0.016   5.825   4.180
 4946SOL     OW15736   0.562   4.472   1.879
 4946SOL    HW115737   0.518   4.459   1.968
 4946SOL    HW215738   0.509   4.425   1.809
 4947SOL     OW15739   5.834   0.371   0.381
 4947SOL    HW115740   5.895   0.443   0.412
 4947SOL    HW215741   5.805   0.389   0.287
 4948SOL     OW15742   2.841   1.691   2.139
 4948SOL    HW115743   2.760   1.633   2.147
 4948SOL    HW215744   2.919   1.644   2.180
 4949SOL     OW15745   5.733   2.312   5.595
 4949SOL    HW115746   5.794   2.244   5.636
 4949SOL    HW215747   5.687   2.364   5.666
 4950SOL     OW15748   3.397   5.373   4.052
 4950SOL    HW115749   3.465   5.303   4.032
 4950SOL    HW215750   3.357   5.357   4.142
 4951SOL     OW15751   4.601   2.628   3.819
 4951SOL    HW115752   4.651   2.701   3.865
 4951SOL    HW215753   4.628   2.623   3.723
 4952SOL     OW15754   6.356   4.916   4.163
 4952SOL    HW115755   6.348   4.899   4.262
 4952SOL    HW215756   6.372   4.829   4.116
 4953SOL     OW15757   1.237   4.537   2.337
 4953SOL    HW115758   1.168   4.488   2.285
 4953SOL    HW215759   1.193   4.600   2.401
 4954SOL     OW15760   6.974   6.644   6.162
 4954SOL    HW115761   6.925   6.591   6.093
 4954SOL    HW215762   6.919   6.648   6.246
 4955SOL     OW15763   1.745   0.250   2.138
 4955SOL    HW115764   1.671   0.206   2.088
 4955SOL    HW215765   1.778   0.329   2.086
 4956SOL     OW15766   5.968   6.500   3.188
 4956SOL    HW115767   6.000   6.501   3.094
 4956SOL    HW215768   5.939   6.408   3.213
 4957SOL     OW15769   0.895   5.367   4.377
 4957SOL    HW115770   0.895   5.467   4.364
 4957SOL    HW215771   0.804   5.331   4.357
 4958SOL     OW15772   6.962   6.838   6.836
 4958SOL    HW115773   0.020   6.845   6.891
 4958SOL    HW215774   6.893   6.900   6.871
 4959SOL     OW15775   1.306   2.027   0.489
 4959SOL    HW115776   1.212   2.021   0.455
 4959SOL    HW215777   1.333   1.939   0.527
 4960SOL     OW15778   3.252   6.872   5.322
 4960SOL    HW115779   3.173   6.817   5.347
 4960SOL    HW215780   3.336   6.823   5.347
 4961SOL     OW15781   4.891   0.223   5.222
 4961SOL    HW115782   4.854   0.274   5.300
 4961SOL    HW215783   4.972   0.269   5.187
 4962SOL     OW15784   6.326   2.122   2.445
 4962SOL    HW115785   6.264   2.065   2.499
 4962SOL    HW215786   6.298   2.118   2.349
 4963SOL     OW15787   1.129   4.388   1.396
 4963SOL    HW115788   1.032   4.387   1.419
 4963SOL    HW215789   1.141   4.417   1.301
 4964SOL     OW15790   3.166   0.045   3.296
 4964SOL    HW115791   3.247   0.056   3.238
 4964SOL    HW215792   3.192   0.061   3.392
 4965SOL     OW15793   0.297   5.946   5.565
 4965SOL    HW115794   0.391   5.978   5.557
 4965SOL    HW215795   0.250   5.998   5.637
 4966SOL     OW15796   5.145   5.892   5.262
 4966SOL    HW115797   5.075   5.860   5.325
 4966SOL    HW215798   5.202   5.815   5.233
 4967SOL     OW15799   5.761   0.902   0.115
 4967SOL    HW115800   5.851   0.873   0.083
 4967SOL    HW215801   5.697   0.902   0.039
 4968SOL     OW15802   5.666   3.922   6.485
 4968SOL    HW115803   5.633   3.887   6.572
 4968SOL    HW215804   5.757   3.885   6.466
 4969SOL     OW15805   1.336   0.988   1.353
 4969SOL    HW115806   1.399   1.054   1.395
 4969SOL    HW215807   1.341   0.995   1.254
 4970SOL     OW15808   1.857   2.067   6.499
 4970SOL    HW115809   1.822   2.067   6.593
 4970SOL    HW215810   1.912   1.985   6.484
 4971SOL     OW15811   6.460   5.611   3.893
 4971SOL    HW115812   6.547   5.565   3.874
 4971SOL    HW215813   6.430   5.659   3.811
 4972SOL     OW15814   1.736   2.436   4.790
 4972SOL    HW115815   1.670   2.401   4.724
 4972SOL    HW215816   1.705   2.525   4.824
 4973SOL     OW15817   4.841   5.427   3.061
 4973SOL    HW115818   4.787   5.392   2.984
 4973SOL    HW215819   4.884   5.514   3.035
 4974SOL     OW15820   3.821   6.724   6.196
 4974SOL    HW115821   3.885   6.800   6.182
 4974SOL    HW215822   3.840   6.651   6.130
 4975SOL     OW15823   4.036   5.988   6.908
 4975SOL    HW115824   3.951   6.009   6.860
 4975SOL    HW215825   4.026   6.010   7.005
 4976SOL     OW15826   2.363   1.470   5.084
 4976SOL    HW115827   2.401   1.414   5.010
 4976SOL    HW215828   2.264   1.463   5.084
 4977SOL     OW15829   4.094   3.769   1.855
 4977SOL    HW115830   4.184   3.737   1.824
 4977SOL    HW215831   4.099   3.793   1.952
 4978SOL     OW15832   6.438   3.645   6.205
 4978SOL    HW115833   6.514   3.707   6.186
 4978SOL    HW215834   6.386   3.629   6.121
 4979SOL     OW15835   1.558   2.200   3.788
 4979SOL    HW115836   1.599   2.122   3.834
 4979SOL    HW215837   1.498   2.249   3.852
 4980SOL     OW15838   2.249   5.009   2.700
 4980SOL    HW115839   2.322   4.977   2.760
 4980SOL    HW215840   2.255   5.108   2.689
 4981SOL     OW15841   5.373   5.738   5.204
 4981SOL    HW115842   5.410   5.654   5.243
 4981SOL    HW215843   5.443   5.784   5.150
 4982SOL     OW15844   2.665   0.812   6.958
 4982SOL    HW115845   2.610   0.890   6.988
 4982SOL    HW215846   2.609   0.750   6.903
 4983SOL     OW15847   0.008   2.216   4.207
 4983SOL    HW115848   0.026   2.121   4.184
 4983SOL    HW215849   6.936   2.236   4.196
 4984SOL     OW15850   4.944   5.180   3.375
 4984SOL    HW115851   4.971   5.274   3.394
 4984SOL    HW215852   4.847   5.168   3.396
 4985SOL     OW15853   5.952   3.719   1.731
 4985SOL    HW115854   5.924   3.630   1.766
 4985SOL    HW215855   5.967   3.782   1.807
 4986SOL     OW15856   4.348   4.927   3.709
 4986SOL    HW115857   4.293   4.920   3.625
 4986SOL    HW215858   4.416   5.000   3.698
 4987SOL     OW15859   0.992   2.565   6.744
 4987SOL    HW115860   0.897   2.566   6.715
 4987SOL    HW215861   0.998   2.535   6.839
 4988SOL     OW15862   2.561   2.100   4.940
 4988SOL    HW115863   2.621   2.039   4.991
 4988SOL    HW215864   2.486   2.131   4.999
 4989SOL     OW15865   0.182   0.866   1.061
 4989SOL    HW115866   0.150   0.772   1.054
 4989SOL    HW215867   0.262   0.879   1.002
 4990SOL     OW15868   2.000   2.116   6.972
 4990SOL    HW115869   2.094   2.127   7.004
 4990SOL    HW215870   1.940   2.179   7.022
 4991SOL     OW15871   2.711   1.894   6.013
 4991SOL    HW115872   2.630   1.836   6.004
 4991SOL    HW215873   2.693   1.968   6.078
 4992SOL     OW15874   4.295   0.056   4.882
 4992SOL    HW115875   4.337   0.146   4.872
 4992SOL    HW215876   4.363   7.016   4.916
 4993SOL     OW15877   1.383   6.669   4.952
 4993SOL    HW115878   1.416   6.586   4.905
 4993SOL    HW215879   1.405   6.749   4.896
 4994SOL     OW15880   0.324   5.847   3.647
 4994SOL    HW115881   0.314   5.748   3.646
 4994SOL    HW215882   0.253   5.887   3.706
 4995SOL     OW15883   5.510   2.693   4.959
 4995SOL    HW115884   5.419   2.669   4.993
 4995SOL    HW215885   5.580   2.646   5.014
 4996SOL     OW15886   0.538   1.917   4.106
 4996SOL    HW115887   0.592   1.833   4.100
 4996SOL    HW215888   0.461   1.902   4.168
 4997SOL     OW15889   0.129   2.205   3.767
 4997SOL    HW115890   0.047   2.149   3.751
 4997SOL    HW215891   0.156   2.250   3.681
 4998SOL     OW15892   1.319   5.962   6.007
 4998SOL    HW115893   1.288   5.964   5.913
 4998SOL    HW215894   1.418   5.981   6.010
 4999SOL     OW15895   5.836   5.032   0.785
 4999SOL    HW115896   5.810   4.964   0.854
 4999SOL    HW215897   5.892   5.103   0.828
 5000SOL     OW15898   6.154   5.542   3.978
 5000SOL    HW115899   6.071   5.592   3.951
 5000SOL    HW215900   6.224   5.554   3.907
 5001SOL     OW15901   4.970   3.467   5.361
 5001SOL    HW115902   5.040   3.425   5.303
 5001SOL    HW215903   4.994   3.454   5.457
 5002SOL     OW15904   1.501   2.177   1.878
 5002SOL    HW115905   1.444   2.177   1.960
 5002SOL    HW215906   1.597   2.189   1.904
 5003SOL     OW15907   6.450   5.561   4.642
 5003SOL    HW115908   6.357   5.526   4.647
 5003SOL    HW215909   6.513   5.488   4.614
 5004SOL     OW15910   2.198   4.134   5.899
 5004SOL    HW115911   2.274   4.086   5.856
 5004SOL    HW215912   2.212   4.138   5.998
 5005SOL     OW15913   5.150   2.461   0.312
 5005SOL    HW115914   5.248   2.475   0.295
 5005SOL    HW215915   5.139   2.389   0.381
 5006SOL     OW15916   4.326   4.847   1.727
 5006SOL    HW115917   4.365   4.783   1.792
 5006SOL    HW215918   4.355   4.940   1.750
 5007SOL     OW15919   4.111   1.231   4.403
 5007SOL    HW115920   4.078   1.147   4.446
 5007SOL    HW215921   4.185   1.270   4.459
 5008SOL     OW15922   6.045   1.854   4.093
 5008SOL    HW115923   5.974   1.924   4.098
 5008SOL    HW215924   6.095   1.863   4.007
 5009SOL     OW15925   2.626   6.535   2.167
 5009SOL    HW115926   2.552   6.601   2.168
 5009SOL    HW215927   2.591   6.446   2.137
 5010SOL     OW15928   3.282   3.587   6.277
 5010SOL    HW115929   3.335   3.672   6.279
 5010SOL    HW215930   3.345   3.509   6.279
 5011SOL     OW15931   1.537   1.832   4.368
 5011SOL    HW115932   1.501   1.835   4.462
 5011SOL    HW215933   1.561   1.925   4.339
 5012SOL     OW15934   6.014   2.397   0.027
 5012SOL    HW115935   5.949   2.393   0.102
 5012SOL    HW215936   6.060   2.486   0.028
 5013SOL     OW15937   4.996   1.446   5.083
 5013SOL    HW115938   5.018   1.373   5.018
 5013SOL    HW215939   5.073   1.459   5.146
 5014SOL     OW15940   0.146   4.624   6.449
 5014SOL    HW115941   0.135   4.672   6.362
 5014SOL    HW215942   0.239   4.638   6.483
 5015SOL     OW15943   4.963   1.883   4.143
 5015SOL    HW115944   5.052   1.843   4.166
 5015SOL    HW215945   4.900   1.871   4.220
 5016SOL     OW15946   2.574   5.734   1.608
 5016SOL    HW115947   2.661   5.782   1.617
 5016SOL    HW215948   2.499   5.792   1.640
 5017SOL     OW15949   6.986   2.487   1.603
 5017SOL    HW115950   6.948   2.434   1.527
 5017SOL    HW215951   6.980   2.433   1.687
 5018SOL     OW15952   6.478   5.228   3.989
 5018SOL    HW115953   6.410   5.301   3.984
 5018SOL    HW215954   6.542   5.236   3.913
 5019SOL     OW15955   3.062   5.559   4.806
 5019SOL    HW115956   3.139   5.594   4.859
 5019SOL    HW215957   3.044   5.465   4.833
 5020SOL     OW15958   4.314   5.138   6.919
 5020SOL    HW115959   4.222   5.169   6.892
 5020SOL    HW215960   4.382   5.187   6.865
 5021SOL     OW15961   2.424   4.791   5.654
 5021SOL    HW115962   2.350   4.817   5.592
 5021SOL    HW215963   2.454   4.698   5.634
 5022SOL     OW15964   1.597   3.165   6.658
 5022SOL    HW115965   1.534   3.088   6.660
 5022SOL    HW215966   1.576   3.224   6.580
 5023SOL     OW15967   6.686   3.386   3.929
 5023SOL    HW115968   6.746   3.351   3.856
 5023SOL    HW215969   6.676   3.316   3.999
 5024SOL     OW15970   4.792   3.900   5.173
 5024SOL    HW115971   4.748   3.948   5.249
 5024SOL    HW215972   4.774   3.949   5.088
 5025SOL     OW15973   5.670   0.406   5.212
 5025SOL    HW115974   5.645   0.310   5.208
 5025SOL    HW215975   5.589   0.463   5.198
 5026SOL     OW15976   1.042   5.744   2.726
 5026SOL    HW115977   1.011   5.756   2.631
 5026SOL    HW215978   0.999   5.813   2.784
 5027SOL     OW15979   1.184   5.355   3.524
 5027SOL    HW115980   1.275   5.382   3.556
 5027SOL    HW215981   1.139   5.300   3.594
 5028SOL     OW15982   1.156   6.480   2.668
 5028SOL    HW115983   1.147   6.475   2.768
 5028SOL    HW215984   1.071   6.449   2.625
 5029SOL     OW15985   5.887   0.611   4.624
 5029SOL    HW115986   5.985   0.596   4.633
 5029SOL    HW215987   5.845   0.531   4.583
 5030SOL     OW15988   1.274   6.043   0.477
 5030SOL    HW115989   1.303   6.139   0.478
 5030SOL    HW215990   1.242   6.019   0.386
 5031SOL     OW15991   5.446   0.479   6.975
 5031SOL    HW115992   5.388   0.411   7.019
 5031SOL    HW215993   5.392   0.531   6.909
 5032SOL     OW15994   1.777   5.390   2.318
 5032SOL    HW115995   1.749   5.354   2.229
 5032SOL    HW215996   1.822   5.317   2.370
 5033SOL     OW15997   0.766   4.331   4.586
 5033SOL    HW115998   0.787   4.367   4.676
 5033SOL    HW215999   0.802   4.238   4.578
 5034SOL     OW16000   0.804   2.708   5.949
 5034SOL    HW116001   0.851   2.795   5.965
 5034SOL    HW216002   0.864   2.647   5.897
 5035SOL     OW16003   6.663   5.164   0.966
 5035SOL    HW116004   6.577   5.198   0.930
 5035SOL    HW216005   6.645   5.090   1.032
 5036SOL     OW16006   1.250   1.626   2.809
 5036SOL    HW116007   1.160   1.618   2.852
 5036SOL    HW216008   1.319   1.591   2.872
 5037SOL     OW16009   5.554   4.167   1.134
 5037SOL    HW116010   5.457   4.148   1.121
 5037SOL    HW216011   5.568   4.265   1.146
 5038SOL     OW16012   3.190   5.538   5.910
 5038SOL    HW116013   3.270   5.478   5.908
 5038SOL    HW216014   3.179   5.581   5.820
 5039SOL     OW16015   1.122   2.810   3.567
 5039SOL    HW116016   1.029   2.798   3.533
 5039SOL    HW216017   1.119   2.828   3.665
 5040SOL     OW16018   2.216   3.431   6.528
 5040SOL    HW116019   2.309   3.410   6.560
 5040SOL    HW216020   2.192   3.368   6.454
 5041SOL     OW16021   0.307   5.874   0.404
 5041SOL    HW116022   0.399   5.901   0.433
 5041SOL    HW216023   0.312   5.786   0.357
 5042SOL     OW16024   5.948   1.424   6.313
 5042SOL    HW116025   5.866   1.385   6.272
 5042SOL    HW216026   6.024   1.359   6.306
 5043SOL     OW16027   5.628   6.169   3.780
 5043SOL    HW116028   5.623   6.069   3.787
 5043SOL    HW216029   5.698   6.194   3.713
 5044SOL     OW16030   6.391   4.192   1.871
 5044SOL    HW116031   6.352   4.121   1.929
 5044SOL    HW216032   6.349   4.188   1.780
 5045SOL     OW16033   4.798   3.019   5.592
 5045SOL    HW116034   4.738   3.098   5.582
 5045SOL    HW216035   4.870   3.040   5.659
 5046SOL     OW16036   4.053   2.953   6.143
 5046SOL    HW116037   4.055   2.977   6.046
 5046SOL    HW216038   3.997   3.019   6.192
 5047SOL     OW16039   0.390   2.280   2.208
 5047SOL    HW116040   0.461   2.333   2.253
 5047SOL    HW216041   0.421   2.253   2.117
 5048SOL     OW16042   6.158   3.790   0.875
 5048SOL    HW116043   6.238   3.731   0.879
 5048SOL    HW216044   6.094   3.766   0.948
 5049SOL     OW16045   0.582   0.794   1.282
 5049SOL    HW116046   0.523   0.785   1.201
 5049SOL    HW216047   0.583   0.707   1.331
 5050SOL     OW16048   1.786   3.734   0.576
 5050SOL    HW116049   1.867   3.678   0.596
 5050SOL    HW216050   1.772   3.736   0.477
 5051SOL     OW16051   2.267   4.143   6.170
 5051SOL    HW116052   2.314   4.100   6.246
 5051SOL    HW216053   2.206   4.214   6.204
 5052SOL     OW16054   6.003   3.004   1.138
 5052SOL    HW116055   6.039   2.911   1.135
 5052SOL    HW216056   5.937   3.012   1.212
 5053SOL     OW16057   1.114   3.816   1.401
 5053SOL    HW116058   1.052   3.852   1.331
 5053SOL    HW216059   1.105   3.716   1.404
 5054SOL     OW16060   3.561   5.975   4.997
 5054SOL    HW116061   3.589   5.936   5.085
 5054SOL    HW216062   3.623   5.943   4.925
 5055SOL     OW16063   0.528   0.897   3.838
 5055SOL    HW116064   0.482   0.983   3.862
 5055SOL    HW216065   0.475   0.820   3.875
 5056SOL     OW16066   2.708   1.623   6.131
 5056SOL    HW116067   2.733   1.559   6.059
 5056SOL    HW216068   2.739   1.715   6.106
 5057SOL     OW16069   0.642   3.633   2.142
 5057SOL    HW116070   0.629   3.549   2.089
 5057SOL    HW216071   0.712   3.619   2.211
 5058SOL     OW16072   4.024   2.088   0.210
 5058SOL    HW116073   4.114   2.108   0.249
 5058SOL    HW216074   4.008   1.990   0.212
 5059SOL     OW16075   5.792   2.929   2.746
 5059SOL    HW116076   5.757   2.916   2.653
 5059SOL    HW216077   5.852   2.853   2.771
 5060SOL     OW16078   6.471   2.881   4.976
 5060SOL    HW116079   6.421   2.967   4.987
 5060SOL    HW216080   6.542   2.875   5.046
 5061SOL     OW16081   4.048   2.689   6.053
 5061SOL    HW116082   4.043   2.773   6.107
 5061SOL    HW216083   4.137   2.685   6.006
 5062SOL     OW16084   5.811   1.213   3.594
 5062SOL    HW116085   5.895   1.207   3.540
 5062SOL    HW216086   5.787   1.123   3.629
 5063SOL     OW16087   0.873   1.113   0.425
 5063SOL    HW116088   0.779   1.110   0.389
 5063SOL    HW216089   0.905   1.208   0.426
 5064SOL     OW16090   6.338   5.021   0.328
 5064SOL    HW116091   6.340   4.969   0.413
 5064SOL    HW216092   6.244   5.032   0.298
 5065SOL     OW16093   1.549   2.136   2.581
 5065SOL    HW116094   1.572   2.231   2.559
 5065SOL    HW216095   1.468   2.135   2.640
 5066SOL     OW16096   1.284   5.028   4.060
 5066SOL    HW116097   1.249   5.073   4.142
 5066SOL    HW216098   1.313   4.935   4.083
 5067SOL     OW16099   4.740   3.006   0.969
 5067SOL    HW116100   4.743   3.069   0.891
 5067SOL    HW216101   4.815   3.027   1.032
 5068SOL     OW16102   1.812   6.901   1.268
 5068SOL    HW116103   1.763   6.935   1.188
 5068SOL    HW216104   1.904   6.940   1.269
 5069SOL     OW16105   4.025   4.610   6.212
 5069SOL    HW116106   3.971   4.684   6.251
 5069SOL    HW216107   4.070   4.559   6.286
 5070SOL     OW16108   0.460   3.428   6.907
 5070SOL    HW116109   0.538   3.376   6.870
 5070SOL    HW216110   0.493   3.510   6.953
 5071SOL     OW16111   1.641   6.377   2.605
 5071SOL    HW116112   1.704   6.327   2.665
 5071SOL    HW216113   1.562   6.408   2.658
 5072SOL     OW16114   0.323   1.824   2.550
 5072SOL    HW116115   0.397   1.768   2.513
 5072SOL    HW216116   0.235   1.782   2.526
 5073SOL     OW16117   1.936   1.489   4.081
 5073SOL    HW116118   2.003   1.438   4.135
 5073SOL    HW216119   1.846   1.446   4.091
 5074SOL     OW16120   3.950   1.951   1.359
 5074SOL    HW116121   4.025   2.017   1.352
 5074SOL    HW216122   3.941   1.921   1.454
 5075SOL     OW16123   6.062   2.271   6.826
 5075SOL    HW116124   6.038   2.331   6.902
 5075SOL    HW216125   6.136   2.210   6.853
 5076SOL     OW16126   0.142   1.469   6.199
 5076SOL    HW116127   0.188   1.381   6.188
 5076SOL    HW216128   0.190   1.524   6.267
 5077SOL     OW16129   0.469   4.324   4.730
 5077SOL    HW116130   0.516   4.239   4.752
 5077SOL    HW216131   0.516   4.371   4.655
 5078SOL     OW16132   6.193   1.646   2.993
 5078SOL    HW116133   6.151   1.556   3.000
 5078SOL    HW216134   6.194   1.675   2.898
 5079SOL     OW16135   1.624   3.743   5.699
 5079SOL    HW116136   1.692   3.714   5.632
 5079SOL    HW216137   1.556   3.671   5.711
 5080SOL     OW16138   6.252   5.846   6.599
 5080SOL    HW116139   6.157   5.873   6.616
 5080SOL    HW216140   6.257   5.747   6.584
 5081SOL     OW16141   3.335   4.646   5.685
 5081SOL    HW116142   3.343   4.561   5.737
 5081SOL    HW216143   3.384   4.719   5.732
 5082SOL     OW16144   5.839   7.018   2.369
 5082SOL    HW116145   5.878   0.002   2.460
 5082SOL    HW216146   5.913   7.008   2.302
 5083SOL     OW16147   0.450   0.304   3.211
 5083SOL    HW116148   0.392   0.376   3.248
 5083SOL    HW216149   0.489   0.250   3.286
 5084SOL     OW16150   3.708   5.601   5.904
 5084SOL    HW116151   3.794   5.621   5.951
 5084SOL    HW216152   3.660   5.528   5.952
 5085SOL     OW16153   0.761   3.915   6.655
 5085SOL    HW116154   0.720   3.940   6.568
 5085SOL    HW216155   0.705   3.950   6.730
 5086SOL     OW16156   0.976   4.399   2.258
 5086SOL    HW116157   1.009   4.309   2.230
 5086SOL    HW216158   0.883   4.413   2.223
 5087SOL     OW16159   6.529   5.326   1.617
 5087SOL    HW116160   6.617   5.362   1.648
 5087SOL    HW216161   6.542   5.273   1.534
 5088SOL     OW16162   4.074   4.740   2.239
 5088SOL    HW116163   4.114   4.649   2.244
 5088SOL    HW216164   4.085   4.787   2.327
 5089SOL     OW16165   5.200   6.115   5.878
 5089SOL    HW116166   5.249   6.179   5.938
 5089SOL    HW216167   5.200   6.024   5.920
 5090SOL     OW16168   2.153   6.606   4.256
 5090SOL    HW116169   2.240   6.616   4.208
 5090SOL    HW216170   2.145   6.678   4.325
 5091SOL     OW16171   6.647   5.767   5.700
 5091SOL    HW116172   6.659   5.767   5.799
 5091SOL    HW216173   6.575   5.832   5.675
 5092SOL     OW16174   3.983   3.057   4.489
 5092SOL    HW116175   4.043   3.034   4.565
 5092SOL    HW216176   3.912   2.987   4.481
 5093SOL     OW16177   3.190   2.122   3.602
 5093SOL    HW116178   3.240   2.191   3.549
 5093SOL    HW216179   3.107   2.096   3.553
 5094SOL     OW16180   2.428   5.443   5.078
 5094SOL    HW116181   2.445   5.532   5.120
 5094SOL    HW216182   2.354   5.397   5.126
 5095SOL     OW16183   6.188   2.072   3.079
 5095SOL    HW116184   6.240   2.102   3.000
 5095SOL    HW216185   6.115   2.138   3.098
 5096SOL     OW16186   5.677   2.673   5.700
 5096SOL    HW116187   5.717   2.749   5.751
 5096SOL    HW216188   5.579   2.666   5.721
 5097SOL     OW16189   0.947   0.453   5.705
 5097SOL    HW116190   0.904   0.506   5.778
 5097SOL    HW216191   1.046   0.450   5.721
 5098SOL     OW16192   2.692   2.127   1.028
 5098SOL    HW116193   2.685   2.225   1.010
 5098SOL    HW216194   2.718   2.111   1.123
 5099SOL     OW16195   1.820   5.590   2.031
 5099SOL    HW116196   1.858   5.682   2.042
 5099SOL    HW216197   1.724   5.597   2.002
 5100SOL     OW16198   6.692   3.714   1.248
 5100SOL    HW116199   6.766   3.658   1.285
 5100SOL    HW216200   6.611   3.704   1.306
 5101SOL     OW16201   4.124   2.038   5.495
 5101SOL    HW116202   4.085   2.044   5.588
 5101SOL    HW216203   4.167   1.949   5.483
 5102SOL     OW16204   5.264   4.475   5.414
 5102SOL    HW116205   5.214   4.488   5.328
 5102SOL    HW216206   5.349   4.425   5.397
 5103SOL     OW16207   0.535   0.288   5.465
 5103SOL    HW116208   0.597   0.292   5.387
 5103SOL    HW216209   0.548   0.368   5.523
 5104SOL     OW16210   3.727   3.335   3.658
 5104SOL    HW116211   3.773   3.265   3.604
 5104SOL    HW216212   3.777   3.421   3.652
 5105SOL     OW16213   4.313   3.008   0.073
 5105SOL    HW116214   4.298   3.099   0.035
 5105SOL    HW216215   4.245   2.944   0.036
 5106SOL     OW16216   4.334   0.838   1.232
 5106SOL    HW116217   4.349   0.781   1.313
 5106SOL    HW216218   4.307   0.930   1.261
 5107SOL     OW16219   6.353   4.968   6.350
 5107SOL    HW116220   6.382   4.913   6.428
 5107SOL    HW216221   6.433   5.002   6.301
 5108SOL     OW16222   4.059   4.106   0.868
 5108SOL    HW116223   4.113   4.084   0.949
 5108SOL    HW216224   4.057   4.205   0.854
 5109SOL     OW16225   2.166   2.320   2.230
 5109SOL    HW116226   2.100   2.246   2.245
 5109SOL    HW216227   2.182   2.369   2.316
 5110SOL     OW16228   3.445   6.292   4.716
 5110SOL    HW116229   3.486   6.368   4.666
 5110SOL    HW216230   3.378   6.246   4.658
 5111SOL     OW16231   2.414   5.575   6.277
 5111SOL    HW116232   2.403   5.510   6.201
 5111SOL    HW216233   2.390   5.667   6.245
 5112SOL     OW16234   1.213   4.517   2.717
 5112SOL    HW116235   1.135   4.509   2.655
 5112SOL    HW216236   1.296   4.489   2.670
 5113SOL     OW16237   2.470   4.315   1.042
 5113SOL    HW116238   2.475   4.246   1.115
 5113SOL    HW216239   2.527   4.286   0.966
 5114SOL     OW16240   4.688   5.019   1.684
 5114SOL    HW116241   4.743   5.097   1.714
 5114SOL    HW216242   4.662   4.964   1.763
 5115SOL     OW16243   1.544   4.284   0.052
 5115SOL    HW116244   1.538   4.185   0.036
 5115SOL    HW216245   1.629   4.319   0.014
 5116SOL     OW16246   0.118   6.937   5.645
 5116SOL    HW116247   0.060   7.006   5.688
 5116SOL    HW216248   0.212   6.948   5.678
 5117SOL     OW16249   0.195   4.119   4.249
 5117SOL    HW116250   0.194   4.162   4.339
 5117SOL    HW216251   0.136   4.171   4.187
 5118SOL     OW16252   4.425   4.944   0.051
 5118SOL    HW116253   4.395   5.022   7.022
 5118SOL    HW216254   4.492   4.891   7.024
 5119SOL     OW16255   5.184   1.654   0.742
 5119SOL    HW116256   5.108   1.718   0.754
 5119SOL    HW216257   5.271   1.702   0.754
 5120SOL     OW16258   6.165   6.207   6.635
 5120SOL    HW116259   6.111   6.265   6.695
 5120SOL    HW216260   6.245   6.258   6.602
 5121SOL     OW16261   2.141   3.320   0.015
 5121SOL    HW116262   2.044   3.332   0.036
 5121SOL    HW216263   2.152   3.305   6.942
 5122SOL     OW16264   5.031   5.425   3.527
 5122SOL    HW116265   4.955   5.475   3.486
 5122SOL    HW216266   5.024   5.428   3.626
 5123SOL     OW16267   4.538   2.087   1.380
 5123SOL    HW116268   4.578   1.996   1.376
 5123SOL    HW216269   4.537   2.119   1.475
 5124SOL     OW16270   0.494   5.762   4.313
 5124SOL    HW116271   0.416   5.701   4.300
 5124SOL    HW216272   0.506   5.780   4.410
 5125SOL     OW16273   5.458   2.559   3.745
 5125SOL    HW116274   5.532   2.549   3.812
 5125SOL    HW216275   5.425   2.469   3.717
 5126SOL     OW16276   2.648   0.889   2.115
 5126SOL    HW116277   2.576   0.956   2.135
 5126SOL    HW216278   2.662   0.830   2.194
 5127SOL     OW16279   2.362   6.646   0.853
 5127SOL    HW116280   2.316   6.569   0.808
 5127SOL    HW216281   2.314   6.667   0.939
 5128SOL     OW16282   4.483   0.249   2.023
 5128SOL    HW116283   4.420   0.253   2.100
 5128SOL    HW216284   4.431   0.243   1.938
 5129SOL     OW16285   6.226   5.568   0.266
 5129SOL    HW116286   6.137   5.550   0.222
 5129SOL    HW216287   6.293   5.591   0.196
 5130SOL     OW16288   6.064   5.006   2.124
 5130SOL    HW116289   6.031   5.066   2.197
 5130SOL    HW216290   5.989   4.953   2.086
 5131SOL     OW16291   2.638   1.976   2.170
 5131SOL    HW116292   2.658   2.026   2.085
 5131SOL    HW216293   2.575   1.901   2.150
 5132SOL     OW16294   2.450   6.081   5.638
 5132SOL    HW116295   2.386   6.148   5.600
 5132SOL    HW216296   2.409   5.990   5.635
 5133SOL     OW16297   3.499   6.236   5.003
 5133SOL    HW116298   3.523   6.142   5.029
 5133SOL    HW216299   3.485   6.240   4.904
 5134SOL     OW16300   0.962   3.091   6.650
 5134SOL    HW116301   0.994   2.997   6.663
 5134SOL    HW216302   0.934   3.129   6.738
 5135SOL     OW16303   6.449   2.154   3.808
 5135SOL    HW116304   6.416   2.248   3.813
 5135SOL    HW216305   6.453   2.125   3.712
 5136SOL     OW16306   3.553   2.017   6.272
 5136SOL    HW116307   3.513   1.973   6.353
 5136SOL    HW216308   3.644   2.051   6.295
 5137SOL     OW16309   3.982   3.379   0.068
 5137SOL    HW116310   4.032   3.440   0.131
 5137SOL    HW216311   3.887   3.372   0.098
 5138SOL     OW16312   2.537   2.901   6.170
 5138SOL    HW116313   2.571   2.899   6.076
 5138SOL    HW216314   2.447   2.944   6.172
 5139SOL     OW16315   0.655   6.772   4.012
 5139SOL    HW116316   0.672   6.848   4.076
 5139SOL    HW216317   0.688   6.687   4.052
 5140SOL     OW16318   3.545   3.186   2.265
 5140SOL    HW116319   3.551   3.088   2.248
 5140SOL    HW216320   3.457   3.207   2.307
 5141SOL     OW16321   0.931   3.512   5.793
 5141SOL    HW116322   0.997   3.462   5.737
 5141SOL    HW216323   0.947   3.490   5.890
 5142SOL     OW16324   5.350   3.585   1.912
 5142SOL    HW116325   5.372   3.489   1.894
 5142SOL    HW216326   5.259   3.605   1.877
 5143SOL     OW16327   0.130   4.975   6.106
 5143SOL    HW116328   0.104   5.070   6.123
 5143SOL    HW216329   0.217   4.956   6.151
 5144SOL     OW16330   1.830   1.462   5.192
 5144SOL    HW116331   1.851   1.377   5.241
 5144SOL    HW216332   1.771   1.442   5.114
 5145SOL     OW16333   3.676   5.393   6.370
 5145SOL    HW116334   3.672   5.293   6.372
 5145SOL    HW216335   3.587   5.430   6.397
 5146SOL     OW16336   3.488   5.170   1.088
 5146SOL    HW116337   3.486   5.260   1.132
 5146SOL    HW216338   3.440   5.175   1.001
 5147SOL     OW16339   0.362   4.888   6.174
 5147SOL    HW116340   0.432   4.956   6.195
 5147SOL    HW216341   0.397   4.797   6.196
 5148SOL     OW16342   6.986   0.620   1.770
 5148SOL    HW116343   6.908   0.604   1.710
 5148SOL    HW216344   0.042   0.638   1.715
 5149SOL     OW16345   0.098   0.893   5.841
 5149SOL    HW116346   0.141   0.959   5.779
 5149SOL    HW216347   0.140   0.804   5.830
 5150SOL     OW16348   2.771   5.052   5.574
 5150SOL    HW116349   2.860   5.071   5.614
 5150SOL    HW216350   2.779   4.976   5.509
 5151SOL     OW16351   4.625   0.633   6.099
 5151SOL    HW116352   4.687   0.658   6.025
 5151SOL    HW216353   4.590   0.541   6.083
 5152SOL     OW16354   6.944   4.664   6.565
 5152SOL    HW116355   0.014   4.680   6.538
 5152SOL    HW216356   6.918   4.571   6.543
 5153SOL     OW16357   2.847   3.249   1.150
 5153SOL    HW116358   2.912   3.322   1.171
 5153SOL    HW216359   2.873   3.166   1.200
 5154SOL     OW16360   0.880   4.665   5.382
 5154SOL    HW116361   0.875   4.566   5.395
 5154SOL    HW216362   0.848   4.688   5.290
 5155SOL     OW16363   4.068   0.816   1.700
 5155SOL    HW116364   4.153   0.781   1.658
 5155SOL    HW216365   4.077   0.814   1.799
 5156SOL     OW16366   5.525   3.315   5.620
 5156SOL    HW116367   5.522   3.217   5.605
 5156SOL    HW216368   5.605   3.354   5.574
 5157SOL     OW16369   6.405   2.267   3.403
 5157SOL    HW116370   6.417   2.190   3.339
 5157SOL    HW216371   6.473   2.337   3.383
 5158SOL     OW16372   3.365   0.305   1.975
 5158SOL    HW116373   3.369   0.267   2.068
 5158SOL    HW216374   3.321   0.395   1.979
 5159SOL     OW16375   1.760   3.020   5.074
 5159SOL    HW116376   1.791   3.002   5.168
 5159SOL    HW216377   1.821   2.974   5.010
 5160SOL     OW16378   2.780   2.272   3.603
 5160SOL    HW116379   2.725   2.348   3.638
 5160SOL    HW216380   2.848   2.246   3.671
 5161SOL     OW16381   1.649   3.229   6.931
 5161SOL    HW116382   1.748   3.220   6.945
 5161SOL    HW216383   1.629   3.228   6.833
 5162SOL     OW16384   6.488   6.037   4.697
 5162SOL    HW116385   6.425   5.960   4.686
 5162SOL    HW216386   6.538   6.027   4.783
 5163SOL     OW16387   6.191   4.010   0.491
 5163SOL    HW116388   6.143   3.987   0.406
 5163SOL    HW216389   6.224   4.104   0.485
 5164SOL     OW16390   6.861   6.383   4.675
 5164SOL    HW116391   6.827   6.474   4.700
 5164SOL    HW216392   6.885   6.382   4.577
 5165SOL     OW16393   5.621   4.538   5.627
 5165SOL    HW116394   5.574   4.522   5.540
 5165SOL    HW216395   5.567   4.499   5.701
 5166SOL     OW16396   0.574   6.923   3.029
 5166SOL    HW116397   0.488   6.884   3.062
 5166SOL    HW216398   0.645   6.910   3.098
 5167SOL     OW16399   2.023   0.496   5.340
 5167SOL    HW116400   2.091   0.493   5.413
 5167SOL    HW216401   1.994   0.590   5.325
 5168SOL     OW16402   3.293   2.108   2.274
 5168SOL    HW116403   3.356   2.186   2.274
 5168SOL    HW216404   3.232   2.115   2.195
 5169SOL     OW16405   3.904   5.174   6.531
 5169SOL    HW116406   3.990   5.193   6.484
 5169SOL    HW216407   3.890   5.075   6.536
 5170SOL     OW16408   4.174   5.418   4.287
 5170SOL    HW116409   4.218   5.336   4.324
 5170SOL    HW216410   4.182   5.416   4.187
 5171SOL     OW16411   2.641   4.824   5.139
 5171SOL    HW116412   2.703   4.747   5.124
 5171SOL    HW216413   2.547   4.795   5.125
 5172SOL     OW16414   1.689   3.744   6.268
 5172SOL    HW116415   1.626   3.683   6.220
 5172SOL    HW216416   1.654   3.838   6.262
 5173SOL     OW16417   0.179   2.315   4.381
 5173SOL    HW116418   0.113   2.281   4.315
 5173SOL    HW216419   0.271   2.297   4.349
 5174SOL     OW16420   2.977   4.939   6.855
 5174SOL    HW116421   3.015   4.896   6.937
 5174SOL    HW216422   2.877   4.940   6.862
 5175SOL     OW16423   0.877   5.454   6.828
 5175SOL    HW116424   0.844   5.360   6.830
 5175SOL    HW216425   0.977   5.455   6.830
 5176SOL     OW16426   5.609   3.292   6.719
 5176SOL    HW116427   5.519   3.267   6.754
 5176SOL    HW216428   5.599   3.335   6.629
 5177SOL     OW16429   4.583   4.592   6.555
 5177SOL    HW116430   4.680   4.616   6.557
 5177SOL    HW216431   4.534   4.649   6.621
 5178SOL     OW16432   3.488   4.693   0.504
 5178SOL    HW116433   3.416   4.684   0.435
 5178SOL    HW216434   3.545   4.773   0.483
 5179SOL     OW16435   2.943   6.323   5.494
 5179SOL    HW116436   2.960   6.234   5.538
 5179SOL    HW216437   2.845   6.341   5.494
 5180SOL     OW16438   4.680   1.677   6.903
 5180SOL    HW116439   4.780   1.672   6.898
 5180SOL    HW216440   4.643   1.694   6.812
 5181SOL     OW16441   3.212   6.464   2.465
 5181SOL    HW116442   3.184   6.415   2.382
 5181SOL    HW216443   3.296   6.423   2.501
 5182SOL     OW16444   4.878   3.982   1.123
 5182SOL    HW116445   4.880   3.913   1.195
 5182SOL    HW216446   4.879   4.073   1.164
 5183SOL     OW16447   3.502   0.452   3.882
 5183SOL    HW116448   3.479   0.536   3.834
 5183SOL    HW216449   3.599   0.432   3.870
 5184SOL     OW16450   0.784   1.869   2.932
 5184SOL    HW116451   0.781   1.953   2.986
 5184SOL    HW216452   0.713   1.872   2.862
 5185SOL     OW16453   3.605   0.132   1.880
 5185SOL    HW116454   3.528   0.194   1.893
 5185SOL    HW216455   3.622   0.082   1.965
 5186SOL     OW16456   5.690   3.944   6.904
 5186SOL    HW116457   5.625   3.885   6.856
 5186SOL    HW216458   5.657   3.962   6.997
 5187SOL     OW16459   5.283   3.668   4.558
 5187SOL    HW116460   5.247   3.733   4.492
 5187SOL    HW216461   5.217   3.656   4.632
 5188SOL     OW16462   6.865   1.087   3.461
 5188SOL    HW116463   6.958   1.086   3.499
 5188SOL    HW216464   6.861   1.156   3.388
 5189SOL     OW16465   5.061   5.268   6.017
 5189SOL    HW116466   5.064   5.338   5.946
 5189SOL    HW216467   5.043   5.312   6.106
 5190SOL     OW16468   2.286   2.033   2.827
 5190SOL    HW116469   2.316   2.098   2.758
 5190SOL    HW216470   2.262   1.946   2.783
 5191SOL     OW16471   5.429   1.036   2.139
 5191SOL    HW116472   5.374   1.115   2.112
 5191SOL    HW216473   5.523   1.049   2.110
 5192SOL     OW16474   6.896   4.428   1.630
 5192SOL    HW116475   6.806   4.423   1.674
 5192SOL    HW216476   6.946   4.343   1.645
 5193SOL     OW16477   3.804   5.059   2.819
 5193SOL    HW116478   3.735   5.000   2.778
 5193SOL    HW216479   3.766   5.151   2.832
 5194SOL     OW16480   4.927   0.843   0.143
 5194SOL    HW116481   4.861   0.828   0.217
 5194SOL    HW216482   4.914   0.935   0.104
 5195SOL     OW16483   0.543   5.725   5.226
 5195SOL    HW116484   0.446   5.703   5.214
 5195SOL    HW216485   0.589   5.721   5.137
 5196SOL     OW16486   1.210   3.164   3.583
 5196SOL    HW116487   1.132   3.214   3.545
 5196SOL    HW216488   1.190   3.066   3.582
 5197SOL     OW16489   3.632   5.866   5.240
 5197SOL    HW116490   3.551   5.817   5.272
 5197SOL    HW216491   3.669   5.921   5.315
 5198SOL     OW16492   4.245   0.906   5.654
 5198SOL    HW116493   4.332   0.882   5.611
 5198SOL    HW216494   4.170   0.866   5.603
 5199SOL     OW16495   0.553   5.984   2.399
 5199SOL    HW116496   0.547   6.059   2.464
 5199SOL    HW216497   0.616   5.914   2.433
 5200SOL     OW16498   5.744   6.472   5.598
 5200SOL    HW116499   5.712   6.381   5.571
 5200SOL    HW216500   5.759   6.528   5.517
 5201SOL     OW16501   0.141   3.789   5.395
 5201SOL    HW116502   0.151   3.769   5.297
 5201SOL    HW216503   0.130   3.703   5.445
 5202SOL     OW16504   3.864   2.219   6.010
 5202SOL    HW116505   3.773   2.177   6.014
 5202SOL    HW216506   3.933   2.152   6.033
 5203SOL     OW16507   0.789   0.580   5.923
 5203SOL    HW116508   0.725   0.626   5.983
 5203SOL    HW216509   0.862   0.537   5.977
 5204SOL     OW16510   2.377   0.572   2.282
 5204SOL    HW116511   2.475   0.584   2.296
 5204SOL    HW216512   2.361   0.502   2.213
 5205SOL     OW16513   6.842   6.968   1.821
 5205SOL    HW116514   6.748   6.993   1.795
 5205SOL    HW216515   6.850   6.967   1.920
 5206SOL     OW16516   1.104   5.314   4.966
 5206SOL    HW116517   1.120   5.217   4.984
 5206SOL    HW216518   1.130   5.368   5.046
 5207SOL     OW16519   4.765   1.475   4.535
 5207SOL    HW116520   4.708   1.396   4.514
 5207SOL    HW216521   4.709   1.545   4.580
 5208SOL     OW16522   6.701   1.544   0.100
 5208SOL    HW116523   6.790   1.507   0.125
 5208SOL    HW216524   6.708   1.644   0.092
 5209SOL     OW16525   5.302   5.951   2.384
 5209SOL    HW116526   5.253   6.011   2.321
 5209SOL    HW216527   5.261   5.959   2.475
 5210SOL     OW16528   6.260   4.305   1.382
 5210SOL    HW116529   6.223   4.276   1.471
 5210SOL    HW216530   6.188   4.351   1.330
 5211SOL     OW16531   4.899   2.876   4.729
 5211SOL    HW116532   4.925   2.886   4.633
 5211SOL    HW216533   4.833   2.947   4.753
 5212SOL     OW16534   6.161   3.565   0.061
 5212SOL    HW116535   6.133   3.472   0.088
 5212SOL    HW216536   6.193   3.614   0.142
 5213SOL     OW16537   3.589   3.201   4.177
 5213SOL    HW116538   3.648   3.279   4.160
 5213SOL    HW216539   3.536   3.216   4.260
 5214SOL     OW16540   6.347   2.703   5.557
 5214SOL    HW116541   6.298   2.641   5.618
 5214SOL    HW216542   6.424   2.744   5.605
 5215SOL     OW16543   0.499   4.701   4.781
 5215SOL    HW116544   0.465   4.794   4.784
 5215SOL    HW216545   0.424   4.637   4.795
 5216SOL     OW16546   6.808   4.391   0.331
 5216SOL    HW116547   6.750   4.315   0.301
 5216SOL    HW216548   6.875   4.357   0.398
 5217SOL     OW16549   3.269   0.809   2.568
 5217SOL    HW116550   3.221   0.894   2.589
 5217SOL    HW216551   3.330   0.786   2.644
 5218SOL     OW16552   5.961   0.063   0.643
 5218SOL    HW116553   6.025   0.032   0.573
 5218SOL    HW216554   5.986   0.023   0.731
 5219SOL     OW16555   4.288   1.964   4.767
 5219SOL    HW116556   4.343   2.041   4.731
 5219SOL    HW216557   4.348   1.897   4.810
 5220SOL     OW16558   1.932   3.949   4.462
 5220SOL    HW116559   1.853   3.890   4.447
 5220SOL    HW216560   2.011   3.893   4.488
 5221SOL     OW16561   4.025   6.368   0.720
 5221SOL    HW116562   4.088   6.291   0.713
 5221SOL    HW216563   4.001   6.400   0.629
 5222SOL     OW16564   5.792   3.162   2.494
 5222SOL    HW116565   5.758   3.190   2.404
 5222SOL    HW216566   5.715   3.135   2.551
 5223SOL     OW16567   6.819   1.929   0.562
 5223SOL    HW116568   6.873   1.894   0.639
 5223SOL    HW216569   6.725   1.893   0.570
 5224SOL     OW16570   1.967   1.722   4.715
 5224SOL    HW116571   1.965   1.762   4.807
 5224SOL    HW216572   1.875   1.690   4.692
 5225SOL     OW16573   6.702   2.091   6.079
 5225SOL    HW116574   6.694   2.008   6.134
 5225SOL    HW216575   6.637   2.088   6.004
 5226SOL     OW16576   0.248   0.182   4.205
 5226SOL    HW116577   0.251   0.088   4.241
 5226SOL    HW216578   0.153   0.210   4.194
 5227SOL     OW16579   2.148   2.498   6.581
 5227SOL    HW116580   2.240   2.521   6.612
 5227SOL    HW216581   2.116   2.569   6.517
 5228SOL     OW16582   0.669   2.412   5.089
 5228SOL    HW116583   0.573   2.388   5.074
 5228SOL    HW216584   0.727   2.334   5.064
 5229SOL     OW16585   3.898   1.641   0.432
 5229SOL    HW116586   3.893   1.548   0.470
 5229SOL    HW216587   3.813   1.689   0.454
 5230SOL     OW16588   6.598   0.559   1.883
 5230SOL    HW116589   6.686   0.519   1.856
 5230SOL    HW216590   6.596   0.569   1.983
 5231SOL     OW16591   6.580   4.095   1.589
 5231SOL    HW116592   6.641   4.064   1.661
 5231SOL    HW216593   6.497   4.039   1.588
 5232SOL     OW16594   1.736   1.663   6.133
 5232SOL    HW116595   1.717   1.761   6.138
 5232SOL    HW216596   1.739   1.634   6.037
 5233SOL     OW16597   2.229   6.930   3.465
 5233SOL    HW116598   2.321   6.965   3.479
 5233SOL    HW216599   2.178   6.934   3.551
 5234SOL     OW16600   3.816   2.157   6.272
 5234SOL    HW116601   3.852   2.212   6.196
 5234SOL    HW216602   3.798   2.217   6.350
 5235SOL     OW16603   2.506   3.112   1.424
 5235SOL    HW116604   2.579   3.091   1.489
 5235SOL    HW216605   2.545   3.149   1.340
 5236SOL     OW16606   2.976   5.023   1.893
 5236SOL    HW116607   2.975   5.017   1.794
 5236SOL    HW216608   2.997   4.933   1.932
 5237SOL     OW16609   1.496   1.174   1.489
 5237SOL    HW116610   1.591   1.184   1.459
 5237SOL    HW216611   1.491   1.184   1.589
 5238SOL     OW16612   6.231   0.657   3.241
 5238SOL    HW116613   6.229   0.736   3.180
 5238SOL    HW216614   6.213   0.686   3.335
 5239SOL     OW16615   2.508   3.967   6.958
 5239SOL    HW116616   2.492   3.868   6.959
 5239SOL    HW216617   2.432   4.013   7.004
 5240SOL     OW16618   1.820   4.015   5.395
 5240SOL    HW116619   1.886   3.982   5.462
 5240SOL    HW216620   1.740   3.956   5.395
 5241SOL     OW16621   2.239   5.455   3.563
 5241SOL    HW116622   2.257   5.391   3.489
 5241SOL    HW216623   2.320   5.459   3.623
 5242SOL     OW16624   3.960   6.057   5.647
 5242SOL    HW116625   4.000   6.148   5.638
 5242SOL    HW216626   3.918   6.048   5.738
 5243SOL     OW16627   2.004   5.243   4.273
 5243SOL    HW116628   1.985   5.320   4.212
 5243SOL    HW216629   2.010   5.158   4.219
 5244SOL     OW16630   5.341   0.436   6.524
 5244SOL    HW116631   5.255   0.486   6.517
 5244SOL    HW216632   5.323   0.341   6.550
 5245SOL     OW16633   3.159   3.669   1.446
 5245SOL    HW116634   3.165   3.570   1.429
 5245SOL    HW216635   3.097   3.685   1.522
 5246SOL     OW16636   6.369   2.492   5.782
 5246SOL    HW116637   6.284   2.537   5.810
 5246SOL    HW216638   6.446   2.535   5.828
 5247SOL     OW16639   4.791   0.890   5.321
 5247SOL    HW116640   4.873   0.857   5.276
 5247SOL    HW216641   4.747   0.960   5.265
 5248SOL     OW16642   4.248   1.063   2.105
 5248SOL    HW116643   4.156   1.102   2.112
 5248SOL    HW216644   4.244   0.965   2.120
 5249SOL     OW16645   6.872   5.783   1.799
 5249SOL    HW116646   6.868   5.698   1.852
 5249SOL    HW216647   6.954   5.835   1.824
 5250SOL     OW16648   1.119   5.157   6.955
 5250SOL    HW116649   1.034   5.163   6.903
 5250SOL    HW216650   1.125   5.234   7.018
 5251SOL     OW16651   1.280   4.139   6.406
 5251SOL    HW116652   1.185   4.143   6.437
 5251SOL    HW216653   1.314   4.232   6.392
 5252SOL     OW16654   4.238   6.416   3.373
 5252SOL    HW116655   4.174   6.465   3.433
 5252SOL    HW216656   4.322   6.397   3.423
 5253SOL     OW16657   0.590   6.155   4.733
 5253SOL    HW116658   0.620   6.182   4.642
 5253SOL    HW216659   0.661   6.180   4.800
 5254SOL     OW16660   4.104   6.117   2.215
 5254SOL    HW116661   4.176   6.148   2.152
 5254SOL    HW216662   4.080   6.191   2.277
 5255SOL     OW16663   0.568   1.521   6.426
 5255SOL    HW116664   0.619   1.568   6.354
 5255SOL    HW216665   0.565   1.423   6.406
 5256SOL     OW16666   4.401   1.515   2.541
 5256SOL    HW116667   4.438   1.608   2.543
 5256SOL    HW216668   4.317   1.513   2.487
 5257SOL     OW16669   5.619   1.156   0.224
 5257SOL    HW116670   5.669   1.084   0.177
 5257SOL    HW216671   5.567   1.116   0.300
 5258SOL     OW16672   5.877   1.945   5.225
 5258SOL    HW116673   5.850   1.869   5.167
 5258SOL    HW216674   5.826   1.941   5.311
 5259SOL     OW16675   4.333   6.026   4.544
 5259SOL    HW116676   4.426   6.046   4.576
 5259SOL    HW216677   4.276   6.107   4.555
 5260SOL     OW16678   1.532   6.640   1.964
 5260SOL    HW116679   1.455   6.577   1.965
 5260SOL    HW216680   1.600   6.608   1.898
 5261SOL     OW16681   6.563   4.131   0.034
 5261SOL    HW116682   6.497   4.068   0.075
 5261SOL    HW216683   6.649   4.126   0.085
 5262SOL     OW16684   2.308   2.162   2.042
 5262SOL    HW116685   2.260   2.239   2.085
 5262SOL    HW216686   2.254   2.127   1.966
 5263SOL     OW16687   0.284   6.312   2.461
 5263SOL    HW116688   0.243   6.392   2.417
 5263SOL    HW216689   0.251   6.305   2.555
 5264SOL     OW16690   6.410   2.431   1.989
 5264SOL    HW116691   6.331   2.447   2.049
 5264SOL    HW216692   6.379   2.388   1.905
 5265SOL     OW16693   0.975   5.983   5.586
 5265SOL    HW116694   0.936   6.054   5.527
 5265SOL    HW216695   0.905   5.947   5.647
 5266SOL     OW16696   0.785   0.257   6.114
 5266SOL    HW116697   0.869   0.295   6.153
 5266SOL    HW216698   0.800   0.236   6.017
 5267SOL     OW16699   5.993   1.146   4.838
 5267SOL    HW116700   6.057   1.221   4.851
 5267SOL    HW216701   6.030   1.081   4.772
 5268SOL     OW16702   5.546   0.178   5.906
 5268SOL    HW116703   5.473   0.223   5.854
 5268SOL    HW216704   5.620   0.242   5.923
 5269SOL     OW16705   1.424   0.514   4.419
 5269SOL    HW116706   1.498   0.515   4.353
 5269SOL    HW216707   1.353   0.578   4.391
 5270SOL     OW16708   1.277   1.770   0.044
 5270SOL    HW116709   1.289   1.697   7.002
 5270SOL    HW216710   1.363   1.820   0.054
 5271SOL     OW16711   1.276   5.857   6.415
 5271SOL    HW116712   1.331   5.918   6.358
 5271SOL    HW216713   1.319   5.848   6.505
 5272SOL     OW16714   4.159   0.391   5.846
 5272SOL    HW116715   4.207   0.315   5.801
 5272SOL    HW216716   4.075   0.411   5.796
 5273SOL     OW16717   2.103   1.581   3.693
 5273SOL    HW116718   2.099   1.678   3.716
 5273SOL    HW216719   2.012   1.549   3.665
 5274SOL     OW16720   6.305   4.604   0.866
 5274SOL    HW116721   6.336   4.639   0.954
 5274SOL    HW216722   6.205   4.611   0.862
 5275SOL     OW16723   5.525   0.660   6.380
 5275SOL    HW116724   5.516   0.662   6.280
 5275SOL    HW216725   5.475   0.582   6.417
 5276SOL     OW16726   3.243   6.287   1.717
 5276SOL    HW116727   3.146   6.277   1.735
 5276SOL    HW216728   3.259   6.368   1.661
 5277SOL     OW16729   1.542   3.181   1.778
 5277SOL    HW116730   1.577   3.258   1.725
 5277SOL    HW216731   1.536   3.208   1.875
 5278SOL     OW16732   4.092   3.798   3.643
 5278SOL    HW116733   4.129   3.706   3.634
 5278SOL    HW216734   4.058   3.811   3.736
 5279SOL     OW16735   1.448   6.741   3.142
 5279SOL    HW116736   1.527   6.723   3.202
 5279SOL    HW216737   1.480   6.775   3.054
 5280SOL     OW16738   4.119   0.539   3.903
 5280SOL    HW116739   4.175   0.523   3.985
 5280SOL    HW216740   4.171   0.517   3.821
 5281SOL     OW16741   6.845   2.974   3.529
 5281SOL    HW116742   6.892   2.887   3.520
 5281SOL    HW216743   6.759   2.971   3.478
 5282SOL     OW16744   5.386   2.839   1.211
 5282SOL    HW116745   5.440   2.811   1.131
 5282SOL    HW216746   5.424   2.923   1.249
 5283SOL     OW16747   4.958   5.105   5.264
 5283SOL    HW116748   5.016   5.072   5.339
 5283SOL    HW216749   4.988   5.062   5.178
 5284SOL     OW16750   5.570   2.728   4.382
 5284SOL    HW116751   5.533   2.810   4.338
 5284SOL    HW216752   5.563   2.737   4.481
 5285SOL     OW16753   4.172   6.018   2.734
 5285SOL    HW116754   4.114   6.063   2.665
 5285SOL    HW216755   4.248   6.078   2.758
 5286SOL     OW16756   1.956   4.625   2.243
 5286SOL    HW116757   1.962   4.611   2.342
 5286SOL    HW216758   1.967   4.723   2.223
 5287SOL     OW16759   0.582   0.384   2.670
 5287SOL    HW116760   0.670   0.407   2.629
 5287SOL    HW216761   0.596   0.319   2.745
 5288SOL     OW16762   3.560   0.416   1.015
 5288SOL    HW116763   3.633   0.349   1.003
 5288SOL    HW216764   3.558   0.446   1.111
 5289SOL     OW16765   1.767   6.804   1.794
 5289SOL    HW116766   1.788   6.886   1.739
 5289SOL    HW216767   1.788   6.822   1.890
 5290SOL     OW16768   6.024   6.755   6.698
 5290SOL    HW116769   5.931   6.751   6.662
 5290SOL    HW216770   6.089   6.720   6.630
 5291SOL     OW16771   1.229   5.662   0.008
 5291SOL    HW116772   1.327   5.684   0.017
 5291SOL    HW216773   1.218   5.585   6.971
 5292SOL     OW16774   5.714   1.585   1.484
 5292SOL    HW116775   5.646   1.537   1.541
 5292SOL    HW216776   5.787   1.521   1.461
 5293SOL     OW16777   2.241   1.329   4.138
 5293SOL    HW116778   2.299   1.383   4.199
 5293SOL    HW216779   2.243   1.368   4.046
 5294SOL     OW16780   3.513   1.839   6.851
 5294SOL    HW116781   3.576   1.789   6.792
 5294SOL    HW216782   3.532   1.937   6.844
 5295SOL     OW16783   0.269   1.724   3.062
 5295SOL    HW116784   0.297   1.644   3.009
 5295SOL    HW216785   0.344   1.754   3.121
 5296SOL     OW16786   0.294   3.073   6.319
 5296SOL    HW116787   0.230   3.004   6.354
 5296SOL    HW216788   0.302   3.062   6.220
 5297SOL     OW16789   0.753   1.983   1.763
 5297SOL    HW116790   0.821   1.930   1.713
 5297SOL    HW216791   0.689   2.025   1.699
 5298SOL     OW16792   0.986   3.827   2.107
 5298SOL    HW116793   0.990   3.727   2.106
 5298SOL    HW216794   1.074   3.864   2.079
 5299SOL     OW16795   3.901   0.238   0.013
 5299SOL    HW116796   3.980   0.286   0.050
 5299SOL    HW216797   3.930   0.172   6.970
 5300SOL     OW16798   6.994   4.755   4.690
 5300SOL    HW116799   6.951   4.749   4.780
 5300SOL    HW216800   6.931   4.796   4.625
 5301SOL     OW16801   5.374   6.972   6.496
 5301SOL    HW116802   5.384   6.872   6.503
 5301SOL    HW216803   5.461   7.016   6.518
 5302SOL     OW16804   0.294   3.683   2.803
 5302SOL    HW116805   0.314   3.619   2.878
 5302SOL    HW216806   0.217   3.648   2.750
 5303SOL     OW16807   2.387   4.482   2.430
 5303SOL    HW116808   2.338   4.560   2.392
 5303SOL    HW216809   2.394   4.410   2.362
 5304SOL     OW16810   4.552   1.634   5.571
 5304SOL    HW116811   4.504   1.669   5.652
 5304SOL    HW216812   4.601   1.709   5.527
 5305SOL     OW16813   4.192   1.675   4.759
 5305SOL    HW116814   4.167   1.659   4.663
 5305SOL    HW216815   4.115   1.719   4.806
 5306SOL     OW16816   2.608   6.983   2.991
 5306SOL    HW116817   2.591   6.891   3.026
 5306SOL    HW216818   2.557   0.024   3.046
 5307SOL     OW16819   4.768   6.322   6.639
 5307SOL    HW116820   4.677   6.294   6.670
 5307SOL    HW216821   4.797   6.402   6.691
 5308SOL     OW16822   6.741   1.455   1.406
 5308SOL    HW116823   6.827   1.475   1.360
 5308SOL    HW216824   6.722   1.526   1.474
 5309SOL     OW16825   3.746   3.870   6.031
 5309SOL    HW116826   3.783   3.815   5.956
 5309SOL    HW216827   3.655   3.902   6.008
 5310SOL     OW16828   5.122   2.815   0.533
 5310SOL    HW116829   5.104   2.791   0.628
 5310SOL    HW216830   5.055   2.770   0.474
 5311SOL     OW16831   6.830   5.830   0.311
 5311SOL    HW116832   6.744   5.873   0.283
 5311SOL    HW216833   6.826   5.732   0.293
 5312SOL     OW16834   0.745   4.077   1.681
 5312SOL    HW116835   0.827   4.121   1.719
 5312SOL    HW216836   0.739   3.983   1.713
 5313SOL     OW16837   0.394   5.950   6.739
 5313SOL    HW116838   0.434   5.895   6.666
 5313SOL    HW216839   0.297   5.928   6.749
 5314SOL     OW16840   3.866   4.619   0.812
 5314SOL    HW116841   3.806   4.630   0.890
 5314SOL    HW216842   3.856   4.527   0.774
 5315SOL     OW16843   5.706   1.229   2.550
 5315SOL    HW116844   5.652   1.307   2.582
 5315SOL    HW216845   5.657   1.183   2.475
 5316SOL     OW16846   5.353   5.071   4.683
 5316SOL    HW116847   5.394   4.981   4.695
 5316SOL    HW216848   5.256   5.067   4.705
 5317SOL     OW16849   0.137   4.855   1.057
 5317SOL    HW116850   0.207   4.884   1.123
 5317SOL    HW216851   0.135   4.919   0.980
 5318SOL     OW16852   6.573   2.604   3.677
 5318SOL    HW116853   6.590   2.552   3.761
 5318SOL    HW216854   6.496   2.666   3.691
 5319SOL     OW16855   2.756   6.450   2.686
 5319SOL    HW116856   2.691   6.508   2.735
 5319SOL    HW216857   2.834   6.506   2.656
 5320SOL     OW16858   6.185   2.051   6.985
 5320SOL    HW116859   6.228   1.967   6.950
 5320SOL    HW216860   6.227   2.075   0.048
 5321SOL     OW16861   3.153   5.274   0.049
 5321SOL    HW116862   3.057   5.286   0.025
 5321SOL    HW216863   3.161   5.244   0.144
 5322SOL     OW16864   3.150   6.105   0.305
 5322SOL    HW116865   3.210   6.160   0.247
 5322SOL    HW216866   3.171   6.122   0.401
 5323SOL     OW16867   6.465   3.014   0.721
 5323SOL    HW116868   6.503   2.922   0.732
 5323SOL    HW216869   6.505   3.075   0.789
 5324SOL     OW16870   3.990   3.535   2.610
 5324SOL    HW116871   4.007   3.533   2.511
 5324SOL    HW216872   4.025   3.451   2.651
 5325SOL     OW16873   3.021   0.213   5.989
 5325SOL    HW116874   2.933   0.214   6.038
 5325SOL    HW216875   3.070   0.298   6.009
 5326SOL     OW16876   5.998   1.018   4.124
 5326SOL    HW116877   5.909   0.977   4.146
 5326SOL    HW216878   6.070   0.965   4.170
 5327SOL     OW16879   6.256   6.709   4.115
 5327SOL    HW116880   6.295   6.725   4.205
 5327SOL    HW216881   6.319   6.653   4.061
 5328SOL     OW16882   2.760   5.050   6.153
 5328SOL    HW116883   2.856   5.039   6.130
 5328SOL    HW216884   2.713   4.962   6.143
 5329SOL     OW16885   0.186   6.777   6.231
 5329SOL    HW116886   0.120   6.703   6.216
 5329SOL    HW216887   0.204   6.787   6.329
 5330SOL     OW16888   4.697   4.460   0.322
 5330SOL    HW116889   4.651   4.445   0.235
 5330SOL    HW216890   4.796   4.452   0.309
 5331SOL     OW16891   6.057   1.115   6.933
 5331SOL    HW116892   6.003   1.183   6.983
 5331SOL    HW216893   6.062   1.140   6.837
 5332SOL     OW16894   6.439   3.408   0.076
 5332SOL    HW116895   6.351   3.451   0.054
 5332SOL    HW216896   6.513   3.457   0.030
 5333SOL     OW16897   0.029   6.990   4.306
 5333SOL    HW116898   0.056   6.920   4.240
 5333SOL    HW216899   0.061   6.964   4.398
 5334SOL     OW16900   3.005   5.881   0.864
 5334SOL    HW116901   2.947   5.959   0.884
 5334SOL    HW216902   3.067   5.864   0.941
 5335SOL     OW16903   0.021   5.426   1.899
 5335SOL    HW116904   0.104   5.465   1.861
 5335SOL    HW216905   0.028   5.424   1.999
 5336SOL     OW16906   1.120   3.049   5.474
 5336SOL    HW116907   1.150   2.990   5.399
 5336SOL    HW216908   1.115   3.144   5.442
 5337SOL     OW16909   6.314   2.310   1.143
 5337SOL    HW116910   6.349   2.298   1.236
 5337SOL    HW216911   6.368   2.379   1.096
 5338SOL     OW16912   6.951   3.190   1.716
 5338SOL    HW116913   6.863   3.184   1.669
 5338SOL    HW216914   6.988   3.099   1.731
 5339SOL     OW16915   4.785   4.107   2.956
 5339SOL    HW116916   4.838   4.028   2.986
 5339SOL    HW216917   4.775   4.105   2.857
 5340SOL     OW16918   5.943   3.730   1.063
 5340SOL    HW116919   5.927   3.657   1.129
 5340SOL    HW216920   5.919   3.818   1.103
 5341SOL     OW16921   4.743   5.440   3.316
 5341SOL    HW116922   4.781   5.422   3.225
 5341SOL    HW216923   4.783   5.525   3.353
 5342SOL     OW16924   5.971   5.035   4.682
 5342SOL    HW116925   5.907   4.969   4.643
 5342SOL    HW216926   5.926   5.087   4.753
 5343SOL     OW16927   3.497   3.773   0.126
 5343SOL    HW116928   3.407   3.744   0.095
 5343SOL    HW216929   3.564   3.702   0.106
 5344SOL     OW16930   5.835   1.808   0.073
 5344SOL    HW116931   5.743   1.842   0.097
 5344SOL    HW216932   5.868   1.857   7.018
 5345SOL     OW16933   3.778   0.843   6.693
 5345SOL    HW116934   3.711   0.826   6.765
 5345SOL    HW216935   3.770   0.938   6.662
 5346SOL     OW16936   2.420   5.971   3.171
 5346SOL    HW116937   2.409   5.926   3.083
 5346SOL    HW216938   2.340   5.951   3.228
 5347SOL     OW16939   6.150   2.319   5.152
 5347SOL    HW116940   6.192   2.407   5.173
 5347SOL    HW216941   6.051   2.330   5.146
 5348SOL     OW16942   4.973   2.615   5.225
 5348SOL    HW116943   4.933   2.665   5.302
 5348SOL    HW216944   4.900   2.566   5.177
 5349SOL     OW16945   0.908   3.808   0.516
 5349SOL    HW116946   0.906   3.907   0.529
 5349SOL    HW216947   0.950   3.764   0.595
 5350SOL     OW16948   1.209   0.207   6.505
 5350SOL    HW116949   1.171   0.256   6.584
 5350SOL    HW216950   1.135   0.182   6.443
 5351SOL     OW16951   0.737   5.637   3.555
 5351SOL    HW116952   0.677   5.647   3.475
 5351SOL    HW216953   0.698   5.688   3.632
 5352SOL     OW16954   0.609   2.554   5.858
 5352SOL    HW116955   0.611   2.460   5.892
 5352SOL    HW216956   0.678   2.608   5.907
 5353SOL     OW16957   2.016   6.529   2.934
 5353SOL    HW116958   2.080   6.503   2.862
 5353SOL    HW216959   2.040   6.619   2.969
 5354SOL     OW16960   3.299   5.963   2.004
 5354SOL    HW116961   3.239   6.018   1.945
 5354SOL    HW216962   3.394   5.978   1.976
 5355SOL     OW16963   5.133   4.223   5.747
 5355SOL    HW116964   5.144   4.322   5.740
 5355SOL    HW216965   5.036   4.200   5.751
 5356SOL     OW16966   6.960   6.866   1.604
 5356SOL    HW116967   0.028   6.834   1.620
 5356SOL    HW216968   6.921   6.901   1.690
 5357SOL     OW16969   6.011   3.539   2.451
 5357SOL    HW116970   6.079   3.542   2.524
 5357SOL    HW216971   5.919   3.547   2.491
 5358SOL     OW16972   5.574   6.742   6.421
 5358SOL    HW116973   5.540   6.659   6.464
 5358SOL    HW216974   5.508   6.776   6.354
 5359SOL     OW16975   3.581   2.115   0.142
 5359SOL    HW116976   3.606   2.018   0.141
 5359SOL    HW216977   3.586   2.150   0.236
 5360SOL     OW16978   5.442   5.750   3.154
 5360SOL    HW116979   5.422   5.839   3.193
 5360SOL    HW216980   5.533   5.720   3.182
 5361SOL     OW16981   1.510   4.135   2.697
 5361SOL    HW116982   1.435   4.200   2.684
 5361SOL    HW216983   1.593   4.184   2.720
 5362SOL     OW16984   5.748   1.545   3.993
 5362SOL    HW116985   5.694   1.468   4.025
 5362SOL    HW216986   5.803   1.581   4.069
 5363SOL     OW16987   6.652   4.774   6.184
 5363SOL    HW116988   6.564   4.730   6.165
 5363SOL    HW216989   6.645   4.872   6.163
 5364SOL     OW16990   5.111   2.866   1.294
 5364SOL    HW116991   5.118   2.932   1.369
 5364SOL    HW216992   5.203   2.835   1.269
 5365SOL     OW16993   3.464   3.356   6.153
 5365SOL    HW116994   3.541   3.295   6.134
 5365SOL    HW216995   3.431   3.397   6.068
 5366SOL     OW16996   6.945   4.642   4.013
 5366SOL    HW116997   7.024   4.658   4.071
 5366SOL    HW216998   6.923   4.544   4.012
 5367SOL     OW16999   5.867   6.072   0.742
 5367SOL    HW117000   5.953   6.022   0.733
 5367SOL    HW217001   5.884   6.170   0.732
 5368SOL     OW17002   0.051   5.926   5.384
 5368SOL    HW117003   0.129   5.929   5.446
 5368SOL    HW217004   7.007   5.864   5.421
 5369SOL     OW17005   3.381   0.362   2.710
 5369SOL    HW117006   3.334   0.282   2.673
 5369SOL    HW217007   3.316   0.421   2.758
 5370SOL     OW17008   2.461   2.079   0.401
 5370SOL    HW117009   2.412   1.992   0.396
 5370SOL    HW217010   2.533   2.081   0.332
 5371SOL     OW17011   6.264   5.086   3.410
 5371SOL    HW117012   6.247   5.070   3.313
 5371SOL    HW217013   6.323   5.166   3.421
 5372SOL     OW17014   0.239   0.956   4.167
 5372SOL    HW117015   0.339   0.959   4.177
 5372SOL    HW217016   0.216   0.920   4.076
 5373SOL     OW17017   3.834   6.985   0.535
 5373SOL    HW117018   3.786   6.961   0.620
 5373SOL    HW217019   3.770   0.003   0.472
 5374SOL     OW17020   1.660   3.668   1.170
 5374SOL    HW117021   1.613   3.720   1.240
 5374SOL    HW217022   1.750   3.640   1.203
 5375SOL     OW17023   3.019   5.258   4.798
 5375SOL    HW117024   2.926   5.271   4.763
 5375SOL    HW217025   3.078   5.231   4.722
 5376SOL     OW17026   7.022   6.762   2.509
 5376SOL    HW117027   7.010   6.784   2.606
 5376SOL    HW217028   0.080   6.806   2.475
 5377SOL     OW17029   0.730   2.469   1.567
 5377SOL    HW117030   0.815   2.482   1.619
 5377SOL    HW217031   0.719   2.372   1.545
 5378SOL     OW17032   4.683   0.080   3.871
 5378SOL    HW117033   4.615   0.069   3.799
 5378SOL    HW217034   4.647   0.139   3.943
 5379SOL     OW17035   3.265   2.158   4.209
 5379SOL    HW117036   3.191   2.118   4.263
 5379SOL    HW217037   3.350   2.155   4.261
 5380SOL     OW17038   4.712   0.131   1.427
 5380SOL    HW117039   4.642   0.061   1.437
 5380SOL    HW217040   4.796   0.089   1.393
 5381SOL     OW17041   2.706   1.851   2.843
 5381SOL    HW117042   2.747   1.879   2.930
 5381SOL    HW217043   2.778   1.837   2.775
 5382SOL     OW17044   4.653   0.581   2.732
 5382SOL    HW117045   4.746   0.612   2.715
 5382SOL    HW217046   4.622   0.613   2.822
 5383SOL     OW17047   2.467   4.214   5.293
 5383SOL    HW117048   2.442   4.143   5.228
 5383SOL    HW217049   2.454   4.304   5.252
 5384SOL     OW17050   5.353   6.314   5.979
 5384SOL    HW117051   5.383   6.391   6.036
 5384SOL    HW217052   5.425   6.245   5.976
 5385SOL     OW17053   3.385   3.827   0.777
 5385SOL    HW117054   3.319   3.753   0.790
 5385SOL    HW217055   3.366   3.874   0.690
 5386SOL     OW17056   4.258   4.989   3.234
 5386SOL    HW117057   4.317   4.951   3.306
 5386SOL    HW217058   4.226   5.079   3.262
 5387SOL     OW17059   0.821   2.635   5.141
 5387SOL    HW117060   0.749   2.567   5.122
 5387SOL    HW217061   0.807   2.673   5.232
 5388SOL     OW17062   6.540   6.722   3.372
 5388SOL    HW117063   6.623   6.694   3.420
 5388SOL    HW217064   6.464   6.663   3.401
 5389SOL     OW17065   6.109   1.554   4.647
 5389SOL    HW117066   6.101   1.460   4.614
 5389SOL    HW217067   6.203   1.570   4.678
 5390SOL     OW17068   5.561   3.120   3.106
 5390SOL    HW117069   5.530   3.030   3.078
 5390SOL    HW217070   5.644   3.144   3.055
 5391SOL     OW17071   4.696   3.332   1.054
 5391SOL    HW117072   4.728   3.248   1.009
 5391SOL    HW217073   4.735   3.338   1.146
 5392SOL     OW17074   5.181   0.845   4.140
 5392SOL    HW117075   5.226   0.805   4.220
 5392SOL    HW217076   5.159   0.941   4.160
 5393SOL     OW17077   4.952   3.390   2.616
 5393SOL    HW117078   4.898   3.457   2.667
 5393SOL    HW217079   4.945   3.301   2.660
 5394SOL     OW17080   0.536   2.864   3.118
 5394SOL    HW117081   0.570   2.927   3.048
 5394SOL    HW217082   0.555   2.770   3.090
 5395SOL     OW17083   0.634   0.702   1.744
 5395SOL    HW117084   0.607   0.796   1.760
 5395SOL    HW217085   0.554   0.642   1.750
 5396SOL     OW17086   3.976   1.999   0.634
 5396SOL    HW117087   3.963   2.092   0.668
 5396SOL    HW217088   4.064   1.993   0.586
 5397SOL     OW17089   0.776   6.545   3.145
 5397SOL    HW117090   0.696   6.573   3.199
 5397SOL    HW217091   0.824   6.627   3.113
 5398SOL     OW17092   5.253   2.213   3.327
 5398SOL    HW117093   5.310   2.134   3.307
 5398SOL    HW217094   5.176   2.185   3.386
 5399SOL     OW17095   2.652   2.432   0.326
 5399SOL    HW117096   2.670   2.457   0.231
 5399SOL    HW217097   2.720   2.365   0.357
 5400SOL     OW17098   4.694   2.971   0.657
 5400SOL    HW117099   4.632   2.992   0.582
 5400SOL    HW217100   4.733   3.056   0.693
 5401SOL     OW17101   5.140   4.353   1.121
 5401SOL    HW117102   5.116   4.407   1.040
 5401SOL    HW217103   5.215   4.397   1.170
 5402SOL     OW17104   2.261   5.471   1.801
 5402SOL    HW117105   2.169   5.432   1.793
 5402SOL    HW217106   2.269   5.519   1.888
 5403SOL     OW17107   6.294   2.588   5.308
 5403SOL    HW117108   6.301   2.644   5.391
 5403SOL    HW217109   6.255   2.642   5.234
 5404SOL     OW17110   4.806   6.571   0.379
 5404SOL    HW117111   4.869   6.495   0.362
 5404SOL    HW217112   4.839   6.623   0.459
 5405SOL     OW17113   6.332   5.166   6.060
 5405SOL    HW117114   6.364   5.199   5.971
 5405SOL    HW217115   6.235   5.142   6.053
 5406SOL     OW17116   1.712   1.451   5.528
 5406SOL    HW117117   1.802   1.456   5.485
 5406SOL    HW217118   1.677   1.544   5.543
 5407SOL     OW17119   1.986   1.603   2.817
 5407SOL    HW117120   2.030   1.636   2.733
 5407SOL    HW217121   1.976   1.679   2.881
 5408SOL     OW17122   2.276   2.599   4.236
 5408SOL    HW117123   2.214   2.541   4.288
 5408SOL    HW217124   2.363   2.552   4.224
 5409SOL     OW17125   0.124   4.535   3.557
 5409SOL    HW117126   0.205   4.512   3.611
 5409SOL    HW217127   0.061   4.587   3.614
 5410SOL     OW17128   5.917   1.303   0.026
 5410SOL    HW117129   5.954   1.285   0.117
 5410SOL    HW217130   5.911   1.402   0.012
 5411SOL     OW17131   3.090   6.291   1.992
 5411SOL    HW117132   3.180   6.322   2.021
 5411SOL    HW217133   3.067   6.332   1.904
 5412SOL     OW17134   2.273   2.133   5.774
 5412SOL    HW117135   2.219   2.098   5.851
 5412SOL    HW217136   2.351   2.072   5.758
 5413SOL     OW17137   0.097   5.387   5.562
 5413SOL    HW117138   0.039   5.409   5.640
 5413SOL    HW217139   0.161   5.462   5.545
 5414SOL     OW17140   6.097   5.903   5.522
 5414SOL    HW117141   6.158   5.969   5.478
 5414SOL    HW217142   6.138   5.812   5.519
 5415SOL     OW17143   2.131   0.694   0.708
 5415SOL    HW117144   2.183   0.631   0.766
 5415SOL    HW217145   2.072   0.751   0.765
 5416SOL     OW17146   4.211   4.900   6.231
 5416SOL    HW117147   4.272   4.839   6.181
 5416SOL    HW217148   4.261   4.982   6.260
 5417SOL     OW17149   5.441   0.660   1.327
 5417SOL    HW117150   5.380   0.602   1.381
 5417SOL    HW217151   5.478   0.606   1.251
 5418SOL     OW17152   0.168   2.658   5.482
 5418SOL    HW117153   0.079   2.681   5.520
 5418SOL    HW217154   0.160   2.581   5.419
 5419SOL     OW17155   4.182   2.404   5.819
 5419SOL    HW117156   4.094   2.435   5.855
 5419SOL    HW217157   4.203   2.314   5.857
 5420SOL     OW17158   1.492   1.632   1.204
 5420SOL    HW117159   1.484   1.678   1.116
 5420SOL    HW217160   1.478   1.534   1.192
 5421SOL     OW17161   4.043   5.676   0.972
 5421SOL    HW117162   3.957   5.686   1.022
 5421SOL    HW217163   4.094   5.598   1.008
 5422SOL     OW17164   2.569   6.764   3.148
 5422SOL    HW117165   2.599   6.670   3.134
 5422SOL    HW217166   2.480   6.764   3.193
 5423SOL     OW17167   4.207   6.654   2.643
 5423SOL    HW117168   4.301   6.658   2.676
 5423SOL    HW217169   4.147   6.625   2.717
 5424SOL     OW17170   4.011   3.628   5.743
 5424SOL    HW117171   4.094   3.614   5.796
 5424SOL    HW217172   3.997   3.549   5.682
 5425SOL     OW17173   2.064   5.417   4.892
 5425SOL    HW117174   2.044   5.321   4.873
 5425SOL    HW217175   2.112   5.458   4.814
 5426SOL     OW17176   1.883   4.057   0.020
 5426SOL    HW117177   1.853   4.145   7.008
 5426SOL    HW217178   1.809   3.991   0.014
 5427SOL     OW17179   4.704   1.533   0.547
 5427SOL    HW117180   4.621   1.581   0.578
 5427SOL    HW217181   4.783   1.594   0.555
 5428SOL     OW17182   4.653   5.642   2.385
 5428SOL    HW117183   4.711   5.677   2.459
 5428SOL    HW217184   4.684   5.551   2.358
 5429SOL     OW17185   2.454   6.478   3.255
 5429SOL    HW117186   2.440   6.380   3.241
 5429SOL    HW217187   2.540   6.506   3.213
 5430SOL     OW17188   0.886   3.490   5.204
 5430SOL    HW117189   0.794   3.491   5.242
 5430SOL    HW217190   0.926   3.582   5.211
 5431SOL     OW17191   5.507   4.599   0.539
 5431SOL    HW117192   5.471   4.641   0.622
 5431SOL    HW217193   5.483   4.501   0.538
 5432SOL     OW17194   2.118   5.511   5.792
 5432SOL    HW117195   2.151   5.494   5.885
 5432SOL    HW217196   2.019   5.527   5.793
 5433SOL     OW17197   2.544   6.867   1.460
 5433SOL    HW117198   2.527   6.769   1.472
 5433SOL    HW217199   2.639   6.880   1.431
 5434SOL     OW17200   5.435   5.851   4.297
 5434SOL    HW117201   5.391   5.776   4.346
 5434SOL    HW217202   5.514   5.817   4.246
 5435SOL     OW17203   0.399   3.304   0.161
 5435SOL    HW117204   0.350   3.217   0.164
 5435SOL    HW217205   0.426   3.325   0.067
 5436SOL     OW17206   1.063   4.677   0.807
 5436SOL    HW117207   1.099   4.722   0.889
 5436SOL    HW217208   1.044   4.581   0.828
 5437SOL     OW17209   2.972   6.604   6.029
 5437SOL    HW117210   2.984   6.516   5.983
 5437SOL    HW217211   2.891   6.599   6.087
 5438SOL     OW17212   4.932   6.792   2.882
 5438SOL    HW117213   4.868   6.851   2.833
 5438SOL    HW217214   4.897   6.772   2.973
 5439SOL     OW17215   1.386   3.495   2.074
 5439SOL    HW117216   1.351   3.472   2.166
 5439SOL    HW217217   1.435   3.582   2.078
 5440SOL     OW17218   5.368   6.209   3.050
 5440SOL    HW117219   5.466   6.226   3.059
 5440SOL    HW217220   5.318   6.287   3.088
 5441SOL     OW17221   5.604   0.123   5.126
 5441SOL    HW117222   5.559   0.080   5.047
 5441SOL    HW217223   5.655   0.054   5.177
 5442SOL     OW17224   2.808   6.261   0.112
 5442SOL    HW117225   2.829   6.277   0.209
 5442SOL    HW217226   2.894   6.261   0.060
 5443SOL     OW17227   5.959   1.581   3.466
 5443SOL    HW117228   5.918   1.508   3.413
 5443SOL    HW217229   5.945   1.563   3.564
 5444SOL     OW17230   1.632   1.676   6.551
 5444SOL    HW117231   1.728   1.675   6.525
 5444SOL    HW217232   1.575   1.664   6.469
 5445SOL     OW17233   6.195   6.351   5.105
 5445SOL    HW117234   6.258   6.417   5.145
 5445SOL    HW217235   6.191   6.364   5.006
 5446SOL     OW17236   2.454   3.912   0.248
 5446SOL    HW117237   2.391   3.835   0.261
 5446SOL    HW217238   2.405   3.989   0.208
 5447SOL     OW17239   5.460   2.516   1.674
 5447SOL    HW117240   5.363   2.516   1.699
 5447SOL    HW217241   5.476   2.584   1.602
 5448SOL     OW17242   5.896   5.283   1.173
 5448SOL    HW117243   5.945   5.335   1.243
 5448SOL    HW217244   5.885   5.188   1.205
 5449SOL     OW17245   1.984   0.248   2.563
 5449SOL    HW117246   1.958   0.215   2.472
 5449SOL    HW217247   1.902   0.280   2.611
 5450SOL     OW17248   4.231   4.618   1.888
 5450SOL    HW117249   4.157   4.606   1.954
 5450SOL    HW217250   4.216   4.556   1.810
 5451SOL     OW17251   0.900   5.456   3.382
 5451SOL    HW117252   0.964   5.407   3.441
 5451SOL    HW217253   0.853   5.526   3.434
 5452SOL     OW17254   2.162   3.766   3.452
 5452SOL    HW117255   2.106   3.751   3.370
 5452SOL    HW217256   2.234   3.832   3.432
 5453SOL     OW17257   6.005   5.839   4.258
 5453SOL    HW117258   5.906   5.848   4.261
 5453SOL    HW217259   6.036   5.828   4.164
 5454SOL     OW17260   6.704   3.983   1.809
 5454SOL    HW117261   6.774   3.912   1.799
 5454SOL    HW217262   6.635   3.952   1.875
 5455SOL     OW17263   2.141   2.548   2.886
 5455SOL    HW117264   2.139   2.461   2.836
 5455SOL    HW217265   2.234   2.566   2.918
 5456SOL     OW17266   5.018   2.998   0.073
 5456SOL    HW117267   4.994   3.050   0.155
 5456SOL    HW217268   4.941   2.940   0.047
 5457SOL     OW17269   5.605   1.151   0.601
 5457SOL    HW117270   5.604   1.186   0.694
 5457SOL    HW217271   5.514   1.164   0.559
 5458SOL     OW17272   6.629   4.468   6.036
 5458SOL    HW117273   6.717   4.456   6.082
 5458SOL    HW217274   6.643   4.494   5.941
 5459SOL     OW17275   2.263   3.543   5.731
 5459SOL    HW117276   2.216   3.458   5.755
 5459SOL    HW217277   2.332   3.564   5.800
 5460SOL     OW17278   6.753   1.262   1.195
 5460SOL    HW117279   6.778   1.339   1.137
 5460SOL    HW217280   6.719   1.296   1.283
 5461SOL     OW17281   5.882   0.281   6.408
 5461SOL    HW117282   5.932   0.273   6.494
 5461SOL    HW217283   5.932   0.342   6.345
 5462SOL     OW17284   5.351   4.934   6.975
 5462SOL    HW117285   5.348   4.881   0.035
 5462SOL    HW217286   5.379   5.028   6.995
 5463SOL     OW17287   2.769   4.700   0.252
 5463SOL    HW117288   2.689   4.668   0.202
 5463SOL    HW217289   2.746   4.785   0.300
 5464SOL     OW17290   2.300   5.575   4.188
 5464SOL    HW117291   2.265   5.528   4.269
 5464SOL    HW217292   2.398   5.593   4.199
 5465SOL     OW17293   0.737   1.128   4.888
 5465SOL    HW117294   0.834   1.124   4.861
 5465SOL    HW217295   0.703   1.035   4.901
 5466SOL     OW17296   5.176   2.450   4.868
 5466SOL    HW117297   5.086   2.492   4.854
 5466SOL    HW217298   5.232   2.465   4.787
 5467SOL     OW17299   5.106   4.278   3.659
 5467SOL    HW117300   5.068   4.340   3.727
 5467SOL    HW217301   5.172   4.327   3.603
 5468SOL     OW17302   0.338   2.367   1.387
 5468SOL    HW117303   0.379   2.326   1.468
 5468SOL    HW217304   0.274   2.302   1.346
 5469SOL     OW17305   4.574   0.994   3.228
 5469SOL    HW117306   4.520   1.059   3.175
 5469SOL    HW217307   4.514   0.942   3.288
 5470SOL     OW17308   2.763   4.753   3.662
 5470SOL    HW117309   2.756   4.679   3.595
 5470SOL    HW217310   2.859   4.781   3.670
 5471SOL     OW17311   5.247   0.473   4.117
 5471SOL    HW117312   5.242   0.377   4.089
 5471SOL    HW217313   5.178   0.525   4.067
 5472SOL     OW17314   2.751   3.860   0.079
 5472SOL    HW117315   2.653   3.861   0.058
 5472SOL    HW217316   2.802   3.877   7.020
 5473SOL     OW17317   3.028   4.781   2.011
 5473SOL    HW117318   2.943   4.736   1.986
 5473SOL    HW217319   3.084   4.719   2.067
 5474SOL     OW17320   0.872   5.309   1.942
 5474SOL    HW117321   0.881   5.210   1.930
 5474SOL    HW217322   0.939   5.341   2.009
 5475SOL     OW17323   0.770   0.911   5.502
 5475SOL    HW117324   0.710   0.921   5.582
 5475SOL    HW217325   0.797   0.815   5.491
 5476SOL     OW17326   2.880   1.264   4.576
 5476SOL    HW117327   2.823   1.304   4.648
 5476SOL    HW217328   2.961   1.321   4.563
 5477SOL     OW17329   2.129   4.095   3.247
 5477SOL    HW117330   2.128   4.163   3.174
 5477SOL    HW217331   2.048   4.037   3.240
 5478SOL     OW17332   6.419   3.266   5.792
 5478SOL    HW117333   6.499   3.319   5.819
 5478SOL    HW217334   6.419   3.179   5.841
 5479SOL     OW17335   5.526   3.858   4.619
 5479SOL    HW117336   5.454   3.879   4.685
 5479SOL    HW217337   5.509   3.907   4.534
 5480SOL     OW17338   1.796   2.656   6.233
 5480SOL    HW117339   1.770   2.708   6.315
 5480SOL    HW217340   1.846   2.716   6.170
 5481SOL     OW17341   3.624   1.091   0.900
 5481SOL    HW117342   3.633   1.170   0.840
 5481SOL    HW217343   3.565   1.114   0.977
 5482SOL     OW17344   5.191   4.729   2.137
 5482SOL    HW117345   5.180   4.801   2.205
 5482SOL    HW217346   5.233   4.649   2.180
 5483SOL     OW17347   5.850   1.571   0.557
 5483SOL    HW117348   5.840   1.497   0.491
 5483SOL    HW217349   5.876   1.533   0.646
 5484SOL     OW17350   5.924   0.150   5.785
 5484SOL    HW117351   5.889   0.203   5.861
 5484SOL    HW217352   5.860   0.076   5.764
 5485SOL     OW17353   2.738   1.188   3.968
 5485SOL    HW117354   2.722   1.204   4.066
 5485SOL    HW217355   2.776   1.096   3.956
 5486SOL     OW17356   6.934   0.572   3.894
 5486SOL    HW117357   6.912   0.635   3.819
 5486SOL    HW217358   7.005   0.508   3.864
 5487SOL     OW17359   3.961   5.434   1.366
 5487SOL    HW117360   4.051   5.390   1.365
 5487SOL    HW217361   3.908   5.402   1.288
 5488SOL     OW17362   4.761   0.742   6.326
 5488SOL    HW117363   4.735   0.677   6.255
 5488SOL    HW217364   4.699   0.730   6.405
 5489SOL     OW17365   6.533   4.096   2.531
 5489SOL    HW117366   6.569   4.189   2.528
 5489SOL    HW217367   6.522   4.067   2.626
 5490SOL     OW17368   2.847   0.959   6.711
 5490SOL    HW117369   2.864   0.877   6.657
 5490SOL    HW217370   2.830   0.934   6.806
 5491SOL     OW17371   6.392   6.715   1.397
 5491SOL    HW117372   6.314   6.733   1.458
 5491SOL    HW217373   6.473   6.695   1.452
 5492SOL     OW17374   1.629   1.646   4.858
 5492SOL    HW117375   1.607   1.707   4.934
 5492SOL    HW217376   1.646   1.554   4.894
 5493SOL     OW17377   4.078   1.014   0.125
 5493SOL    HW117378   4.163   1.065   0.134
 5493SOL    HW217379   4.022   1.027   0.207
 5494SOL     OW17380   5.256   3.452   2.569
 5494SOL    HW117381   5.245   3.546   2.536
 5494SOL    HW217382   5.181   3.429   2.632
 5495SOL     OW17383   3.359   3.241   4.715
 5495SOL    HW117384   3.387   3.297   4.793
 5495SOL    HW217385   3.326   3.153   4.748
 5496SOL     OW17386   4.369   4.988   2.361
 5496SOL    HW117387   4.281   4.958   2.397
 5496SOL    HW217388   4.380   5.086   2.377
 5497SOL     OW17389   5.233   0.077   7.010
 5497SOL    HW117390   5.238   0.168   0.025
 5497SOL    HW217391   5.175   0.080   6.929
 5498SOL     OW17392   4.052   1.122   4.135
 5498SOL    HW117393   4.037   1.162   4.044
 5498SOL    HW217394   4.052   1.195   4.204
 5499SOL     OW17395   0.106   0.524   4.866
 5499SOL    HW117396   0.168   0.505   4.942
 5499SOL    HW217397   0.112   0.621   4.842
 5500SOL     OW17398   2.184   6.495   0.690
 5500SOL    HW117399   2.171   6.474   0.593
 5500SOL    HW217400   2.158   6.416   0.745
 5501SOL     OW17401   2.432   1.061   2.203
 5501SOL    HW117402   2.430   1.123   2.125
 5501SOL    HW217403   2.453   1.112   2.286
 5502SOL     OW17404   5.507   4.606   0.259
 5502SOL    HW117405   5.487   4.588   0.355
 5502SOL    HW217406   5.529   4.520   0.213
 5503SOL     OW17407   6.667   0.587   3.883
 5503SOL    HW117408   6.762   0.561   3.897
 5503SOL    HW217409   6.659   0.686   3.880
 5504SOL     OW17410   2.703   2.419   4.672
 5504SOL    HW117411   2.726   2.516   4.669
 5504SOL    HW217412   2.623   2.402   4.614
 5505SOL     OW17413   3.467   4.982   0.767
 5505SOL    HW117414   3.504   4.936   0.686
 5505SOL    HW217415   3.468   4.918   0.845
 5506SOL     OW17416   1.091   6.674   4.821
 5506SOL    HW117417   1.023   6.691   4.750
 5506SOL    HW217418   1.155   6.751   4.824
 5507SOL     OW17419   2.700   5.438   5.027
 5507SOL    HW117420   2.746   5.374   5.089
 5507SOL    HW217421   2.601   5.421   5.030
 5508SOL     OW17422   2.407   1.124   5.347
 5508SOL    HW117423   2.321   1.136   5.297
 5508SOL    HW217424   2.387   1.112   5.444
 5509SOL     OW17425   6.977   0.437   5.743
 5509SOL    HW117426   0.016   0.408   5.814
 5509SOL    HW217427   6.993   0.383   5.660
 5510SOL     OW17428   0.546   0.140   5.148
 5510SOL    HW117429   0.611   0.208   5.182
 5510SOL    HW217430   0.528   0.073   5.220
 5511SOL     OW17431   0.204   2.423   1.089
 5511SOL    HW117432   0.117   2.460   1.121
 5511SOL    HW217433   0.272   2.496   1.087
 5512SOL     OW17434   6.296   6.989   0.360
 5512SOL    HW117435   6.212   0.007   0.327
 5512SOL    HW217436   6.355   6.967   0.282
 5513SOL     OW17437   2.715   5.781   4.445
 5513SOL    HW117438   2.628   5.737   4.465
 5513SOL    HW217439   2.752   5.744   4.360
 5514SOL     OW17440   5.563   5.413   3.494
 5514SOL    HW117441   5.622   5.350   3.544
 5514SOL    HW217442   5.497   5.362   3.440
 5515SOL     OW17443   0.710   4.082   3.387
 5515SOL    HW117444   0.769   4.078   3.467
 5515SOL    HW217445   0.747   4.023   3.315
 5516SOL     OW17446   1.951   2.698   0.191
 5516SOL    HW117447   1.852   2.697   0.175
 5516SOL    HW217448   1.971   2.749   0.274
 5517SOL     OW17449   3.079   0.755   2.235
 5517SOL    HW117450   3.028   0.776   2.151
 5517SOL    HW217451   3.103   0.840   2.282
 5518SOL     OW17452   5.739   3.391   6.042
 5518SOL    HW117453   5.768   3.320   5.978
 5518SOL    HW217454   5.691   3.463   5.992
 5519SOL     OW17455   5.744   4.946   2.594
 5519SOL    HW117456   5.685   4.869   2.621
 5519SOL    HW217457   5.688   5.028   2.583
 5520SOL     OW17458   1.479   2.688   1.128
 5520SOL    HW117459   1.514   2.709   1.219
 5520SOL    HW217460   1.487   2.589   1.112
 5521SOL     OW17461   5.528   4.256   6.272
 5521SOL    HW117462   5.456   4.260   6.202
 5521SOL    HW217463   5.610   4.303   6.238
 5522SOL     OW17464   1.679   2.848   1.712
 5522SOL    HW117465   1.615   2.910   1.756
 5522SOL    HW217466   1.699   2.772   1.773
 5523SOL     OW17467   2.820   6.169   1.695
 5523SOL    HW117468   2.867   6.257   1.698
 5523SOL    HW217469   2.786   6.147   1.787
 5524SOL     OW17470   6.132   6.713   5.857
 5524SOL    HW117471   6.089   6.665   5.781
 5524SOL    HW217472   6.062   6.755   5.915
 5525SOL     OW17473   6.579   6.403   3.295
 5525SOL    HW117474   6.632   6.323   3.324
 5525SOL    HW217475   6.574   6.405   3.195
 5526SOL     OW17476   5.561   3.170   4.733
 5526SOL    HW117477   5.575   3.091   4.674
 5526SOL    HW217478   5.650   3.213   4.753
 5527SOL     OW17479   2.859   3.266   0.128
 5527SOL    HW117480   2.781   3.214   0.094
 5527SOL    HW217481   2.855   3.359   0.092
 5528SOL     OW17482   6.453   3.008   2.608
 5528SOL    HW117483   6.501   3.096   2.609
 5528SOL    HW217484   6.381   3.011   2.538
 5529SOL     OW17485   1.534   0.782   4.339
 5529SOL    HW117486   1.595   0.851   4.301
 5529SOL    HW217487   1.550   0.694   4.294
 5530SOL     OW17488   6.731   3.116   6.811
 5530SOL    HW117489   6.682   3.047   6.863
 5530SOL    HW217490   6.694   3.207   6.832
 5531SOL     OW17491   2.895   3.190   0.403
 5531SOL    HW117492   2.860   3.197   0.310
 5531SOL    HW217493   2.992   3.167   0.401
 5532SOL     OW17494   2.725   2.353   1.775
 5532SOL    HW117495   2.653   2.290   1.803
 5532SOL    HW217496   2.790   2.365   1.851
 5533SOL     OW17497   2.852   0.616   1.118
 5533SOL    HW117498   2.866   0.659   1.208
 5533SOL    HW217499   2.823   0.521   1.131
 5534SOL     OW17500   0.470   3.217   5.133
 5534SOL    HW117501   0.466   3.125   5.094
 5534SOL    HW217502   0.377   3.248   5.152
 5535SOL     OW17503   4.927   4.450   3.879
 5535SOL    HW117504   4.882   4.383   3.939
 5535SOL    HW217505   5.023   4.458   3.905
 5536SOL     OW17506   2.320   1.335   4.553
 5536SOL    HW117507   2.308   1.253   4.498
 5536SOL    HW217508   2.230   1.372   4.578
 5537SOL     OW17509   3.657   1.145   3.714
 5537SOL    HW117510   3.566   1.119   3.682
 5537SOL    HW217511   3.657   1.242   3.739
 5538SOL     OW17512   4.757   2.451   2.207
 5538SOL    HW117513   4.706   2.365   2.215
 5538SOL    HW217514   4.692   2.528   2.204
 5539SOL     OW17515   1.478   0.576   6.265
 5539SOL    HW117516   1.543   0.539   6.331
 5539SOL    HW217517   1.528   0.622   6.192
 5540SOL     OW17518   4.968   6.983   5.251
 5540SOL    HW117519   4.920   0.045   5.261
 5540SOL    HW217520   5.066   6.997   5.262
 5541SOL     OW17521   4.199   2.944   5.669
 5541SOL    HW117522   4.243   2.855   5.658
 5541SOL    HW217523   4.245   3.011   5.610
 5542SOL     OW17524   5.075   4.433   6.424
 5542SOL    HW117525   4.986   4.388   6.436
 5542SOL    HW217526   5.106   4.421   6.330
 5543SOL     OW17527   0.501   0.339   6.164
 5543SOL    HW117528   0.439   0.265   6.191
 5543SOL    HW217529   0.593   0.303   6.153
 5544SOL     OW17530   3.454   5.076   0.311
 5544SOL    HW117531   3.500   5.164   0.295
 5544SOL    HW217532   3.356   5.090   0.316
 5545SOL     OW17533   5.684   1.674   3.202
 5545SOL    HW117534   5.740   1.751   3.172
 5545SOL    HW217535   5.693   1.664   3.302
 5546SOL     OW17536   0.680   6.162   4.392
 5546SOL    HW117537   0.646   6.121   4.307
 5546SOL    HW217538   0.725   6.092   4.446
 5547SOL     OW17539   5.032   1.497   4.649
 5547SOL    HW117540   5.067   1.580   4.607
 5547SOL    HW217541   4.934   1.489   4.633
 5548SOL     OW17542   0.889   3.323   4.971
 5548SOL    HW117543   0.878   3.390   5.044
 5548SOL    HW217544   0.938   3.365   4.895
 5549SOL     OW17545   4.117   2.899   0.609
 5549SOL    HW117546   4.204   2.854   0.590
 5549SOL    HW217547   4.119   2.993   0.573
 5550SOL     OW17548   2.719   3.627   1.768
 5550SOL    HW117549   2.789   3.685   1.725
 5550SOL    HW217550   2.748   3.605   1.861
 5551SOL     OW17551   1.429   4.455   2.541
 5551SOL    HW117552   1.361   4.496   2.480
 5551SOL    HW217553   1.520   4.470   2.504
 5552SOL     OW17554   0.852   0.727   0.286
 5552SOL    HW117555   0.892   0.818   0.292
 5552SOL    HW217556   0.908   0.670   0.226
 5553SOL     OW17557   5.583   6.183   0.777
 5553SOL    HW117558   5.605   6.150   0.686
 5553SOL    HW217559   5.668   6.201   0.827
 5554SOL     OW17560   6.387   2.623   1.458
 5554SOL    HW117561   6.330   2.694   1.418
 5554SOL    HW217562   6.479   2.627   1.417
 5555SOL     OW17563   1.426   4.997   2.386
 5555SOL    HW117564   1.520   5.003   2.422
 5555SOL    HW217565   1.415   4.912   2.335
 5556SOL     OW17566   0.061   1.533   4.821
 5556SOL    HW117567   7.020   1.459   4.819
 5556SOL    HW217568   0.046   1.594   4.743
 5557SOL     OW17569   3.491   6.875   3.130
 5557SOL    HW117570   3.522   6.887   3.225
 5557SOL    HW217571   3.452   6.961   3.097
 5558SOL     OW17572   4.110   3.330   6.257
 5558SOL    HW117573   4.193   3.385   6.267
 5558SOL    HW217574   4.049   3.348   6.335
 5559SOL     OW17575   3.615   0.542   3.076
 5559SOL    HW117576   3.646   0.528   2.982
 5559SOL    HW217577   3.643   0.463   3.132
 5560SOL     OW17578   0.014   5.737   3.648
 5560SOL    HW117579   0.039   5.724   3.552
 5560SOL    HW217580   7.014   5.649   3.688
 5561SOL     OW17581   3.479   0.655   3.466
 5561SOL    HW117582   3.575   0.654   3.440
 5561SOL    HW217583   3.425   0.604   3.398
 5562SOL     OW17584   4.513   3.550   0.547
 5562SOL    HW117585   4.593   3.563   0.488
 5562SOL    HW217586   4.451   3.627   0.536
 5563SOL     OW17587   2.183   4.177   2.068
 5563SOL    HW117588   2.098   4.228   2.080
 5563SOL    HW217589   2.172   4.085   2.106
 5564SOL     OW17590   4.610   6.997   6.270
 5564SOL    HW117591   4.612   6.922   6.204
 5564SOL    HW217592   4.538   0.037   6.246
 5565SOL     OW17593   3.561   1.466   6.077
 5565SOL    HW117594   3.479   1.523   6.078
 5565SOL    HW217595   3.555   1.398   6.151
 5566SOL     OW17596   1.660   5.344   5.632
 5566SOL    HW117597   1.695   5.398   5.708
 5566SOL    HW217598   1.570   5.309   5.655
 5567SOL     OW17599   0.974   5.037   6.576
 5567SOL    HW117600   0.924   4.950   6.578
 5567SOL    HW217601   0.935   5.096   6.505
 5568SOL     OW17602   5.154   5.395   2.052
 5568SOL    HW117603   5.116   5.429   2.138
 5568SOL    HW217604   5.160   5.470   1.986
 5569SOL     OW17605   2.127   1.843   2.695
 5569SOL    HW117606   2.049   1.898   2.722
 5569SOL    HW217607   2.121   1.823   2.597
 5570SOL     OW17608   6.835   4.127   1.452
 5570SOL    HW117609   6.910   4.125   1.517
 5570SOL    HW217610   6.749   4.148   1.500
 5571SOL     OW17611   0.070   4.761   6.915
 5571SOL    HW117612   7.011   4.815   6.905
 5571SOL    HW217613   0.146   4.811   6.873
 5572SOL     OW17614   1.208   4.427   5.301
 5572SOL    HW117615   1.117   4.401   5.333
 5572SOL    HW217616   1.262   4.345   5.284
 5573SOL     OW17617   3.590   4.939   3.601
 5573SOL    HW117618   3.643   4.925   3.685
 5573SOL    HW217619   3.635   4.892   3.525
 5574SOL     OW17620   0.912   1.222   6.307
 5574SOL    HW117621   0.838   1.252   6.247
 5574SOL    HW217622   1.000   1.249   6.267
 5575SOL     OW17623   0.183   0.587   2.213
 5575SOL    HW117624   0.220   0.535   2.290
 5575SOL    HW217625   0.244   0.663   2.192
 5576SOL     OW17626   1.833   4.806   3.641
 5576SOL    HW117627   1.842   4.822   3.739
 5576SOL    HW217628   1.736   4.798   3.617
 5577SOL     OW17629   2.633   2.368   6.360
 5577SOL    HW117630   2.726   2.353   6.326
 5577SOL    HW217631   2.638   2.400   6.455
 5578SOL     OW17632   3.579   3.954   3.924
 5578SOL    HW117633   3.599   4.030   3.862
 5578SOL    HW217634   3.637   3.876   3.901
 5579SOL     OW17635   6.067   3.034   1.859
 5579SOL    HW117636   6.114   2.948   1.878
 5579SOL    HW217637   6.113   3.080   1.782
 5580SOL     OW17638   5.494   2.120   5.847
 5580SOL    HW117639   5.566   2.188   5.836
 5580SOL    HW217640   5.518   2.058   5.922
 5581SOL     OW17641   1.195   1.215   6.248
 5581SOL    HW117642   1.238   1.223   6.338
 5581SOL    HW217643   1.240   1.277   6.184
 5582SOL     OW17644   2.826   2.464   6.100
 5582SOL    HW117645   2.852   2.397   6.030
 5582SOL    HW217646   2.874   2.444   6.185
 5583SOL     OW17647   6.200   6.491   0.590
 5583SOL    HW117648   6.266   6.482   0.665
 5583SOL    HW217649   6.173   6.400   0.558
 5584SOL     OW17650   1.275   3.077   5.054
 5584SOL    HW117651   1.294   3.144   4.983
 5584SOL    HW217652   1.297   3.116   5.144
 5585SOL     OW17653   5.913   4.943   1.185
 5585SOL    HW117654   5.818   4.942   1.153
 5585SOL    HW217655   5.929   4.863   1.243
 5586SOL     OW17656   0.924   6.041   1.669
 5586SOL    HW117657   0.992   6.078   1.733
 5586SOL    HW217658   0.935   5.942   1.662
 5587SOL     OW17659   5.956   0.443   5.193
 5587SOL    HW117660   6.000   0.397   5.269
 5587SOL    HW217661   5.858   0.427   5.196
 5588SOL     OW17662   2.940   0.113   0.701
 5588SOL    HW117663   2.937   0.057   0.783
 5588SOL    HW217664   2.923   0.209   0.725
 5589SOL     OW17665   0.092   4.203   5.791
 5589SOL    HW117666   0.024   4.132   5.770
 5589SOL    HW217667   0.183   4.162   5.792
 5590SOL     OW17668   5.683   5.153   3.380
 5590SOL    HW117669   5.594   5.154   3.425
 5590SOL    HW217670   5.703   5.060   3.349
 5591SOL     OW17671   5.388   1.458   2.845
 5591SOL    HW117672   5.404   1.553   2.818
 5591SOL    HW217673   5.358   1.457   2.941
 5592SOL     OW17674   0.183   5.290   4.081
 5592SOL    HW117675   0.200   5.241   3.996
 5592SOL    HW217676   0.089   5.274   4.111
 5593SOL     OW17677   1.699   3.948   0.721
 5593SOL    HW117678   1.751   3.877   0.674
 5593SOL    HW217679   1.761   4.020   0.752
 5594SOL     OW17680   6.196   1.290   5.767
 5594SOL    HW117681   6.187   1.311   5.670
 5594SOL    HW217682   6.218   1.374   5.817
 5595SOL     OW17683   0.141   2.025   0.716
 5595SOL    HW117684   0.096   2.095   0.660
 5595SOL    HW217685   0.206   2.069   0.778
 5596SOL     OW17686   4.272   6.080   3.149
 5596SOL    HW117687   4.215   6.095   3.229
 5596SOL    HW217688   4.318   5.991   3.157
 5597SOL     OW17689   5.185   3.337   2.045
 5597SOL    HW117690   5.155   3.424   2.007
 5597SOL    HW217691   5.114   3.268   2.030
 5598SOL     OW17692   3.754   0.332   3.974
 5598SOL    HW117693   3.683   0.337   4.044
 5598SOL    HW217694   3.843   0.318   4.017
 5599SOL     OW17695   0.819   1.327   3.280
 5599SOL    HW117696   0.869   1.370   3.205
 5599SOL    HW217697   0.721   1.336   3.263
 5600SOL     OW17698   2.693   2.838   5.353
 5600SOL    HW117699   2.663   2.909   5.289
 5600SOL    HW217700   2.746   2.880   5.427
 5601SOL     OW17701   1.991   0.618   6.445
 5601SOL    HW117702   1.940   0.552   6.501
 5601SOL    HW217703   2.068   0.654   6.498
 5602SOL     OW17704   1.809   1.020   0.051
 5602SOL    HW117705   1.753   0.949   0.093
 5602SOL    HW217706   1.879   0.979   7.017
 5603SOL     OW17707   6.396   3.497   5.212
 5603SOL    HW117708   6.359   3.528   5.125
 5603SOL    HW217709   6.485   3.540   5.227
 5604SOL     OW17710   5.215   0.842   6.435
 5604SOL    HW117711   5.180   0.749   6.446
 5604SOL    HW217712   5.140   0.907   6.443
 5605SOL     OW17713   0.835   1.707   6.511
 5605SOL    HW117714   0.846   1.806   6.502
 5605SOL    HW217715   0.894   1.674   6.585
 5606SOL     OW17716   5.655   0.094   2.723
 5606SOL    HW117717   5.728   0.026   2.736
 5606SOL    HW217718   5.583   0.079   2.791
 5607SOL     OW17719   4.992   0.721   1.121
 5607SOL    HW117720   4.907   0.759   1.156
 5607SOL    HW217721   4.996   0.623   1.140
 5608SOL     OW17722   3.596   6.519   4.996
 5608SOL    HW117723   3.549   6.440   5.035
 5608SOL    HW217724   3.553   6.543   4.908
 5609SOL     OW17725   1.429   6.326   5.022
 5609SOL    HW117726   1.476   6.315   5.110
 5609SOL    HW217727   1.335   6.294   5.031
 5610SOL     OW17728   4.505   0.216   6.672
 5610SOL    HW117729   4.560   0.300   6.668
 5610SOL    HW217730   4.418   0.236   6.716
 5611SOL     OW17731   1.697   4.180   4.429
 5611SOL    HW117732   1.771   4.222   4.377
 5611SOL    HW217733   1.722   4.176   4.526
 5612SOL     OW17734   3.212   6.256   4.552
 5612SOL    HW117735   3.219   6.160   4.525
 5612SOL    HW217736   3.145   6.302   4.494
 5613SOL     OW17737   2.965   5.096   2.164
 5613SOL    HW117738   2.896   5.044   2.213
 5613SOL    HW217739   2.968   5.066   2.068
 5614SOL     OW17740   5.042   2.138   4.548
 5614SOL    HW117741   5.121   2.112   4.492
 5614SOL    HW217742   5.026   2.068   4.618
 5615SOL     OW17743   0.950   1.706   1.889
 5615SOL    HW117744   1.023   1.745   1.945
 5615SOL    HW217745   0.966   1.729   1.793
 5616SOL     OW17746   2.336   6.732   4.804
 5616SOL    HW117747   2.392   6.653   4.831
 5616SOL    HW217748   2.257   6.701   4.751
 5617SOL     OW17749   0.649   1.249   6.198
 5617SOL    HW117750   0.669   1.183   6.126
 5617SOL    HW217751   0.617   1.334   6.157
 5618SOL     OW17752   6.207   4.886   3.579
 5618SOL    HW117753   6.219   4.946   3.659
 5618SOL    HW217754   6.228   4.937   3.496
 5619SOL     OW17755   2.297   3.598   5.275
 5619SOL    HW117756   2.317   3.649   5.358
 5619SOL    HW217757   2.254   3.658   5.208
 5620SOL     OW17758   5.003   1.727   6.665
 5620SOL    HW117759   5.019   1.674   6.748
 5620SOL    HW217760   5.086   1.775   6.639
 5621SOL     OW17761   2.324   1.641   6.610
 5621SOL    HW117762   2.362   1.620   6.520
 5621SOL    HW217763   2.314   1.740   6.621
 5622SOL     OW17764   5.771   0.304   5.554
 5622SOL    HW117765   5.829   0.310   5.473
 5622SOL    HW217766   5.827   0.319   5.636
 5623SOL     OW17767   6.935   6.019   6.859
 5623SOL    HW117768   6.853   6.074   6.848
 5623SOL    HW217769   6.910   5.923   6.868
 5624SOL     OW17770   1.014   4.497   2.514
 5624SOL    HW117771   1.003   4.445   2.429
 5624SOL    HW217772   0.925   4.535   2.541
 5625SOL     OW17773   6.766   1.752   5.384
 5625SOL    HW117774   6.692   1.691   5.414
 5625SOL    HW217775   6.816   1.709   5.309
 5626SOL     OW17776   5.704   6.955   5.287
 5626SOL    HW117777   5.782   6.925   5.232
 5626SOL    HW217778   5.706   6.910   5.376
 5627SOL     OW17779   1.443   0.474   1.208
 5627SOL    HW117780   1.372   0.542   1.194
 5627SOL    HW217781   1.408   0.400   1.265
 5628SOL     OW17782   1.819   1.762   4.386
 5628SOL    HW117783   1.881   1.782   4.310
 5628SOL    HW217784   1.725   1.777   4.358
 5629SOL     OW17785   3.828   3.189   3.437
 5629SOL    HW117786   3.836   3.096   3.474
 5629SOL    HW217787   3.749   3.194   3.376
 5630SOL     OW17788   6.656   3.803   0.629
 5630SOL    HW117789   6.702   3.890   0.611
 5630SOL    HW217790   6.585   3.817   0.698
 5631SOL     OW17791   5.797   1.176   6.238
 5631SOL    HW117792   5.789   1.203   6.142
 5631SOL    HW217793   5.892   1.154   6.259
 5632SOL     OW17794   3.322   2.285   0.443
 5632SOL    HW117795   3.222   2.286   0.436
 5632SOL    HW217796   3.352   2.367   0.491
 5633SOL     OW17797   6.933   2.661   5.550
 5633SOL    HW117798   6.852   2.626   5.502
 5633SOL    HW217799   6.915   2.661   5.648
 5634SOL     OW17800   4.498   6.396   4.928
 5634SOL    HW117801   4.590   6.430   4.910
 5634SOL    HW217802   4.493   6.298   4.908
 5635SOL     OW17803   3.312   1.588   6.056
 5635SOL    HW117804   3.241   1.528   6.020
 5635SOL    HW217805   3.331   1.661   5.990
 5636SOL     OW17806   4.664   6.928   4.198
 5636SOL    HW117807   4.741   6.983   4.165
 5636SOL    HW217808   4.622   6.880   4.121
 5637SOL     OW17809   5.668   6.684   3.001
 5637SOL    HW117810   5.767   6.673   3.003
 5637SOL    HW217811   5.639   6.710   2.909
 5638SOL     OW17812   0.222   3.580   6.886
 5638SOL    HW117813   0.255   3.657   6.831
 5638SOL    HW217814   0.300   3.527   6.920
 5639SOL     OW17815   4.383   6.625   6.967
 5639SOL    HW117816   4.375   6.722   6.989
 5639SOL    HW217817   4.293   6.583   6.966
 5640SOL     OW17818   1.458   6.935   3.608
 5640SOL    HW117819   1.479   6.971   3.517
 5640SOL    HW217820   1.492   6.999   3.677
 5641SOL     OW17821   6.918   5.219   4.720
 5641SOL    HW117822   6.968   5.294   4.764
 5641SOL    HW217823   6.973   5.136   4.725
 5642SOL     OW17824   1.744   1.152   0.465
 5642SOL    HW117825   1.665   1.123   0.411
 5642SOL    HW217826   1.721   1.233   0.518
 5643SOL     OW17827   5.546   1.972   6.394
 5643SOL    HW117828   5.638   2.004   6.371
 5643SOL    HW217829   5.547   1.872   6.403
 5644SOL     OW17830   2.803   0.435   5.605
 5644SOL    HW117831   2.789   0.347   5.560
 5644SOL    HW217832   2.798   0.424   5.704
 5645SOL     OW17833   5.680   3.719   4.142
 5645SOL    HW117834   5.600   3.774   4.119
 5645SOL    HW217835   5.681   3.702   4.241
 5646SOL     OW17836   0.466   3.975   2.532
 5646SOL    HW117837   0.477   4.075   2.529
 5646SOL    HW217838   0.529   3.933   2.467
 5647SOL     OW17839   4.834   6.008   2.804
 5647SOL    HW117840   4.835   5.995   2.705
 5647SOL    HW217841   4.879   6.095   2.827
 5648SOL     OW17842   5.638   6.560   3.520
 5648SOL    HW117843   5.695   6.510   3.456
 5648SOL    HW217844   5.555   6.591   3.474
 5649SOL     OW17845   0.200   0.230   4.933
 5649SOL    HW117846   0.206   0.320   4.975
 5649SOL    HW217847   0.110   0.191   4.950
 5650SOL     OW17848   0.143   3.381   6.268
 5650SOL    HW117849   0.237   3.348   6.256
 5650SOL    HW217850   0.142   3.454   6.336
 5651SOL     OW17851   2.660   1.344   1.016
 5651SOL    HW117852   2.660   1.249   1.048
 5651SOL    HW217853   2.572   1.366   0.975
 5652SOL     OW17854   0.558   6.112   2.859
 5652SOL    HW117855   0.597   6.146   2.944
 5652SOL    HW217856   0.555   6.186   2.791
 5653SOL     OW17857   6.984   0.771   2.809
 5653SOL    HW117858   0.039   0.799   2.757
 5653SOL    HW217859   6.901   0.792   2.757
 5654SOL     OW17860   3.502   6.063   5.661
 5654SOL    HW117861   3.484   6.082   5.757
 5654SOL    HW217862   3.578   6.120   5.629
 5655SOL     OW17863   5.639   3.402   4.417
 5655SOL    HW117864   5.561   3.429   4.474
 5655SOL    HW217865   5.654   3.304   4.425
 5656SOL     OW17866   0.537   4.134   1.168
 5656SOL    HW117867   0.623   4.143   1.218
 5656SOL    HW217868   0.486   4.220   1.174
 5657SOL     OW17869   5.859   6.080   5.023
 5657SOL    HW117870   5.939   6.098   4.965
 5657SOL    HW217871   5.889   6.037   5.108
 5658SOL     OW17872   2.688   2.593   5.902
 5658SOL    HW117873   2.747   2.558   5.975
 5658SOL    HW217874   2.710   2.545   5.816
 5659SOL     OW17875   2.296   4.399   6.371
 5659SOL    HW117876   2.324   4.495   6.369
 5659SOL    HW217877   2.221   4.384   6.307
 5660SOL     OW17878   3.616   0.413   4.225
 5660SOL    HW117879   3.677   0.454   4.292
 5660SOL    HW217880   3.523   0.410   4.262
 5661SOL     OW17881   0.747   5.628   5.900
 5661SOL    HW117882   0.658   5.592   5.929
 5661SOL    HW217883   0.746   5.640   5.800
 5662SOL     OW17884   2.599   6.146   0.963
 5662SOL    HW117885   2.566   6.169   0.872
 5662SOL    HW217886   2.699   6.147   0.964
 5663SOL     OW17887   3.213   2.096   6.550
 5663SOL    HW117888   3.223   2.101   6.649
 5663SOL    HW217889   3.126   2.137   6.523
 5664SOL     OW17890   5.392   5.200   4.933
 5664SOL    HW117891   5.484   5.237   4.943
 5664SOL    HW217892   5.383   5.156   4.843
 5665SOL     OW17893   1.919   0.776   0.843
 5665SOL    HW117894   1.857   0.776   0.763
 5665SOL    HW217895   1.881   0.836   0.913
 5666SOL     OW17896   5.978   3.053   4.602
 5666SOL    HW117897   5.883   3.039   4.628
 5666SOL    HW217898   5.995   3.150   4.588
 5667SOL     OW17899   2.872   4.741   3.995
 5667SOL    HW117900   2.828   4.673   3.936
 5667SOL    HW217901   2.839   4.729   4.089
 5668SOL     OW17902   4.397   4.606   4.033
 5668SOL    HW117903   4.343   4.664   3.973
 5668SOL    HW217904   4.337   4.548   4.088
 5669SOL     OW17905   6.026   3.980   5.622
 5669SOL    HW117906   5.988   3.966   5.714
 5669SOL    HW217907   5.954   3.972   5.554
 5670SOL     OW17908   1.135   2.967   4.204
 5670SOL    HW117909   1.195   2.888   4.191
 5670SOL    HW217910   1.164   3.042   4.145
 5671SOL     OW17911   6.190   5.785   2.602
 5671SOL    HW117912   6.188   5.885   2.607
 5671SOL    HW217913   6.253   5.757   2.529
 5672SOL     OW17914   5.311   3.290   4.716
 5672SOL    HW117915   5.397   3.240   4.706
 5672SOL    HW217916   5.307   3.332   4.806
 5673SOL     OW17917   0.010   1.885   0.233
 5673SOL    HW117918   0.054   1.914   0.149
 5673SOL    HW217919   7.012   1.965   0.289
 5674SOL     OW17920   2.674   5.326   5.506
 5674SOL    HW117921   2.688   5.227   5.511
 5674SOL    HW217922   2.713   5.369   5.587
 5675SOL     OW17923   3.166   2.312   0.983
 5675SOL    HW117924   3.082   2.311   0.930
 5675SOL    HW217925   3.157   2.250   1.061
 5676SOL     OW17926   3.881   1.366   1.632
 5676SOL    HW117927   3.879   1.331   1.538
 5676SOL    HW217928   3.824   1.448   1.638
 5677SOL     OW17929   1.007   1.548   6.278
 5677SOL    HW117930   1.105   1.532   6.263
 5677SOL    HW217931   0.987   1.542   6.376
 5678SOL     OW17932   4.040   1.894   1.873
 5678SOL    HW117933   4.110   1.823   1.858
 5678SOL    HW217934   3.964   1.854   1.924
 5679SOL     OW17935   0.443   3.607   6.097
 5679SOL    HW117936   0.406   3.691   6.137
 5679SOL    HW217937   0.496   3.629   6.015
 5680SOL     OW17938   0.554   5.446   4.939
 5680SOL    HW117939   0.559   5.543   4.961
 5680SOL    HW217940   0.632   5.420   4.883
 5681SOL     OW17941   1.290   3.448   3.146
 5681SOL    HW117942   1.306   3.544   3.124
 5681SOL    HW217943   1.268   3.398   3.062
 5682SOL     OW17944   2.039   4.724   0.723
 5682SOL    HW117945   2.063   4.790   0.651
 5682SOL    HW217946   1.997   4.644   0.681
 5683SOL     OW17947   6.994   0.126   5.757
 5683SOL    HW117948   6.941   0.179   5.691
 5683SOL    HW217949   6.948   0.127   5.846
 5684SOL     OW17950   1.545   3.138   4.907
 5684SOL    HW117951   1.593   3.145   4.994
 5684SOL    HW217952   1.607   3.161   4.832
 5685SOL     OW17953   1.827   1.700   2.029
 5685SOL    HW117954   1.765   1.693   2.107
 5685SOL    HW217955   1.774   1.702   1.944
 5686SOL     OW17956   5.977   5.498   5.451
 5686SOL    HW117957   6.016   5.520   5.540
 5686SOL    HW217958   5.891   5.448   5.463
 5687SOL     OW17959   1.166   6.943   6.663
 5687SOL    HW117960   1.072   6.953   6.630
 5687SOL    HW217961   1.225   6.920   6.586
 5688SOL     OW17962   1.457   2.340   2.961
 5688SOL    HW117963   1.380   2.281   2.983
 5688SOL    HW217964   1.516   2.350   3.041
 5689SOL     OW17965   6.923   2.004   0.980
 5689SOL    HW117966   6.903   2.099   0.960
 5689SOL    HW217967   6.927   1.951   0.895
 5690SOL     OW17968   2.849   5.370   0.205
 5690SOL    HW117969   2.850   5.378   0.105
 5690SOL    HW217970   2.756   5.353   0.236
 5691SOL     OW17971   4.844   3.108   3.661
 5691SOL    HW117972   4.846   3.205   3.683
 5691SOL    HW217973   4.839   3.096   3.562
 5692SOL     OW17974   6.545   5.039   1.508
 5692SOL    HW117975   6.595   4.953   1.519
 5692SOL    HW217976   6.586   5.092   1.434
 5693SOL     OW17977   3.262   1.218   2.696
 5693SOL    HW117978   3.354   1.249   2.676
 5693SOL    HW217979   3.265   1.147   2.767
 5694SOL     OW17980   0.131   0.043   1.003
 5694SOL    HW117981   0.041   0.016   0.968
 5694SOL    HW217982   0.171   6.992   1.054
 5695SOL     OW17983   2.112   1.326   1.960
 5695SOL    HW117984   2.068   1.256   2.016
 5695SOL    HW217985   2.202   1.293   1.930
 5696SOL     OW17986   6.798   0.395   3.555
 5696SOL    HW117987   6.789   0.494   3.564
 5696SOL    HW217988   6.895   0.371   3.551
 5697SOL     OW17989   6.078   1.908   0.744
 5697SOL    HW117990   6.148   1.964   0.701
 5697SOL    HW217991   6.113   1.873   0.832
 5698SOL     OW17992   3.067   2.056   3.330
 5698SOL    HW117993   3.090   1.959   3.321
 5698SOL    HW217994   3.059   2.097   3.240
 5699SOL     OW17995   2.585   2.437   2.533
 5699SOL    HW117996   2.680   2.444   2.502
 5699SOL    HW217997   2.549   2.347   2.510
 5700SOL     OW17998   5.475   6.931   2.171
 5700SOL    HW117999   5.417   6.883   2.105
 5700SOL    HW218000   5.417   6.979   2.237
 5701SOL     OW18001   2.041   0.345   0.723
 5701SOL    HW118002   2.078   0.253   0.705
 5701SOL    HW218003   2.019   0.390   0.636
 5702SOL     OW18004   1.105   6.684   5.121
 5702SOL    HW118005   1.196   6.645   5.131
 5702SOL    HW218006   1.085   6.698   5.024
 5703SOL     OW18007   1.267   2.821   6.533
 5703SOL    HW118008   1.349   2.766   6.550
 5703SOL    HW218009   1.293   2.905   6.486
 5704SOL     OW18010   3.979   5.799   4.512
 5704SOL    HW118011   4.069   5.822   4.475
 5704SOL    HW218012   3.956   5.862   4.586
 5705SOL     OW18013   5.698   1.018   4.936
 5705SOL    HW118014   5.687   0.941   4.873
 5705SOL    HW218015   5.778   1.072   4.909
 5706SOL     OW18016   5.473   1.369   1.177
 5706SOL    HW118017   5.425   1.382   1.264
 5706SOL    HW218018   5.414   1.318   1.114
 5707SOL     OW18019   5.626   5.864   1.343
 5707SOL    HW118020   5.709   5.868   1.399
 5707SOL    HW218021   5.609   5.770   1.315
 5708SOL     OW18022   4.928   6.453   2.341
 5708SOL    HW118023   4.954   6.387   2.412
 5708SOL    HW218024   4.866   6.409   2.276
 5709SOL     OW18025   0.402   2.603   2.047
 5709SOL    HW118026   0.501   2.591   2.037
 5709SOL    HW218027   0.374   2.686   1.999
 5710SOL     OW18028   5.432   1.494   0.876
 5710SOL    HW118029   5.429   1.583   0.831
 5710SOL    HW218030   5.363   1.492   0.949
 5711SOL     OW18031   4.550   1.309   2.131
 5711SOL    HW118032   4.643   1.345   2.117
 5711SOL    HW218033   4.554   1.210   2.144
 5712SOL     OW18034   6.584   6.162   6.546
 5712SOL    HW118035   6.662   6.213   6.583
 5712SOL    HW218036   6.582   6.070   6.585
 5713SOL     OW18037   1.052   1.973   0.429
 5713SOL    HW118038   0.964   2.018   0.417
 5713SOL    HW218039   1.054   1.926   0.517
 5714SOL     OW18040   5.649   0.246   0.920
 5714SOL    HW118041   5.655   0.162   0.974
 5714SOL    HW218042   5.738   0.268   0.881
 5715SOL     OW18043   6.974   6.290   1.288
 5715SOL    HW118044   6.962   6.363   1.355
 5715SOL    HW218045   6.969   6.328   1.196
 5716SOL     OW18046   0.395   5.054   5.488
 5716SOL    HW118047   0.372   4.959   5.511
 5716SOL    HW218048   0.493   5.068   5.497
 5717SOL     OW18049   0.261   5.692   3.194
 5717SOL    HW118050   0.237   5.758   3.123
 5717SOL    HW218051   0.231   5.600   3.166
 5718SOL     OW18052   0.956   4.067   0.491
 5718SOL    HW118053   0.996   4.116   0.569
 5718SOL    HW218054   0.863   4.100   0.475
 5719SOL     OW18055   3.115   3.274   0.724
 5719SOL    HW118056   3.030   3.269   0.777
 5719SOL    HW218057   3.190   3.238   0.779
 5720SOL     OW18058   3.038   4.589   6.495
 5720SOL    HW118059   3.021   4.676   6.540
 5720SOL    HW218060   3.068   4.521   6.562
 5721SOL     OW18061   0.910   3.002   0.461
 5721SOL    HW118062   1.006   2.991   0.485
 5721SOL    HW218063   0.876   3.087   0.501
 5722SOL     OW18064   1.380   0.335   5.925
 5722SOL    HW118065   1.459   0.332   5.985
 5722SOL    HW218066   1.410   0.342   5.830
 5723SOL     OW18067   4.161   3.491   0.282
 5723SOL    HW118068   4.197   3.439   0.360
 5723SOL    HW218069   4.096   3.559   0.315
 5724SOL     OW18070   6.284   1.763   6.137
 5724SOL    HW118071   6.335   1.737   6.219
 5724SOL    HW218072   6.217   1.692   6.115
 5725SOL     OW18073   0.203   4.345   4.512
 5725SOL    HW118074   0.219   4.419   4.447
 5725SOL    HW218075   0.255   4.361   4.596
 5726SOL     OW18076   3.930   4.876   2.070
 5726SOL    HW118077   3.985   4.841   2.146
 5726SOL    HW218078   3.917   4.804   2.003
 5727SOL     OW18079   1.165   3.408   5.623
 5727SOL    HW118080   1.224   3.357   5.560
 5727SOL    HW218081   1.173   3.506   5.602
 5728SOL     OW18082   2.785   6.387   4.529
 5728SOL    HW118083   2.837   6.305   4.507
 5728SOL    HW218084   2.752   6.381   4.623
 5729SOL     OW18085   2.981   1.903   4.942
 5729SOL    HW118086   2.893   1.867   4.972
 5729SOL    HW218087   2.977   2.003   4.942
 5730SOL     OW18088   6.595   4.301   5.129
 5730SOL    HW118089   6.578   4.312   5.031
 5730SOL    HW218090   6.519   4.341   5.181
 5731SOL     OW18091   0.283   6.572   2.761
 5731SOL    HW118092   0.373   6.607   2.787
 5731SOL    HW218093   0.213   6.639   2.784
 5732SOL     OW18094   5.339   0.759   3.215
 5732SOL    HW118095   5.429   0.716   3.212
 5732SOL    HW218096   5.348   0.853   3.249
 5733SOL     OW18097   2.951   1.317   4.908
 5733SOL    HW118098   2.960   1.381   4.984
 5733SOL    HW218099   2.860   1.327   4.867
 5734SOL     OW18100   1.950   6.455   4.128
 5734SOL    HW118101   2.032   6.505   4.157
 5734SOL    HW218102   1.946   6.368   4.178
 5735SOL     OW18103   2.427   1.269   1.303
 5735SOL    HW118104   2.368   1.241   1.227
 5735SOL    HW218105   2.426   1.369   1.309
 5736SOL     OW18106   1.670   4.988   0.945
 5736SOL    HW118107   1.697   5.040   1.026
 5736SOL    HW218108   1.724   4.904   0.939
 5737SOL     OW18109   6.246   3.992   6.932
 5737SOL    HW118110   6.316   4.034   6.874
 5737SOL    HW218111   6.270   4.004   0.003
 5738SOL     OW18112   0.369   5.267   4.292
 5738SOL    HW118113   0.296   5.245   4.357
 5738SOL    HW218114   0.328   5.291   4.204
 5739SOL     OW18115   0.687   2.593   0.827
 5739SOL    HW118116   0.749   2.663   0.864
 5739SOL    HW218117   0.697   2.509   0.879
 5740SOL     OW18118   4.056   5.309   0.363
 5740SOL    HW118119   4.112   5.227   0.378
 5740SOL    HW218120   4.008   5.301   0.275
 5741SOL     OW18121   0.064   2.772   2.259
 5741SOL    HW118122   7.002   2.784   2.305
 5741SOL    HW218123   0.065   2.827   2.175
 5742SOL     OW18124   0.602   5.195   3.110
 5742SOL    HW118125   0.581   5.287   3.142
 5742SOL    HW218126   0.698   5.190   3.083
 5743SOL     OW18127   0.515   6.985   5.344
 5743SOL    HW118128   0.610   7.002   5.371
 5743SOL    HW218129   0.454   7.024   5.413
 5744SOL     OW18130   6.291   0.106   1.754
 5744SOL    HW118131   6.192   0.119   1.757
 5744SOL    HW218132   6.336   0.191   1.780
 5745SOL     OW18133   6.677   3.498   2.489
 5745SOL    HW118134   6.646   3.403   2.485
 5745SOL    HW218135   6.604   3.559   2.458
 5746SOL     OW18136   6.966   3.719   6.307
 5746SOL    HW118137   6.941   3.625   6.286
 5746SOL    HW218138   0.036   3.722   6.337
 5747SOL     OW18139   0.039   6.304   3.769
 5747SOL    HW118140   0.047   6.384   3.710
 5747SOL    HW218141   0.117   6.243   3.753
 5748SOL     OW18142   1.404   0.794   4.606
 5748SOL    HW118143   1.465   0.741   4.666
 5748SOL    HW218144   1.449   0.810   4.518
 5749SOL     OW18145   0.518   0.703   3.204
 5749SOL    HW118146   0.608   0.686   3.166
 5749SOL    HW218147   0.521   0.784   3.262
 5750SOL     OW18148   5.117   6.671   2.469
 5750SOL    HW118149   5.096   6.577   2.441
 5750SOL    HW218150   5.173   6.669   2.552
 5751SOL     OW18151   0.750   2.079   6.970
 5751SOL    HW118152   0.825   2.098   0.007
 5751SOL    HW218153   0.667   2.124   7.002
 5752SOL     OW18154   1.595   0.851   6.500
 5752SOL    HW118155   1.530   0.910   6.453
 5752SOL    HW218156   1.562   0.832   6.593
 5753SOL     OW18157   3.975   1.511   6.926
 5753SOL    HW118158   4.068   1.547   6.934
 5753SOL    HW218159   3.966   1.462   6.839
 5754SOL     OW18160   6.507   5.849   0.561
 5754SOL    HW118161   6.507   5.759   0.517
 5754SOL    HW218162   6.432   5.853   0.627
 5755SOL     OW18163   3.564   3.719   1.764
 5755SOL    HW118164   3.622   3.699   1.843
 5755SOL    HW218165   3.486   3.656   1.763
 5756SOL     OW18166   6.261   0.249   4.154
 5756SOL    HW118167   6.246   0.294   4.242
 5756SOL    HW218168   6.276   0.151   4.170
 5757SOL     OW18169   6.412   6.427   1.617
 5757SOL    HW118170   6.351   6.436   1.538
 5757SOL    HW218171   6.501   6.393   1.587
 5758SOL     OW18172   3.374   0.586   5.180
 5758SOL    HW118173   3.337   0.498   5.151
 5758SOL    HW218174   3.305   0.634   5.235
 5759SOL     OW18175   1.033   1.283   5.934
 5759SOL    HW118176   1.117   1.294   5.881
 5759SOL    HW218177   1.035   1.194   5.981
 5760SOL     OW18178   6.775   6.135   1.678
 5760SOL    HW118179   6.793   6.050   1.628
 5760SOL    HW218180   6.739   6.204   1.616
 5761SOL     OW18181   4.308   0.406   4.344
 5761SOL    HW118182   4.384   0.468   4.363
 5761SOL    HW218183   4.234   0.422   4.409
 5762SOL     OW18184   4.899   6.415   1.140
 5762SOL    HW118185   4.834   6.477   1.184
 5762SOL    HW218186   4.873   6.321   1.160
 5763SOL     OW18187   3.409   0.876   0.363
 5763SOL    HW118188   3.427   0.960   0.414
 5763SOL    HW218189   3.456   0.800   0.407
 5764SOL     OW18190   3.499   2.649   6.799
 5764SOL    HW118191   3.438   2.637   6.877
 5764SOL    HW218192   3.498   2.745   6.771
 5765SOL     OW18193   6.638   5.231   6.421
 5765SOL    HW118194   6.719   5.193   6.375
 5765SOL    HW218195   6.643   5.210   6.519
 5766SOL     OW18196   2.278   1.600   2.901
 5766SOL    HW118197   2.326   1.688   2.897
 5766SOL    HW218198   2.211   1.595   2.827
 5767SOL     OW18199   5.409   6.460   0.390
 5767SOL    HW118200   5.428   6.408   0.307
 5767SOL    HW218201   5.481   6.443   0.458
 5768SOL     OW18202   6.183   6.705   1.572
 5768SOL    HW118203   6.221   6.688   1.662
 5768SOL    HW218204   6.155   6.619   1.530
 5769SOL     OW18205   0.377   4.568   2.867
 5769SOL    HW118206   0.373   4.580   2.967
 5769SOL    HW218207   0.295   4.520   2.836
 5770SOL     OW18208   4.907   2.202   1.489
 5770SOL    HW118209   4.977   2.248   1.436
 5770SOL    HW218210   4.888   2.254   1.573
 5771SOL     OW18211   1.172   0.520   1.607
 5771SOL    HW118212   1.210   0.550   1.695
 5771SOL    HW218213   1.124   0.433   1.619
 5772SOL     OW18214   6.310   5.204   5.488
 5772SOL    HW118215   6.355   5.135   5.431
 5772SOL    HW218216   6.322   5.294   5.447
 5773SOL     OW18217   5.473   6.357   4.739
 5773SOL    HW118218   5.503   6.451   4.720
 5773SOL    HW218219   5.533   6.293   4.691
 5774SOL     OW18220   1.685   4.922   2.282
 5774SOL    HW118221   1.687   4.957   2.376
 5774SOL    HW218222   1.777   4.921   2.245
 5775SOL     OW18223   0.766   0.774   0.885
 5775SOL    HW118224   0.797   0.869   0.890
 5775SOL    HW218225   0.774   0.741   0.791
 5776SOL     OW18226   5.119   0.980   5.640
 5776SOL    HW118227   5.020   0.966   5.636
 5776SOL    HW218228   5.139   1.078   5.651
 5777SOL     OW18229   5.721   6.742   4.419
 5777SOL    HW118230   5.690   6.698   4.503
 5777SOL    HW218231   5.672   6.704   4.341
 5778SOL     OW18232   2.450   6.781   3.947
 5778SOL    HW118233   2.521   6.737   3.893
 5778SOL    HW218234   2.473   6.877   3.963
 5779SOL     OW18235   3.857   6.886   2.129
 5779SOL    HW118236   3.771   6.934   2.148
 5779SOL    HW218237   3.856   6.798   2.176
 5780SOL     OW18238   6.844   4.413   6.896
 5780SOL    HW118239   6.871   4.322   6.927
 5780SOL    HW218240   6.753   4.408   6.855
 5781SOL     OW18241   4.197   4.743   5.841
 5781SOL    HW118242   4.272   4.702   5.789
 5781SOL    HW218243   4.110   4.713   5.803
 5782SOL     OW18244   5.042   1.691   2.826
 5782SOL    HW118245   5.038   1.669   2.728
 5782SOL    HW218246   5.006   1.783   2.841
 5783SOL     OW18247   3.038   6.339   3.112
 5783SOL    HW118248   3.048   6.431   3.074
 5783SOL    HW218249   2.960   6.337   3.174
 5784SOL     OW18250   0.877   6.684   2.274
 5784SOL    HW118251   0.922   6.746   2.209
 5784SOL    HW218252   0.930   6.682   2.359
 5785SOL     OW18253   2.400   1.147   6.381
 5785SOL    HW118254   2.466   1.073   6.367
 5785SOL    HW218255   2.443   1.222   6.432
 5786SOL     OW18256   2.010   1.540   6.693
 5786SOL    HW118257   2.056   1.629   6.684
 5786SOL    HW218258   2.078   1.467   6.697
 5787SOL     OW18259   0.745   1.811   6.080
 5787SOL    HW118260   0.739   1.865   5.996
 5787SOL    HW218261   0.826   1.838   6.132
 5788SOL     OW18262   0.547   2.628   1.634
 5788SOL    HW118263   0.620   2.560   1.620
 5788SOL    HW218264   0.461   2.593   1.597
 5789SOL     OW18265   3.227   0.387   0.750
 5789SOL    HW118266   3.276   0.308   0.714
 5789SOL    HW218267   3.294   0.454   0.784
 5790SOL     OW18268   6.602   5.970   2.354
 5790SOL    HW118269   6.621   5.994   2.449
 5790SOL    HW218270   6.674   6.008   2.296
 5791SOL     OW18271   3.843   0.924   0.961
 5791SOL    HW118272   3.779   1.000   0.956
 5791SOL    HW218273   3.795   0.842   0.990
 5792SOL     OW18274   4.332   1.858   2.767
 5792SOL    HW118275   4.318   1.944   2.718
 5792SOL    HW218276   4.248   1.804   2.764
 5793SOL     OW18277   4.983   2.280   1.048
 5793SOL    HW118278   4.949   2.220   1.120
 5793SOL    HW218279   4.956   2.374   1.067
 5794SOL     OW18280   3.329   6.140   6.762
 5794SOL    HW118281   3.342   6.106   6.855
 5794SOL    HW218282   3.339   6.239   6.760
 5795SOL     OW18283   1.187   0.848   1.748
 5795SOL    HW118284   1.279   0.811   1.733
 5795SOL    HW218285   1.161   0.905   1.671
 5796SOL     OW18286   4.723   0.810   5.908
 5796SOL    HW118287   4.731   0.870   5.987
 5796SOL    HW218288   4.815   0.787   5.874
 5797SOL     OW18289   5.787   1.393   0.358
 5797SOL    HW118290   5.712   1.340   0.319
 5797SOL    HW218291   5.868   1.335   0.368
 5798SOL     OW18292   1.973   2.904   4.706
 5798SOL    HW118293   2.054   2.963   4.694
 5798SOL    HW218294   1.991   2.838   4.778
 5799SOL     OW18295   2.799   0.549   3.772
 5799SOL    HW118296   2.805   0.458   3.734
 5799SOL    HW218297   2.882   0.570   3.824
 5800SOL     OW18298   2.021   6.124   1.693
 5800SOL    HW118299   1.980   6.044   1.647
 5800SOL    HW218300   2.006   6.117   1.791
 5801SOL     OW18301   1.364   2.645   3.245
 5801SOL    HW118302   1.351   2.603   3.155
 5801SOL    HW218303   1.382   2.574   3.312
 5802SOL     OW18304   0.039   0.062   2.835
 5802SOL    HW118305   6.978   0.106   2.812
 5802SOL    HW218306   0.096   0.125   2.888
 5803SOL     OW18307   0.362   6.484   4.361
 5803SOL    HW118308   0.335   6.402   4.310
 5803SOL    HW218309   0.282   6.541   4.378
 5804SOL     OW18310   5.657   2.319   3.102
 5804SOL    HW118311   5.744   2.282   3.070
 5804SOL    HW218312   5.657   2.323   3.202
 5805SOL     OW18313   1.018   2.584   1.426
 5805SOL    HW118314   1.114   2.611   1.418
 5805SOL    HW218315   1.001   2.504   1.369
 5806SOL     OW18316   6.667   4.484   1.302
 5806SOL    HW118317   6.618   4.430   1.371
 5806SOL    HW218318   6.764   4.463   1.308
 5807SOL     OW18319   0.817   0.509   2.896
 5807SOL    HW118320   0.788   0.580   2.960
 5807SOL    HW218321   0.768   0.424   2.916
 5808SOL     OW18322   6.741   5.569   5.521
 5808SOL    HW118323   6.734   5.639   5.592
 5808SOL    HW218324   6.796   5.493   5.555
 5809SOL     OW18325   6.750   3.301   4.511
 5809SOL    HW118326   6.822   3.360   4.550
 5809SOL    HW218327   6.768   3.206   4.537
 5810SOL     OW18328   0.848   6.486   4.918
 5810SOL    HW118329   0.761   6.532   4.938
 5810SOL    HW218330   0.923   6.541   4.955
 5811SOL     OW18331   3.180   4.879   0.574
 5811SOL    HW118332   3.136   4.890   0.664
 5811SOL    HW218333   3.121   4.916   0.503
 5812SOL     OW18334   6.298   2.046   6.075
 5812SOL    HW118335   6.302   1.946   6.082
 5812SOL    HW218336   6.356   2.077   6.000
 5813SOL     OW18337   6.329   5.839   0.778
 5813SOL    HW118338   6.379   5.858   0.863
 5813SOL    HW218339   6.282   5.751   0.787
 5814SOL     OW18340   4.960   1.647   2.571
 5814SOL    HW118341   4.943   1.691   2.483
 5814SOL    HW218342   4.967   1.548   2.558
 5815SOL     OW18343   0.059   4.461   4.928
 5815SOL    HW118344   0.085   4.445   5.023
 5815SOL    HW218345   7.017   4.391   4.900
 5816SOL     OW18346   6.954   4.091   1.208
 5816SOL    HW118347   6.988   4.004   1.246
 5816SOL    HW218348   6.911   4.144   1.281
 5817SOL     OW18349   6.361   2.791   3.716
 5817SOL    HW118350   6.364   2.867   3.652
 5817SOL    HW218351   6.334   2.825   3.806
 5818SOL     OW18352   2.451   0.659   4.274
 5818SOL    HW118353   2.471   0.698   4.185
 5818SOL    HW218354   2.455   0.559   4.269
 5819SOL     OW18355   4.073   4.252   1.491
 5819SOL    HW118356   4.010   4.223   1.419
 5819SOL    HW218357   4.165   4.219   1.469
 5820SOL     OW18358   0.182   6.535   2.360
 5820SOL    HW118359   0.268   6.583   2.373
 5820SOL    HW218360   0.106   6.599   2.375
 5821SOL     OW18361   5.009   6.039   2.008
 5821SOL    HW118362   4.971   6.128   1.985
 5821SOL    HW218363   4.940   5.983   2.052
 5822SOL     OW18364   1.040   3.700   3.843
 5822SOL    HW118365   1.018   3.624   3.783
 5822SOL    HW218366   1.073   3.777   3.788
 5823SOL     OW18367   2.672   6.373   4.805
 5823SOL    HW118368   2.619   6.291   4.827
 5823SOL    HW218369   2.742   6.387   4.875
 5824SOL     OW18370   2.412   5.589   2.395
 5824SOL    HW118371   2.444   5.496   2.378
 5824SOL    HW218372   2.313   5.593   2.377
 5825SOL     OW18373   3.586   1.986   4.586
 5825SOL    HW118374   3.666   2.025   4.632
 5825SOL    HW218375   3.504   2.036   4.615
 5826SOL     OW18376   1.514   6.042   5.442
 5826SOL    HW118377   1.507   5.943   5.437
 5826SOL    HW218378   1.598   6.068   5.489
 5827SOL     OW18379   2.156   4.238   3.926
 5827SOL    HW118380   2.222   4.268   3.858
 5827SOL    HW218381   2.183   4.148   3.962
 5828SOL     OW18382   4.547   0.362   5.274
 5828SOL    HW118383   4.611   0.334   5.346
 5828SOL    HW218384   4.455   0.367   5.312
 5829SOL     OW18385   1.755   1.431   2.771
 5829SOL    HW118386   1.854   1.416   2.778
 5829SOL    HW218387   1.738   1.511   2.714
 5830SOL     OW18388   5.406   4.784   4.686
 5830SOL    HW118389   5.334   4.718   4.666
 5830SOL    HW218390   5.461   4.751   4.763
 5831SOL     OW18391   3.014   1.998   4.242
 5831SOL    HW118392   2.944   1.944   4.289
 5831SOL    HW218393   3.073   1.937   4.190
 5832SOL     OW18394   2.824   4.905   3.398
 5832SOL    HW118395   2.774   4.827   3.436
 5832SOL    HW218396   2.858   4.962   3.472
 5833SOL     OW18397   2.133   4.870   1.614
 5833SOL    HW118398   2.171   4.780   1.633
 5833SOL    HW218399   2.185   4.913   1.539
 5834SOL     OW18400   5.795   2.049   6.318
 5834SOL    HW118401   5.864   2.005   6.375
 5834SOL    HW218402   5.831   2.136   6.284
 5835SOL     OW18403   3.696   0.478   3.629
 5835SOL    HW118404   3.717   0.520   3.541
 5835SOL    HW218405   3.727   0.538   3.703
 5836SOL     OW18406   5.549   4.766   1.117
 5836SOL    HW118407   5.577   4.763   1.212
 5836SOL    HW218408   5.450   4.784   1.111
 5837SOL     OW18409   2.132   3.870   0.181
 5837SOL    HW118410   2.139   3.915   0.270
 5837SOL    HW218411   2.066   3.918   0.123
 5838SOL     OW18412   2.914   3.009   0.786
 5838SOL    HW118413   2.908   3.102   0.822
 5838SOL    HW218414   2.858   3.001   0.704
 5839SOL     OW18415   2.681   1.599   1.169
 5839SOL    HW118416   2.660   1.666   1.098
 5839SOL    HW218417   2.697   1.510   1.127
 5840SOL     OW18418   6.107   4.036   2.428
 5840SOL    HW118419   6.066   4.081   2.349
 5840SOL    HW218420   6.182   3.977   2.398
 5841SOL     OW18421   5.061   1.845   0.913
 5841SOL    HW118422   5.106   1.907   0.977
 5841SOL    HW218423   4.997   1.896   0.856
 5842SOL     OW18424   3.711   2.085   2.301
 5842SOL    HW118425   3.673   1.992   2.295
 5842SOL    HW218426   3.698   2.132   2.214
 5843SOL     OW18427   3.219   2.547   1.314
 5843SOL    HW118428   3.291   2.616   1.328
 5843SOL    HW218429   3.238   2.495   1.230
 5844SOL     OW18430   6.708   5.488   5.254
 5844SOL    HW118431   6.728   5.511   5.349
 5844SOL    HW218432   6.742   5.396   5.233
 5845SOL     OW18433   2.391   5.904   2.905
 5845SOL    HW118434   2.346   5.845   2.838
 5845SOL    HW218435   2.465   5.954   2.861
 5846SOL     OW18436   0.898   4.385   5.362
 5846SOL    HW118437   0.956   4.304   5.355
 5846SOL    HW218438   0.804   4.362   5.336
 5847SOL     OW18439   2.352   3.704   5.516
 5847SOL    HW118440   2.440   3.736   5.550
 5847SOL    HW218441   2.311   3.641   5.582
 5848SOL     OW18442   3.068   6.798   1.469
 5848SOL    HW118443   3.001   6.863   1.434
 5848SOL    HW218444   3.120   6.759   1.393
 5849SOL     OW18445   2.524   5.930   6.487
 5849SOL    HW118446   2.469   5.872   6.426
 5849SOL    HW218447   2.608   5.882   6.512
 5850SOL     OW18448   5.556   2.251   1.191
 5850SOL    HW118449   5.498   2.285   1.265
 5850SOL    HW218450   5.541   2.153   1.180
 5851SOL     OW18451   1.188   2.629   5.748
 5851SOL    HW118452   1.227   2.721   5.747
 5851SOL    HW218453   1.153   2.607   5.657
 5852SOL     OW18454   4.127   5.189   3.389
 5852SOL    HW118455   4.080   5.116   3.440
 5852SOL    HW218456   4.190   5.236   3.450
 5853SOL     OW18457   4.187   4.573   6.709
 5853SOL    HW118458   4.173   4.611   6.801
 5853SOL    HW218459   4.226   4.482   6.717
 5854SOL     OW18460   2.735   4.530   5.330
 5854SOL    HW118461   2.644   4.524   5.288
 5854SOL    HW218462   2.802   4.554   5.260
 5855SOL     OW18463   1.650   2.243   4.540
 5855SOL    HW118464   1.685   2.331   4.509
 5855SOL    HW218465   1.722   2.174   4.532
 5856SOL     OW18466   0.612   0.858   2.044
 5856SOL    HW118467   0.693   0.811   2.008
 5856SOL    HW218468   0.554   0.887   1.968
 5857SOL     OW18469   6.288   5.552   6.580
 5857SOL    HW118470   6.363   5.497   6.544
 5857SOL    HW218471   6.239   5.499   6.649
 5858SOL     OW18472   2.682   1.605   1.810
 5858SOL    HW118473   2.703   1.523   1.758
 5858SOL    HW218474   2.767   1.657   1.825
 5859SOL     OW18475   6.060   5.159   1.482
 5859SOL    HW118476   5.960   5.155   1.474
 5859SOL    HW218477   6.086   5.160   1.578
 5860SOL     OW18478   2.171   2.853   1.901
 5860SOL    HW118479   2.215   2.839   1.812
 5860SOL    HW218480   2.093   2.791   1.909
 5861SOL     OW18481   5.403   0.124   4.632
 5861SOL    HW118482   5.453   0.205   4.661
 5861SOL    HW218483   5.312   0.150   4.599
 5862SOL     OW18484   0.269   5.059   1.224
 5862SOL    HW118485   0.335   5.082   1.152
 5862SOL    HW218486   0.281   5.121   1.301
 5863SOL     OW18487   4.210   6.822   6.126
 5863SOL    HW118488   4.125   6.864   6.158
 5863SOL    HW218489   4.233   6.745   6.186
 5864SOL     OW18490   3.511   3.541   3.234
 5864SOL    HW118491   3.441   3.585   3.177
 5864SOL    HW218492   3.467   3.476   3.296
 5865SOL     OW18493   6.650   6.344   1.524
 5865SOL    HW118494   6.625   6.296   1.440
 5865SOL    HW218495   6.743   6.379   1.517
 5866SOL     OW18496   3.035   3.244   4.556
 5866SOL    HW118497   3.048   3.341   4.534
 5866SOL    HW218498   2.951   3.233   4.611
 5867SOL     OW18499   4.633   0.860   0.893
 5867SOL    HW118500   4.577   0.802   0.952
 5867SOL    HW218501   4.598   0.855   0.799
 5868SOL     OW18502   1.776   1.046   0.826
 5868SOL    HW118503   1.791   1.017   0.920
 5868SOL    HW218504   1.775   1.146   0.822
 5869SOL     OW18505   2.237   4.914   4.072
 5869SOL    HW118506   2.300   4.925   4.149
 5869SOL    HW218507   2.157   4.863   4.102
 5870SOL     OW18508   4.000   6.486   3.569
 5870SOL    HW118509   3.970   6.484   3.664
 5870SOL    HW218510   3.961   6.408   3.520
 5871SOL     OW18511   3.538   2.905   3.330
 5871SOL    HW118512   3.548   3.002   3.354
 5871SOL    HW218513   3.621   2.873   3.286
 5872SOL     OW18514   3.629   5.262   1.465
 5872SOL    HW118515   3.680   5.344   1.490
 5872SOL    HW218516   3.534   5.271   1.495
 5873SOL     OW18517   4.156   6.947   2.619
 5873SOL    HW118518   4.217   6.996   2.556
 5873SOL    HW218519   4.180   6.850   2.618
 5874SOL     OW18520   0.211   3.777   4.510
 5874SOL    HW118521   0.132   3.780   4.571
 5874SOL    HW218522   0.267   3.859   4.522
 5875SOL     OW18523   4.747   2.902   1.369
 5875SOL    HW118524   4.780   2.809   1.387
 5875SOL    HW218525   4.661   2.917   1.418
 5876SOL     OW18526   3.436   3.261   2.732
 5876SOL    HW118527   3.389   3.257   2.820
 5876SOL    HW218528   3.399   3.337   2.678
 5877SOL     OW18529   4.628   4.318   1.461
 5877SOL    HW118530   4.576   4.391   1.505
 5877SOL    HW218531   4.725   4.339   1.466
 5878SOL     OW18532   0.473   3.298   1.397
 5878SOL    HW118533   0.378   3.294   1.366
 5878SOL    HW218534   0.493   3.219   1.455
 5879SOL     OW18535   1.721   4.349   4.998
 5879SOL    HW118536   1.760   4.325   4.910
 5879SOL    HW218537   1.786   4.328   5.071
 5880SOL     OW18538   2.374   4.969   0.328
 5880SOL    HW118539   2.352   4.935   0.237
 5880SOL    HW218540   2.391   5.068   0.324
 5881SOL     OW18541   1.681   6.347   4.378
 5881SOL    HW118542   1.774   6.326   4.347
 5881SOL    HW218543   1.685   6.418   4.449
 5882SOL     OW18544   4.848   0.967   3.325
 5882SOL    HW118545   4.751   0.961   3.303
 5882SOL    HW218546   4.886   0.876   3.339
 5883SOL     OW18547   0.899   3.195   5.617
 5883SOL    HW118548   0.962   3.127   5.579
 5883SOL    HW218549   0.898   3.275   5.557
 5884SOL     OW18550   6.937   1.277   3.705
 5884SOL    HW118551   6.878   1.196   3.714
 5884SOL    HW218552   7.004   1.261   3.632
 5885SOL     OW18553   6.032   6.308   0.438
 5885SOL    HW118554   5.986   6.342   0.355
 5885SOL    HW218555   6.075   6.220   0.419
 5886SOL     OW18556   5.787   1.866   5.489
 5886SOL    HW118557   5.692   1.886   5.512
 5886SOL    HW218558   5.814   1.779   5.532
 5887SOL     OW18559   2.978   0.035   2.575
 5887SOL    HW118560   2.906   0.103   2.586
 5887SOL    HW218561   2.943   6.985   2.519
 5888SOL     OW18562   6.382   6.236   1.807
 5888SOL    HW118563   6.390   6.154   1.750
 5888SOL    HW218564   6.411   6.316   1.754
 5889SOL     OW18565   2.985   6.872   0.562
 5889SOL    HW118566   2.948   6.960   0.591
 5889SOL    HW218567   3.052   6.886   0.489
 5890SOL     OW18568   4.420   5.144   6.004
 5890SOL    HW118569   4.505   5.189   5.977
 5890SOL    HW218570   4.412   5.145   6.104
 5891SOL     OW18571   2.114   3.038   6.624
 5891SOL    HW118572   2.151   3.124   6.658
 5891SOL    HW218573   2.181   2.994   6.564
 5892SOL     OW18574   3.087   5.650   1.666
 5892SOL    HW118575   3.011   5.634   1.603
 5892SOL    HW218576   3.094   5.573   1.730
 5893SOL     OW18577   1.100   2.981   1.993
 5893SOL    HW118578   1.165   2.911   2.021
 5893SOL    HW218579   1.151   3.063   1.963
 5894SOL     OW18580   1.778   3.830   3.650
 5894SOL    HW118581   1.851   3.803   3.712
 5894SOL    HW218582   1.778   3.929   3.638
 5895SOL     OW18583   5.236   5.115   2.710
 5895SOL    HW118584   5.248   5.116   2.809
 5895SOL    HW218585   5.210   5.023   2.680
 5896SOL     OW18586   5.770   1.599   5.557
 5896SOL    HW118587   5.866   1.624   5.544
 5896SOL    HW218588   5.746   1.523   5.497
 5897SOL     OW18589   4.370   4.333   0.842
 5897SOL    HW118590   4.321   4.338   0.929
 5897SOL    HW218591   4.319   4.383   0.772
 5898SOL     OW18592   1.308   5.921   3.045
 5898SOL    HW118593   1.223   5.955   3.087
 5898SOL    HW218594   1.316   5.956   2.952
 5899SOL     OW18595   5.085   0.963   3.588
 5899SOL    HW118596   5.042   0.877   3.560
 5899SOL    HW218597   5.048   0.992   3.677
 5900SOL     OW18598   3.739   5.050   1.950
 5900SOL    HW118599   3.727   5.132   2.007
 5900SOL    HW218600   3.770   4.975   2.008
 5901SOL     OW18601   3.183   6.306   3.474
 5901SOL    HW118602   3.262   6.368   3.470
 5901SOL    HW218603   3.122   6.336   3.547
 5902SOL     OW18604   5.787   2.381   0.195
 5902SOL    HW118605   5.738   2.306   0.150
 5902SOL    HW218606   5.727   2.461   0.201
 5903SOL     OW18607   0.569   1.876   6.431
 5903SOL    HW118608   0.633   1.950   6.451
 5903SOL    HW218609   0.581   1.803   6.498
 5904SOL     OW18610   0.850   2.973   1.683
 5904SOL    HW118611   0.839   2.880   1.719
 5904SOL    HW218612   0.922   2.973   1.613
 5905SOL     OW18613   6.749   3.755   2.185
 5905SOL    HW118614   6.847   3.746   2.166
 5905SOL    HW218615   6.707   3.816   2.118
 5906SOL     OW18616   6.335   1.382   3.220
 5906SOL    HW118617   6.316   1.436   3.301
 5906SOL    HW218618   6.431   1.396   3.193
 5907SOL     OW18619   1.468   1.007   2.790
 5907SOL    HW118620   1.467   1.052   2.700
 5907SOL    HW218621   1.375   1.006   2.828
 5908SOL     OW18622   0.737   2.722   5.391
 5908SOL    HW118623   0.666   2.682   5.450
 5908SOL    HW218624   0.742   2.820   5.407
 5909SOL     OW18625   6.778   4.544   6.371
 5909SOL    HW118626   6.837   4.620   6.345
 5909SOL    HW218627   6.784   4.472   6.302
 5910SOL     OW18628   1.698   1.812   3.533
 5910SOL    HW118629   1.629   1.765   3.588
 5910SOL    HW218630   1.653   1.863   3.460
 5911SOL     OW18631   6.090   5.508   6.358
 5911SOL    HW118632   6.176   5.559   6.359
 5911SOL    HW218633   6.094   5.434   6.425
 5912SOL     OW18634   0.997   1.824   2.253
 5912SOL    HW118635   0.927   1.875   2.302
 5912SOL    HW218636   0.959   1.739   2.218
 5913SOL     OW18637   6.934   3.365   1.171
 5913SOL    HW118638   6.950   3.451   1.220
 5913SOL    HW218639   6.962   3.289   1.229
 5914SOL     OW18640   1.232   6.637   0.786
 5914SOL    HW118641   1.179   6.722   0.787
 5914SOL    HW218642   1.247   6.607   0.880
 5915SOL     OW18643   4.251   0.621   4.956
 5915SOL    HW118644   4.345   0.653   4.964
 5915SOL    HW218645   4.246   0.525   4.985
 5916SOL     OW18646   0.875   0.207   2.725
 5916SOL    HW118647   0.856   0.244   2.634
 5916SOL    HW218648   0.974   0.200   2.738
 5917SOL     OW18649   3.265   3.482   0.448
 5917SOL    HW118650   3.334   3.548   0.478
 5917SOL    HW218651   3.301   3.390   0.459
 5918SOL     OW18652   3.417   6.623   4.750
 5918SOL    HW118653   3.360   6.579   4.680
 5918SOL    HW218654   3.419   6.722   4.733
 5919SOL     OW18655   3.019   3.868   4.811
 5919SOL    HW118656   3.026   3.826   4.721
 5919SOL    HW218657   3.080   3.948   4.816
 5920SOL     OW18658   1.237   0.382   5.453
 5920SOL    HW118659   1.246   0.350   5.359
 5920SOL    HW218660   1.237   0.482   5.454
 5921SOL     OW18661   2.495   4.703   1.065
 5921SOL    HW118662   2.408   4.745   1.041
 5921SOL    HW218663   2.481   4.637   1.139
 5922SOL     OW18664   4.704   2.784   2.385
 5922SOL    HW118665   4.728   2.801   2.289
 5922SOL    HW218666   4.774   2.727   2.428
 5923SOL     OW18667   5.998   0.930   2.569
 5923SOL    HW118668   5.937   0.865   2.613
 5923SOL    HW218669   5.993   1.019   2.616
 5924SOL     OW18670   0.325   6.319   3.361
 5924SOL    HW118671   0.283   6.230   3.377
 5924SOL    HW218672   0.391   6.312   3.287
 5925SOL     OW18673   4.497   0.703   1.072
 5925SOL    HW118674   4.498   0.606   1.099
 5925SOL    HW218675   4.439   0.754   1.135
 5926SOL     OW18676   4.929   3.381   3.399
 5926SOL    HW118677   4.858   3.435   3.444
 5926SOL    HW218678   4.912   3.284   3.415
 5927SOL     OW18679   1.362   0.077   1.635
 5927SOL    HW118680   1.408   7.013   1.636
 5927SOL    HW218681   1.424   0.147   1.671
 5928SOL     OW18682   2.770   6.994   0.219
 5928SOL    HW118683   2.710   6.914   0.225
 5928SOL    HW218684   2.798   7.007   0.124
 5929SOL     OW18685   0.840   1.410   1.186
 5929SOL    HW118686   0.750   1.425   1.227
 5929SOL    HW218687   0.838   1.325   1.133
 5930SOL     OW18688   0.662   4.902   1.885
 5930SOL    HW118689   0.688   4.813   1.849
 5930SOL    HW218690   0.612   4.891   1.971
 5931SOL     OW18691   5.143   0.168   4.571
 5931SOL    HW118692   5.132   0.248   4.512
 5931SOL    HW218693   5.093   0.091   4.532
 5932SOL     OW18694   3.328   5.682   0.556
 5932SOL    HW118695   3.236   5.717   0.572
 5932SOL    HW218696   3.330   5.631   0.470
 5933SOL     OW18697   6.690   5.782   4.248
 5933SOL    HW118698   6.693   5.759   4.345
 5933SOL    HW218699   6.624   5.723   4.202
 5934SOL     OW18700   3.225   4.500   0.057
 5934SOL    HW118701   3.128   4.493   0.078
 5934SOL    HW218702   3.267   4.409   0.059
 5935SOL     OW18703   1.714   0.903   5.417
 5935SOL    HW118704   1.639   0.948   5.369
 5935SOL    HW218705   1.678   0.827   5.472
 5936SOL     OW18706   4.002   3.075   2.017
 5936SOL    HW118707   3.906   3.097   2.029
 5936SOL    HW218708   4.012   3.007   1.945
 5937SOL     OW18709   1.282   2.752   0.435
 5937SOL    HW118710   1.226   2.691   0.379
 5937SOL    HW218711   1.378   2.744   0.407
 5938SOL     OW18712   0.341   3.567   4.225
 5938SOL    HW118713   0.381   3.650   4.265
 5938SOL    HW218714   0.249   3.553   4.262
 5939SOL     OW18715   4.769   1.438   6.194
 5939SOL    HW118716   4.786   1.372   6.267
 5939SOL    HW218717   4.843   1.433   6.127
 5940SOL     OW18718   5.069   4.970   1.006
 5940SOL    HW118719   4.977   4.965   0.967
 5940SOL    HW218720   5.097   5.066   1.012
 5941SOL     OW18721   1.243   1.608   3.337
 5941SOL    HW118722   1.342   1.619   3.335
 5941SOL    HW218723   1.220   1.520   3.378
 5942SOL     OW18724   4.939   2.173   6.130
 5942SOL    HW118725   4.952   2.075   6.147
 5942SOL    HW218726   4.841   2.194   6.135
 5943SOL     OW18727   2.098   4.218   2.379
 5943SOL    HW118728   2.078   4.121   2.366
 5943SOL    HW218729   2.174   4.244   2.320
 5944SOL     OW18730   6.823   3.559   5.974
 5944SOL    HW118731   6.895   3.611   5.928
 5944SOL    HW218732   6.863   3.501   6.045
 5945SOL     OW18733   0.109   6.823   4.086
 5945SOL    HW118734   0.082   6.727   4.100
 5945SOL    HW218735   0.208   6.829   4.075
 5946SOL     OW18736   3.016   2.969   6.417
 5946SOL    HW118737   2.992   2.944   6.511
 5946SOL    HW218738   3.014   3.069   6.408
 5947SOL     OW18739   3.560   3.735   5.300
 5947SOL    HW118740   3.470   3.780   5.298
 5947SOL    HW218741   3.608   3.761   5.384
 5948SOL     OW18742   4.763   3.990   1.900
 5948SOL    HW118743   4.841   3.950   1.853
 5948SOL    HW218744   4.693   4.016   1.833
 5949SOL     OW18745   1.663   4.516   4.200
 5949SOL    HW118746   1.736   4.506   4.267
 5949SOL    HW218747   1.702   4.539   4.111
 5950SOL     OW18748   1.918   6.775   5.018
 5950SOL    HW118749   2.017   6.763   5.013
 5950SOL    HW218750   1.880   6.716   5.089
 5951SOL     OW18751   0.193   2.810   6.648
 5951SOL    HW118752   0.123   2.832   6.715
 5951SOL    HW218753   0.282   2.806   6.693
 5952SOL     OW18754   3.597   4.160   2.065
 5952SOL    HW118755   3.651   4.120   2.138
 5952SOL    HW218756   3.633   4.250   2.040
 5953SOL     OW18757   6.620   2.925   6.942
 5953SOL    HW118758   6.597   2.951   0.011
 5953SOL    HW218759   6.663   2.835   6.942
 5954SOL     OW18760   2.600   4.967   3.677
 5954SOL    HW118761   2.671   4.897   3.681
 5954SOL    HW218762   2.525   4.935   3.618
 5955SOL     OW18763   4.193   2.534   0.557
 5955SOL    HW118764   4.213   2.544   0.654
 5955SOL    HW218765   4.261   2.584   0.503
 5956SOL     OW18766   4.023   2.693   6.869
 5956SOL    HW118767   3.994   2.783   6.904
 5956SOL    HW218768   4.120   2.697   6.844
 5957SOL     OW18769   6.829   2.530   3.644
 5957SOL    HW118770   6.883   2.595   3.590
 5957SOL    HW218771   6.733   2.558   3.643
 5958SOL     OW18772   2.369   6.205   2.498
 5958SOL    HW118773   2.365   6.161   2.408
 5958SOL    HW218774   2.409   6.296   2.487
 5959SOL     OW18775   4.888   4.609   3.163
 5959SOL    HW118776   4.981   4.578   3.184
 5959SOL    HW218777   4.886   4.646   3.070
 5960SOL     OW18778   6.116   7.010   6.745
 5960SOL    HW118779   6.155   0.041   6.672
 5960SOL    HW218780   6.081   6.925   6.707
 5961SOL     OW18781   1.671   1.991   3.324
 5961SOL    HW118782   1.576   2.021   3.338
 5961SOL    HW218783   1.733   2.064   3.349
 5962SOL     OW18784   4.975   5.168   0.354
 5962SOL    HW118785   5.057   5.165   0.297
 5962SOL    HW218786   4.986   5.105   0.431
 5963SOL     OW18787   2.288   4.011   0.980
 5963SOL    HW118788   2.365   4.017   1.043
 5963SOL    HW218789   2.296   3.929   0.923
 5964SOL     OW18790   1.706   6.775   3.779
 5964SOL    HW118791   1.791   6.787   3.727
 5964SOL    HW218792   1.706   6.837   3.857
 5965SOL     OW18793   2.086   0.216   1.408
 5965SOL    HW118794   2.064   0.237   1.312
 5965SOL    HW218795   2.120   0.122   1.414
 5966SOL     OW18796   3.114   2.000   5.741
 5966SOL    HW118797   3.107   1.903   5.766
 5966SOL    HW218798   3.080   2.013   5.648
 5967SOL     OW18799   4.690   2.124   5.532
 5967SOL    HW118800   4.770   2.156   5.482
 5967SOL    HW218801   4.663   2.193   5.600
 5968SOL     OW18802   6.452   2.093   3.193
 5968SOL    HW118803   6.363   2.132   3.169
 5968SOL    HW218804   6.490   2.044   3.114
 5969SOL     OW18805   5.009   6.556   1.673
 5969SOL    HW118806   4.933   6.491   1.659
 5969SOL    HW218807   5.051   6.538   1.762
 5970SOL     OW18808   5.661   1.939   0.468
 5970SOL    HW118809   5.666   2.039   0.465
 5970SOL    HW218810   5.750   1.902   0.496
 5971SOL     OW18811   6.888   5.344   3.739
 5971SOL    HW118812   6.866   5.314   3.646
 5971SOL    HW218813   6.980   5.383   3.741
 5972SOL     OW18814   6.057   5.281   0.372
 5972SOL    HW118815   6.055   5.286   0.272
 5972SOL    HW218816   6.058   5.185   0.400
 5973SOL     OW18817   3.770   1.062   2.216
 5973SOL    HW118818   3.680   1.039   2.179
 5973SOL    HW218819   3.797   0.996   2.285
 5974SOL     OW18820   5.102   1.271   4.511
 5974SOL    HW118821   5.189   1.283   4.463
 5974SOL    HW218822   5.089   1.345   4.577
 5975SOL     OW18823   3.936   4.732   0.550
 5975SOL    HW118824   3.896   4.693   0.633
 5975SOL    HW218825   3.897   4.686   0.470
 5976SOL     OW18826   0.845   1.992   6.499
 5976SOL    HW118827   0.809   2.078   6.461
 5976SOL    HW218828   0.931   2.011   6.548
 5977SOL     OW18829   0.879   5.531   1.722
 5977SOL    HW118830   0.834   5.474   1.791
 5977SOL    HW218831   0.951   5.478   1.677
 5978SOL     OW18832   2.927   3.816   6.151
 5978SOL    HW118833   2.972   3.727   6.145
 5978SOL    HW218834   2.990   3.884   6.189
 5979SOL     OW18835   5.816   0.924   1.385
 5979SOL    HW118836   5.842   0.889   1.475
 5979SOL    HW218837   5.753   0.859   1.341
 5980SOL     OW18838   3.726   2.671   0.790
 5980SOL    HW118839   3.689   2.588   0.747
 5980SOL    HW218840   3.823   2.680   0.766
 5981SOL     OW18841   4.233   2.305   0.914
 5981SOL    HW118842   4.298   2.258   0.854
 5981SOL    HW218843   4.143   2.307   0.871
 5982SOL     OW18844   5.695   2.884   1.233
 5982SOL    HW118845   5.745   2.808   1.192
 5982SOL    HW218846   5.654   2.940   1.161
 5983SOL     OW18847   6.770   1.448   3.607
 5983SOL    HW118848   6.693   1.392   3.577
 5983SOL    HW218849   6.834   1.393   3.660
 5984SOL     OW18850   5.996   6.250   1.605
 5984SOL    HW118851   6.042   6.180   1.659
 5984SOL    HW218852   5.949   6.314   1.667
 5985SOL     OW18853   0.134   4.435   2.802
 5985SOL    HW118854   0.054   4.395   2.846
 5985SOL    HW218855   0.109   4.474   2.714
 5986SOL     OW18856   3.931   3.041   3.089
 5986SOL    HW118857   3.891   3.016   3.001
 5986SOL    HW218858   3.891   2.984   3.161
 5987SOL     OW18859   0.133   6.223   4.439
 5987SOL    HW118860   0.059   6.262   4.383
 5987SOL    HW218861   0.220   6.265   4.413
 5988SOL     OW18862   1.830   2.358   0.605
 5988SOL    HW118863   1.831   2.456   0.625
 5988SOL    HW218864   1.739   2.330   0.575
 5989SOL     OW18865   2.597   6.976   5.922
 5989SOL    HW118866   2.622   7.000   5.828
 5989SOL    HW218867   2.606   6.878   5.935
 5990SOL     OW18868   2.385   3.895   1.785
 5990SOL    HW118869   2.410   3.966   1.851
 5990SOL    HW218870   2.349   3.937   1.702
 5991SOL     OW18871   5.317   1.262   0.575
 5991SOL    HW118872   5.266   1.177   0.591
 5991SOL    HW218873   5.277   1.335   0.631
 5992SOL     OW18874   2.722   4.669   3.119
 5992SOL    HW118875   2.670   4.678   3.034
 5992SOL    HW218876   2.815   4.703   3.105
 5993SOL     OW18877   5.185   1.677   0.261
 5993SOL    HW118878   5.234   1.689   0.175
 5993SOL    HW218879   5.236   1.615   0.320
 5994SOL     OW18880   0.809   4.520   1.034
 5994SOL    HW118881   0.749   4.596   1.006
 5994SOL    HW218882   0.838   4.470   0.953
 5995SOL     OW18883   5.581   4.295   0.829
 5995SOL    HW118884   5.576   4.322   0.925
 5995SOL    HW218885   5.489   4.274   0.796
 5996SOL     OW18886   2.144   0.622   1.792
 5996SOL    HW118887   2.148   0.522   1.785
 5996SOL    HW218888   2.066   0.656   1.739
 5997SOL     OW18889   6.268   0.349   4.660
 5997SOL    HW118890   6.348   0.296   4.689
 5997SOL    HW218891   6.188   0.289   4.655
 5998SOL     OW18892   6.071   6.574   6.975
 5998SOL    HW118893   5.988   6.600   6.925
 5998SOL    HW218894   6.062   6.603   0.046
 5999SOL     OW18895   5.582   3.933   0.811
 5999SOL    HW118896   5.527   3.981   0.742
 5999SOL    HW218897   5.588   3.989   0.893
 6000SOL     OW18898   0.897   5.023   1.881
 6000SOL    HW118899   0.972   4.986   1.936
 6000SOL    HW218900   0.815   4.968   1.896
 6001SOL     OW18901   0.084   6.168   5.787
 6001SOL    HW118902   0.020   6.208   5.721
 6001SOL    HW218903   0.147   6.238   5.820
 6002SOL     OW18904   6.008   4.860   5.107
 6002SOL    HW118905   5.933   4.909   5.150
 6002SOL    HW218906   5.972   4.785   5.051
 6003SOL     OW18907   2.569   1.323   5.243
 6003SOL    HW118908   2.530   1.238   5.280
 6003SOL    HW218909   2.496   1.376   5.199
 6004SOL     OW18910   5.491   3.128   5.222
 6004SOL    HW118911   5.435   3.060   5.270
 6004SOL    HW218912   5.493   3.106   5.124
 6005SOL     OW18913   4.027   4.098   0.114
 6005SOL    HW118914   4.064   4.150   0.037
 6005SOL    HW218915   4.101   4.051   0.161
 6006SOL     OW18916   2.766   6.042   6.025
 6006SOL    HW118917   2.803   6.133   6.045
 6006SOL    HW218918   2.841   5.977   6.014
 6007SOL     OW18919   3.258   6.629   4.529
 6007SOL    HW118920   3.194   6.695   4.568
 6007SOL    HW218921   3.248   6.627   4.429
 6008SOL     OW18922   2.301   4.065   6.760
 6008SOL    HW118923   2.224   4.038   6.817
 6008SOL    HW218924   2.329   3.988   6.702
 6009SOL     OW18925   2.456   5.344   2.549
 6009SOL    HW118926   2.517   5.402   2.494
 6009SOL    HW218927   2.413   5.400   2.620
 6010SOL     OW18928   0.191   5.266   6.112
 6010SOL    HW118929   0.240   5.310   6.187
 6010SOL    HW218930   0.116   5.325   6.082
 6011SOL     OW18931   5.751   1.958   3.210
 6011SOL    HW118932   5.844   1.973   3.173
 6011SOL    HW218933   5.757   1.942   3.308
 6012SOL     OW18934   6.516   0.874   5.639
 6012SOL    HW118935   6.471   0.886   5.551
 6012SOL    HW218936   6.478   0.939   5.705
 6013SOL     OW18937   5.965   1.391   2.491
 6013SOL    HW118938   5.994   1.447   2.413
 6013SOL    HW218939   5.875   1.350   2.471
 6014SOL     OW18940   4.056   3.529   4.100
 6014SOL    HW118941   4.096   3.475   4.175
 6014SOL    HW218942   4.063   3.477   4.015
 6015SOL     OW18943   6.730   0.047   3.332
 6015SOL    HW118944   6.670   7.020   3.393
 6015SOL    HW218945   6.792   0.104   3.385
 6016SOL     OW18946   4.143   1.913   4.400
 6016SOL    HW118947   4.105   1.981   4.463
 6016SOL    HW218948   4.215   1.956   4.345
 6017SOL     OW18949   1.318   2.345   5.094
 6017SOL    HW118950   1.348   2.264   5.143
 6017SOL    HW218951   1.390   2.415   5.095
 6018SOL     OW18952   2.349   0.603   3.756
 6018SOL    HW118953   2.431   0.657   3.738
 6018SOL    HW218954   2.341   0.530   3.688
 6019SOL     OW18955   6.715   3.319   6.363
 6019SOL    HW118956   6.752   3.226   6.366
 6019SOL    HW218957   6.616   3.316   6.376
 6020SOL     OW18958   0.691   5.710   4.596
 6020SOL    HW118959   0.640   5.690   4.680
 6020SOL    HW218960   0.781   5.668   4.601
 6021SOL     OW18961   4.886   0.468   3.699
 6021SOL    HW118962   4.880   0.372   3.672
 6021SOL    HW218963   4.845   0.479   3.790
 6022SOL     OW18964   6.657   4.099   0.953
 6022SOL    HW118965   6.648   4.182   1.007
 6022SOL    HW218966   6.691   4.122   0.861
 6023SOL     OW18967   4.146   0.115   2.848
 6023SOL    HW118968   4.158   0.040   2.914
 6023SOL    HW218969   4.149   0.079   2.755
 6024SOL     OW18970   0.371   6.593   6.995
 6024SOL    HW118971   0.384   6.543   6.909
 6024SOL    HW218972   0.273   6.598   7.016
 6025SOL     OW18973   3.638   0.419   5.939
 6025SOL    HW118974   3.624   0.493   6.005
 6025SOL    HW218975   3.720   0.367   5.963
 6026SOL     OW18976   5.342   6.106   3.538
 6026SOL    HW118977   5.332   6.034   3.608
 6026SOL    HW218978   5.413   6.171   3.567
 6027SOL     OW18979   6.684   4.025   5.376
 6027SOL    HW118980   6.602   4.051   5.325
 6027SOL    HW218981   6.676   4.057   5.470
 6028SOL     OW18982   5.812   5.638   6.568
 6028SOL    HW118983   5.852   5.568   6.627
 6028SOL    HW218984   5.727   5.604   6.528
 6029SOL     OW18985   2.237   1.525   2.641
 6029SOL    HW118986   2.209   1.562   2.553
 6029SOL    HW218987   2.336   1.531   2.650
 6030SOL     OW18988   6.297   3.113   4.894
 6030SOL    HW118989   6.211   3.061   4.894
 6030SOL    HW218990   6.302   3.168   4.811
 6031SOL     OW18991   6.797   0.149   3.673
 6031SOL    HW118992   6.868   0.162   3.742
 6031SOL    HW218993   6.789   0.231   3.616
 6032SOL     OW18994   2.879   6.702   2.926
 6032SOL    HW118995   2.907   6.797   2.910
 6032SOL    HW218996   2.959   6.643   2.928
 6033SOL     OW18997   0.888   1.460   2.706
 6033SOL    HW118998   0.931   1.546   2.677
 6033SOL    HW218999   0.814   1.437   2.642
 6034SOL     OW19000   0.511   0.764   1.004
 6034SOL    HW119001   0.605   0.742   0.979
 6034SOL    HW219002   0.495   0.862   0.991
 6035SOL     OW19003   1.544   1.432   2.518
 6035SOL    HW119004   1.545   1.395   2.611
 6035SOL    HW219005   1.637   1.451   2.489
 6036SOL     OW19006   0.062   3.845   0.448
 6036SOL    HW119007   0.104   3.763   0.408
 6036SOL    HW219008   0.030   3.824   0.540
 6037SOL     OW19009   4.542   0.720   6.508
 6037SOL    HW119010   4.461   0.703   6.563
 6037SOL    HW219011   4.520   0.785   6.436
 6038SOL     OW19012   2.112   1.256   6.967
 6038SOL    HW119013   2.169   1.216   0.013
 6038SOL    HW219014   2.026   1.288   7.006
 6039SOL     OW19015   3.748   2.901   4.536
 6039SOL    HW119016   3.740   2.876   4.440
 6039SOL    HW219017   3.657   2.905   4.577
 6040SOL     OW19018   6.796   1.175   0.654
 6040SOL    HW119019   6.877   1.135   0.612
 6040SOL    HW219020   6.781   1.267   0.619
 6041SOL     OW19021   0.284   3.061   4.672
 6041SOL    HW119022   0.352   3.047   4.600
 6041SOL    HW219023   0.325   3.039   4.761
 6042SOL     OW19024   2.750   5.965   3.467
 6042SOL    HW119025   2.738   5.977   3.368
 6042SOL    HW219026   2.700   5.884   3.496
 6043SOL     OW19027   2.022   5.428   1.568
 6043SOL    HW119028   1.993   5.401   1.660
 6043SOL    HW219029   2.051   5.346   1.518
 6044SOL     OW19030   6.776   3.765   0.361
 6044SOL    HW119031   6.773   3.742   0.458
 6044SOL    HW219032   6.851   3.829   0.344
 6045SOL     OW19033   4.999   1.482   4.128
 6045SOL    HW119034   4.956   1.561   4.173
 6045SOL    HW219035   5.001   1.405   4.192
 6046SOL     OW19036   3.461   3.916   2.248
 6046SOL    HW119037   3.536   3.880   2.303
 6046SOL    HW219038   3.471   4.015   2.237
 6047SOL     OW19039   6.901   1.278   6.879
 6047SOL    HW119040   6.827   1.342   6.860
 6047SOL    HW219041   6.867   1.203   6.934
 6048SOL     OW19042   6.419   5.754   3.674
 6048SOL    HW119043   6.341   5.814   3.690
 6048SOL    HW219044   6.504   5.806   3.683
 6049SOL     OW19045   5.170   4.612   6.777
 6049SOL    HW119046   5.228   4.547   6.728
 6049SOL    HW219047   5.190   4.705   6.745
 6050SOL     OW19048   2.094   5.224   3.070
 6050SOL    HW119049   2.021   5.292   3.061
 6050SOL    HW219050   2.054   5.132   3.068
 6051SOL     OW19051   0.711   1.517   2.369
 6051SOL    HW119052   0.669   1.457   2.437
 6051SOL    HW219053   0.789   1.471   2.327
 6052SOL     OW19054   5.521   5.931   6.747
 6052SOL    HW119055   5.586   5.895   6.813
 6052SOL    HW219056   5.429   5.933   6.787
 6053SOL     OW19057   3.940   2.020   5.718
 6053SOL    HW119058   3.857   1.994   5.669
 6053SOL    HW219059   3.936   1.986   5.812
 6054SOL     OW19060   4.239   3.920   6.782
 6054SOL    HW119061   4.301   3.904   6.705
 6054SOL    HW219062   4.187   3.837   6.801
 6055SOL     OW19063   2.626   4.499   1.378
 6055SOL    HW119064   2.685   4.462   1.306
 6055SOL    HW219065   2.668   4.484   1.467
 6056SOL     OW19066   5.183   6.741   2.950
 6056SOL    HW119067   5.222   6.688   2.874
 6056SOL    HW219068   5.090   6.770   2.925
 6057SOL     OW19069   6.018   1.277   3.879
 6057SOL    HW119070   5.933   1.224   3.878
 6057SOL    HW219071   6.095   1.217   3.859
 6058SOL     OW19072   6.946   3.012   6.128
 6058SOL    HW119073   6.863   3.019   6.074
 6058SOL    HW219074   7.018   3.069   6.087
 6059SOL     OW19075   4.409   2.395   6.362
 6059SOL    HW119076   4.469   2.471   6.390
 6059SOL    HW219077   4.343   2.429   6.295
 6060SOL     OW19078   2.083   1.845   1.189
 6060SOL    HW119079   2.098   1.866   1.093
 6060SOL    HW219080   2.169   1.852   1.239
 6061SOL     OW19081   2.523   4.800   6.875
 6061SOL    HW119082   2.508   4.875   6.810
 6061SOL    HW219083   2.498   4.713   6.832
 6062SOL     OW19084   2.090   2.573   5.653
 6062SOL    HW119085   2.160   2.563   5.582
 6062SOL    HW219086   2.087   2.490   5.708
 6063SOL     OW19087   4.572   3.845   6.349
 6063SOL    HW119088   4.559   3.945   6.347
 6063SOL    HW219089   4.663   3.822   6.315
 6064SOL     OW19090   5.858   5.876   0.377
 6064SOL    HW119091   5.874   5.958   0.323
 6064SOL    HW219092   5.926   5.870   0.450
 6065SOL     OW19093   1.843   6.032   1.445
 6065SOL    HW119094   1.811   5.949   1.399
 6065SOL    HW219095   1.770   6.101   1.446
 6066SOL     OW19096   5.870   5.736   2.108
 6066SOL    HW119097   5.812   5.760   2.186
 6066SOL    HW219098   5.821   5.672   2.049
 6067SOL     OW19099   6.756   4.822   5.542
 6067SOL    HW119100   6.658   4.821   5.523
 6067SOL    HW219101   6.772   4.856   5.635
 6068SOL     OW19102   4.037   2.262   3.778
 6068SOL    HW119103   4.047   2.283   3.875
 6068SOL    HW219104   4.104   2.314   3.725
 6069SOL     OW19105   0.667   5.248   5.413
 6069SOL    HW119106   0.640   5.243   5.317
 6069SOL    HW219107   0.674   5.156   5.451
 6070SOL     OW19108   2.514   1.221   0.755
 6070SOL    HW119109   2.441   1.167   0.715
 6070SOL    HW219110   2.600   1.203   0.707
 6071SOL     OW19111   6.100   0.409   6.246
 6071SOL    HW119112   6.159   0.331   6.225
 6071SOL    HW219113   6.157   0.488   6.272
 6072SOL     OW19114   6.514   2.985   0.157
 6072SOL    HW119115   6.479   2.929   0.232
 6072SOL    HW219116   6.521   3.080   0.188
 6073SOL     OW19117   4.528   4.121   0.230
 6073SOL    HW119118   4.487   4.108   0.320
 6073SOL    HW219119   4.462   4.097   0.159
 6074SOL     OW19120   1.119   6.138   2.876
 6074SOL    HW119121   1.066   6.220   2.852
 6074SOL    HW219122   1.212   6.163   2.900
 6075SOL     OW19123   6.118   0.422   6.788
 6075SOL    HW119124   6.175   0.401   6.708
 6075SOL    HW219125   6.176   0.433   6.868
 6076SOL     OW19126   0.170   6.598   3.323
 6076SOL    HW119127   0.211   6.515   3.362
 6076SOL    HW219128   0.089   6.573   3.270
 6077SOL     OW19129   5.218   6.358   2.665
 6077SOL    HW119130   5.211   6.273   2.717
 6077SOL    HW219131   5.266   6.340   2.579
 6078SOL     OW19132   5.772   4.581   0.147
 6078SOL    HW119133   5.755   4.538   0.058
 6078SOL    HW219134   5.691   4.633   0.175
 6079SOL     OW19135   3.616   1.820   0.142
 6079SOL    HW119136   3.703   1.776   0.119
 6079SOL    HW219137   3.550   1.803   0.069
 6080SOL     OW19138   6.560   3.647   5.461
 6080SOL    HW119139   6.590   3.656   5.366
 6080SOL    HW219140   6.638   3.621   5.519
 6081SOL     OW19141   2.168   3.803   4.558
 6081SOL    HW119142   2.176   3.758   4.468
 6081SOL    HW219143   2.130   3.738   4.624
 6082SOL     OW19144   4.080   0.839   0.825
 6082SOL    HW119145   3.993   0.839   0.874
 6082SOL    HW219146   4.148   0.789   0.879
 6083SOL     OW19147   4.977   0.724   5.793
 6083SOL    HW119148   5.072   0.739   5.820
 6083SOL    HW219149   4.957   0.626   5.793
 6084SOL     OW19150   6.546   4.930   3.404
 6084SOL    HW119151   6.466   4.891   3.360
 6084SOL    HW219152   6.593   4.992   3.341
 6085SOL     OW19153   0.676   6.296   0.949
 6085SOL    HW119154   0.610   6.343   0.890
 6085SOL    HW219155   0.628   6.258   1.028
 6086SOL     OW19156   4.419   3.672   0.866
 6086SOL    HW119157   4.424   3.610   0.945
 6086SOL    HW219158   4.333   3.723   0.869
 6087SOL     OW19159   4.096   0.426   0.733
 6087SOL    HW119160   4.094   0.328   0.754
 6087SOL    HW219161   4.043   0.442   0.650
 6088SOL     OW19162   3.784   5.945   2.556
 6088SOL    HW119163   3.814   5.944   2.651
 6088SOL    HW219164   3.844   5.886   2.501
 6089SOL     OW19165   6.227   5.568   3.058
 6089SOL    HW119166   6.147   5.519   3.095
 6089SOL    HW219167   6.262   5.631   3.127
 6090SOL     OW19168   3.643   6.083   4.658
 6090SOL    HW119169   3.657   5.993   4.699
 6090SOL    HW219170   3.562   6.125   4.697
 6091SOL     OW19171   0.595   2.904   2.322
 6091SOL    HW119172   0.648   2.933   2.243
 6091SOL    HW219173   0.639   2.935   2.406
 6092SOL     OW19174   1.934   6.755   0.981
 6092SOL    HW119175   1.947   6.780   0.885
 6092SOL    HW219176   1.837   6.758   1.004
 6093SOL     OW19177   3.314   3.297   2.358
 6093SOL    HW119178   3.324   3.392   2.385
 6093SOL    HW219179   3.238   3.288   2.294
 6094SOL     OW19180   0.843   0.206   5.859
 6094SOL    HW119181   0.895   0.274   5.807
 6094SOL    HW219182   0.868   0.114   5.829
 6095SOL     OW19183   4.750   5.201   2.239
 6095SOL    HW119184   4.827   5.137   2.239
 6095SOL    HW219185   4.694   5.186   2.321
 6096SOL     OW19186   5.238   5.937   2.645
 6096SOL    HW119187   5.205   5.998   2.716
 6096SOL    HW219188   5.224   5.842   2.673
 6097SOL     OW19189   2.351   5.295   1.439
 6097SOL    HW119190   2.347   5.375   1.499
 6097SOL    HW219191   2.445   5.282   1.406
 6098SOL     OW19192   5.807   1.302   5.174
 6098SOL    HW119193   5.772   1.308   5.081
 6098SOL    HW219194   5.892   1.249   5.175
 6099SOL     OW19195   3.522   6.963   5.228
 6099SOL    HW119196   3.426   6.967   5.200
 6099SOL    HW219197   3.574   6.911   5.160
 6100SOL     OW19198   0.321   5.434   5.788
 6100SOL    HW119199   0.258   5.381   5.731
 6100SOL    HW219200   0.374   5.497   5.731
 6101SOL     OW19201   0.759   2.901   0.914
 6101SOL    HW119202   0.728   2.911   1.009
 6101SOL    HW219203   0.680   2.886   0.855
 6102SOL     OW19204   2.944   0.435   3.145
 6102SOL    HW119205   3.003   0.468   3.218
 6102SOL    HW219206   2.864   0.390   3.184
 6103SOL     OW19207   5.790   0.499   2.100
 6103SOL    HW119208   5.799   0.594   2.130
 6103SOL    HW219209   5.694   0.473   2.099
 6104SOL     OW19210   6.297   0.907   5.205
 6104SOL    HW119211   6.279   1.002   5.232
 6104SOL    HW219212   6.268   0.893   5.110
 6105SOL     OW19213   3.722   4.881   6.425
 6105SOL    HW119214   3.686   4.845   6.511
 6105SOL    HW219215   3.819   4.856   6.417
 6106SOL     OW19216   6.577   3.990   5.085
 6106SOL    HW119217   6.495   3.997   5.141
 6106SOL    HW219218   6.614   4.081   5.067
 6107SOL     OW19219   6.036   5.192   5.004
 6107SOL    HW119220   6.014   5.236   5.091
 6107SOL    HW219221   5.952   5.167   4.957
 6108SOL     OW19222   3.473   0.832   6.214
 6108SOL    HW119223   3.379   0.801   6.220
 6108SOL    HW219224   3.508   0.853   6.306
 6109SOL     OW19225   6.846   6.515   4.005
 6109SOL    HW119226   6.867   6.559   3.917
 6109SOL    HW219227   6.752   6.536   4.031
 6110SOL     OW19228   1.243   1.869   3.810
 6110SOL    HW119229   1.234   1.959   3.853
 6110SOL    HW219230   1.153   1.835   3.784
 6111SOL     OW19231   3.141   2.706   0.727
 6111SOL    HW119232   3.104   2.696   0.635
 6111SOL    HW219233   3.070   2.684   0.794
 6112SOL     OW19234   5.073   6.613   3.766
 6112SOL    HW119235   5.044   6.568   3.682
 6112SOL    HW219236   5.156   6.569   3.801
 6113SOL     OW19237   2.968   5.260   1.365
 6113SOL    HW119238   3.036   5.304   1.423
 6113SOL    HW219239   3.004   5.248   1.273
 6114SOL     OW19240   4.952   3.869   1.750
 6114SOL    HW119241   5.002   3.837   1.670
 6114SOL    HW219242   5.004   3.848   1.833
 6115SOL     OW19243   6.225   0.901   4.933
 6115SOL    HW119244   6.238   0.832   4.862
 6115SOL    HW219245   6.280   0.982   4.911
 6116SOL     OW19246   6.183   2.948   0.598
 6116SOL    HW119247   6.180   2.952   0.498
 6116SOL    HW219248   6.256   3.007   0.631
 6117SOL     OW19249   2.050   2.314   0.888
 6117SOL    HW119250   2.121   2.321   0.819
 6117SOL    HW219251   2.041   2.403   0.935
 6118SOL     OW19252   6.007   0.782   1.533
 6118SOL    HW119253   6.014   0.717   1.457
 6118SOL    HW219254   6.063   0.862   1.513
 6119SOL     OW19255   0.313   1.038   6.378
 6119SOL    HW119256   0.268   0.964   6.428
 6119SOL    HW219257   0.411   1.020   6.373
 6120SOL     OW19258   3.153   1.378   3.635
 6120SOL    HW119259   3.053   1.381   3.637
 6120SOL    HW219260   3.183   1.350   3.544
 6121SOL     OW19261   3.247   1.226   5.404
 6121SOL    HW119262   3.263   1.239   5.307
 6121SOL    HW219263   3.325   1.180   5.446
 6122SOL     OW19264   4.701   4.678   5.004
 6122SOL    HW119265   4.737   4.729   5.081
 6122SOL    HW219266   4.768   4.610   4.974
 6123SOL     OW19267   6.225   1.640   5.078
 6123SOL    HW119268   6.179   1.673   5.160
 6123SOL    HW219269   6.238   1.715   5.014
 6124SOL     OW19270   2.279   6.166   4.184
 6124SOL    HW119271   2.185   6.133   4.173
 6124SOL    HW219272   2.297   6.182   4.281
 6125SOL     OW19273   3.556   0.932   5.696
 6125SOL    HW119274   3.515   0.879   5.771
 6125SOL    HW219275   3.600   1.014   5.733
 6126SOL     OW19276   5.930   3.019   6.507
 6126SOL    HW119277   5.926   2.935   6.452
 6126SOL    HW219278   6.024   3.051   6.512
 6127SOL     OW19279   4.722   1.999   2.719
 6127SOL    HW119280   4.644   1.968   2.774
 6127SOL    HW219281   4.721   1.952   2.631
 6128SOL     OW19282   5.792   5.643   4.898
 6128SOL    HW119283   5.789   5.667   4.800
 6128SOL    HW219284   5.888   5.631   4.926
 6129SOL     OW19285   2.090   6.049   2.954
 6129SOL    HW119286   2.068   6.125   3.015
 6129SOL    HW219287   2.189   6.037   2.951
 6130SOL     OW19288   6.101   2.710   6.917
 6130SOL    HW119289   6.014   2.719   6.869
 6130SOL    HW219290   6.086   2.717   7.016
 6131SOL     OW19291   6.072   3.106   2.551
 6131SOL    HW119292   6.134   3.103   2.472
 6131SOL    HW219293   5.982   3.136   2.521
 6132SOL     OW19294   4.420   6.158   6.058
 6132SOL    HW119295   4.445   6.074   6.106
 6132SOL    HW219296   4.330   6.147   6.017
 6133SOL     OW19297   0.568   2.570   3.726
 6133SOL    HW119298   0.631   2.492   3.728
 6133SOL    HW219299   0.599   2.639   3.791
 6134SOL     OW19300   0.127   6.823   5.378
 6134SOL    HW119301   0.127   6.821   5.478
 6134SOL    HW219302   0.212   6.784   5.344
 6135SOL     OW19303   6.149   6.050   0.423
 6135SOL    HW119304   6.142   6.041   0.323
 6135SOL    HW219305   6.244   6.070   0.447
 6136SOL     OW19306   1.073   2.047   3.369
 6136SOL    HW119307   1.107   1.966   3.322
 6136SOL    HW219308   1.019   2.019   3.449
 6137SOL     OW19309   0.169   5.042   0.851
 6137SOL    HW119310   0.082   5.090   0.842
 6137SOL    HW219311   0.206   5.023   0.761
 6138SOL     OW19312   5.615   0.784   2.349
 6138SOL    HW119313   5.653   0.693   2.362
 6138SOL    HW219314   5.515   0.779   2.353
 6139SOL     OW19315   2.035   2.267   5.538
 6139SOL    HW119316   2.041   2.287   5.635
 6139SOL    HW219317   1.940   2.251   5.512
 6140SOL     OW19318   2.307   0.110   3.971
 6140SOL    HW119319   2.344   0.140   4.059
 6140SOL    HW219320   2.232   0.047   3.986
 6141SOL     OW19321   1.094   0.044   0.695
 6141SOL    HW119322   1.067   0.021   0.601
 6141SOL    HW219323   1.118   6.985   0.744
 6142SOL     OW19324   0.343   0.024   1.824
 6142SOL    HW119325   0.421   0.080   1.852
 6142SOL    HW219326   0.372   6.954   1.814
 6143SOL     OW19327   0.731   2.976   5.424
 6143SOL    HW119328   0.808   2.992   5.486
 6143SOL    HW219329   0.744   3.029   5.340
 6144SOL     OW19330   3.481   5.805   2.645
 6144SOL    HW119331   3.487   5.871   2.720
 6144SOL    HW219332   3.566   5.807   2.593
 6145SOL     OW19333   5.492   3.205   4.172
 6145SOL    HW119334   5.485   3.108   4.150
 6145SOL    HW219335   5.488   3.216   4.272
 6146SOL     OW19336   5.732   1.353   5.441
 6146SOL    HW119337   5.671   1.276   5.457
 6146SOL    HW219338   5.766   1.350   5.347
 6147SOL     OW19339   1.520   1.833   5.930
 6147SOL    HW119340   1.591   1.887   5.884
 6147SOL    HW219341   1.457   1.894   5.978
 6148SOL     OW19342   4.004   4.917   6.897
 6148SOL    HW119343   4.050   4.882   6.978
 6148SOL    HW219344   3.928   4.976   6.925
 6149SOL     OW19345   4.127   1.674   1.506
 6149SOL    HW119346   4.127   1.603   1.435
 6149SOL    HW219347   4.079   1.639   1.587
 6150SOL     OW19348   0.860   4.894   4.162
 6150SOL    HW119349   0.938   4.836   4.186
 6150SOL    HW219350   0.838   4.953   4.239
 6151SOL     OW19351   4.177   5.575   2.962
 6151SOL    HW119352   4.259   5.605   2.913
 6151SOL    HW219353   4.164   5.477   2.945
 6152SOL     OW19354   0.611   4.175   2.761
 6152SOL    HW119355   0.565   4.218   2.838
 6152SOL    HW219356   0.604   4.076   2.768
 6153SOL     OW19357   5.743   6.254   0.996
 6153SOL    HW119358   5.736   6.352   1.017
 6153SOL    HW219359   5.737   6.201   1.081
 6154SOL     OW19360   4.098   4.733   2.908
 6154SOL    HW119361   4.003   4.703   2.907
 6154SOL    HW219362   4.101   4.833   2.908
 6155SOL     OW19363   2.055   1.703   3.982
 6155SOL    HW119364   2.012   1.738   3.899
 6155SOL    HW219365   2.013   1.617   4.008
 6156SOL     OW19366   4.574   4.315   2.465
 6156SOL    HW119367   4.639   4.253   2.510
 6156SOL    HW219368   4.595   4.318   2.367
 6157SOL     OW19369   0.530   2.669   1.131
 6157SOL    HW119370   0.465   2.659   1.206
 6157SOL    HW219371   0.555   2.765   1.121
 6158SOL     OW19372   3.328   0.573   5.811
 6158SOL    HW119373   3.295   0.657   5.853
 6158SOL    HW219374   3.377   0.594   5.727
 6159SOL     OW19375   5.892   1.942   1.022
 6159SOL    HW119376   5.933   1.971   0.935
 6159SOL    HW219377   5.941   1.985   1.097
 6160SOL     OW19378   0.945   6.991   1.156
 6160SOL    HW119379   1.022   6.933   1.130
 6160SOL    HW219380   0.928   0.033   1.084
 6161SOL     OW19381   5.595   3.980   0.147
 6161SOL    HW119382   5.632   3.888   0.156
 6161SOL    HW219383   5.628   4.037   0.222
 6162SOL     OW19384   6.105   6.082   1.170
 6162SOL    HW119385   6.043   6.107   1.245
 6162SOL    HW219386   6.067   6.115   1.084
 6163SOL     OW19387   6.041   5.955   2.955
 6163SOL    HW119388   5.993   6.029   2.907
 6163SOL    HW219389   5.987   5.871   2.949
 6164SOL     OW19390   3.230   3.602   4.513
 6164SOL    HW119391   3.130   3.596   4.507
 6164SOL    HW219392   3.271   3.542   4.445
 6165SOL     OW19393   3.164   0.563   0.289
 6165SOL    HW119394   3.225   0.496   0.330
 6165SOL    HW219395   3.216   0.626   0.231
 6166SOL     OW19396   3.559   1.198   5.843
 6166SOL    HW119397   3.507   1.168   5.922
 6166SOL    HW219398   3.657   1.181   5.858
 6167SOL     OW19399   1.176   3.380   2.884
 6167SOL    HW119400   1.207   3.403   2.791
 6167SOL    HW219401   1.095   3.433   2.906
 6168SOL     OW19402   0.749   3.363   4.191
 6168SOL    HW119403   0.767   3.288   4.254
 6168SOL    HW219404   0.821   3.432   4.198
 6169SOL     OW19405   2.532   1.107   0.355
 6169SOL    HW119406   2.465   1.181   0.352
 6169SOL    HW219407   2.612   1.137   0.407
 6170SOL     OW19408   2.804   4.704   1.195
 6170SOL    HW119409   2.783   4.801   1.186
 6170SOL    HW219410   2.729   4.650   1.155
 6171SOL     OW19411   2.210   4.264   1.575
 6171SOL    HW119412   2.118   4.288   1.605
 6171SOL    HW219413   2.252   4.343   1.529
 6172SOL     OW19414   2.686   5.038   1.394
 6172SOL    HW119415   2.786   5.040   1.400
 6172SOL    HW219416   2.649   4.981   1.467
 6173SOL     OW19417   1.329   5.729   2.387
 6173SOL    HW119418   1.299   5.824   2.388
 6173SOL    HW219419   1.424   5.723   2.419
 6174SOL     OW19420   6.006   4.702   1.324
 6174SOL    HW119421   6.090   4.748   1.351
 6174SOL    HW219422   5.945   4.696   1.403
 6175SOL     OW19423   5.412   0.141   3.904
 6175SOL    HW119424   5.336   0.183   3.954
 6175SOL    HW219425   5.432   0.052   3.943
 6176SOL     OW19426   5.940   3.176   0.322
 6176SOL    HW119427   5.901   3.128   0.244
 6176SOL    HW219428   6.039   3.163   0.324
 6177SOL     OW19429   6.157   2.617   2.572
 6177SOL    HW119430   6.242   2.574   2.541
 6177SOL    HW219431   6.109   2.658   2.495
 6178SOL     OW19432   6.580   2.986   1.133
 6178SOL    HW119433   6.535   3.037   1.207
 6178SOL    HW219434   6.552   2.890   1.138
 6179SOL     OW19435   0.841   1.499   5.188
 6179SOL    HW119436   0.794   1.474   5.104
 6179SOL    HW219437   0.933   1.460   5.188
 6180SOL     OW19438   2.921   0.854   6.194
 6180SOL    HW119439   2.832   0.811   6.182
 6180SOL    HW219440   2.916   0.922   6.267
 6181SOL     OW19441   4.221   6.070   6.501
 6181SOL    HW119442   4.145   6.123   6.539
 6181SOL    HW219443   4.187   6.011   6.428
 6182SOL     OW19444   4.882   6.844   5.486
 6182SOL    HW119445   4.807   6.908   5.504
 6182SOL    HW219446   4.927   6.869   5.400
 6183SOL     OW19447   2.954   0.544   2.853
 6183SOL    HW119448   2.937   0.477   2.781
 6183SOL    HW219449   2.962   0.498   2.941
 6184SOL     OW19450   6.688   0.711   5.770
 6184SOL    HW119451   6.618   0.766   5.724
 6184SOL    HW219452   6.753   0.772   5.816
 6185SOL     OW19453   2.393   2.517   7.025
 6185SOL    HW119454   2.327   2.521   0.075
 6185SOL    HW219455   2.392   2.425   6.985
 6186SOL     OW19456   4.429   1.111   4.335
 6186SOL    HW119457   4.334   1.143   4.335
 6186SOL    HW219458   4.433   1.019   4.297
 6187SOL     OW19459   3.135   5.022   4.221
 6187SOL    HW119460   3.052   4.999   4.272
 6187SOL    HW219461   3.131   4.980   4.130
 6188SOL     OW19462   2.847   0.233   2.170
 6188SOL    HW119463   2.779   0.160   2.168
 6188SOL    HW219464   2.938   0.194   2.163
 6189SOL     OW19465   5.081   4.839   3.023
 6189SOL    HW119466   5.179   4.839   3.004
 6189SOL    HW219467   5.066   4.870   3.117
 6190SOL     OW19468   5.293   2.610   6.042
 6190SOL    HW119469   5.310   2.523   5.996
 6190SOL    HW219470   5.271   2.593   6.138
 6191SOL     OW19471   6.777   1.861   6.584
 6191SOL    HW119472   6.703   1.907   6.536
 6191SOL    HW219473   6.830   1.805   6.520
 6192SOL     OW19474   3.597   2.181   0.407
 6192SOL    HW119475   3.531   2.254   0.388
 6192SOL    HW219476   3.582   2.146   0.499
 6193SOL     OW19477   6.959   0.375   1.935
 6193SOL    HW119478   6.976   0.451   1.873
 6193SOL    HW219479   7.015   0.296   1.907
 6194SOL     OW19480   2.661   0.158   0.606
 6194SOL    HW119481   2.738   0.141   0.667
 6194SOL    HW219482   2.694   0.175   0.513
 6195SOL     OW19483   2.491   0.341   5.537
 6195SOL    HW119484   2.558   0.384   5.598
 6195SOL    HW219485   2.540   0.289   5.466
 6196SOL     OW19486   0.981   1.731   5.590
 6196SOL    HW119487   1.029   1.815   5.563
 6196SOL    HW219488   0.890   1.730   5.549
 6197SOL     OW19489   2.734   2.666   1.406
 6197SOL    HW119490   2.739   2.571   1.439
 6197SOL    HW219491   2.686   2.668   1.318
 6198SOL     OW19492   3.672   5.293   2.785
 6198SOL    HW119493   3.607   5.367   2.769
 6198SOL    HW219494   3.765   5.330   2.787
 6199SOL     OW19495   0.486   0.234   6.728
 6199SOL    HW119496   0.479   0.329   6.759
 6199SOL    HW219497   0.403   0.184   6.754
 6200SOL     OW19498   3.883   0.230   5.857
 6200SOL    HW119499   3.810   0.171   5.821
 6200SOL    HW219500   3.907   0.299   5.788
 6201SOL     OW19501   2.242   4.914   4.645
 6201SOL    HW119502   2.274   4.824   4.675
 6201SOL    HW219503   2.216   4.968   4.724
 6202SOL     OW19504   1.849   1.930   1.290
 6202SOL    HW119505   1.872   1.964   1.382
 6202SOL    HW219506   1.932   1.896   1.246
 6203SOL     OW19507   5.909   2.390   3.792
 6203SOL    HW119508   5.870   2.301   3.815
 6203SOL    HW219509   5.976   2.416   3.861
 6204SOL     OW19510   1.229   6.824   5.624
 6204SOL    HW119511   1.279   6.740   5.643
 6204SOL    HW219512   1.243   6.889   5.698
 6205SOL     OW19513   4.828   6.619   0.044
 6205SOL    HW119514   4.789   6.703   0.007
 6205SOL    HW219515   4.870   6.637   0.133
 6206SOL     OW19516   4.897   0.150   3.702
 6206SOL    HW119517   4.991   0.119   3.693
 6206SOL    HW219518   4.856   0.111   3.785
 6207SOL     OW19519   2.002   4.205   4.586
 6207SOL    HW119520   2.088   4.162   4.614
 6207SOL    HW219521   1.950   4.142   4.528
 6208SOL     OW19522   5.470   4.959   5.487
 6208SOL    HW119523   5.439   4.865   5.475
 6208SOL    HW219524   5.559   4.959   5.533
 6209SOL     OW19525   2.020   5.232   1.031
 6209SOL    HW119526   2.119   5.237   1.036
 6209SOL    HW219527   1.981   5.323   1.044
 6210SOL     OW19528   6.951   4.307   2.912
 6210SOL    HW119529   6.944   4.208   2.915
 6210SOL    HW219530   6.864   4.346   2.884
 6211SOL     OW19531   2.778   1.217   5.434
 6211SOL    HW119532   2.721   1.287   5.390
 6211SOL    HW219533   2.721   1.163   5.496
 6212SOL     OW19534   6.473   0.324   3.731
 6212SOL    HW119535   6.556   0.373   3.761
 6212SOL    HW219536   6.398   0.389   3.724
 6213SOL     OW19537   6.777   7.000   6.946
 6213SOL    HW119538   6.807   6.997   0.016
 6213SOL    HW219539   6.678   7.001   6.942
 6214SOL     OW19540   5.152   4.792   1.632
 6214SOL    HW119541   5.092   4.821   1.557
 6214SOL    HW219542   5.130   4.844   1.715
 6215SOL     OW19543   2.831   4.724   1.489
 6215SOL    HW119544   2.805   4.705   1.395
 6215SOL    HW219545   2.824   4.641   1.544
 6216SOL     OW19546   6.765   2.710   2.616
 6216SOL    HW119547   6.830   2.722   2.692
 6216SOL    HW219548   6.672   2.705   2.652
 6217SOL     OW19549   4.428   1.461   1.762
 6217SOL    HW119550   4.382   1.415   1.838
 6217SOL    HW219551   4.427   1.403   1.681
 6218SOL     OW19552   4.823   5.589   4.415
 6218SOL    HW119553   4.887   5.616   4.342
 6218SOL    HW219554   4.732   5.573   4.375
 6219SOL     OW19555   0.027   1.077   4.297
 6219SOL    HW119556   0.111   1.042   4.256
 6219SOL    HW219557   0.051   1.144   4.368
 6220SOL     OW19558   1.284   3.416   5.146
 6220SOL    HW119559   1.259   3.507   5.113
 6220SOL    HW219560   1.361   3.424   5.210
 6221SOL     OW19561   4.256   4.757   4.563
 6221SOL    HW119562   4.257   4.657   4.574
 6221SOL    HW219563   4.330   4.784   4.501
 6222SOL     OW19564   6.624   2.101   1.172
 6222SOL    HW119565   6.607   2.151   1.087
 6222SOL    HW219566   6.703   2.042   1.161
 6223SOL     OW19567   5.311   4.226   4.179
 6223SOL    HW119568   5.372   4.263   4.249
 6223SOL    HW219569   5.365   4.175   4.112
 6224SOL     OW19570   2.700   6.968   4.585
 6224SOL    HW119571   2.720   6.987   4.488
 6224SOL    HW219572   2.772   7.007   4.642
 6225SOL     OW19573   3.745   1.995   6.575
 6225SOL    HW119574   3.792   1.939   6.507
 6225SOL    HW219575   3.758   2.092   6.554
 6226SOL     OW19576   6.928   6.316   4.307
 6226SOL    HW119577   6.846   6.372   4.314
 6226SOL    HW219578   6.941   6.287   4.212
 6227SOL     OW19579   2.468   4.221   6.502
 6227SOL    HW119580   2.495   4.249   6.594
 6227SOL    HW219581   2.428   4.299   6.453
 6228SOL     OW19582   6.813   2.204   2.653
 6228SOL    HW119583   6.797   2.131   2.719
 6228SOL    HW219584   6.781   2.291   2.691
 6229SOL     OW19585   1.313   2.029   1.744
 6229SOL    HW119586   1.354   1.966   1.678
 6229SOL    HW219587   1.381   2.097   1.771
 6230SOL     OW19588   2.155   2.167   3.672
 6230SOL    HW119589   2.172   2.077   3.713
 6230SOL    HW219590   2.073   2.162   3.615
 6231SOL     OW19591   6.450   4.990   1.789
 6231SOL    HW119592   6.536   5.025   1.752
 6231SOL    HW219593   6.422   4.909   1.738
 6232SOL     OW19594   1.171   0.848   0.225
 6232SOL    HW119595   1.093   0.889   0.177
 6232SOL    HW219596   1.255   0.896   0.201
 6233SOL     OW19597   4.002   1.113   6.514
 6233SOL    HW119598   4.060   1.032   6.528
 6233SOL    HW219599   3.912   1.096   6.554
 6234SOL     OW19600   2.672   2.041   4.089
 6234SOL    HW119601   2.679   1.974   4.015
 6234SOL    HW219602   2.576   2.066   4.103
 6235SOL     OW19603   2.251   5.634   2.046
 6235SOL    HW119604   2.221   5.710   1.989
 6235SOL    HW219605   2.204   5.637   2.134
 6236SOL     OW19606   0.133   3.944   7.017
 6236SOL    HW119607   0.191   3.876   0.037
 6236SOL    HW219608   0.131   4.028   0.046
 6237SOL     OW19609   3.696   5.956   6.607
 6237SOL    HW119610   3.692   5.978   6.509
 6237SOL    HW219611   3.690   5.857   6.619
 6238SOL     OW19612   5.252   3.752   0.942
 6238SOL    HW119613   5.224   3.846   0.921
 6238SOL    HW219614   5.322   3.723   0.877
 6239SOL     OW19615   3.499   6.420   3.243
 6239SOL    HW119616   3.588   6.465   3.240
 6239SOL    HW219617   3.469   6.413   3.338
 6240SOL     OW19618   2.806   3.592   0.167
 6240SOL    HW119619   2.807   3.689   0.144
 6240SOL    HW219620   2.855   3.541   0.097
 6241SOL     OW19621   4.790   6.998   2.180
 6241SOL    HW119622   4.844   6.947   2.248
 6241SOL    HW219623   4.826   6.980   2.089
 6242SOL     OW19624   3.627   2.048   2.887
 6242SOL    HW119625   3.645   1.983   2.961
 6242SOL    HW219626   3.710   2.102   2.871
 6243SOL     OW19627   6.359   5.665   3.271
 6243SOL    HW119628   6.333   5.631   3.361
 6243SOL    HW219629   6.364   5.765   3.273
 6244SOL     OW19630   1.375   1.524   1.839
 6244SOL    HW119631   1.365   1.523   1.939
 6244SOL    HW219632   1.354   1.434   1.802
 6245SOL     OW19633   2.399   3.675   0.400
 6245SOL    HW119634   2.309   3.685   0.443
 6245SOL    HW219635   2.469   3.715   0.458
 6246SOL     OW19636   4.312   6.633   0.323
 6246SOL    HW119637   4.289   6.689   0.402
 6246SOL    HW219638   4.401   6.660   0.287
 6247SOL     OW19639   6.734   6.786   2.822
 6247SOL    HW119640   6.734   6.871   2.874
 6247SOL    HW219641   6.673   6.719   2.866
 6248SOL     OW19642   0.827   6.006   0.936
 6248SOL    HW119643   0.831   5.966   0.845
 6248SOL    HW219644   0.795   6.101   0.929
 6249SOL     OW19645   6.369   3.072   5.984
 6249SOL    HW119646   6.385   3.001   6.052
 6249SOL    HW219647   6.289   3.125   6.009
 6250SOL     OW19648   6.945   4.356   5.948
 6250SOL    HW119649   0.008   4.362   5.901
 6250SOL    HW219650   6.884   4.296   5.896
 6251SOL     OW19651   4.426   1.370   0.876
 6251SOL    HW119652   4.334   1.347   0.908
 6251SOL    HW219653   4.487   1.380   0.955
 6252SOL     OW19654   1.788   6.478   4.814
 6252SOL    HW119655   1.818   6.572   4.802
 6252SOL    HW219656   1.848   6.417   4.762
 6253SOL     OW19657   2.700   3.321   1.514
 6253SOL    HW119658   2.642   3.395   1.550
 6253SOL    HW219659   2.695   3.242   1.575
 6254SOL     OW19660   5.027   0.503   0.198
 6254SOL    HW119661   5.014   0.553   0.113
 6254SOL    HW219662   5.068   0.563   0.267
 6255SOL     OW19663   0.236   3.219   3.128
 6255SOL    HW119664   0.296   3.297   3.143
 6255SOL    HW219665   0.274   3.138   3.171
 6256SOL     OW19666   3.691   5.357   4.321
 6256SOL    HW119667   3.634   5.286   4.362
 6256SOL    HW219668   3.786   5.325   4.317
 6257SOL     OW19669   4.235   2.885   6.622
 6257SOL    HW119670   4.139   2.905   6.644
 6257SOL    HW219671   4.239   2.828   6.540
 6258SOL     OW19672   4.692   2.126   3.034
 6258SOL    HW119673   4.595   2.109   3.021
 6258SOL    HW219674   4.744   2.044   3.009
 6259SOL     OW19675   3.427   2.224   1.702
 6259SOL    HW119676   3.349   2.167   1.728
 6259SOL    HW219677   3.476   2.252   1.785
 6260SOL     OW19678   3.308   4.355   1.236
 6260SOL    HW119679   3.230   4.343   1.174
 6260SOL    HW219680   3.306   4.447   1.276
 6261SOL     OW19681   4.834   6.717   6.215
 6261SOL    HW119682   4.900   6.771   6.265
 6261SOL    HW219683   4.781   6.776   6.154
 6262SOL     OW19684   0.253   5.785   5.073
 6262SOL    HW119685   0.268   5.748   5.165
 6262SOL    HW219686   0.155   5.784   5.053
 6263SOL     OW19687   6.487   0.913   1.345
 6263SOL    HW119688   6.581   0.943   1.329
 6263SOL    HW219689   6.450   0.871   1.261
 6264SOL     OW19690   2.606   1.440   0.275
 6264SOL    HW119691   2.701   1.412   0.281
 6264SOL    HW219692   2.579   1.451   0.179
 6265SOL     OW19693   5.965   3.645   0.405
 6265SOL    HW119694   5.905   3.565   0.396
 6265SOL    HW219695   5.986   3.660   0.502
 6266SOL     OW19696   2.466   0.259   2.638
 6266SOL    HW119697   2.530   0.278   2.713
 6266SOL    HW219698   2.514   0.209   2.567
 6267SOL     OW19699   2.924   6.311   0.357
 6267SOL    HW119700   2.997   6.262   0.308
 6267SOL    HW219701   2.965   6.364   0.431
 6268SOL     OW19702   1.916   5.964   2.353
 6268SOL    HW119703   1.931   5.949   2.451
 6268SOL    HW219704   1.969   6.043   2.322
 6269SOL     OW19705   6.521   4.540   6.496
 6269SOL    HW119706   6.518   4.440   6.489
 6269SOL    HW219707   6.614   4.571   6.476
 6270SOL     OW19708   0.136   1.184   3.856
 6270SOL    HW119709   0.068   1.186   3.929
 6270SOL    HW219710   0.161   1.277   3.831
 6271SOL     OW19711   6.044   1.778   1.334
 6271SOL    HW119712   6.002   1.729   1.258
 6271SOL    HW219713   6.136   1.743   1.350
 6272SOL     OW19714   2.596   2.464   3.656
 6272SOL    HW119715   2.551   2.393   3.710
 6272SOL    HW219716   2.561   2.554   3.684
 6273SOL     OW19717   4.014   0.791   2.611
 6273SOL    HW119718   3.933   0.794   2.670
 6273SOL    HW219719   4.062   0.878   2.617
 6274SOL     OW19720   2.679   5.943   6.781
 6274SOL    HW119721   2.727   6.028   6.761
 6274SOL    HW219722   2.695   5.877   6.707
 6275SOL     OW19723   3.542   1.127   4.726
 6275SOL    HW119724   3.541   1.210   4.781
 6275SOL    HW219725   3.529   1.150   4.630
 6276SOL     OW19726   1.416   5.179   3.865
 6276SOL    HW119727   1.371   5.268   3.859
 6276SOL    HW219728   1.352   5.111   3.901
 6277SOL     OW19729   6.216   3.201   4.119
 6277SOL    HW119730   6.120   3.213   4.096
 6277SOL    HW219731   6.273   3.251   4.054
 6278SOL     OW19732   4.544   1.274   3.442
 6278SOL    HW119733   4.522   1.282   3.345
 6278SOL    HW219734   4.628   1.221   3.453
 6279SOL     OW19735   4.321   1.885   6.165
 6279SOL    HW119736   4.277   1.841   6.087
 6279SOL    HW219737   4.279   1.851   6.250
 6280SOL     OW19738   1.221   5.460   5.752
 6280SOL    HW119739   1.182   5.467   5.843
 6280SOL    HW219740   1.285   5.383   5.748
 6281SOL     OW19741   3.055   5.948   4.668
 6281SOL    HW119742   3.108   5.954   4.583
 6281SOL    HW219743   3.118   5.936   4.745
 6282SOL     OW19744   0.683   6.968   4.187
 6282SOL    HW119745   0.736   7.024   4.124
 6282SOL    HW219746   0.720   6.976   4.279
 6283SOL     OW19747   0.851   2.774   4.914
 6283SOL    HW119748   0.834   2.721   4.997
 6283SOL    HW219749   0.949   2.775   4.895
 6284SOL     OW19750   2.348   4.892   0.017
 6284SOL    HW119751   2.266   4.907   6.986
 6284SOL    HW219752   2.417   4.845   6.987
 6285SOL     OW19753   1.823   3.790   2.085
 6285SOL    HW119754   1.751   3.732   2.046
 6285SOL    HW219755   1.810   3.884   2.057
 6286SOL     OW19756   6.508   6.265   4.567
 6286SOL    HW119757   6.454   6.336   4.612
 6286SOL    HW219758   6.495   6.178   4.614
 6287SOL     OW19759   3.616   4.918   2.712
 6287SOL    HW119760   3.556   4.909   2.633
 6287SOL    HW219761   3.561   4.940   2.793
 6288SOL     OW19762   6.008   3.233   0.649
 6288SOL    HW119763   5.986   3.331   0.654
 6288SOL    HW219764   6.075   3.219   0.576
 6289SOL     OW19765   0.647   6.496   2.604
 6289SOL    HW119766   0.602   6.580   2.572
 6289SOL    HW219767   0.743   6.498   2.576
 6290SOL     OW19768   5.943   3.837   3.814
 6290SOL    HW119769   5.947   3.830   3.714
 6290SOL    HW219770   5.947   3.934   3.840
 6291SOL     OW19771   3.557   4.189   3.751
 6291SOL    HW119772   3.552   4.191   3.651
 6291SOL    HW219773   3.465   4.174   3.788
 6292SOL     OW19774   0.202   0.932   1.681
 6292SOL    HW119775   0.111   0.922   1.721
 6292SOL    HW219776   0.200   1.008   1.616
 6293SOL     OW19777   5.947   5.070   5.821
 6293SOL    HW119778   6.003   4.987   5.826
 6293SOL    HW219779   5.991   5.137   5.762
 6294SOL     OW19780   3.459   6.408   1.847
 6294SOL    HW119781   3.387   6.353   1.805
 6294SOL    HW219782   3.523   6.348   1.895
 6295SOL     OW19783   6.963   5.763   6.059
 6295SOL    HW119784   0.005   5.706   6.011
 6295SOL    HW219785   6.960   5.737   6.156
 6296SOL     OW19786   5.969   1.686   3.203
 6296SOL    HW119787   6.061   1.656   3.180
 6296SOL    HW219788   5.953   1.672   3.301
 6297SOL     OW19789   5.796   1.316   5.989
 6297SOL    HW119790   5.788   1.414   6.006
 6297SOL    HW219791   5.836   1.300   5.899
 6298SOL     OW19792   6.435   2.345   4.402
 6298SOL    HW119793   6.408   2.438   4.426
 6298SOL    HW219794   6.369   2.307   4.337
 6299SOL     OW19795   6.895   2.639   0.354
 6299SOL    HW119796   6.865   2.547   0.330
 6299SOL    HW219797   6.984   2.635   0.400
 6300SOL     OW19798   5.277   1.394   3.607
 6300SOL    HW119799   5.318   1.437   3.527
 6300SOL    HW219800   5.249   1.301   3.583
 6301SOL     OW19801   3.497   0.731   1.141
 6301SOL    HW119802   3.495   0.788   1.223
 6301SOL    HW219803   3.409   0.686   1.130
 6302SOL     OW19804   6.374   0.344   2.546
 6302SOL    HW119805   6.358   0.424   2.603
 6302SOL    HW219806   6.467   0.346   2.510
 6303SOL     OW19807   2.538   5.316   4.377
 6303SOL    HW119808   2.608   5.387   4.378
 6303SOL    HW219809   2.577   5.230   4.410
 6304SOL     OW19810   4.327   0.630   4.661
 6304SOL    HW119811   4.306   0.713   4.610
 6304SOL    HW219812   4.295   0.639   4.755
 6305SOL     OW19813   5.511   0.411   2.435
 6305SOL    HW119814   5.547   0.326   2.397
 6305SOL    HW219815   5.411   0.406   2.441
 6306SOL     OW19816   6.197   2.649   4.082
 6306SOL    HW119817   6.286   2.695   4.090
 6306SOL    HW219818   6.125   2.718   4.069
 6307SOL     OW19819   1.859   4.729   0.339
 6307SOL    HW119820   1.786   4.736   0.406
 6307SOL    HW219821   1.891   4.821   0.314
 6308SOL     OW19822   4.169   2.338   6.222
 6308SOL    HW119823   4.165   2.246   6.262
 6308SOL    HW219824   4.081   2.360   6.180
 6309SOL     OW19825   5.875   2.238   5.140
 6309SOL    HW119826   5.850   2.301   5.214
 6309SOL    HW219827   5.877   2.144   5.176
 6310SOL     OW19828   0.105   5.482   4.402
 6310SOL    HW119829   0.095   5.387   4.430
 6310SOL    HW219830   0.039   5.539   4.451
 6311SOL     OW19831   6.167   7.002   4.487
 6311SOL    HW119832   6.096   7.003   4.416
 6311SOL    HW219833   6.177   6.909   4.523
 6312SOL     OW19834   5.887   3.993   5.888
 6312SOL    HW119835   5.817   3.948   5.943
 6312SOL    HW219836   5.972   4.000   5.941
 6313SOL     OW19837   2.285   5.186   4.258
 6313SOL    HW119838   2.262   5.212   4.164
 6313SOL    HW219839   2.369   5.233   4.285
 6314SOL     OW19840   1.379   0.211   3.712
 6314SOL    HW119841   1.474   0.194   3.685
 6314SOL    HW219842   1.365   0.310   3.723
 6315SOL     OW19843   2.166   3.113   0.211
 6315SOL    HW119844   2.192   3.037   0.152
 6315SOL    HW219845   2.153   3.195   0.156
 6316SOL     OW19846   3.985   1.159   4.811
 6316SOL    HW119847   4.002   1.253   4.779
 6316SOL    HW219848   4.036   1.144   4.896
 6317SOL     OW19849   6.662   5.337   4.618
 6317SOL    HW119850   6.759   5.317   4.627
 6317SOL    HW219851   6.614   5.255   4.588
 6318SOL     OW19852   2.095   2.126   4.097
 6318SOL    HW119853   2.045   2.081   4.023
 6318SOL    HW219854   2.036   2.194   4.141
 6319SOL     OW19855   1.200   1.849   3.230
 6319SOL    HW119856   1.294   1.875   3.208
 6319SOL    HW219857   1.199   1.754   3.262
 6320SOL     OW19858   0.542   2.320   2.651
 6320SOL    HW119859   0.472   2.389   2.670
 6320SOL    HW219860   0.556   2.313   2.552
 6321SOL     OW19861   1.892   3.803   5.851
 6321SOL    HW119862   1.891   3.902   5.862
 6321SOL    HW219863   1.801   3.767   5.869
 6322SOL     OW19864   2.594   6.919   6.695
 6322SOL    HW119865   2.657   6.879   6.629
 6322SOL    HW219866   2.549   6.846   6.746
 6323SOL     OW19867   4.712   1.664   2.099
 6323SOL    HW119868   4.614   1.678   2.114
 6323SOL    HW219869   4.726   1.603   2.021
 6324SOL     OW19870   3.204   1.688   0.757
 6324SOL    HW119871   3.187   1.786   0.761
 6324SOL    HW219872   3.193   1.656   0.663
 6325SOL     OW19873   1.770   3.072   3.224
 6325SOL    HW119874   1.837   2.998   3.224
 6325SOL    HW219875   1.693   3.047   3.166
 6326SOL     OW19876   4.256   6.554   1.424
 6326SOL    HW119877   4.340   6.604   1.402
 6326SOL    HW219878   4.179   6.617   1.424
 6327SOL     OW19879   3.908   4.992   5.432
 6327SOL    HW119880   3.918   5.088   5.402
 6327SOL    HW219881   3.957   4.979   5.518
 6328SOL     OW19882   2.585   4.450   6.669
 6328SOL    HW119883   2.504   4.495   6.707
 6328SOL    HW219884   2.596   4.360   6.711
 6329SOL     OW19885   0.676   1.749   3.426
 6329SOL    HW119886   0.761   1.702   3.401
 6329SOL    HW219887   0.623   1.691   3.489
 6330SOL     OW19888   3.422   0.452   6.911
 6330SOL    HW119889   3.359   0.376   6.900
 6330SOL    HW219890   3.380   0.535   6.873
 6331SOL     OW19891   5.125   3.300   1.601
 6331SOL    HW119892   5.029   3.318   1.626
 6331SOL    HW219893   5.182   3.373   1.637
 6332SOL     OW19894   4.730   6.063   2.348
 6332SOL    HW119895   4.765   6.150   2.314
 6332SOL    HW219896   4.660   6.080   2.417
 6333SOL     OW19897   2.586   5.136   2.708
 6333SOL    HW119898   2.643   5.195   2.765
 6333SOL    HW219899   2.518   5.193   2.660
 6334SOL     OW19900   2.318   0.790   2.138
 6334SOL    HW119901   2.323   0.704   2.188
 6334SOL    HW219902   2.329   0.866   2.202
 6335SOL     OW19903   6.667   0.764   0.032
 6335SOL    HW119904   6.682   0.856   7.022
 6335SOL    HW219905   6.725   0.699   7.006
 6336SOL     OW19906   1.366   2.696   5.183
 6336SOL    HW119907   1.266   2.689   5.174
 6336SOL    HW219908   1.389   2.720   5.277
 6337SOL     OW19909   0.698   4.577   4.953
 6337SOL    HW119910   0.749   4.651   4.996
 6337SOL    HW219911   0.610   4.611   4.920
 6338SOL     OW19912   3.360   1.638   4.745
 6338SOL    HW119913   3.335   1.718   4.799
 6338SOL    HW219914   3.419   1.666   4.669
 6339SOL     OW19915   6.799   2.562   4.173
 6339SOL    HW119916   6.719   2.611   4.208
 6339SOL    HW219917   6.826   2.600   4.085
 6340SOL     OW19918   2.845   5.537   3.404
 6340SOL    HW119919   2.942   5.515   3.418
 6340SOL    HW219920   2.817   5.609   3.467
 6341SOL     OW19921   6.017   5.472   2.238
 6341SOL    HW119922   6.075   5.507   2.164
 6341SOL    HW219923   5.975   5.549   2.287
 6342SOL     OW19924   1.048   3.476   0.600
 6342SOL    HW119925   1.036   3.570   0.630
 6342SOL    HW219926   1.079   3.474   0.505
 6343SOL     OW19927   3.938   1.378   0.475
 6343SOL    HW119928   4.021   1.359   0.422
 6343SOL    HW219929   3.944   1.330   0.563
 6344SOL     OW19930   6.217   4.902   4.782
 6344SOL    HW119931   6.144   4.959   4.743
 6344SOL    HW219932   6.238   4.933   4.874
 6345SOL     OW19933   1.677   2.126   1.171
 6345SOL    HW119934   1.708   2.037   1.204
 6345SOL    HW219935   1.739   2.159   1.100
 6346SOL     OW19936   0.790   5.348   4.086
 6346SOL    HW119937   0.781   5.448   4.081
 6346SOL    HW219938   0.731   5.313   4.159
 6347SOL     OW19939   2.800   0.914   0.640
 6347SOL    HW119940   2.800   0.861   0.556
 6347SOL    HW219941   2.760   0.860   0.714
 6348SOL     OW19942   0.237   2.664   4.203
 6348SOL    HW119943   0.185   2.584   4.172
 6348SOL    HW219944   0.319   2.635   4.252
 6349SOL     OW19945   1.074   0.794   0.729
 6349SOL    HW119946   1.042   0.842   0.647
 6349SOL    HW219947   1.107   0.861   0.796
 6350SOL     OW19948   6.932   5.962   3.160
 6350SOL    HW119949   6.895   5.901   3.230
 6350SOL    HW219950   0.003   5.980   3.179
 6351SOL     OW19951   0.285   2.406   3.178
 6351SOL    HW119952   0.347   2.371   3.247
 6351SOL    HW219953   0.239   2.330   3.132
 6352SOL     OW19954   6.443   4.372   2.725
 6352SOL    HW119955   6.374   4.444   2.734
 6352SOL    HW219956   6.515   4.401   2.662
 6353SOL     OW19957   6.825   6.926   2.092
 6353SOL    HW119958   6.737   6.879   2.098
 6353SOL    HW219959   6.848   6.965   2.181
 6354SOL     OW19960   6.460   0.070   4.490
 6354SOL    HW119961   6.371   0.073   4.536
 6354SOL    HW219962   6.492   0.164   4.473
 6355SOL     OW19963   1.286   1.845   1.279
 6355SOL    HW119964   1.343   1.766   1.256
 6355SOL    HW219965   1.215   1.857   1.210
 6356SOL     OW19966   3.458   3.686   1.289
 6356SOL    HW119967   3.539   3.693   1.231
 6356SOL    HW219968   3.453   3.765   1.349
 6357SOL     OW19969   5.102   1.738   1.373
 6357SOL    HW119970   5.031   1.765   1.308
 6357SOL    HW219971   5.099   1.638   1.385
 6358SOL     OW19972   1.016   2.607   5.518
 6358SOL    HW119973   0.939   2.660   5.482
 6358SOL    HW219974   1.036   2.531   5.456
 6359SOL     OW19975   6.949   0.868   6.619
 6359SOL    HW119976   6.887   0.925   6.565
 6359SOL    HW219977   7.012   0.927   6.671
 6360SOL     OW19978   2.318   4.939   4.358
 6360SOL    HW119979   2.307   5.033   4.324
 6360SOL    HW219980   2.282   4.933   4.451
 6361SOL     OW19981   2.713   6.504   5.303
 6361SOL    HW119982   2.695   6.417   5.348
 6361SOL    HW219983   2.645   6.572   5.332
 6362SOL     OW19984   6.843   5.176   5.874
 6362SOL    HW119985   6.913   5.108   5.851
 6362SOL    HW219986   6.865   5.216   5.963
 6363SOL     OW19987   0.892   5.419   3.700
 6363SOL    HW119988   0.832   5.492   3.667
 6363SOL    HW219989   0.884   5.412   3.799
 6364SOL     OW19990   2.550   1.516   6.331
 6364SOL    HW119991   2.455   1.542   6.313
 6364SOL    HW219992   2.609   1.551   6.258
 6365SOL     OW19993   3.854   5.490   2.774
 6365SOL    HW119994   3.856   5.559   2.846
 6365SOL    HW219995   3.878   5.532   2.686
 6366SOL     OW19996   1.082   4.188   5.365
 6366SOL    HW119997   1.069   4.145   5.455
 6366SOL    HW219998   1.143   4.130   5.310
 6367SOL     OW19999   5.411   5.569   1.893
 6367SOL    HW120000   5.363   5.630   1.956
 6367SOL    HW220001   5.412   5.611   1.802
 6368SOL     OW20002   2.947   1.449   2.405
 6368SOL    HW120003   2.856   1.490   2.413
 6368SOL    HW220004   2.975   1.450   2.310
 6369SOL     OW20005   2.114   6.327   5.306
 6369SOL    HW120006   2.129   6.416   5.264
 6369SOL    HW220007   2.052   6.273   5.249
 6370SOL     OW20008   5.415   2.829   2.165
 6370SOL    HW120009   5.372   2.790   2.247
 6370SOL    HW220010   5.463   2.757   2.116
 6371SOL     OW20011   4.088   1.203   3.594
 6371SOL    HW120012   4.176   1.160   3.573
 6371SOL    HW220013   4.071   1.198   3.692
 6372SOL     OW20014   2.707   0.304   2.761
 6372SOL    HW120015   2.782   0.351   2.715
 6372SOL    HW220016   2.742   0.221   2.805
 6373SOL     OW20017   3.531   4.381   0.088
 6373SOL    HW120018   3.610   4.322   0.068
 6373SOL    HW220019   3.504   4.429   0.005
 6374SOL     OW20020   3.226   3.052   4.080
 6374SOL    HW120021   3.230   2.962   4.037
 6374SOL    HW220022   3.278   3.118   4.025
 6375SOL     OW20023   2.333   6.023   1.979
 6375SOL    HW120024   2.272   5.944   1.976
 6375SOL    HW220025   2.312   6.083   1.901
 6376SOL     OW20026   1.450   1.530   5.109
 6376SOL    HW120027   1.362   1.578   5.115
 6376SOL    HW220028   1.524   1.596   5.115
 6377SOL     OW20029   0.948   2.229   3.758
 6377SOL    HW120030   0.910   2.200   3.671
 6377SOL    HW220031   0.889   2.300   3.797
 6378SOL     OW20032   4.081   4.884   4.033
 6378SOL    HW120033   3.984   4.907   4.023
 6378SOL    HW220034   4.133   4.966   4.053
 6379SOL     OW20035   2.501   4.455   1.953
 6379SOL    HW120036   2.565   4.518   1.910
 6379SOL    HW220037   2.482   4.379   1.891
 6380SOL     OW20038   1.420   0.926   6.154
 6380SOL    HW120039   1.459   0.986   6.223
 6380SOL    HW220040   1.491   0.865   6.119
 6381SOL     OW20041   3.580   3.106   2.557
 6381SOL    HW120042   3.527   3.145   2.633
 6381SOL    HW220043   3.633   3.178   2.513
 6382SOL     OW20044   1.462   4.736   4.911
 6382SOL    HW120045   1.416   4.763   4.827
 6382SOL    HW220046   1.407   4.668   4.959
 6383SOL     OW20047   4.051   1.765   4.133
 6383SOL    HW120048   4.028   1.836   4.067
 6383SOL    HW220049   4.120   1.798   4.196
 6384SOL     OW20050   7.015   4.161   1.660
 6384SOL    HW120051   6.997   4.084   1.722
 6384SOL    HW220052   0.084   4.154   1.626
 6385SOL     OW20053   1.234   5.921   5.745
 6385SOL    HW120054   1.143   5.913   5.704
 6385SOL    HW220055   1.289   5.842   5.718
 6386SOL     OW20056   2.127   5.389   2.669
 6386SOL    HW120057   2.044   5.396   2.726
 6386SOL    HW220058   2.101   5.369   2.575
 6387SOL     OW20059   5.952   0.833   5.005
 6387SOL    HW120060   6.048   0.855   4.985
 6387SOL    HW220061   5.930   0.864   5.097
 6388SOL     OW20062   2.155   4.724   2.751
 6388SOL    HW120063   2.181   4.820   2.758
 6388SOL    HW220064   2.103   4.697   2.832
 6389SOL     OW20065   1.619   4.149   1.046
 6389SOL    HW120066   1.548   4.217   1.030
 6389SOL    HW220067   1.668   4.132   0.961
 6390SOL     OW20068   0.231   3.320   4.620
 6390SOL    HW120069   0.231   3.220   4.619
 6390SOL    HW220070   0.139   3.354   4.602
 6391SOL     OW20071   3.843   0.501   0.514
 6391SOL    HW120072   3.764   0.546   0.557
 6391SOL    HW220073   3.902   0.570   0.473
 6392SOL     OW20074   1.554   5.925   4.256
 6392SOL    HW120075   1.573   5.830   4.283
 6392SOL    HW220076   1.455   5.939   4.253
 6393SOL     OW20077   4.621   1.156   6.872
 6393SOL    HW120078   4.563   1.237   6.872
 6393SOL    HW220079   4.593   1.094   6.798
 6394SOL     OW20080   3.953   5.619   1.914
 6394SOL    HW120081   3.887   5.694   1.921
 6394SOL    HW220082   4.028   5.634   1.978
 6395SOL     OW20083   5.673   2.144   0.116
 6395SOL    HW120084   5.694   2.142   0.018
 6395SOL    HW220085   5.607   2.072   0.137
 6396SOL     OW20086   6.453   2.733   6.632
 6396SOL    HW120087   6.373   2.692   6.589
 6396SOL    HW220088   6.425   2.783   6.713
 6397SOL     OW20089   6.589   0.675   0.759
 6397SOL    HW120090   6.669   0.733   0.742
 6397SOL    HW220091   6.578   0.611   0.683
 6398SOL     OW20092   4.329   0.717   1.635
 6398SOL    HW120093   4.333   0.675   1.544
 6398SOL    HW220094   4.394   0.793   1.640
 6399SOL     OW20095   0.926   6.262   6.310
 6399SOL    HW120096   0.962   6.183   6.360
 6399SOL    HW220097   0.837   6.239   6.271
 6400SOL     OW20098   2.857   4.816   4.663
 6400SOL    HW120099   2.945   4.789   4.703
 6400SOL    HW220100   2.783   4.786   4.723
 6401SOL     OW20101   0.223   5.146   5.685
 6401SOL    HW120102   0.267   5.130   5.596
 6401SOL    HW220103   0.293   5.166   5.753
 6402SOL     OW20104   2.113   3.233   3.091
 6402SOL    HW120105   2.015   3.222   3.073
 6402SOL    HW220106   2.156   3.143   3.095
 6403SOL     OW20107   0.317   6.143   1.814
 6403SOL    HW120108   0.225   6.165   1.780
 6403SOL    HW220109   0.350   6.218   1.871
 6404SOL     OW20110   5.041   0.882   2.316
 6404SOL    HW120111   5.136   0.856   2.302
 6404SOL    HW220112   4.982   0.803   2.302
 6405SOL     OW20113   3.553   0.452   1.687
 6405SOL    HW120114   3.491   0.379   1.657
 6405SOL    HW220115   3.548   0.462   1.786
 6406SOL     OW20116   2.441   1.763   3.212
 6406SOL    HW120117   2.477   1.845   3.256
 6406SOL    HW220118   2.449   1.772   3.113
 6407SOL     OW20119   4.518   6.324   6.747
 6407SOL    HW120120   4.549   6.380   6.824
 6407SOL    HW220121   4.467   6.245   6.781
 6408SOL     OW20122   5.832   2.465   0.937
 6408SOL    HW120123   5.885   2.385   0.964
 6408SOL    HW220124   5.740   2.437   0.910
 6409SOL     OW20125   1.047   5.150   1.689
 6409SOL    HW120126   0.959   5.124   1.730
 6409SOL    HW220127   1.122   5.118   1.748
 6410SOL     OW20128   0.240   0.008   1.545
 6410SOL    HW120129   0.249   0.038   1.640
 6410SOL    HW220130   0.297   0.065   1.486
 6411SOL     OW20131   1.478   1.748   3.240
 6411SOL    HW120132   1.499   1.845   3.250
 6411SOL    HW220133   1.563   1.696   3.230
 6412SOL     OW20134   5.896   2.191   4.721
 6412SOL    HW120135   5.876   2.102   4.682
 6412SOL    HW220136   5.822   2.219   4.782
 6413SOL     OW20137   0.411   5.019   0.984
 6413SOL    HW120138   0.339   5.042   0.918
 6413SOL    HW220139   0.500   5.021   0.938
 6414SOL     OW20140   6.033   0.509   3.141
 6414SOL    HW120141   6.049   0.435   3.075
 6414SOL    HW220142   6.117   0.562   3.152
 6415SOL     OW20143   1.241   1.288   1.765
 6415SOL    HW120144   1.189   1.259   1.684
 6415SOL    HW220145   1.185   1.276   1.847
 6416SOL     OW20146   2.647   6.181   6.353
 6416SOL    HW120147   2.621   6.108   6.416
 6416SOL    HW220148   2.692   6.141   6.273
 6417SOL     OW20149   0.235   5.626   4.237
 6417SOL    HW120150   0.177   5.707   4.229
 6417SOL    HW220151   0.190   5.557   4.294
 6418SOL     OW20152   6.826   4.909   2.183
 6418SOL    HW120153   6.784   4.985   2.232
 6418SOL    HW220154   6.805   4.917   2.085
 6419SOL     OW20155   2.420   2.684   0.293
 6419SOL    HW120156   2.510   2.640   0.296
 6419SOL    HW220157   2.349   2.613   0.282
 6420SOL     OW20158   0.513   2.263   0.025
 6420SOL    HW120159   0.429   2.316   0.017
 6420SOL    HW220160   0.491   2.172   0.060
 6421SOL     OW20161   5.541   1.625   0.206
 6421SOL    HW120162   5.479   1.612   0.283
 6421SOL    HW220163   5.549   1.539   0.155
 6422SOL     OW20164   5.740   2.608   2.618
 6422SOL    HW120165   5.711   2.522   2.577
 6422SOL    HW220166   5.676   2.681   2.592
 6423SOL     OW20167   5.355   4.096   0.710
 6423SOL    HW120168   5.343   4.068   0.615
 6423SOL    HW220169   5.330   4.192   0.720
 6424SOL     OW20170   6.069   3.524   4.843
 6424SOL    HW120171   6.143   3.476   4.795
 6424SOL    HW220172   6.103   3.613   4.875
 6425SOL     OW20173   0.611   5.876   1.054
 6425SOL    HW120174   0.688   5.899   0.993
 6425SOL    HW220175   0.543   5.823   1.003
 6426SOL     OW20176   6.100   3.154   3.312
 6426SOL    HW120177   6.129   3.058   3.311
 6426SOL    HW220178   6.051   3.175   3.227
 6427SOL     OW20179   0.632   3.512   5.904
 6427SOL    HW120180   0.677   3.506   5.993
 6427SOL    HW220181   0.664   3.439   5.844
 6428SOL     OW20182   6.194   3.754   5.000
 6428SOL    HW120183   6.278   3.702   4.984
 6428SOL    HW220184   6.213   3.852   4.990
 6429SOL     OW20185   1.209   1.215   5.494
 6429SOL    HW120186   1.139   1.280   5.522
 6429SOL    HW220187   1.251   1.246   5.409
 6430SOL     OW20188   6.414   2.752   0.373
 6430SOL    HW120189   6.336   2.813   0.387
 6430SOL    HW220190   6.466   2.745   0.457
 6431SOL     OW20191   5.785   1.181   2.240
 6431SOL    HW120192   5.711   1.171   2.174
 6431SOL    HW220193   5.825   1.091   2.259
 6432SOL     OW20194   6.088   3.787   0.609
 6432SOL    HW120195   6.126   3.876   0.585
 6432SOL    HW220196   6.097   3.773   0.707
 6433SOL     OW20197   2.070   3.461   1.626
 6433SOL    HW120198   2.077   3.555   1.595
 6433SOL    HW220199   2.072   3.399   1.547
 6434SOL     OW20200   1.685   6.215   0.530
 6434SOL    HW120201   1.711   6.259   0.616
 6434SOL    HW220202   1.641   6.128   0.549
 6435SOL     OW20203   5.393   3.666   1.176
 6435SOL    HW120204   5.319   3.688   1.111
 6435SOL    HW220205   5.362   3.596   1.239
 6436SOL     OW20206   2.295   2.229   1.136
 6436SOL    HW120207   2.303   2.137   1.099
 6436SOL    HW220208   2.302   2.296   1.061
 6437SOL     OW20209   0.220   1.468   1.372
 6437SOL    HW120210   0.198   1.390   1.312
 6437SOL    HW220211   0.295   1.442   1.432
 6438SOL     OW20212   0.591   2.976   4.788
 6438SOL    HW120213   0.605   3.074   4.784
 6438SOL    HW220214   0.562   2.943   4.698
 6439SOL     OW20215   0.192   6.044   2.683
 6439SOL    HW120216   0.279   6.001   2.659
 6439SOL    HW220217   0.201   6.143   2.679
 6440SOL     OW20218   0.505   0.450   2.011
 6440SOL    HW120219   0.586   0.501   2.041
 6440SOL    HW220220   0.444   0.511   1.961
 6441SOL     OW20221   5.259   1.768   3.411
 6441SOL    HW120222   5.312   1.841   3.454
 6441SOL    HW220223   5.182   1.743   3.470
 6442SOL     OW20224   1.945   1.811   3.745
 6442SOL    HW120225   1.854   1.799   3.784
 6442SOL    HW220226   1.937   1.826   3.647
 6443SOL     OW20227   2.157   0.547   1.104
 6443SOL    HW120228   2.116   0.471   1.153
 6443SOL    HW220229   2.180   0.519   1.011
 6444SOL     OW20230   0.966   1.348   2.459
 6444SOL    HW120231   1.001   1.397   2.539
 6444SOL    HW220232   0.866   1.342   2.465
 6445SOL     OW20233   3.246   4.626   6.244
 6445SOL    HW120234   3.162   4.597   6.290
 6445SOL    HW220235   3.226   4.703   6.183
 6446SOL     OW20236   0.110   1.061   0.867
 6446SOL    HW120237   0.127   0.977   0.919
 6446SOL    HW220238   0.072   1.131   0.928
 6447SOL     OW20239   1.661   0.946   3.604
 6447SOL    HW120240   1.729   0.923   3.674
 6447SOL    HW220241   1.678   0.893   3.522
 6448SOL     OW20242   6.536   2.771   2.742
 6448SOL    HW120243   6.444   2.749   2.774
 6448SOL    HW220244   6.535   2.859   2.694
 6449SOL     OW20245   4.229   2.188   0.590
 6449SOL    HW120246   4.163   2.264   0.582
 6449SOL    HW220247   4.283   2.182   0.507
 6450SOL     OW20248   6.403   2.518   0.235
 6450SOL    HW120249   6.375   2.538   0.141
 6450SOL    HW220250   6.391   2.600   0.291
 6451SOL     OW20251   2.882   6.267   4.046
 6451SOL    HW120252   2.874   6.180   4.094
 6451SOL    HW220253   2.827   6.264   3.962
 6452SOL     OW20254   3.410   6.060   4.207
 6452SOL    HW120255   3.470   5.994   4.163
 6452SOL    HW220256   3.463   6.140   4.235
 6453SOL     OW20257   2.155   4.877   6.850
 6453SOL    HW120258   2.213   4.842   6.776
 6453SOL    HW220259   2.104   4.957   6.817
 6454SOL     OW20260   3.816   0.894   4.397
 6454SOL    HW120261   3.887   0.939   4.451
 6454SOL    HW220262   3.824   0.795   4.408
 6455SOL     OW20263   6.607   3.470   0.408
 6455SOL    HW120264   6.581   3.424   0.322
 6455SOL    HW220265   6.682   3.420   0.451
 6456SOL     OW20266   6.177   1.805   4.354
 6456SOL    HW120267   6.221   1.716   4.338
 6456SOL    HW220268   6.153   1.846   4.267
 6457SOL     OW20269   5.426   3.392   2.185
 6457SOL    HW120270   5.442   3.487   2.211
 6457SOL    HW220271   5.339   3.385   2.136
 6458SOL     OW20272   1.248   5.561   3.875
 6458SOL    HW120273   1.177   5.495   3.851
 6458SOL    HW220274   1.263   5.623   3.798
 6459SOL     OW20275   6.043   4.515   0.007
 6459SOL    HW120276   6.123   4.496   6.975
 6459SOL    HW220277   5.960   4.501   6.977
 6460SOL     OW20278   3.685   4.984   1.612
 6460SOL    HW120279   3.778   4.953   1.591
 6460SOL    HW220280   3.670   5.075   1.572
 6461SOL     OW20281   3.221   5.696   4.956
 6461SOL    HW120282   3.218   5.793   4.931
 6461SOL    HW220283   3.171   5.683   5.041
 6462SOL     OW20284   2.155   3.715   2.497
 6462SOL    HW120285   2.167   3.706   2.398
 6462SOL    HW220286   2.143   3.624   2.537
 6463SOL     OW20287   1.809   3.169   6.216
 6463SOL    HW120288   1.822   3.267   6.200
 6463SOL    HW220289   1.817   3.151   6.314
 6464SOL     OW20290   1.074   4.914   2.057
 6464SOL    HW120291   1.137   4.840   2.080
 6464SOL    HW220292   1.011   4.929   2.132
 6465SOL     OW20293   6.490   0.523   2.767
 6465SOL    HW120294   6.505   0.469   2.850
 6465SOL    HW220295   6.571   0.517   2.709
 6466SOL     OW20296   6.424   2.738   4.325
 6466SOL    HW120297   6.385   2.820   4.283
 6466SOL    HW220298   6.524   2.746   4.327
 6467SOL     OW20299   3.708   0.051   6.187
 6467SOL    HW120300   3.671   0.049   6.094
 6467SOL    HW220301   3.635   0.074   6.251
 6468SOL     OW20302   6.382   4.703   1.844
 6468SOL    HW120303   6.295   4.655   1.853
 6468SOL    HW220304   6.420   4.721   1.935
 6469SOL     OW20305   5.931   1.984   5.842
 6469SOL    HW120306   5.906   2.012   5.935
 6469SOL    HW220307   5.959   1.888   5.844
 6470SOL     OW20308   6.622   6.266   4.816
 6470SOL    HW120309   6.601   6.277   4.719
 6470SOL    HW220310   6.545   6.222   4.862
 6471SOL     OW20311   6.379   6.550   5.002
 6471SOL    HW120312   6.465   6.504   5.020
 6471SOL    HW220313   6.343   6.589   5.087
 6472SOL     OW20314   1.678   6.557   1.736
 6472SOL    HW120315   1.690   6.656   1.746
 6472SOL    HW220316   1.608   6.538   1.668
 6473SOL     OW20317   1.994   1.389   5.533
 6473SOL    HW120318   1.931   1.312   5.544
 6473SOL    HW220319   2.021   1.423   5.623
 6474SOL     OW20320   1.895   3.401   6.579
 6474SOL    HW120321   1.978   3.359   6.542
 6474SOL    HW220322   1.863   3.472   6.516
 6475SOL     OW20323   4.189   5.171   3.982
 6475SOL    HW120324   4.114   5.193   4.045
 6475SOL    HW220325   4.151   5.135   3.897
 6476SOL     OW20326   4.908   5.678   2.982
 6476SOL    HW120327   4.827   5.725   2.948
 6476SOL    HW220328   4.964   5.741   3.036
 6477SOL     OW20329   6.587   6.401   6.985
 6477SOL    HW120330   6.543   6.367   0.043
 6477SOL    HW220331   6.517   6.439   6.924
 6478SOL     OW20332   4.066   6.082   1.187
 6478SOL    HW120333   4.067   6.014   1.114
 6478SOL    HW220334   4.146   6.141   1.178
 6479SOL     OW20335   2.971   5.694   2.830
 6479SOL    HW120336   3.033   5.716   2.906
 6479SOL    HW220337   2.883   5.739   2.845
 6480SOL     OW20338   2.657   0.498   0.217
 6480SOL    HW120339   2.618   0.527   0.305
 6480SOL    HW220340   2.641   0.401   0.203
 6481SOL     OW20341   4.744   0.514   1.247
 6481SOL    HW120342   4.720   0.574   1.171
 6481SOL    HW220343   4.727   0.419   1.221
 6482SOL     OW20344   0.345   0.101   5.495
 6482SOL    HW120345   0.409   0.178   5.500
 6482SOL    HW220346   0.358   0.042   5.575
 6483SOL     OW20347   1.470   4.927   1.881
 6483SOL    HW120348   1.506   4.839   1.849
 6483SOL    HW220349   1.518   4.954   1.965
 6484SOL     OW20350   4.519   0.290   3.102
 6484SOL    HW120351   4.531   0.380   3.143
 6484SOL    HW220352   4.572   0.285   3.017
 6485SOL     OW20353   0.288   2.907   2.404
 6485SOL    HW120354   0.376   2.870   2.373
 6485SOL    HW220355   0.226   2.914   2.326
 6486SOL     OW20356   1.298   3.080   3.169
 6486SOL    HW120357   1.371   3.105   3.232
 6486SOL    HW220358   1.244   3.005   3.208
 6487SOL     OW20359   6.134   5.611   3.464
 6487SOL    HW120360   6.099   5.552   3.392
 6487SOL    HW220361   6.228   5.584   3.486
 6488SOL     OW20362   3.216   5.288   4.238
 6488SOL    HW120363   3.194   5.193   4.218
 6488SOL    HW220364   3.254   5.294   4.330
 6489SOL     OW20365   2.547   1.378   6.575
 6489SOL    HW120366   2.571   1.446   6.644
 6489SOL    HW220367   2.556   1.419   6.484
 6490SOL     OW20368   4.784   1.551   0.269
 6490SOL    HW120369   4.769   1.640   0.227
 6490SOL    HW220370   4.747   1.551   0.362
 6491SOL     OW20371   5.694   0.994   5.875
 6491SOL    HW120372   5.729   1.021   5.785
 6491SOL    HW220373   5.659   1.075   5.922
 6492SOL     OW20374   6.313   5.611   5.846
 6492SOL    HW120375   6.367   5.570   5.920
 6492SOL    HW220376   6.296   5.707   5.868
 6493SOL     OW20377   0.096   6.975   5.131
 6493SOL    HW120378   0.086   6.930   5.220
 6493SOL    HW220379   0.194   6.988   5.111
 6494SOL     OW20380   0.483   2.424   2.981
 6494SOL    HW120381   0.430   2.465   2.908
 6494SOL    HW220382   0.425   2.410   3.061
 6495SOL     OW20383   5.427   4.778   1.712
 6495SOL    HW120384   5.331   4.774   1.684
 6495SOL    HW220385   5.434   4.820   1.802
 6496SOL     OW20386   0.500   6.296   3.160
 6496SOL    HW120387   0.477   6.371   3.098
 6496SOL    HW220388   0.588   6.256   3.133
 6497SOL     OW20389   0.677   6.382   1.405
 6497SOL    HW120390   0.725   6.446   1.344
 6497SOL    HW220391   0.737   6.305   1.425
 6498SOL     OW20392   1.264   3.340   4.335
 6498SOL    HW120393   1.219   3.288   4.407
 6498SOL    HW220394   1.354   3.370   4.367
 6499SOL     OW20395   6.403   1.552   3.431
 6499SOL    HW120396   6.327   1.597   3.477
 6499SOL    HW220397   6.477   1.619   3.417
 6500SOL     OW20398   5.760   4.884   2.325
 6500SOL    HW120399   5.779   4.935   2.408
 6500SOL    HW220400   5.683   4.925   2.276
 6501SOL     OW20401   6.771   4.372   0.750
 6501SOL    HW120402   6.817   4.371   0.839
 6501SOL    HW220403   6.672   4.360   0.763
 6502SOL     OW20404   0.737   5.552   1.463
 6502SOL    HW120405   0.724   5.567   1.561
 6502SOL    HW220406   0.823   5.503   1.448
 6503SOL     OW20407   4.439   0.623   3.934
 6503SOL    HW120408   4.447   0.582   3.843
 6503SOL    HW220409   4.374   0.699   3.930
 6504SOL     OW20410   2.422   2.356   0.463
 6504SOL    HW120411   2.516   2.378   0.437
 6504SOL    HW220412   2.404   2.259   0.448
 6505SOL     OW20413   5.608   5.370   0.724
 6505SOL    HW120414   5.597   5.466   0.748
 6505SOL    HW220415   5.601   5.314   0.807
 6506SOL     OW20416   1.991   1.093   1.587
 6506SOL    HW120417   2.043   1.045   1.657
 6506SOL    HW220418   1.987   1.191   1.609
 6507SOL     OW20419   2.976   1.021   1.813
 6507SOL    HW120420   2.900   1.087   1.812
 6507SOL    HW220421   2.988   0.984   1.721
 6508SOL     OW20422   1.708   2.667   1.949
 6508SOL    HW120423   1.702   2.583   1.894
 6508SOL    HW220424   1.798   2.671   1.992
 6509SOL     OW20425   1.374   2.886   3.869
 6509SOL    HW120426   1.384   2.964   3.931
 6509SOL    HW220427   1.448   2.888   3.801
 6510SOL     OW20428   6.399   4.380   6.219
 6510SOL    HW120429   6.320   4.439   6.202
 6510SOL    HW220430   6.476   4.411   6.162
 6511SOL     OW20431   0.070   6.755   5.921
 6511SOL    HW120432   0.020   6.819   5.863
 6511SOL    HW220433   0.026   6.751   6.011
 6512SOL     OW20434   5.176   6.217   4.006
 6512SOL    HW120435   5.232   6.135   4.015
 6512SOL    HW220436   5.157   6.255   4.096
 6513SOL     OW20437   1.213   6.733   3.306
 6513SOL    HW120438   1.150   6.808   3.286
 6513SOL    HW220439   1.275   6.719   3.229
 6514SOL     OW20440   3.093   0.574   3.637
 6514SOL    HW120441   3.082   0.627   3.721
 6514SOL    HW220442   3.150   0.494   3.656
 6515SOL     OW20443   1.142   0.615   3.576
 6515SOL    HW120444   1.062   0.664   3.543
 6515SOL    HW220445   1.225   0.661   3.544
 6516SOL     OW20446   1.551   1.161   5.487
 6516SOL    HW120447   1.490   1.223   5.537
 6516SOL    HW220448   1.621   1.215   5.440
 6517SOL     OW20449   2.463   1.979   1.027
 6517SOL    HW120450   2.544   2.037   1.035
 6517SOL    HW220451   2.437   1.945   1.117
 6518SOL     OW20452   6.025   6.246   0.957
 6518SOL    HW120453   6.076   6.327   0.928
 6518SOL    HW220454   5.927   6.263   0.948
 6519SOL     OW20455   0.927   1.769   3.833
 6519SOL    HW120456   0.877   1.854   3.815
 6519SOL    HW220457   0.865   1.691   3.823
 6520SOL     OW20458   5.659   5.252   0.989
 6520SOL    HW120459   5.634   5.159   1.014
 6520SOL    HW220460   5.737   5.281   1.044
 6521SOL     OW20461   1.379   2.295   5.640
 6521SOL    HW120462   1.338   2.225   5.699
 6521SOL    HW220463   1.433   2.358   5.696
 6522SOL     OW20464   2.554   4.837   4.420
 6522SOL    HW120465   2.460   4.856   4.390
 6522SOL    HW220466   2.553   4.760   4.484
 6523SOL     OW20467   2.250   2.358   0.683
 6523SOL    HW120468   2.191   2.432   0.650
 6523SOL    HW220469   2.301   2.319   0.606
 6524SOL     OW20470   4.055   2.607   5.545
 6524SOL    HW120471   4.104   2.694   5.557
 6524SOL    HW220472   3.957   2.626   5.536
 6525SOL     OW20473   0.667   2.378   4.106
 6525SOL    HW120474   0.599   2.352   4.174
 6525SOL    HW220475   0.714   2.296   4.073
 6526SOL     OW20476   1.488   6.059   3.552
 6526SOL    HW120477   1.564   6.003   3.520
 6526SOL    HW220478   1.498   6.076   3.650
 6527SOL     OW20479   1.892   1.279   4.465
 6527SOL    HW120480   1.813   1.260   4.524
 6527SOL    HW220481   1.907   1.377   4.460
 6528SOL     OW20482   0.202   0.552   3.555
 6528SOL    HW120483   0.276   0.511   3.609
 6528SOL    HW220484   0.224   0.647   3.534
 6529SOL     OW20485   6.267   3.267   2.714
 6529SOL    HW120486   6.297   3.350   2.666
 6529SOL    HW220487   6.189   3.227   2.666
 6530SOL     OW20488   0.133   1.351   0.044
 6530SOL    HW120489   0.211   1.293   0.020
 6530SOL    HW220490   0.059   1.335   7.004
 6531SOL     OW20491   5.311   2.225   5.699
 6531SOL    HW120492   5.369   2.179   5.767
 6531SOL    HW220493   5.358   2.307   5.665
 6532SOL     OW20494   1.330   1.564   6.899
 6532SOL    HW120495   1.426   1.589   6.900
 6532SOL    HW220496   1.321   1.468   6.871
 6533SOL     OW20497   5.053   0.022   0.636
 6533SOL    HW120498   5.120   0.049   0.706
 6533SOL    HW220499   5.008   0.104   0.599
 6534SOL     OW20500   3.235   2.443   6.811
 6534SOL    HW120501   3.332   2.429   6.794
 6534SOL    HW220502   3.222   2.533   6.853
 6535SOL     OW20503   2.172   3.338   5.264
 6535SOL    HW120504   2.203   3.430   5.238
 6535SOL    HW220505   2.205   3.317   5.355
 6536SOL     OW20506   0.247   1.453   0.297
 6536SOL    HW120507   0.207   1.438   0.206
 6536SOL    HW220508   0.230   1.374   0.355
 6537SOL     OW20509   0.463   0.528   6.481
 6537SOL    HW120510   0.428   0.543   6.388
 6537SOL    HW220511   0.387   0.505   6.541
 6538SOL     OW20512   2.961   2.690   5.631
 6538SOL    HW120513   2.958   2.641   5.544
 6538SOL    HW220514   2.892   2.654   5.693
 6539SOL     OW20515   3.212   1.313   6.828
 6539SOL    HW120516   3.184   1.325   6.923
 6539SOL    HW220517   3.188   1.220   6.798
 6540SOL     OW20518   3.882   2.190   2.945
 6540SOL    HW120519   3.976   2.220   2.962
 6540SOL    HW220520   3.835   2.175   3.031
 6541SOL     OW20521   2.922   2.313   5.237
 6541SOL    HW120522   2.902   2.257   5.156
 6541SOL    HW220523   3.011   2.358   5.225
 6542SOL     OW20524   4.722   4.568   2.651
 6542SOL    HW120525   4.699   4.512   2.731
 6542SOL    HW220526   4.648   4.561   2.583
 6543SOL     OW20527   1.434   6.232   5.920
 6543SOL    HW120528   1.487   6.155   5.883
 6543SOL    HW220529   1.438   6.309   5.856
 6544SOL     OW20530   0.219   5.750   2.839
 6544SOL    HW120531   0.203   5.651   2.834
 6544SOL    HW220532   0.140   5.799   2.803
 6545SOL     OW20533   6.117   2.832   6.355
 6545SOL    HW120534   6.144   2.927   6.335
 6545SOL    HW220535   6.169   2.770   6.297
 6546SOL     OW20536   3.384   4.815   6.615
 6546SOL    HW120537   3.480   4.819   6.644
 6546SOL    HW220538   3.379   4.781   6.521
 6547SOL     OW20539   4.239   1.354   6.437
 6547SOL    HW120540   4.291   1.270   6.448
 6547SOL    HW220541   4.254   1.391   6.345
 6548SOL     OW20542   4.873   4.117   5.968
 6548SOL    HW120543   4.897   4.212   5.948
 6548SOL    HW220544   4.916   4.089   6.053
 6549SOL     OW20545   2.533   2.185   2.457
 6549SOL    HW120546   2.530   2.128   2.540
 6549SOL    HW220547   2.627   2.187   2.422
 6550SOL     OW20548   0.800   6.025   2.302
 6550SOL    HW120549   0.704   6.045   2.318
 6550SOL    HW220550   0.818   6.024   2.203
 6551SOL     OW20551   3.672   5.348   2.046
 6551SOL    HW120552   3.672   5.446   2.069
 6551SOL    HW220553   3.599   5.302   2.096
 6552SOL     OW20554   4.640   4.885   5.697
 6552SOL    HW120555   4.712   4.952   5.682
 6552SOL    HW220556   4.629   4.869   5.795
 6553SOL     OW20557   0.228   3.492   3.341
 6553SOL    HW120558   0.320   3.523   3.319
 6553SOL    HW220559   0.172   3.570   3.368
 6554SOL     OW20560   6.801   3.656   4.568
 6554SOL    HW120561   6.705   3.684   4.566
 6554SOL    HW220562   6.842   3.668   4.477
 6555SOL     OW20563   0.799   1.808   1.108
 6555SOL    HW120564   0.841   1.784   1.196
 6555SOL    HW220565   0.756   1.727   1.069
 6556SOL     OW20566   3.854   6.907   3.321
 6556SOL    HW120567   3.909   6.951   3.393
 6556SOL    HW220568   3.875   6.949   3.233
 6557SOL     OW20569   5.104   5.763   0.954
 6557SOL    HW120570   5.014   5.791   0.920
 6557SOL    HW220571   5.097   5.738   1.050
 6558SOL     OW20572   6.755   6.754   5.813
 6558SOL    HW120573   6.705   6.693   5.875
 6558SOL    HW220574   6.810   6.818   5.866
 6559SOL     OW20575   2.895   3.892   1.238
 6559SOL    HW120576   2.880   3.905   1.139
 6559SOL    HW220577   2.989   3.861   1.254
 6560SOL     OW20578   4.215   1.602   1.068
 6560SOL    HW120579   4.286   1.559   1.124
 6560SOL    HW220580   4.145   1.640   1.127
 6561SOL     OW20581   3.533   3.932   4.465
 6561SOL    HW120582   3.563   3.936   4.370
 6561SOL    HW220583   3.560   3.845   4.505
 6562SOL     OW20584   0.649   4.334   5.293
 6562SOL    HW120585   0.623   4.308   5.200
 6562SOL    HW220586   0.586   4.403   5.327
 6563SOL     OW20587   0.974   5.706   2.205
 6563SOL    HW120588   0.917   5.766   2.149
 6563SOL    HW220589   0.979   5.742   2.298
 6564SOL     OW20590   1.814   5.079   3.092
 6564SOL    HW120591   1.838   5.158   3.149
 6564SOL    HW220592   1.734   5.101   3.037
 6565SOL     OW20593   6.776   3.557   4.964
 6565SOL    HW120594   6.696   3.497   4.971
 6565SOL    HW220595   6.746   3.652   4.951
 6566SOL     OW20596   3.965   1.229   0.747
 6566SOL    HW120597   4.017   1.147   0.720
 6566SOL    HW220598   4.016   1.279   0.817
 6567SOL     OW20599   6.296   2.367   0.739
 6567SOL    HW120600   6.326   2.423   0.661
 6567SOL    HW220601   6.368   2.365   0.809
 6568SOL     OW20602   5.355   3.612   1.617
 6568SOL    HW120603   5.431   3.609   1.681
 6568SOL    HW220604   5.372   3.548   1.541
 6569SOL     OW20605   1.309   3.988   5.414
 6569SOL    HW120606   1.325   4.057   5.343
 6569SOL    HW220607   1.285   4.033   5.500
 6570SOL     OW20608   0.040   4.081   1.993
 6570SOL    HW120609   7.018   4.012   1.939
 6570SOL    HW220610   0.123   4.111   1.944
 6571SOL     OW20611   2.083   5.359   3.770
 6571SOL    HW120612   2.136   5.388   3.690
 6571SOL    HW220613   2.013   5.294   3.742
 6572SOL     OW20614   2.076   3.731   5.644
 6572SOL    HW120615   2.014   3.751   5.719
 6572SOL    HW220616   2.147   3.667   5.676
 6573SOL     OW20617   1.694   1.936   1.778
 6573SOL    HW120618   1.693   2.014   1.841
 6573SOL    HW220619   1.758   1.954   1.703
 6574SOL     OW20620   2.308   4.672   4.759
 6574SOL    HW120621   2.240   4.699   4.827
 6574SOL    HW220622   2.287   4.579   4.726
 6575SOL     OW20623   1.700   1.897   2.617
 6575SOL    HW120624   1.676   1.992   2.598
 6575SOL    HW220625   1.630   1.855   2.674
 6576SOL     OW20626   0.206   6.036   4.047
 6576SOL    HW120627   0.151   5.997   3.973
 6576SOL    HW220628   0.288   6.079   4.009
 6577SOL     OW20629   0.200   3.716   5.901
 6577SOL    HW120630   0.261   3.645   5.865
 6577SOL    HW220631   0.117   3.720   5.846
 6578SOL     OW20632   6.170   5.827   4.018
 6578SOL    HW120633   6.079   5.839   3.979
 6578SOL    HW220634   6.194   5.730   4.020
 6579SOL     OW20635   0.395   3.820   4.053
 6579SOL    HW120636   0.320   3.754   4.059
 6579SOL    HW220637   0.422   3.849   4.145
 6580SOL     OW20638   5.621   2.057   0.840
 6580SOL    HW120639   5.639   1.979   0.900
 6580SOL    HW220640   5.707   2.088   0.799
 6581SOL     OW20641   2.807   2.307   5.506
 6581SOL    HW120642   2.797   2.318   5.407
 6581SOL    HW220643   2.824   2.396   5.548
 6582SOL     OW20644   6.760   0.885   2.680
 6582SOL    HW120645   6.724   0.925   2.764
 6582SOL    HW220646   6.781   0.958   2.615
 6583SOL     OW20647   6.745   1.019   6.383
 6583SOL    HW120648   6.718   0.923   6.394
 6583SOL    HW220649   6.759   1.039   6.287
 6584SOL     OW20650   5.725   2.394   0.544
 6584SOL    HW120651   5.815   2.401   0.587
 6584SOL    HW220652   5.688   2.486   0.529
 6585SOL     OW20653   2.958   0.840   2.704
 6585SOL    HW120654   3.022   0.766   2.723
 6585SOL    HW220655   3.004   0.911   2.650
 6586SOL     OW20656   5.930   1.943   6.874
 6586SOL    HW120657   6.010   1.993   6.905
 6586SOL    HW220658   5.848   2.000   6.885
 6587SOL     OW20659   1.224   5.747   1.832
 6587SOL    HW120660   1.312   5.758   1.784
 6587SOL    HW220661   1.235   5.682   1.907
 6588SOL     OW20662   3.396   2.907   0.457
 6588SOL    HW120663   3.305   2.918   0.498
 6588SOL    HW220664   3.463   2.887   0.528
 6589SOL     OW20665   5.310   1.217   5.677
 6589SOL    HW120666   5.375   1.226   5.753
 6589SOL    HW220667   5.338   1.275   5.601
 6590SOL     OW20668   6.153   1.969   5.617
 6590SOL    HW120669   6.099   2.001   5.540
 6590SOL    HW220670   6.099   1.976   5.701
 6591SOL     OW20671   5.067   0.448   2.383
 6591SOL    HW120672   5.000   0.520   2.369
 6591SOL    HW220673   5.138   0.454   2.312
 6592SOL     OW20674   5.935   4.761   5.471
 6592SOL    HW120675   5.997   4.690   5.505
 6592SOL    HW220676   5.889   4.729   5.388
 6593SOL     OW20677   5.463   1.138   3.068
 6593SOL    HW120678   5.531   1.210   3.060
 6593SOL    HW220679   5.439   1.124   3.164
 6594SOL     OW20680   5.551   0.910   6.930
 6594SOL    HW120681   5.568   0.982   6.862
 6594SOL    HW220682   5.453   0.895   6.939
 6595SOL     OW20683   3.462   2.574   6.440
 6595SOL    HW120684   3.375   2.601   6.481
 6595SOL    HW220685   3.460   2.476   6.420
 6596SOL     OW20686   2.478   5.807   4.692
 6596SOL    HW120687   2.485   5.728   4.632
 6596SOL    HW220688   2.437   5.780   4.780
 6597SOL     OW20689   0.364   3.822   6.774
 6597SOL    HW120690   0.455   3.854   6.800
 6597SOL    HW220691   0.311   3.898   6.736
 6598SOL     OW20692   3.114   6.348   3.907
 6598SOL    HW120693   3.187   6.349   3.976
 6598SOL    HW220694   3.027   6.324   3.950
 6599SOL     OW20695   4.152   3.663   6.404
 6599SOL    HW120696   4.174   3.730   6.475
 6599SOL    HW220697   4.231   3.604   6.390
 6600SOL     OW20698   4.228   4.740   5.217
 6600SOL    HW120699   4.264   4.685   5.142
 6600SOL    HW220700   4.130   4.755   5.204
 6601SOL     OW20701   1.038   1.185   1.949
 6601SOL    HW120702   1.072   1.233   2.030
 6601SOL    HW220703   1.026   1.088   1.971
 6602SOL     OW20704   5.803   1.478   1.060
 6602SOL    HW120705   5.725   1.509   1.114
 6602SOL    HW220706   5.835   1.390   1.094
 6603SOL     OW20707   2.669   1.950   1.317
 6603SOL    HW120708   2.743   2.009   1.284
 6603SOL    HW220709   2.656   1.966   1.415
 6604SOL     OW20710   3.816   5.660   5.164
 6604SOL    HW120711   3.781   5.746   5.203
 6604SOL    HW220712   3.915   5.655   5.180
 6605SOL     OW20713   5.359   6.352   0.814
 6605SOL    HW120714   5.438   6.322   0.763
 6605SOL    HW220715   5.297   6.275   0.830
 6606SOL     OW20716   0.669   2.322   3.159
 6606SOL    HW120717   0.622   2.351   3.076
 6606SOL    HW220718   0.761   2.361   3.160
 6607SOL     OW20719   1.284   3.133   2.614
 6607SOL    HW120720   1.244   3.045   2.589
 6607SOL    HW220721   1.324   3.128   2.705
 6608SOL     OW20722   5.140   4.144   4.870
 6608SOL    HW120723   5.100   4.160   4.779
 6608SOL    HW220724   5.104   4.059   4.908
 6609SOL     OW20725   5.090   2.280   6.618
 6609SOL    HW120726   5.056   2.236   6.701
 6609SOL    HW220727   5.036   2.250   6.540
 6610SOL     OW20728   3.651   1.553   0.982
 6610SOL    HW120729   3.659   1.527   1.078
 6610SOL    HW220730   3.557   1.581   0.963
 6611SOL     OW20731   5.110   3.801   2.708
 6611SOL    HW120732   5.015   3.807   2.679
 6611SOL    HW220733   5.144   3.709   2.689
 6612SOL     OW20734   0.601   5.843   6.100
 6612SOL    HW120735   0.681   5.889   6.139
 6612SOL    HW220736   0.621   5.812   6.008
 6613SOL     OW20737   6.135   4.849   0.584
 6613SOL    HW120738   6.220   4.880   0.627
 6613SOL    HW220739   6.081   4.798   0.651
 6614SOL     OW20740   5.898   4.445   5.958
 6614SOL    HW120741   5.986   4.397   5.957
 6614SOL    HW220742   5.901   4.521   5.894
 6615SOL     OW20743   0.280   3.635   4.898
 6615SOL    HW120744   0.342   3.637   4.976
 6615SOL    HW220745   0.308   3.563   4.835
 6616SOL     OW20746   4.733   1.171   4.016
 6616SOL    HW120747   4.756   1.088   4.068
 6616SOL    HW220748   4.680   1.233   4.075
 6617SOL     OW20749   4.582   6.985   4.462
 6617SOL    HW120750   4.484   6.986   4.481
 6617SOL    HW220751   4.598   6.951   4.369
 6618SOL     OW20752   0.494   4.393   0.984
 6618SOL    HW120753   0.458   4.484   0.962
 6618SOL    HW220754   0.490   4.379   1.083
 6619SOL     OW20755   6.786   6.078   2.180
 6619SOL    HW120756   6.828   6.164   2.211
 6619SOL    HW220757   6.850   6.028   2.122
 6620SOL     OW20758   4.693   3.254   5.547
 6620SOL    HW120759   4.727   3.341   5.581
 6620SOL    HW220760   4.634   3.270   5.467
 6621SOL     OW20761   3.144   2.928   0.567
 6621SOL    HW120762   3.100   2.846   0.531
 6621SOL    HW220763   3.111   2.946   0.660
 6622SOL     OW20764   5.803   5.405   0.233
 6622SOL    HW120765   5.811   5.306   0.222
 6622SOL    HW220766   5.748   5.425   0.314
 6623SOL     OW20767   3.278   3.957   2.682
 6623SOL    HW120768   3.267   3.973   2.584
 6623SOL    HW220769   3.260   4.042   2.732
 6624SOL     OW20770   4.837   5.042   4.110
 6624SOL    HW120771   4.928   5.045   4.150
 6624SOL    HW220772   4.833   5.104   4.032
 6625SOL     OW20773   5.450   6.655   7.013
 6625SOL    HW120774   5.535   6.699   0.017
 6625SOL    HW220775   5.372   6.710   0.018
 6626SOL     OW20776   2.527   5.123   3.933
 6626SOL    HW120777   2.556   5.066   4.010
 6626SOL    HW220778   2.534   5.070   3.848
 6627SOL     OW20779   0.761   1.046   1.815
 6627SOL    HW120780   0.787   1.140   1.797
 6627SOL    HW220781   0.691   1.017   1.749
 6628SOL     OW20782   4.228   6.210   3.672
 6628SOL    HW120783   4.294   6.237   3.742
 6628SOL    HW220784   4.148   6.168   3.715
 6629SOL     OW20785   2.849   4.009   0.308
 6629SOL    HW120786   2.794   3.966   0.237
 6629SOL    HW220787   2.915   4.071   0.267
 6630SOL     OW20788   3.858   0.853   6.160
 6630SOL    HW120789   3.824   0.945   6.142
 6630SOL    HW220790   3.826   0.822   6.249
 6631SOL     OW20791   3.524   0.101   1.198
 6631SOL    HW120792   3.460   0.042   1.248
 6631SOL    HW220793   3.615   0.061   1.201
 6632SOL     OW20794   5.885   3.445   2.128
 6632SOL    HW120795   5.838   3.361   2.157
 6632SOL    HW220796   5.979   3.445   2.162
 6633SOL     OW20797   0.912   6.309   2.816
 6633SOL    HW120798   0.881   6.280   2.725
 6633SOL    HW220799   0.833   6.321   2.876
 6634SOL     OW20800   6.561   1.805   5.932
 6634SOL    HW120801   6.660   1.794   5.940
 6634SOL    HW220802   6.517   1.780   6.018
 6635SOL     OW20803   4.652   5.149   3.691
 6635SOL    HW120804   4.596   5.231   3.680
 6635SOL    HW220805   4.641   5.090   3.611
 6636SOL     OW20806   1.569   3.297   2.942
 6636SOL    HW120807   1.601   3.269   2.851
 6636SOL    HW220808   1.487   3.245   2.965
 6637SOL     OW20809   6.814   2.970   0.979
 6637SOL    HW120810   6.737   2.962   1.042
 6637SOL    HW220811   6.784   2.948   0.887
 6638SOL     OW20812   1.812   0.897   6.726
 6638SOL    HW120813   1.762   0.907   6.640
 6638SOL    HW220814   1.879   0.970   6.734
 6639SOL     OW20815   3.983   5.118   6.194
 6639SOL    HW120816   3.975   5.107   6.293
 6639SOL    HW220817   3.998   5.028   6.152
 6640SOL     OW20818   5.974   4.200   2.993
 6640SOL    HW120819   5.936   4.148   3.070
 6640SOL    HW220820   6.072   4.214   3.007
 6641SOL     OW20821   2.312   5.597   6.540
 6641SOL    HW120822   2.346   5.581   6.448
 6641SOL    HW220823   2.288   5.509   6.583
 6642SOL     OW20824   6.776   6.362   5.847
 6642SOL    HW120825   6.848   6.337   5.782
 6642SOL    HW220826   6.775   6.296   5.923
 6643SOL     OW20827   4.303   5.407   0.373
 6643SOL    HW120828   4.303   5.501   0.339
 6643SOL    HW220829   4.208   5.377   0.388
 6644SOL     OW20830   0.953   3.595   1.730
 6644SOL    HW120831   1.006   3.673   1.763
 6644SOL    HW220832   1.001   3.510   1.752
 6645SOL     OW20833   0.181   4.468   5.490
 6645SOL    HW120834   0.125   4.386   5.495
 6645SOL    HW220835   0.200   4.502   5.582
 6646SOL     OW20836   1.865   5.192   3.752
 6646SOL    HW120837   1.886   5.118   3.815
 6646SOL    HW220838   1.794   5.250   3.791
 6647SOL     OW20839   4.575   1.699   1.752
 6647SOL    HW120840   4.522   1.614   1.760
 6647SOL    HW220841   4.666   1.685   1.793
 6648SOL     OW20842   3.950   5.781   2.381
 6648SOL    HW120843   3.960   5.842   2.302
 6648SOL    HW220844   3.912   5.694   2.351
 6649SOL     OW20845   4.384   1.418   5.421
 6649SOL    HW120846   4.352   1.507   5.388
 6649SOL    HW220847   4.452   1.382   5.357
 6650SOL     OW20848   3.719   1.394   4.197
 6650SOL    HW120849   3.813   1.416   4.226
 6650SOL    HW220850   3.693   1.454   4.122
 6651SOL     OW20851   0.513   1.493   0.664
 6651SOL    HW120852   0.600   1.536   0.692
 6651SOL    HW220853   0.525   1.394   0.662
 6652SOL     OW20854   1.089   4.973   3.349
 6652SOL    HW120855   1.045   4.983   3.260
 6652SOL    HW220856   1.188   4.969   3.337
 6653SOL     OW20857   3.855   3.969   3.419
 6653SOL    HW120858   3.787   3.959   3.492
 6653SOL    HW220859   3.936   4.013   3.456
 6654SOL     OW20860   1.802   3.739   1.515
 6654SOL    HW120861   1.833   3.689   1.434
 6654SOL    HW220862   1.758   3.676   1.579
 6655SOL     OW20863   1.293   1.129   0.025
 6655SOL    HW120864   1.353   1.057   0.059
 6655SOL    HW220865   1.346   1.190   6.990
 6656SOL     OW20866   6.426   2.615   1.737
 6656SOL    HW120867   6.409   2.635   1.641
 6656SOL    HW220868   6.341   2.625   1.789
 6657SOL     OW20869   3.333   4.915   5.554
 6657SOL    HW120870   3.427   4.884   5.563
 6657SOL    HW220871   3.275   4.839   5.524
 6658SOL     OW20872   6.653   0.254   5.951
 6658SOL    HW120873   6.651   0.337   5.895
 6658SOL    HW220874   6.579   0.193   5.921
 6659SOL     OW20875   1.911   3.130   6.899
 6659SOL    HW120876   1.850   3.052   6.885
 6659SOL    HW220877   1.998   3.114   6.853
 6660SOL     OW20878   0.123   6.660   2.983
 6660SOL    HW120879   0.064   6.614   3.049
 6660SOL    HW220880   0.070   6.725   2.929
 6661SOL     OW20881   6.844   0.054   4.432
 6661SOL    HW120882   6.923   0.047   4.372
 6661SOL    HW220883   6.869   0.023   4.524
 6662SOL     OW20884   0.813   3.749   6.245
 6662SOL    HW120885   0.795   3.770   6.149
 6662SOL    HW220886   0.740   3.788   6.302
 6663SOL     OW20887   0.344   5.105   1.858
 6663SOL    HW120888   0.414   5.174   1.878
 6663SOL    HW220889   0.284   5.096   1.937
 6664SOL     OW20890   6.698   2.249   2.043
 6664SOL    HW120891   6.656   2.337   2.065
 6664SOL    HW220892   6.792   2.248   2.077
 6665SOL     OW20893   2.013   6.337   3.362
 6665SOL    HW120894   2.069   6.398   3.417
 6665SOL    HW220895   1.916   6.353   3.380
 6666SOL     OW20896   5.303   0.958   0.200
 6666SOL    HW120897   5.331   0.931   0.292
 6666SOL    HW220898   5.359   1.036   0.170
 6667SOL     OW20899   5.792   4.959   5.230
 6667SOL    HW120900   5.839   5.012   5.301
 6667SOL    HW220901   5.704   5.002   5.209
 6668SOL     OW20902   6.332   5.929   1.170
 6668SOL    HW120903   6.248   5.981   1.149
 6668SOL    HW220904   6.394   5.935   1.092
 6669SOL     OW20905   0.870   5.188   3.064
 6669SOL    HW120906   0.920   5.274   3.068
 6669SOL    HW220907   0.934   5.112   3.054
 6670SOL     OW20908   4.914   4.874   6.859
 6670SOL    HW120909   4.928   4.865   6.761
 6670SOL    HW220910   4.996   4.912   6.901
 6671SOL     OW20911   0.426   2.552   5.273
 6671SOL    HW120912   0.406   2.472   5.330
 6671SOL    HW220913   0.525   2.565   5.267
 6672SOL     OW20914   6.892   0.832   5.021
 6672SOL    HW120915   6.839   0.915   5.005
 6672SOL    HW220916   6.890   0.809   5.118
 6673SOL     OW20917   4.069   6.109   1.854
 6673SOL    HW120918   4.144   6.047   1.876
 6673SOL    HW220919   3.997   6.059   1.808
 6674SOL     OW20920   0.782   6.231   4.930
 6674SOL    HW120921   0.820   6.319   4.903
 6674SOL    HW220922   0.844   6.158   4.901
 6675SOL     OW20923   6.602   6.190   6.263
 6675SOL    HW120924   6.605   6.189   6.363
 6675SOL    HW220925   6.508   6.186   6.232
 6676SOL     OW20926   0.251   1.505   0.675
 6676SOL    HW120927   0.211   1.522   0.586
 6676SOL    HW220928   0.350   1.494   0.666
 6677SOL     OW20929   0.291   4.973   0.596
 6677SOL    HW120930   0.376   5.026   0.596
 6677SOL    HW220931   0.276   4.936   0.504
 6678SOL     OW20932   0.495   3.299   4.059
 6678SOL    HW120933   0.439   3.380   4.044
 6678SOL    HW220934   0.585   3.326   4.092
 6679SOL     OW20935   2.451   1.337   4.830
 6679SOL    HW120936   2.416   1.337   4.736
 6679SOL    HW220937   2.470   1.243   4.859
 6680SOL     OW20938   2.751   0.517   6.341
 6680SOL    HW120939   2.782   0.482   6.429
 6680SOL    HW220940   2.829   0.524   6.279
 6681SOL     OW20941   5.613   5.654   6.008
 6681SOL    HW120942   5.521   5.659   6.046
 6681SOL    HW220943   5.625   5.726   5.939
 6682SOL     OW20944   6.365   5.200   2.321
 6682SOL    HW120945   6.316   5.275   2.367
 6682SOL    HW220946   6.338   5.113   2.362
 6683SOL     OW20947   4.985   3.098   4.024
 6683SOL    HW120948   4.955   3.043   3.946
 6683SOL    HW220949   5.018   3.187   3.991
 6684SOL     OW20950   1.785   1.060   2.261
 6684SOL    HW120951   1.820   1.151   2.283
 6684SOL    HW220952   1.728   1.065   2.179
 6685SOL     OW20953   5.634   2.935   6.918
 6685SOL    HW120954   5.661   2.839   6.920
 6685SOL    HW220955   5.664   2.977   6.832
 6686SOL     OW20956   5.157   4.716   3.894
 6686SOL    HW120957   5.089   4.722   3.821
 6686SOL    HW220958   5.123   4.767   3.974
 6687SOL     OW20959   0.690   0.448   0.453
 6687SOL    HW120960   0.669   0.352   0.468
 6687SOL    HW220961   0.754   0.457   0.377
 6688SOL     OW20962   0.790   5.093   2.802
 6688SOL    HW120963   0.822   5.138   2.885
 6688SOL    HW220964   0.827   5.000   2.798
 6689SOL     OW20965   5.327   4.223   0.213
 6689SOL    HW120966   5.322   4.180   0.123
 6689SOL    HW220967   5.370   4.313   0.205
 6690SOL     OW20968   0.524   1.237   0.594
 6690SOL    HW120969   0.429   1.205   0.599
 6690SOL    HW220970   0.545   1.267   0.501
 6691SOL     OW20971   1.174   5.371   1.078
 6691SOL    HW120972   1.133   5.455   1.044
 6691SOL    HW220973   1.158   5.362   1.176
 6692SOL     OW20974   4.630   3.637   6.622
 6692SOL    HW120975   4.601   3.591   6.539
 6692SOL    HW220976   4.669   3.570   6.686
 6693SOL     OW20977   4.320   3.496   6.261
 6693SOL    HW120978   4.345   3.586   6.227
 6693SOL    HW220979   4.397   3.434   6.250
 6694SOL     OW20980   3.160   5.931   6.743
 6694SOL    HW120981   3.206   6.018   6.724
 6694SOL    HW220982   3.130   5.890   6.656
 6695SOL     OW20983   1.410   1.379   0.190
 6695SOL    HW120984   1.456   1.412   0.108
 6695SOL    HW220985   1.328   1.433   0.207
 6696SOL     OW20986   1.411   2.122   1.131
 6696SOL    HW120987   1.342   2.067   1.179
 6696SOL    HW220988   1.493   2.130   1.187
 6697SOL     OW20989   5.215   3.392   4.443
 6697SOL    HW120990   5.284   3.352   4.503
 6697SOL    HW220991   5.218   3.491   4.449
 6698SOL     OW20992   2.945   4.205   6.530
 6698SOL    HW120993   2.930   4.120   6.581
 6698SOL    HW220994   3.038   4.237   6.545
 6699SOL     OW20995   1.968   3.500   6.819
 6699SOL    HW120996   1.943   3.469   6.727
 6699SOL    HW220997   1.886   3.519   6.872
 6700SOL     OW20998   0.417   6.438   6.684
 6700SOL    HW120999   0.457   6.362   6.737
 6700SOL    HW221000   0.322   6.451   6.712
 6701SOL     OW21001   1.574   2.675   0.519
 6701SOL    HW121002   1.642   2.742   0.491
 6701SOL    HW221003   1.541   2.697   0.610
 6702SOL     OW21004   2.566   3.210   1.127
 6702SOL    HW121005   2.661   3.231   1.151
 6702SOL    HW221006   2.548   3.241   1.033
 6703SOL     OW21007   0.140   2.290   0.153
 6703SOL    HW121008   0.174   2.331   0.237
 6703SOL    HW221009   0.141   2.190   0.161
 6704SOL     OW21010   5.131   3.511   2.836
 6704SOL    HW121011   5.043   3.559   2.829
 6704SOL    HW221012   5.180   3.543   2.917
 6705SOL     OW21013   5.365   1.862   1.437
 6705SOL    HW121014   5.303   1.921   1.488
 6705SOL    HW221015   5.313   1.802   1.376
 6706SOL     OW21016   1.619   6.510   0.013
 6706SOL    HW121017   1.583   6.445   0.080
 6706SOL    HW221018   1.708   6.544   0.043
 6707SOL     OW21019   1.632   5.355   3.184
 6707SOL    HW121020   1.628   5.296   3.265
 6707SOL    HW221021   1.545   5.349   3.135
 6708SOL     OW21022   2.184   6.242   1.045
 6708SOL    HW121023   2.098   6.251   1.096
 6708SOL    HW221024   2.260   6.273   1.102
 6709SOL     OW21025   5.263   2.169   3.963
 6709SOL    HW121026   5.275   2.244   3.899
 6709SOL    HW221027   5.290   2.083   3.919
 6710SOL     OW21028   2.453   2.649   0.546
 6710SOL    HW121029   2.417   2.679   0.457
 6710SOL    HW221030   2.407   2.564   0.573
 6711SOL     OW21031   5.727   3.685   6.606
 6711SOL    HW121032   5.755   3.589   6.601
 6711SOL    HW221033   5.634   3.691   6.642
 6712SOL     OW21034   3.254   6.421   1.483
 6712SOL    HW121035   3.349   6.401   1.457
 6712SOL    HW221036   3.195   6.406   1.404
 6713SOL     OW21037   1.229   2.209   3.013
 6713SOL    HW121038   1.148   2.175   2.966
 6713SOL    HW221039   1.201   2.272   3.086
 6714SOL     OW21040   6.428   0.467   4.974
 6714SOL    HW121041   6.414   0.369   4.961
 6714SOL    HW221042   6.429   0.488   5.071
 6715SOL     OW21043   5.342   2.678   0.611
 6715SOL    HW121044   5.287   2.646   0.688
 6715SOL    HW221045   5.290   2.745   0.558
 6716SOL     OW21046   3.496   6.325   0.990
 6716SOL    HW121047   3.581   6.302   1.038
 6716SOL    HW221048   3.433   6.248   0.994
 6717SOL     OW21049   3.935   0.651   6.824
 6717SOL    HW121050   3.868   0.632   6.896
 6717SOL    HW221051   3.900   0.724   6.765
 6718SOL     OW21052   3.939   0.101   6.568
 6718SOL    HW121053   3.879   0.179   6.585
 6718SOL    HW221054   4.032   0.133   6.550
 6719SOL     OW21055   0.623   1.885   5.015
 6719SOL    HW121056   0.684   1.880   4.936
 6719SOL    HW221057   0.675   1.869   5.099
 6720SOL     OW21058   1.190   4.773   1.035
 6720SOL    HW121059   1.289   4.765   1.019
 6720SOL    HW221060   1.172   4.853   1.091
 6721SOL     OW21061   6.205   6.435   3.022
 6721SOL    HW121062   6.130   6.399   2.967
 6721SOL    HW221063   6.286   6.378   3.010
 6722SOL     OW21064   4.059   4.457   0.058
 6722SOL    HW121065   3.988   4.502   0.003
 6722SOL    HW221066   4.107   4.389   0.002
 6723SOL     OW21067   3.767   1.447   2.726
 6723SOL    HW121068   3.694   1.506   2.760
 6723SOL    HW221069   3.811   1.400   2.803
 6724SOL     OW21070   3.435   4.466   5.892
 6724SOL    HW121071   3.347   4.462   5.940
 6724SOL    HW221072   3.481   4.551   5.915
 6725SOL     OW21073   1.037   5.860   1.410
 6725SOL    HW121074   0.937   5.863   1.405
 6725SOL    HW221075   1.076   5.903   1.329
 6726SOL     OW21076   2.377   2.602   2.051
 6726SOL    HW121077   2.421   2.519   2.084
 6726SOL    HW221078   2.431   2.641   1.977
 6727SOL     OW21079   2.661   3.858   0.736
 6727SOL    HW121080   2.682   3.953   0.711
 6727SOL    HW221081   2.567   3.853   0.770
 6728SOL     OW21082   4.497   1.384   4.085
 6728SOL    HW121083   4.438   1.451   4.130
 6728SOL    HW221084   4.463   1.368   3.992
 6729SOL     OW21085   4.543   5.925   4.103
 6729SOL    HW121086   4.581   6.007   4.060
 6729SOL    HW221087   4.510   5.862   4.033
 6730SOL     OW21088   1.293   6.811   2.628
 6730SOL    HW121089   1.349   6.885   2.589
 6730SOL    HW221090   1.233   6.849   2.699
 6731SOL     OW21091   1.694   3.543   1.708
 6731SOL    HW121092   1.604   3.550   1.753
 6731SOL    HW221093   1.765   3.571   1.772
 6732SOL     OW21094   3.342   5.998   0.702
 6732SOL    HW121095   3.402   5.966   0.776
 6732SOL    HW221096   3.275   5.927   0.681
 6733SOL     OW21097   6.297   6.006   4.184
 6733SOL    HW121098   6.261   5.933   4.126
 6733SOL    HW221099   6.243   6.089   4.170
 6734SOL     OW21100   2.563   3.642   6.721
 6734SOL    HW121101   2.516   3.655   6.808
 6734SOL    HW221102   2.546   3.550   6.687
 6735SOL     OW21103   0.573   6.636   5.956
 6735SOL    HW121104   0.639   6.710   5.965
 6735SOL    HW221105   0.617   6.556   5.916
 6736SOL     OW21106   1.967   4.372   2.086
 6736SOL    HW121107   1.900   4.346   2.017
 6736SOL    HW221108   1.931   4.450   2.139
 6737SOL     OW21109   1.485   6.661   1.219
 6737SOL    HW121110   1.571   6.638   1.265
 6737SOL    HW221111   1.446   6.743   1.260
 6738SOL     OW21112   5.201   1.636   1.058
 6738SOL    HW121113   5.173   1.669   0.967
 6738SOL    HW221114   5.223   1.715   1.116
 6739SOL     OW21115   3.564   6.498   5.570
 6739SOL    HW121116   3.634   6.426   5.569
 6739SOL    HW221117   3.474   6.456   5.586
 6740SOL     OW21118   5.720   2.435   6.071
 6740SOL    HW121119   5.669   2.495   6.133
 6740SOL    HW221120   5.778   2.373   6.125
 6741SOL     OW21121   0.583   0.505   5.608
 6741SOL    HW121122   0.608   0.600   5.623
 6741SOL    HW221123   0.593   0.454   5.693
 6742SOL     OW21124   6.326   5.816   4.663
 6742SOL    HW121125   6.365   5.724   4.671
 6742SOL    HW221126   6.299   5.833   4.569
 6743SOL     OW21127   5.793   2.276   1.316
 6743SOL    HW121128   5.872   2.226   1.280
 6743SOL    HW221129   5.725   2.286   1.244
 6744SOL     OW21130   4.415   0.848   4.221
 6744SOL    HW121131   4.371   0.874   4.135
 6744SOL    HW221132   4.400   0.750   4.237
 6745SOL     OW21133   0.978   3.834   2.939
 6745SOL    HW121134   0.991   3.754   2.997
 6745SOL    HW221135   0.954   3.913   2.995
 6746SOL     OW21136   6.303   1.007   0.399
 6746SOL    HW121137   6.235   0.956   0.347
 6746SOL    HW221138   6.257   1.070   0.461
 6747SOL     OW21139   5.074   5.274   6.434
 6747SOL    HW121140   5.003   5.284   6.504
 6747SOL    HW221141   5.073   5.180   6.399
 6748SOL     OW21142   6.724   6.222   2.517
 6748SOL    HW121143   6.723   6.288   2.442
 6748SOL    HW221144   6.814   6.179   2.523
 6749SOL     OW21145   2.802   5.231   1.077
 6749SOL    HW121146   2.861   5.184   1.011
 6749SOL    HW221147   2.786   5.325   1.047
 6750SOL     OW21148   2.529   3.126   5.449
 6750SOL    HW121149   2.456   3.193   5.456
 6750SOL    HW221150   2.536   3.095   5.354
 6751SOL     OW21151   4.321   2.685   5.586
 6751SOL    HW121152   4.342   2.587   5.593
 6751SOL    HW221153   4.382   2.736   5.646
 6752SOL     OW21154   6.552   1.152   6.897
 6752SOL    HW121155   6.568   1.250   6.889
 6752SOL    HW221156   6.487   1.135   6.971
 6753SOL     OW21157   6.195   0.709   6.630
 6753SOL    HW121158   6.210   0.721   6.728
 6753SOL    HW221159   6.282   0.714   6.581
 6754SOL     OW21160   4.431   1.366   6.949
 6754SOL    HW121161   4.467   1.390   0.015
 6754SOL    HW221162   4.360   1.431   6.923
 6755SOL     OW21163   5.223   1.809   3.139
 6755SOL    HW121164   5.293   1.743   3.113
 6755SOL    HW221165   5.193   1.791   3.233
 6756SOL     OW21166   4.611   4.979   3.490
 6756SOL    HW121167   4.618   4.890   3.445
 6756SOL    HW221168   4.627   5.051   3.422
 6757SOL     OW21169   6.397   4.115   1.218
 6757SOL    HW121170   6.375   4.208   1.245
 6757SOL    HW221171   6.401   4.109   1.118
 6758SOL     OW21172   6.783   2.314   2.390
 6758SOL    HW121173   6.810   2.289   2.483
 6758SOL    HW221174   6.719   2.246   2.355
 6759SOL     OW21175   0.472   5.341   3.775
 6759SOL    HW121176   0.509   5.286   3.700
 6759SOL    HW221177   0.409   5.285   3.829
 6760SOL     OW21178   0.602   3.437   4.765
 6760SOL    HW121179   0.586   3.472   4.857
 6760SOL    HW221180   0.556   3.495   4.699
 6761SOL     OW21181   6.304   2.906   6.820
 6761SOL    HW121182   6.234   2.857   6.872
 6761SOL    HW221183   6.341   2.979   6.877
 6762SOL     OW21184   7.003   2.574   4.367
 6762SOL    HW121185   0.050   2.514   4.332
 6762SOL    HW221186   6.929   2.580   4.300
 6763SOL     OW21187   5.972   6.138   5.606
 6763SOL    HW121188   6.052   6.195   5.586
 6763SOL    HW221189   5.985   6.047   5.566
 6764SOL     OW21190   1.812   3.529   0.095
 6764SOL    HW121191   1.900   3.575   0.088
 6764SOL    HW221192   1.823   3.444   0.147
 6765SOL     OW21193   4.508   5.163   1.954
 6765SOL    HW121194   4.552   5.073   1.958
 6765SOL    HW221195   4.415   5.156   1.989
 6766SOL     OW21196   3.038   2.523   5.420
 6766SOL    HW121197   3.108   2.502   5.351
 6766SOL    HW221198   2.947   2.507   5.381
 6767SOL     OW21199   0.444   3.054   5.463
 6767SOL    HW121200   0.538   3.051   5.429
 6767SOL    HW221201   0.393   2.976   5.426
 6768SOL     OW21202   0.111   0.915   6.114
 6768SOL    HW121203   0.124   0.923   6.015
 6768SOL    HW221204   0.089   1.004   6.152
 6769SOL     OW21205   0.842   2.171   6.166
 6769SOL    HW121206   0.758   2.149   6.116
 6769SOL    HW221207   0.847   2.115   6.249
 6770SOL     OW21208   0.556   1.541   3.588
 6770SOL    HW121209   0.542   1.541   3.687
 6770SOL    HW221210   0.470   1.520   3.542
 6771SOL     OW21211   5.278   2.425   2.461
 6771SOL    HW121212   5.219   2.490   2.414
 6771SOL    HW221213   5.280   2.339   2.408
 6772SOL     OW21214   1.106   0.077   1.774
 6772SOL    HW121215   1.083   7.012   1.810
 6772SOL    HW221216   1.199   0.074   1.735
 6773SOL     OW21217   1.846   1.126   3.282
 6773SOL    HW121218   1.830   1.041   3.231
 6773SOL    HW221219   1.763   1.181   3.282
 6774SOL     OW21220   4.198   1.257   5.529
 6774SOL    HW121221   4.216   1.213   5.617
 6774SOL    HW221222   4.276   1.313   5.502
 6775SOL     OW21223   1.697   2.683   4.870
 6775SOL    HW121224   1.638   2.763   4.859
 6775SOL    HW221225   1.778   2.709   4.922
 6776SOL     OW21226   3.513   3.642   3.729
 6776SOL    HW121227   3.429   3.687   3.757
 6776SOL    HW221228   3.525   3.651   3.631
 6777SOL     OW21229   0.188   0.440   5.555
 6777SOL    HW121230   0.264   0.418   5.494
 6777SOL    HW221231   0.114   0.375   5.540
 6778SOL     OW21232   6.139   6.117   1.872
 6778SOL    HW121233   6.219   6.174   1.851
 6778SOL    HW221234   6.170   6.025   1.897
 6779SOL     OW21235   5.984   3.596   5.867
 6779SOL    HW121236   5.886   3.579   5.866
 6779SOL    HW221237   6.020   3.591   5.774
 6780SOL     OW21238   4.888   0.656   2.258
 6780SOL    HW121239   4.796   0.666   2.219
 6780SOL    HW221240   4.956   0.659   2.184
 6781SOL     OW21241   5.868   4.024   3.198
 6781SOL    HW121242   5.914   4.041   3.285
 6781SOL    HW221243   5.867   3.926   3.178
 6782SOL     OW21244   0.040   2.077   2.837
 6782SOL    HW121245   0.113   2.064   2.770
 6782SOL    HW221246   0.011   1.987   2.872
 6783SOL     OW21247   0.831   6.247   6.829
 6783SOL    HW121248   0.832   6.341   6.796
 6783SOL    HW221249   0.889   6.239   6.910
 6784SOL     OW21250   1.662   4.746   6.794
 6784SOL    HW121251   1.736   4.803   6.830
 6784SOL    HW221252   1.576   4.798   6.796
 6785SOL     OW21253   5.412   4.584   2.002
 6785SOL    HW121254   5.357   4.668   2.000
 6785SOL    HW221255   5.452   4.568   1.912
 6786SOL     OW21256   6.363   1.200   6.390
 6786SOL    HW121257   6.337   1.121   6.446
 6786SOL    HW221258   6.282   1.234   6.342
 6787SOL     OW21259   4.402   2.712   1.301
 6787SOL    HW121260   4.486   2.673   1.339
 6787SOL    HW221261   4.323   2.666   1.341
 6788SOL     OW21262   1.470   4.358   0.925
 6788SOL    HW121263   1.388   4.409   0.950
 6788SOL    HW221264   1.460   4.324   0.831
 6789SOL     OW21265   6.242   2.697   2.807
 6789SOL    HW121266   6.212   2.681   2.713
 6789SOL    HW221267   6.182   2.648   2.870
 6790SOL     OW21268   0.627   5.818   0.230
 6790SOL    HW121269   0.698   5.873   0.187
 6790SOL    HW221270   0.609   5.736   0.175
 6791SOL     OW21271   2.026   6.029   4.105
 6791SOL    HW121272   2.011   6.052   4.009
 6791SOL    HW221273   2.062   5.936   4.112
 6792SOL     OW21274   3.330   5.445   0.350
 6792SOL    HW121275   3.241   5.401   0.342
 6792SOL    HW221276   3.372   5.421   0.437
 6793SOL     OW21277   1.626   3.580   6.500
 6793SOL    HW121278   1.530   3.599   6.522
 6793SOL    HW221279   1.660   3.649   6.436
 6794SOL     OW21280   4.708   2.477   4.699
 6794SOL    HW121281   4.705   2.460   4.601
 6794SOL    HW221282   4.727   2.392   4.748
 6795SOL     OW21283   0.844   0.344   2.495
 6795SOL    HW121284   0.795   0.336   2.408
 6795SOL    HW221285   0.933   0.386   2.480
 6796SOL     OW21286   6.623   2.513   2.139
 6796SOL    HW121287   6.541   2.485   2.088
 6796SOL    HW221288   6.596   2.552   2.227
 6797SOL     OW21289   1.499   3.702   0.618
 6797SOL    HW121290   1.524   3.624   0.674
 6797SOL    HW221291   1.581   3.755   0.595
 6798SOL     OW21292   5.076   2.125   1.766
 6798SOL    HW121293   5.003   2.192   1.782
 6798SOL    HW221294   5.158   2.153   1.816
 6799SOL     OW21295   4.690   0.161   2.448
 6799SOL    HW121296   4.782   0.184   2.416
 6799SOL    HW221297   4.644   0.105   2.379
 6800SOL     OW21298   6.513   2.599   2.365
 6800SOL    HW121299   6.452   2.522   2.378
 6800SOL    HW221300   6.556   2.623   2.452
 6801SOL     OW21301   2.058   5.188   5.224
 6801SOL    HW121302   1.989   5.247   5.181
 6801SOL    HW221303   2.019   5.147   5.307
 6802SOL     OW21304   2.612   4.270   1.752
 6802SOL    HW121305   2.517   4.240   1.759
 6802SOL    HW221306   2.667   4.198   1.709
 6803SOL     OW21307   6.406   5.465   6.100
 6803SOL    HW121308   6.355   5.521   6.166
 6803SOL    HW221309   6.357   5.379   6.087
 6804SOL     OW21310   3.399   5.671   1.721
 6804SOL    HW121311   3.301   5.675   1.703
 6804SOL    HW221312   3.416   5.683   1.819
 6805SOL     OW21313   0.712   4.196   4.082
 6805SOL    HW121314   0.613   4.208   4.075
 6805SOL    HW221315   0.747   4.251   4.158
 6806SOL     OW21316   6.281   3.999   2.026
 6806SOL    HW121317   6.282   3.914   1.973
 6806SOL    HW221318   6.307   3.980   2.120
 6807SOL     OW21319   4.047   3.750   2.791
 6807SOL    HW121320   3.969   3.801   2.755
 6807SOL    HW221321   4.064   3.670   2.734
 6808SOL     OW21322   2.835   6.548   4.098
 6808SOL    HW121323   2.782   6.563   4.182
 6808SOL    HW221324   2.845   6.449   4.083
 6809SOL     OW21325   6.107   2.790   0.800
 6809SOL    HW121326   6.130   2.846   0.721
 6809SOL    HW221327   6.046   2.715   0.771
 6810SOL     OW21328   3.106   0.257   4.614
 6810SOL    HW121329   3.179   0.191   4.601
 6810SOL    HW221330   3.142   0.340   4.655
 6811SOL     OW21331   6.485   2.161   1.410
 6811SOL    HW121332   6.467   2.074   1.456
 6811SOL    HW221333   6.557   2.149   1.342
 6812SOL     OW21334   3.406   4.664   5.325
 6812SOL    HW121335   3.310   4.663   5.299
 6812SOL    HW221336   3.446   4.753   5.302
 6813SOL     OW21337   0.303   3.779   1.806
 6813SOL    HW121338   0.380   3.800   1.866
 6813SOL    HW221339   0.279   3.682   1.815
 6814SOL     OW21340   4.590   2.385   1.621
 6814SOL    HW121341   4.564   2.289   1.622
 6814SOL    HW221342   4.535   2.435   1.689
 6815SOL     OW21343   1.780   6.280   0.777
 6815SOL    HW121344   1.785   6.377   0.801
 6815SOL    HW221345   1.746   6.229   0.855
 6816SOL     OW21346   5.572   0.120   3.322
 6816SOL    HW121347   5.611   0.175   3.395
 6816SOL    HW221348   5.641   0.105   3.251
 6817SOL     OW21349   5.887   0.947   1.115
 6817SOL    HW121350   5.794   0.942   1.079
 6817SOL    HW221351   5.884   0.943   1.215
 6818SOL     OW21352   6.929   0.310   5.497
 6818SOL    HW121353   6.996   0.272   5.433
 6818SOL    HW221354   6.841   0.319   5.451
 6819SOL     OW21355   5.986   3.516   0.684
 6819SOL    HW121356   6.074   3.504   0.639
 6819SOL    HW221357   5.997   3.576   0.763
 6820SOL     OW21358   2.218   4.417   1.039
 6820SOL    HW121359   2.209   4.512   1.008
 6820SOL    HW221360   2.307   4.381   1.012
 6821SOL     OW21361   2.457   3.164   5.905
 6821SOL    HW121362   2.503   3.228   5.967
 6821SOL    HW221363   2.518   3.141   5.829
 6822SOL     OW21364   0.296   4.520   4.793
 6822SOL    HW121365   0.216   4.496   4.849
 6822SOL    HW221366   0.351   4.438   4.777
 6823SOL     OW21367   0.081   3.609   5.602
 6823SOL    HW121368   7.021   3.557   5.599
 6823SOL    HW221369   0.152   3.553   5.645
 6824SOL     OW21370   0.639   0.534   4.235
 6824SOL    HW121371   0.654   0.492   4.325
 6824SOL    HW221372   0.551   0.504   4.198
 6825SOL     OW21373   5.010   5.086   1.383
 6825SOL    HW121374   4.966   5.168   1.419
 6825SOL    HW221375   4.974   5.066   1.292
 6826SOL     OW21376   5.705   0.587   4.374
 6826SOL    HW121377   5.638   0.548   4.311
 6826SOL    HW221378   5.657   0.632   4.450
 6827SOL     OW21379   5.091   5.066   5.508
 6827SOL    HW121380   5.148   5.011   5.569
 6827SOL    HW221381   5.076   5.156   5.549
 6828SOL     OW21382   2.519   2.022   2.665
 6828SOL    HW121383   2.463   1.945   2.636
 6828SOL    HW221384   2.589   1.990   2.728
 6829SOL     OW21385   5.772   7.010   4.712
 6829SOL    HW121386   5.702   6.994   4.642
 6829SOL    HW221387   5.748   0.066   4.766
 6830SOL     OW21388   3.540   6.571   2.423
 6830SOL    HW121389   3.476   6.632   2.470
 6830SOL    HW221390   3.524   6.477   2.453
 6831SOL     OW21391   2.112   0.273   0.287
 6831SOL    HW121392   2.084   0.191   0.338
 6831SOL    HW221393   2.113   0.252   0.189
 6832SOL     OW21394   3.590   3.787   0.529
 6832SOL    HW121395   3.515   3.851   0.542
 6832SOL    HW221396   3.556   3.693   0.537
 6833SOL     OW21397   4.370   5.290   0.123
 6833SOL    HW121398   4.328   5.206   0.087
 6833SOL    HW221399   4.336   5.308   0.214
 6834SOL     OW21400   6.530   5.591   5.034
 6834SOL    HW121401   6.561   5.550   4.948
 6834SOL    HW221402   6.591   5.562   5.108
 6835SOL     OW21403   4.165   0.603   2.745
 6835SOL    HW121404   4.097   0.632   2.678
 6835SOL    HW221405   4.246   0.569   2.697
 6836SOL     OW21406   1.026   4.587   6.454
 6836SOL    HW121407   1.010   4.541   6.542
 6836SOL    HW221408   1.072   4.674   6.470
 6837SOL     OW21409   6.254   2.294   1.786
 6837SOL    HW121410   6.212   2.206   1.762
 6837SOL    HW221411   6.300   2.332   1.705
 6838SOL     OW21412   2.105   4.413   0.032
 6838SOL    HW121413   2.108   4.360   0.117
 6838SOL    HW221414   2.032   4.377   6.999
 6839SOL     OW21415   6.308   2.180   5.374
 6839SOL    HW121416   6.257   2.242   5.315
 6839SOL    HW221417   6.406   2.199   5.366
 6840SOL     OW21418   3.128   0.457   4.309
 6840SOL    HW121419   3.175   0.445   4.221
 6840SOL    HW221420   3.030   0.463   4.293
 6841SOL     OW21421   4.493   5.683   0.576
 6841SOL    HW121422   4.439   5.694   0.660
 6841SOL    HW221423   4.511   5.586   0.560
 6842SOL     OW21424   0.462   3.433   3.507
 6842SOL    HW121425   0.451   3.346   3.460
 6842SOL    HW221426   0.374   3.460   3.546
 6843SOL     OW21427   4.400   3.154   1.716
 6843SOL    HW121428   4.474   3.116   1.773
 6843SOL    HW221429   4.340   3.080   1.686
 6844SOL     OW21430   3.126   6.606   4.207
 6844SOL    HW121431   3.050   6.666   4.230
 6844SOL    HW221432   3.101   6.511   4.227
 6845SOL     OW21433   3.451   4.030   0.123
 6845SOL    HW121434   3.449   3.930   0.123
 6845SOL    HW221435   3.512   4.062   0.195
 6846SOL     OW21436   3.849   3.040   3.863
 6846SOL    HW121437   3.764   3.073   3.822
 6846SOL    HW221438   3.828   2.964   3.925
 6847SOL     OW21439   5.332   3.957   1.413
 6847SOL    HW121440   5.429   3.973   1.394
 6847SOL    HW221441   5.277   4.012   1.350
 6848SOL     OW21442   0.860   6.319   4.509
 6848SOL    HW121443   0.953   6.293   4.482
 6848SOL    HW221444   0.794   6.274   4.448
 6849SOL     OW21445   2.569   0.385   4.511
 6849SOL    HW121446   2.649   0.444   4.521
 6849SOL    HW221447   2.565   0.320   4.587
 6850SOL     OW21448   6.627   2.975   1.866
 6850SOL    HW121449   6.565   3.051   1.885
 6850SOL    HW221450   6.581   2.888   1.889
 6851SOL     OW21451   1.764   5.498   0.699
 6851SOL    HW121452   1.696   5.555   0.653
 6851SOL    HW221453   1.851   5.501   0.650
 6852SOL     OW21454   4.945   4.689   2.593
 6852SOL    HW121455   4.864   4.632   2.606
 6852SOL    HW221456   5.028   4.632   2.601
 6853SOL     OW21457   5.876   4.327   4.639
 6853SOL    HW121458   5.963   4.358   4.678
 6853SOL    HW221459   5.885   4.320   4.540
 6854SOL     OW21460   6.072   1.143   6.672
 6854SOL    HW121461   5.993   1.143   6.612
 6854SOL    HW221462   6.150   1.101   6.626
 6855SOL     OW21463   2.537   6.845   2.261
 6855SOL    HW121464   2.547   6.790   2.344
 6855SOL    HW221465   2.468   6.803   2.202
 6856SOL     OW21466   0.827   5.431   5.578
 6856SOL    HW121467   0.759   5.380   5.525
 6856SOL    HW221468   0.867   5.503   5.520
 6857SOL     OW21469   4.405   0.856   6.867
 6857SOL    HW121470   4.366   0.940   6.904
 6857SOL    HW221471   4.347   0.823   6.793
 6858SOL     OW21472   3.322   2.993   6.446
 6858SOL    HW121473   3.336   3.075   6.390
 6858SOL    HW221474   3.262   2.930   6.397
 6859SOL     OW21475   4.490   6.984   1.527
 6859SOL    HW121476   4.449   6.937   1.605
 6859SOL    HW221477   4.443   6.958   1.443
 6860SOL     OW21478   4.611   3.105   6.810
 6860SOL    HW121479   4.638   3.008   6.811
 6860SOL    HW221480   4.637   3.147   6.897
 6861SOL     OW21481   6.507   3.841   0.298
 6861SOL    HW121482   6.465   3.755   0.268
 6861SOL    HW221483   6.596   3.821   0.339
 6862SOL     OW21484   2.537   4.597   4.573
 6862SOL    HW121485   2.484   4.521   4.535
 6862SOL    HW221486   2.482   4.644   4.642
 6863SOL     OW21487   1.243   3.355   3.782
 6863SOL    HW121488   1.262   3.277   3.721
 6863SOL    HW221489   1.147   3.352   3.810
 6864SOL     OW21490   3.131   5.660   6.144
 6864SOL    HW121491   3.207   5.695   6.199
 6864SOL    HW221492   3.164   5.643   6.051
 6865SOL     OW21493   0.883   2.347   5.406
 6865SOL    HW121494   0.919   2.354   5.313
 6865SOL    HW221495   0.889   2.253   5.437
 6866SOL     OW21496   0.420   3.945   2.828
 6866SOL    HW121497   0.425   3.964   2.730
 6866SOL    HW221498   0.374   3.857   2.843
 6867SOL     OW21499   2.814   5.140   3.565
 6867SOL    HW121500   2.770   5.166   3.479
 6867SOL    HW221501   2.744   5.108   3.630
 6868SOL     OW21502   1.674   5.418   4.902
 6868SOL    HW121503   1.591   5.367   4.881
 6868SOL    HW221504   1.652   5.495   4.963
 6869SOL     OW21505   0.273   2.696   4.615
 6869SOL    HW121506   0.248   2.706   4.712
 6869SOL    HW221507   0.198   2.730   4.558
 6870SOL     OW21508   5.484   4.127   2.900
 6870SOL    HW121509   5.415   4.100   2.834
 6870SOL    HW221510   5.575   4.102   2.866
 6871SOL     OW21511   4.280   5.911   1.841
 6871SOL    HW121512   4.262   5.886   1.936
 6871SOL    HW221513   4.369   5.956   1.836
 6872SOL     OW21514   3.256   4.369   0.564
 6872SOL    HW121515   3.272   4.465   0.587
 6872SOL    HW221516   3.288   4.311   0.639
 6873SOL     OW21517   5.552   5.083   5.241
 6873SOL    HW121518   5.460   5.083   5.202
 6873SOL    HW221519   5.548   5.054   5.337
 6874SOL     OW21520   1.239   1.784   6.524
 6874SOL    HW121521   1.169   1.726   6.564
 6874SOL    HW221522   1.197   1.846   6.458
 6875SOL     OW21523   3.691   0.097   4.917
 6875SOL    HW121524   3.668   0.082   4.821
 6875SOL    HW221525   3.790   0.106   4.927
 6876SOL     OW21526   3.089   6.373   4.779
 6876SOL    HW121527   3.159   6.330   4.722
 6876SOL    HW221528   3.036   6.302   4.825
 6877SOL     OW21529   2.073   3.622   0.071
 6877SOL    HW121530   2.113   3.712   0.092
 6877SOL    HW221531   2.094   3.598   7.001
 6878SOL     OW21532   1.837   1.737   5.237
 6878SOL    HW121533   1.877   1.790   5.312
 6878SOL    HW221534   1.839   1.640   5.260
 6879SOL     OW21535   6.032   1.730   5.847
 6879SOL    HW121536   6.053   1.684   5.934
 6879SOL    HW221537   6.101   1.703   5.779
 6880SOL     OW21538   0.888   4.448   4.829
 6880SOL    HW121539   0.937   4.391   4.895
 6880SOL    HW221540   0.811   4.492   4.875
 6881SOL     OW21541   4.796   6.136   1.323
 6881SOL    HW121542   4.799   6.093   1.232
 6881SOL    HW221543   4.874   6.105   1.377
 6882SOL     OW21544   2.619   5.731   5.493
 6882SOL    HW121545   2.534   5.703   5.539
 6882SOL    HW221546   2.662   5.805   5.544
 6883SOL     OW21547   2.824   6.563   2.001
 6883SOL    HW121548   2.750   6.579   2.066
 6883SOL    HW221549   2.912   6.560   2.050
 6884SOL     OW21550   1.698   4.804   3.321
 6884SOL    HW121551   1.668   4.803   3.226
 6884SOL    HW221552   1.766   4.876   3.334
 6885SOL     OW21553   4.201   4.857   4.852
 6885SOL    HW121554   4.206   4.801   4.769
 6885SOL    HW221555   4.272   4.828   4.916
 6886SOL     OW21556   5.318   6.882   0.785
 6886SOL    HW121557   5.303   6.811   0.716
 6886SOL    HW221558   5.382   6.950   0.750
 6887SOL     OW21559   6.391   0.842   4.672
 6887SOL    HW121560   6.435   0.755   4.695
 6887SOL    HW221561   6.386   0.852   4.572
 6888SOL     OW21562   6.500   6.813   3.966
 6888SOL    HW121563   6.561   6.735   3.986
 6888SOL    HW221564   6.555   6.894   3.948
 6889SOL     OW21565   2.003   4.089   6.421
 6889SOL    HW121566   2.018   4.141   6.505
 6889SOL    HW221567   2.076   4.022   6.410
 6890SOL     OW21568   1.406   0.775   1.540
 6890SOL    HW121569   1.347   0.696   1.524
 6890SOL    HW221570   1.381   0.849   1.477
 6891SOL     OW21571   4.666   5.287   5.969
 6891SOL    HW121572   4.681   5.362   6.033
 6891SOL    HW221573   4.737   5.218   5.980
 6892SOL     OW21574   3.325   1.846   4.429
 6892SOL    HW121575   3.288   1.938   4.431
 6892SOL    HW221576   3.422   1.849   4.402
 6893SOL     OW21577   5.105   6.665   1.123
 6893SOL    HW121578   5.058   6.577   1.120
 6893SOL    HW221579   5.053   6.729   1.179
 6894SOL     OW21580   6.354   4.769   5.863
 6894SOL    HW121581   6.333   4.785   5.959
 6894SOL    HW221582   6.369   4.857   5.817
 6895SOL     OW21583   4.985   4.931   5.049
 6895SOL    HW121584   4.939   4.903   4.965
 6895SOL    HW221585   5.083   4.911   5.042
 6896SOL     OW21586   5.393   2.181   2.575
 6896SOL    HW121587   5.466   2.196   2.509
 6896SOL    HW221588   5.329   2.258   2.572
 6897SOL     OW21589   4.048   1.076   1.586
 6897SOL    HW121590   4.071   0.983   1.614
 6897SOL    HW221591   3.968   1.075   1.527
 6898SOL     OW21592   3.685   1.327   2.107
 6898SOL    HW121593   3.707   1.316   2.010
 6898SOL    HW221594   3.744   1.267   2.162
 6899SOL     OW21595   6.061   4.800   5.833
 6899SOL    HW121596   6.013   4.718   5.801
 6899SOL    HW221597   6.159   4.788   5.819
 6900SOL     OW21598   4.096   0.217   6.122
 6900SOL    HW121599   4.037   0.270   6.182
 6900SOL    HW221600   4.112   0.268   6.037
 6901SOL     OW21601   1.663   0.452   0.082
 6901SOL    HW121602   1.609   0.446   0.166
 6901SOL    HW221603   1.605   0.433   0.003
 6902SOL     OW21604   6.453   5.734   2.907
 6902SOL    HW121605   6.535   5.762   2.956
 6902SOL    HW221606   6.466   5.643   2.868
 6903SOL     OW21607   6.261   4.409   6.786
 6903SOL    HW121608   6.312   4.376   6.707
 6903SOL    HW221609   6.169   4.437   6.757
 6904SOL     OW21610   0.622   1.211   2.825
 6904SOL    HW121611   0.689   1.166   2.884
 6904SOL    HW221612   0.573   1.281   2.877
 6905SOL     OW21613   3.778   5.586   1.074
 6905SOL    HW121614   3.772   5.492   1.106
 6905SOL    HW221615   3.687   5.619   1.051
 6906SOL     OW21616   6.216   6.207   2.337
 6906SOL    HW121617   6.136   6.264   2.352
 6906SOL    HW221618   6.289   6.262   2.296
 6907SOL     OW21619   3.514   0.846   1.624
 6907SOL    HW121620   3.424   0.802   1.623
 6907SOL    HW221621   3.585   0.777   1.639
 6908SOL     OW21622   5.319   6.874   0.103
 6908SOL    HW121623   5.288   6.950   0.046
 6908SOL    HW221624   5.370   6.909   0.182
 6909SOL     OW21625   2.565   2.115   6.852
 6909SOL    HW121626   2.597   2.202   6.890
 6909SOL    HW221627   2.644   2.062   6.820
 6910SOL     OW21628   4.786   0.924   1.147
 6910SOL    HW121629   4.749   0.910   1.055
 6910SOL    HW221630   4.714   0.958   1.207
 6911SOL     OW21631   3.683   0.052   4.628
 6911SOL    HW121632   3.752   0.048   4.555
 6911SOL    HW221633   3.668   6.985   4.664
 6912SOL     OW21634   3.884   5.893   1.836
 6912SOL    HW121635   3.954   5.844   1.784
 6912SOL    HW221636   3.796   5.882   1.791
 6913SOL     OW21637   4.296   6.219   5.694
 6913SOL    HW121638   4.256   6.183   5.779
 6913SOL    HW221639   4.396   6.222   5.704
 6914SOL     OW21640   0.387   5.239   0.104
 6914SOL    HW121641   0.377   5.144   0.072
 6914SOL    HW221642   0.408   5.239   0.202
 6915SOL     OW21643   0.848   6.855   0.244
 6915SOL    HW121644   0.833   6.800   0.162
 6915SOL    HW221645   0.943   6.886   0.247
 6916SOL     OW21646   6.245   0.861   5.958
 6916SOL    HW121647   6.152   0.898   5.956
 6916SOL    HW221648   6.306   0.922   5.908
 6917SOL     OW21649   4.154   6.425   5.865
 6917SOL    HW121650   4.142   6.390   5.958
 6917SOL    HW221651   4.252   6.425   5.842
 6918SOL     OW21652   2.108   2.511   3.183
 6918SOL    HW121653   2.191   2.563   3.200
 6918SOL    HW221654   2.086   2.515   3.085
 6919SOL     OW21655   2.045   6.079   3.822
 6919SOL    HW121656   2.121   6.054   3.763
 6919SOL    HW221657   1.962   6.032   3.793
 6920SOL     OW21658   5.644   5.646   4.267
 6920SOL    HW121659   5.592   5.626   4.350
 6920SOL    HW221660   5.658   5.562   4.215
 6921SOL     OW21661   1.980   4.671   2.938
 6921SOL    HW121662   1.986   4.762   2.980
 6921SOL    HW221663   1.896   4.626   2.969
 6922SOL     OW21664   2.157   6.221   1.443
 6922SOL    HW121665   2.231   6.155   1.456
 6922SOL    HW221666   2.085   6.204   1.510
 6923SOL     OW21667   5.259   5.440   4.395
 6923SOL    HW121668   5.162   5.417   4.400
 6923SOL    HW221669   5.314   5.356   4.394
 6924SOL     OW21670   5.527   6.122   2.304
 6924SOL    HW121671   5.494   6.028   2.301
 6924SOL    HW221672   5.590   6.134   2.380
 6925SOL     OW21673   4.378   5.445   2.117
 6925SOL    HW121674   4.458   5.388   2.096
 6925SOL    HW221675   4.388   5.483   2.209
 6926SOL     OW21676   3.013   3.583   5.463
 6926SOL    HW121677   2.993   3.558   5.557
 6926SOL    HW221678   3.037   3.501   5.411
 6927SOL     OW21679   3.987   3.969   0.649
 6927SOL    HW121680   4.013   4.027   0.726
 6927SOL    HW221681   4.057   3.899   0.636
 6928SOL     OW21682   6.785   0.726   6.785
 6928SOL    HW121683   6.839   0.794   6.734
 6928SOL    HW221684   6.724   0.679   6.722
 6929SOL     OW21685   3.125   5.832   1.129
 6929SOL    HW121686   3.125   5.760   1.199
 6929SOL    HW221687   3.145   5.920   1.172
 6930SOL     OW21688   6.931   0.913   3.217
 6930SOL    HW121689   6.852   0.903   3.276
 6930SOL    HW221690   6.926   0.847   3.142
 6931SOL     OW21691   2.725   0.279   0.867
 6931SOL    HW121692   2.797   0.317   0.925
 6931SOL    HW221693   2.709   0.183   0.892
 6932SOL     OW21694   3.140   2.518   0.311
 6932SOL    HW121695   3.178   2.605   0.279
 6932SOL    HW221696   3.155   2.448   0.242
 6933SOL     OW21697   2.604   5.879   5.266
 6933SOL    HW121698   2.611   5.840   5.357
 6933SOL    HW221699   2.661   5.962   5.261
 6934SOL     OW21700   5.582   4.743   6.330
 6934SOL    HW121701   5.523   4.730   6.410
 6934SOL    HW221702   5.678   4.744   6.358
 6935SOL     OW21703   4.277   5.670   3.477
 6935SOL    HW121704   4.273   5.620   3.390
 6935SOL    HW221705   4.371   5.670   3.511
 6936SOL     OW21706   0.808   4.619   0.586
 6936SOL    HW121707   0.730   4.680   0.583
 6936SOL    HW221708   0.799   4.549   0.515
 6937SOL     OW21709   4.389   5.887   6.183
 6937SOL    HW121710   4.387   5.864   6.281
 6937SOL    HW221711   4.298   5.873   6.145
 6938SOL     OW21712   6.558   2.224   5.469
 6938SOL    HW121713   6.648   2.191   5.440
 6938SOL    HW221714   6.534   2.305   5.414
 6939SOL     OW21715   6.559   4.670   1.643
 6939SOL    HW121716   6.483   4.684   1.707
 6939SOL    HW221717   6.605   4.584   1.664
 6940SOL     OW21718   4.539   0.188   4.100
 6940SOL    HW121719   4.487   0.108   4.071
 6940SOL    HW221720   4.481   0.269   4.096
 6941SOL     OW21721   3.399   2.919   5.180
 6941SOL    HW121722   3.395   2.825   5.214
 6941SOL    HW221723   3.344   2.927   5.097
 6942SOL     OW21724   6.259   1.686   6.619
 6942SOL    HW121725   6.173   1.642   6.594
 6942SOL    HW221726   6.282   1.756   6.552
 6943SOL     OW21727   5.855   5.049   6.958
 6943SOL    HW121728   5.797   5.059   6.878
 6943SOL    HW221729   5.946   5.018   6.929
 6944SOL     OW21730   1.452   6.919   0.471
 6944SOL    HW121731   1.495   6.835   0.441
 6944SOL    HW221732   1.366   6.898   0.518
 6945SOL     OW21733   3.806   1.322   0.038
 6945SOL    HW121734   3.810   1.328   0.137
 6945SOL    HW221735   3.869   1.390   7.023
 6946SOL     OW21736   6.262   4.400   2.098
 6946SOL    HW121737   6.180   4.447   2.132
 6946SOL    HW221738   6.235   4.315   2.053
 6947SOL     OW21739   3.415   6.536   1.159
 6947SOL    HW121740   3.421   6.618   1.102
 6947SOL    HW221741   3.425   6.455   1.102
 6948SOL     OW21742   3.426   1.723   5.784
 6948SOL    HW121743   3.508   1.699   5.732
 6948SOL    HW221744   3.437   1.815   5.821
 6949SOL     OW21745   5.161   0.427   1.931
 6949SOL    HW121746   5.189   0.331   1.937
 6949SOL    HW221747   5.241   0.484   1.914
 6950SOL     OW21748   3.650   1.576   3.029
 6950SOL    HW121749   3.575   1.515   3.005
 6950SOL    HW221750   3.652   1.589   3.128
 6951SOL     OW21751   4.781   3.910   5.648
 6951SOL    HW121752   4.853   3.867   5.594
 6951SOL    HW221753   4.693   3.866   5.628
 6952SOL     OW21754   0.107   3.558   6.532
 6952SOL    HW121755   0.076   3.466   6.551
 6952SOL    HW221756   0.060   3.623   6.591
 6953SOL     OW21757   5.566   2.272   4.696
 6953SOL    HW121758   5.599   2.259   4.789
 6953SOL    HW221759   5.633   2.326   4.644
 6954SOL     OW21760   0.151   4.500   1.810
 6954SOL    HW121761   0.113   4.548   1.731
 6954SOL    HW221762   0.076   4.471   1.870
 6955SOL     OW21763   6.688   0.913   3.850
 6955SOL    HW121764   6.662   0.980   3.780
 6955SOL    HW221765   6.662   0.947   3.940
 6956SOL     OW21766   3.251   4.124   1.422
 6956SOL    HW121767   3.197   4.153   1.501
 6956SOL    HW221768   3.260   4.200   1.358
 6957SOL     OW21769   1.198   4.608   0.576
 6957SOL    HW121770   1.185   4.514   0.546
 6957SOL    HW221771   1.167   4.618   0.670
 6958SOL     OW21772   1.753   3.437   5.563
 6958SOL    HW121773   1.786   3.531   5.556
 6958SOL    HW221774   1.695   3.428   5.644
 6959SOL     OW21775   4.043   0.804   4.926
 6959SOL    HW121776   4.004   0.789   4.835
 6959SOL    HW221777   4.117   0.738   4.942
 6960SOL     OW21778   1.176   5.638   6.618
 6960SOL    HW121779   1.095   5.664   6.566
 6960SOL    HW221780   1.233   5.718   6.633
 6961SOL     OW21781   6.126   1.189   3.567
 6961SOL    HW121782   6.086   1.105   3.602
 6961SOL    HW221783   6.167   1.172   3.478
 6962SOL     OW21784   3.059   3.645   0.958
 6962SOL    HW121785   3.002   3.592   0.896
 6962SOL    HW221786   3.034   3.741   0.953
 6963SOL     OW21787   6.342   5.746   2.000
 6963SOL    HW121788   6.384   5.820   2.054
 6963SOL    HW221789   6.244   5.745   2.017
 6964SOL     OW21790   3.808   4.988   5.842
 6964SOL    HW121791   3.897   4.964   5.882
 6964SOL    HW221792   3.804   4.953   5.748
 6965SOL     OW21793   6.286   1.455   6.009
 6965SOL    HW121794   6.329   1.494   5.927
 6965SOL    HW221795   6.351   1.456   6.084
 6966SOL     OW21796   4.806   1.837   3.878
 6966SOL    HW121797   4.718   1.877   3.905
 6966SOL    HW221798   4.878   1.873   3.937
 6967SOL     OW21799   3.013   2.640   6.067
 6967SOL    HW121800   2.935   2.578   6.076
 6967SOL    HW221801   3.094   2.596   6.107
 6968SOL     OW21802   4.444   0.499   3.699
 6968SOL    HW121803   4.374   0.557   3.660
 6968SOL    HW221804   4.521   0.492   3.636
 6969SOL     OW21805   3.370   3.389   0.995
 6969SOL    HW121806   3.381   3.384   1.094
 6969SOL    HW221807   3.332   3.478   0.969
 6970SOL     OW21808   5.190   4.375   0.456
 6970SOL    HW121809   5.281   4.343   0.483
 6970SOL    HW221810   5.140   4.404   0.537
 6971SOL     OW21811   6.017   1.597   2.267
 6971SOL    HW121812   5.950   1.575   2.196
 6971SOL    HW221813   6.107   1.610   2.225
 6972SOL     OW21814   5.231   5.705   4.406
 6972SOL    HW121815   5.171   5.710   4.326
 6972SOL    HW221816   5.245   5.610   4.431
 6973SOL     OW21817   1.460   3.948   3.792
 6973SOL    HW121818   1.362   3.964   3.779
 6973SOL    HW221819   1.480   3.851   3.775
 6974SOL     OW21820   3.258   4.039   4.878
 6974SOL    HW121821   3.230   4.030   4.973
 6974SOL    HW221822   3.341   4.095   4.872
 6975SOL     OW21823   1.480   6.586   6.531
 6975SOL    HW121824   1.391   6.560   6.491
 6975SOL    HW221825   1.546   6.513   6.514
 6976SOL     OW21826   1.240   6.184   0.807
 6976SOL    HW121827   1.143   6.205   0.818
 6976SOL    HW221828   1.274   6.139   0.889
 6977SOL     OW21829   5.330   3.130   1.509
 6977SOL    HW121830   5.331   3.108   1.412
 6977SOL    HW221831   5.264   3.203   1.527
 6978SOL     OW21832   4.574   2.528   3.310
 6978SOL    HW121833   4.653   2.484   3.266
 6978SOL    HW221834   4.490   2.485   3.278
 6979SOL     OW21835   7.019   3.740   4.695
 6979SOL    HW121836   0.034   3.671   4.755
 6979SOL    HW221837   6.950   3.697   4.636
 6980SOL     OW21838   4.975   1.927   5.006
 6980SOL    HW121839   4.894   1.869   4.995
 6980SOL    HW221840   5.040   1.881   5.066
 6981SOL     OW21841   3.398   3.814   6.279
 6981SOL    HW121842   3.489   3.836   6.314
 6981SOL    HW221843   3.329   3.869   6.326
 6982SOL     OW21844   0.610   0.078   4.601
 6982SOL    HW121845   0.558   0.102   4.519
 6982SOL    HW221846   0.656   0.160   4.637
 6983SOL     OW21847   6.096   0.979   3.198
 6983SOL    HW121848   6.087   0.917   3.119
 6983SOL    HW221849   6.025   1.049   3.194
 6984SOL     OW21850   1.572   1.295   6.199
 6984SOL    HW121851   1.642   1.270   6.133
 6984SOL    HW221852   1.490   1.325   6.151
 6985SOL     OW21853   5.195   6.567   4.217
 6985SOL    HW121854   5.282   6.533   4.182
 6985SOL    HW221855   5.174   6.521   4.303
 6986SOL     OW21856   1.568   6.329   5.274
 6986SOL    HW121857   1.654   6.342   5.224
 6986SOL    HW221858   1.588   6.314   5.371
 6987SOL     OW21859   6.750   3.577   6.481
 6987SOL    HW121860   6.741   3.504   6.413
 6987SOL    HW221861   6.812   3.547   6.553
 6988SOL     OW21862   5.568   1.714   6.328
 6988SOL    HW121863   5.582   1.693   6.425
 6988SOL    HW221864   5.471   1.706   6.306
 6989SOL     OW21865   1.852   3.474   4.389
 6989SOL    HW121866   1.919   3.461   4.315
 6989SOL    HW221867   1.784   3.542   4.361
 6990SOL     OW21868   4.320   3.519   1.532
 6990SOL    HW121869   4.285   3.613   1.533
 6990SOL    HW221870   4.392   3.510   1.601
 6991SOL     OW21871   4.073   4.557   5.423
 6991SOL    HW121872   4.064   4.526   5.518
 6991SOL    HW221873   3.993   4.612   5.399
 6992SOL     OW21874   6.390   6.470   4.728
 6992SOL    HW121875   6.398   6.472   4.828
 6992SOL    HW221876   6.341   6.552   4.697
 6993SOL     OW21877   0.508   6.728   2.829
 6993SOL    HW121878   0.524   6.740   2.731
 6993SOL    HW221879   0.534   6.812   2.877
 6994SOL     OW21880   1.684   2.239   0.304
 6994SOL    HW121881   1.639   2.151   0.316
 6994SOL    HW221882   1.641   2.307   0.363
 6995SOL     OW21883   1.127   5.278   3.881
 6995SOL    HW121884   1.087   5.212   3.945
 6995SOL    HW221885   1.119   5.243   3.788
 6996SOL     OW21886   1.953   6.722   5.443
 6996SOL    HW121887   1.941   6.819   5.420
 6996SOL    HW221888   1.924   6.707   5.538
 6997SOL     OW21889   4.440   5.142   4.202
 6997SOL    HW121890   4.413   5.091   4.120
 6997SOL    HW221891   4.361   5.148   4.264
 6998SOL     OW21892   2.699   1.813   2.421
 6998SOL    HW121893   2.694   1.881   2.348
 6998SOL    HW221894   2.774   1.836   2.483
 6999SOL     OW21895   5.234   1.862   6.604
 6999SOL    HW121896   5.297   1.927   6.646
 6999SOL    HW221897   5.283   1.805   6.537
 7000SOL     OW21898   0.001   0.045   1.451
 7000SOL    HW121899   0.098   0.044   1.478
 7000SOL    HW221900   6.982   6.987   1.483
 7001SOL     OW21901   2.711   1.548   6.752
 7001SOL    HW121902   2.690   1.627   6.809
 7001SOL    HW221903   2.805   1.518   6.769
 7002SOL     OW21904   2.607   5.026   1.910
 7002SOL    HW121905   2.648   4.943   1.871
 7002SOL    HW221906   2.651   5.106   1.869
 7003SOL     OW21907   2.184   6.340   5.688
 7003SOL    HW121908   2.107   6.395   5.656
 7003SOL    HW221909   2.201   6.265   5.624
 7004SOL     OW21910   2.016   3.917   6.661
 7004SOL    HW121911   2.028   3.936   6.564
 7004SOL    HW221912   2.006   3.819   6.676
 7005SOL     OW21913   6.433   0.269   6.225
 7005SOL    HW121914   6.499   0.342   6.239
 7005SOL    HW221915   6.392   0.278   6.134
 7006SOL     OW21916   4.997   5.364   4.417
 7006SOL    HW121917   4.962   5.280   4.377
 7006SOL    HW221918   4.921   5.424   4.441
 7007SOL     OW21919   5.330   5.142   1.870
 7007SOL    HW121920   5.361   5.185   1.786
 7007SOL    HW221921   5.230   5.136   1.870
 7008SOL     OW21922   0.831   5.936   4.523
 7008SOL    HW121923   0.776   5.854   4.539
 7008SOL    HW221924   0.884   5.924   4.438
 7009SOL     OW21925   6.944   4.463   1.340
 7009SOL    HW121926   6.942   4.449   1.439
 7009SOL    HW221927   0.013   4.459   1.307
 7010SOL     OW21928   5.489   4.184   5.883
 7010SOL    HW121929   5.589   4.189   5.885
 7010SOL    HW221930   5.462   4.100   5.835
 7011SOL     OW21931   0.922   0.402   5.431
 7011SOL    HW121932   0.928   0.408   5.531
 7011SOL    HW221933   1.010   0.372   5.394
 7012SOL     OW21934   0.580   0.954   1.535
 7012SOL    HW121935   0.631   0.882   1.487
 7012SOL    HW221936   0.500   0.980   1.480
 7013SOL     OW21937   6.099   2.340   1.415
 7013SOL    HW121938   6.190   2.361   1.450
 7013SOL    HW221939   6.061   2.421   1.371
 7014SOL     OW21940   2.367   5.335   0.797
 7014SOL    HW121941   2.287   5.386   0.765
 7014SOL    HW221942   2.352   5.304   0.891
 7015SOL     OW21943   4.936   2.327   2.007
 7015SOL    HW121944   4.977   2.236   2.015
 7015SOL    HW221945   4.885   2.348   2.090
 7016SOL     OW21946   4.737   4.272   0.528
 7016SOL    HW121947   4.669   4.202   0.547
 7016SOL    HW221948   4.711   4.323   0.446
 7017SOL     OW21949   5.347   2.063   5.419
 7017SOL    HW121950   5.346   2.086   5.517
 7017SOL    HW221951   5.312   2.141   5.366
 7018SOL     OW21952   0.585   3.887   3.131
 7018SOL    HW121953   0.623   3.801   3.164
 7018SOL    HW221954   0.566   3.880   3.033
 7019SOL     OW21955   6.981   6.075   2.467
 7019SOL    HW121956   6.951   5.984   2.496
 7019SOL    HW221957   0.052   6.088   2.490
 7020SOL     OW21958   0.331   5.629   0.264
 7020SOL    HW121959   0.237   5.610   0.292
 7020SOL    HW221960   0.352   5.579   0.180
 7021SOL     OW21961   3.078   6.657   5.376
 7021SOL    HW121962   3.124   6.589   5.433
 7021SOL    HW221963   3.042   6.613   5.294
 7022SOL     OW21964   3.811   5.240   5.943
 7022SOL    HW121965   3.889   5.256   6.004
 7022SOL    HW221966   3.813   5.145   5.911
 7023SOL     OW21967   4.113   4.865   2.492
 7023SOL    HW121968   4.021   4.871   2.529
 7023SOL    HW221969   4.175   4.828   2.563
 7024SOL     OW21970   5.828   6.415   1.810
 7024SOL    HW121971   5.767   6.444   1.736
 7024SOL    HW221972   5.812   6.473   1.890
 7025SOL     OW21973   2.913   0.102   1.226
 7025SOL    HW121974   2.843   0.079   1.294
 7025SOL    HW221975   3.002   0.109   1.271
 7026SOL     OW21976   4.377   2.783   0.565
 7026SOL    HW121977   4.420   2.774   0.655
 7026SOL    HW221978   4.434   2.841   0.506
 7027SOL     OW21979   5.787   5.779   4.524
 7027SOL    HW121980   5.687   5.780   4.531
 7027SOL    HW221981   5.822   5.695   4.565
 7028SOL     OW21982   3.044   1.042   4.602
 7028SOL    HW121983   3.000   1.130   4.620
 7028SOL    HW221984   3.103   1.050   4.522
 7029SOL     OW21985   3.682   0.931   4.104
 7029SOL    HW121986   3.621   0.852   4.115
 7029SOL    HW221987   3.741   0.938   4.185
 7030SOL     OW21988   1.488   3.359   3.899
 7030SOL    HW121989   1.519   3.271   3.936
 7030SOL    HW221990   1.398   3.347   3.856
 7031SOL     OW21991   1.957   0.802   4.555
 7031SOL    HW121992   2.047   0.768   4.528
 7031SOL    HW221993   1.901   0.815   4.474
 7032SOL     OW21994   5.768   2.608   3.197
 7032SOL    HW121995   5.686   2.573   3.152
 7032SOL    HW221996   5.844   2.545   3.181
 7033SOL     OW21997   0.147   1.183   4.868
 7033SOL    HW121998   0.181   1.127   4.792
 7033SOL    HW221999   0.223   1.206   4.929
 7034SOL     OW22000   0.160   5.059   3.582
 7034SOL    HW122001   0.199   4.975   3.620
 7034SOL    HW222002   0.073   5.078   3.626
 7035SOL     OW22003   0.009   4.731   1.311
 7035SOL    HW122004   0.043   4.740   1.217
 7035SOL    HW222005   6.981   4.647   1.319
 7036SOL     OW22006   6.357   4.936   0.732
 7036SOL    HW122007   6.310   4.901   0.814
 7036SOL    HW222008   6.335   5.033   0.720
 7037SOL     OW22009   1.201   0.488   6.673
 7037SOL    HW122010   1.252   0.549   6.611
 7037SOL    HW222011   1.103   0.502   6.659
 7038SOL     OW22012   2.212   2.869   4.190
 7038SOL    HW122013   2.218   2.934   4.266
 7038SOL    HW222014   2.258   2.784   4.217
 7039SOL     OW22015   3.856   1.757   7.014
 7039SOL    HW122016   3.788   1.807   6.961
 7039SOL    HW222017   3.883   1.674   6.965
 7040SOL     OW22018   5.812   2.706   6.806
 7040SOL    HW122019   5.737   2.672   6.863
 7040SOL    HW222020   5.774   2.763   6.733
 7041SOL     OW22021   1.858   1.582   3.510
 7041SOL    HW122022   1.802   1.661   3.486
 7041SOL    HW222023   1.950   1.594   3.473
 7042SOL     OW22024   2.034   1.006   6.837
 7042SOL    HW122025   2.092   1.082   6.865
 7042SOL    HW222026   2.072   0.921   6.873
 7043SOL     OW22027   1.970   2.585   1.688
 7043SOL    HW122028   1.886   2.548   1.729
 7043SOL    HW222029   1.949   2.672   1.644
 7044SOL     OW22030   6.883   5.799   0.937
 7044SOL    HW122031   6.830   5.826   0.856
 7044SOL    HW222032   6.890   5.699   0.940
 7045SOL     OW22033   0.361   4.970   0.317
 7045SOL    HW122034   0.435   4.903   0.308
 7045SOL    HW222035   0.281   4.938   0.265
 7046SOL     OW22036   2.944   2.181   3.789
 7046SOL    HW122037   2.949   2.198   3.887
 7046SOL    HW222038   3.036   2.176   3.751
 7047SOL     OW22039   1.691   6.946   3.391
 7047SOL    HW122040   1.703   6.878   3.319
 7047SOL    HW222041   1.722   6.907   3.478
 7048SOL     OW22042   6.828   5.559   0.259
 7048SOL    HW122043   6.776   5.522   0.336
 7048SOL    HW222044   6.838   5.488   0.188
 7049SOL     OW22045   2.479   0.653   6.841
 7049SOL    HW122046   2.468   0.556   6.819
 7049SOL    HW222047   2.476   0.706   6.757
 7050SOL     OW22048   4.350   3.396   5.446
 7050SOL    HW122049   4.301   3.480   5.421
 7050SOL    HW222050   4.440   3.395   5.402
 7051SOL     OW22051   5.949   6.395   2.875
 7051SOL    HW122052   5.921   6.299   2.869
 7051SOL    HW222053   5.870   6.454   2.863
 7052SOL     OW22054   6.599   0.160   5.064
 7052SOL    HW122055   6.640   0.071   5.044
 7052SOL    HW222056   6.507   0.147   5.099
 7053SOL     OW22057   6.546   3.297   6.073
 7053SOL    HW122058   6.537   3.308   6.172
 7053SOL    HW222059   6.556   3.386   6.030
 7054SOL     OW22060   6.152   2.257   2.677
 7054SOL    HW122061   6.146   2.174   2.621
 7054SOL    HW222062   6.064   2.305   2.677
 7055SOL     OW22063   4.606   1.916   3.521
 7055SOL    HW122064   4.601   1.904   3.422
 7055SOL    HW222065   4.636   1.830   3.563
 7056SOL     OW22066   4.617   5.407   4.529
 7056SOL    HW122067   4.659   5.331   4.480
 7056SOL    HW222068   4.681   5.442   4.598
 7057SOL     OW22069   5.660   5.945   2.904
 7057SOL    HW122070   5.742   5.887   2.900
 7057SOL    HW222071   5.582   5.889   2.930
 7058SOL     OW22072   0.210   4.057   4.592
 7058SOL    HW122073   0.168   4.141   4.557
 7058SOL    HW222074   0.309   4.065   4.590
 7059SOL     OW22075   1.736   0.716   2.439
 7059SOL    HW122076   1.751   0.802   2.489
 7059SOL    HW222077   1.691   0.650   2.498
 7060SOL     OW22078   3.412   0.197   0.638
 7060SOL    HW122079   3.354   0.123   0.671
 7060SOL    HW222080   3.470   0.163   0.564
 7061SOL     OW22081   0.717   0.860   2.791
 7061SOL    HW122082   0.664   0.880   2.709
 7061SOL    HW222083   0.727   0.760   2.800
 7062SOL     OW22084   6.633   1.412   5.652
 7062SOL    HW122085   6.727   1.443   5.641
 7062SOL    HW222086   6.634   1.315   5.678
 7063SOL     OW22087   1.988   6.137   1.980
 7063SOL    HW122088   1.988   6.234   1.957
 7063SOL    HW222089   2.030   6.125   2.070
 7064SOL     OW22090   3.576   2.484   0.372
 7064SOL    HW122091   3.549   2.515   0.464
 7064SOL    HW222092   3.650   2.542   0.338
 7065SOL     OW22093   3.360   3.523   2.579
 7065SOL    HW122094   3.275   3.545   2.530
 7065SOL    HW222095   3.410   3.608   2.599
 7066SOL     OW22096   2.488   5.005   1.649
 7066SOL    HW122097   2.489   4.960   1.738
 7066SOL    HW222098   2.504   5.103   1.661
 7067SOL     OW22099   1.032   4.330   5.031
 7067SOL    HW122100   1.084   4.248   5.006
 7067SOL    HW222101   0.974   4.309   5.110
 7068SOL     OW22102   0.301   0.700   3.016
 7068SOL    HW122103   0.236   0.642   3.065
 7068SOL    HW222104   0.385   0.709   3.069
 7069SOL     OW22105   1.923   4.753   5.176
 7069SOL    HW122106   1.953   4.690   5.248
 7069SOL    HW222107   1.852   4.709   5.121
 7070SOL     OW22108   5.458   5.135   3.542
 7070SOL    HW122109   5.375   5.083   3.521
 7070SOL    HW222110   5.487   5.114   3.636
 7071SOL     OW22111   1.813   6.616   5.223
 7071SOL    HW122112   1.841   6.632   5.317
 7071SOL    HW222113   1.726   6.662   5.206
 7072SOL     OW22114   0.511   6.993   6.384
 7072SOL    HW122115   0.522   0.064   6.408
 7072SOL    HW222116   0.579   6.968   6.315
 7073SOL     OW22117   1.556   2.457   0.031
 7073SOL    HW122118   1.652   2.462   0.005
 7073SOL    HW222119   1.499   2.486   6.979
 7074SOL     OW22120   3.703   1.280   6.469
 7074SOL    HW122121   3.686   1.374   6.501
 7074SOL    HW222122   3.656   1.266   6.382
 7075SOL     OW22123   0.899   6.275   3.219
 7075SOL    HW122124   0.865   6.357   3.172
 7075SOL    HW222125   0.970   6.301   3.284
 7076SOL     OW22126   3.504   1.228   6.272
 7076SOL    HW122127   3.494   1.148   6.213
 7076SOL    HW222128   3.417   1.247   6.317
 7077SOL     OW22129   1.385   5.588   6.396
 7077SOL    HW122130   1.377   5.570   6.298
 7077SOL    HW222131   1.335   5.671   6.419
 7078SOL     OW22132   0.416   0.887   1.852
 7078SOL    HW122133   0.346   0.909   1.784
 7078SOL    HW222134   0.384   0.813   1.911
 7079SOL     OW22135   5.444   6.542   4.451
 7079SOL    HW122136   5.441   6.442   4.454
 7079SOL    HW222137   5.368   6.577   4.398
 7080SOL     OW22138   5.899   0.693   3.519
 7080SOL    HW122139   5.912   0.596   3.500
 7080SOL    HW222140   5.808   0.708   3.558
 7081SOL     OW22141   4.598   0.816   4.540
 7081SOL    HW122142   4.643   0.729   4.560
 7081SOL    HW222143   4.663   0.891   4.552
 7082SOL     OW22144   6.002   1.212   0.253
 7082SOL    HW122145   6.093   1.252   0.267
 7082SOL    HW222146   6.009   1.112   0.256
 7083SOL     OW22147   4.173   0.353   5.010
 7083SOL    HW122148   4.120   0.278   5.051
 7083SOL    HW222149   4.234   0.317   4.940
 7084SOL     OW22150   6.159   5.728   0.465
 7084SOL    HW122151   6.199   5.817   0.445
 7084SOL    HW222152   6.183   5.663   0.392
 7085SOL     OW22153   5.055   1.646   1.639
 7085SOL    HW122154   5.127   1.695   1.688
 7085SOL    HW222155   5.063   1.665   1.541
 7086SOL     OW22156   1.318   0.905   5.899
 7086SOL    HW122157   1.329   0.941   5.991
 7086SOL    HW222158   1.406   0.906   5.852
 7087SOL     OW22159   2.301   2.802   4.799
 7087SOL    HW122160   2.241   2.869   4.843
 7087SOL    HW222161   2.395   2.817   4.830
 7088SOL     OW22162   6.842   1.983   4.586
 7088SOL    HW122163   6.871   1.964   4.492
 7088SOL    HW222164   6.923   2.001   4.642
 7089SOL     OW22165   3.127   2.181   1.826
 7089SOL    HW122166   3.116   2.130   1.912
 7089SOL    HW222167   3.066   2.260   1.826
 7090SOL     OW22168   2.951   1.528   5.091
 7090SOL    HW122169   2.931   1.549   4.995
 7090SOL    HW222170   3.044   1.559   5.113
 7091SOL     OW22171   6.982   6.114   0.565
 7091SOL    HW122172   7.018   6.046   0.629
 7091SOL    HW222173   6.898   6.080   0.523
 7092SOL     OW22174   3.745   1.846   0.637
 7092SOL    HW122175   3.769   1.759   0.680
 7092SOL    HW222176   3.829   1.900   0.624
 7093SOL     OW22177   3.969   3.006   6.632
 7093SOL    HW122178   3.965   3.065   6.552
 7093SOL    HW222179   3.878   2.969   6.651
 7094SOL     OW22180   6.249   0.987   6.555
 7094SOL    HW122181   6.324   1.009   6.617
 7094SOL    HW222182   6.217   0.894   6.573
 7095SOL     OW22183   0.997   4.226   1.095
 7095SOL    HW122184   0.913   4.244   1.144
 7095SOL    HW222185   1.043   4.147   1.135
 7096SOL     OW22186   3.834   6.681   3.040
 7096SOL    HW122187   3.888   6.631   2.972
 7096SOL    HW222188   3.737   6.679   3.014
 7097SOL     OW22189   1.732   1.569   1.577
 7097SOL    HW122190   1.678   1.570   1.661
 7097SOL    HW222191   1.693   1.634   1.511
 7098SOL     OW22192   1.250   0.461   6.165
 7098SOL    HW122193   1.285   0.390   6.103
 7098SOL    HW222194   1.327   0.508   6.208
 7099SOL     OW22195   6.951   1.154   5.221
 7099SOL    HW122196   6.880   1.192   5.280
 7099SOL    HW222197   7.015   1.225   5.195
 7100SOL     OW22198   5.601   1.813   1.569
 7100SOL    HW122199   5.519   1.839   1.518
 7100SOL    HW222200   5.637   1.727   1.532
 7101SOL     OW22201   1.965   0.577   4.814
 7101SOL    HW122202   1.900   0.653   4.804
 7101SOL    HW222203   1.978   0.533   4.725
 7102SOL     OW22204   4.502   2.284   0.681
 7102SOL    HW122205   4.524   2.306   0.776
 7102SOL    HW222206   4.425   2.221   0.678
 7103SOL     OW22207   2.043   0.150   5.807
 7103SOL    HW122208   2.108   0.193   5.744
 7103SOL    HW222209   2.087   0.138   5.897
 7104SOL     OW22210   0.571   3.091   1.563
 7104SOL    HW122211   0.605   3.002   1.533
 7104SOL    HW222212   0.645   3.141   1.607
 7105SOL     OW22213   2.437   2.733   5.402
 7105SOL    HW122214   2.389   2.773   5.324
 7105SOL    HW222215   2.533   2.763   5.402
 7106SOL     OW22216   3.101   2.869   5.337
 7106SOL    HW122217   3.150   2.956   5.335
 7106SOL    HW222218   3.165   2.794   5.324
 7107SOL     OW22219   1.491   1.137   0.331
 7107SOL    HW122220   1.424   1.143   0.405
 7107SOL    HW222221   1.477   1.213   0.267
 7108SOL     OW22222   4.359   6.640   1.923
 7108SOL    HW122223   4.275   6.606   1.965
 7108SOL    HW222224   4.423   6.668   1.994
 7109SOL     OW22225   4.622   5.873   6.589
 7109SOL    HW122226   4.611   5.868   6.688
 7109SOL    HW222227   4.589   5.962   6.557
 7110SOL     OW22228   3.870   4.945   4.328
 7110SOL    HW122229   3.941   4.971   4.393
 7110SOL    HW222230   3.788   5.000   4.344
 7111SOL     OW22231   1.304   2.634   3.668
 7111SOL    HW122232   1.236   2.683   3.613
 7111SOL    HW222233   1.269   2.620   3.760
 7112SOL     OW22234   1.703   6.301   3.064
 7112SOL    HW122235   1.616   6.298   3.114
 7112SOL    HW222236   1.750   6.214   3.074
 7113SOL     OW22237   4.041   3.892   6.047
 7113SOL    HW122238   4.023   3.797   6.069
 7113SOL    HW222239   3.973   3.951   6.090
 7114SOL     OW22240   3.761   6.507   0.947
 7114SOL    HW122241   3.713   6.564   0.881
 7114SOL    HW222242   3.831   6.452   0.901
 7115SOL     OW22243   4.054   2.672   1.144
 7115SOL    HW122244   4.115   2.608   1.189
 7115SOL    HW222245   4.107   2.736   1.088
 7116SOL     OW22246   6.231   4.405   3.424
 7116SOL    HW122247   6.267   4.483   3.474
 7116SOL    HW222248   6.233   4.323   3.482
 7117SOL     OW22249   5.286   0.001   2.395
 7117SOL    HW122250   5.243   6.968   2.465
 7117SOL    HW222251   5.217   0.027   2.328
 7118SOL     OW22252   6.493   3.429   3.485
 7118SOL    HW122253   6.592   3.422   3.500
 7118SOL    HW222254   6.470   3.390   3.396
 7119SOL     OW22255   1.130   1.974   2.811
 7119SOL    HW122256   1.052   2.026   2.846
 7119SOL    HW222257   1.098   1.908   2.743
 7120SOL     OW22258   4.846   6.426   3.924
 7120SOL    HW122259   4.887   6.479   3.998
 7120SOL    HW222260   4.784   6.486   3.871
 7121SOL     OW22261   2.098   6.622   1.173
 7121SOL    HW122262   2.035   6.672   1.114
 7121SOL    HW222263   2.189   6.662   1.166
 7122SOL     OW22264   0.134   5.885   0.197
 7122SOL    HW122265   0.085   5.812   0.246
 7122SOL    HW222266   0.215   5.912   0.249
 7123SOL     OW22267   3.113   5.165   0.925
 7123SOL    HW122268   3.044   5.156   0.853
 7123SOL    HW222269   3.133   5.075   0.964
 7124SOL     OW22270   0.164   5.812   6.672
 7124SOL    HW122271   0.197   5.740   6.733
 7124SOL    HW222272   0.071   5.790   6.641
 7125SOL     OW22273   1.096   6.024   3.511
 7125SOL    HW122274   1.162   6.068   3.450
 7125SOL    HW222275   1.109   6.058   3.604
 7126SOL     OW22276   1.655   3.358   1.511
 7126SOL    HW122277   1.686   3.421   1.582
 7126SOL    HW222278   1.562   3.382   1.483
 7127SOL     OW22279   2.340   0.566   5.140
 7127SOL    HW122280   2.305   0.478   5.108
 7127SOL    HW222281   2.292   0.640   5.093
 7128SOL     OW22282   2.976   3.387   2.604
 7128SOL    HW122283   3.031   3.432   2.534
 7128SOL    HW222284   2.994   3.288   2.602
 7129SOL     OW22285   3.075   2.426   0.570
 7129SOL    HW122286   3.160   2.454   0.615
 7129SOL    HW222287   3.069   2.469   0.480
 7130SOL     OW22288   1.733   0.443   2.923
 7130SOL    HW122289   1.713   0.381   2.999
 7130SOL    HW222290   1.786   0.521   2.956
 7131SOL     OW22291   2.602   1.211   3.459
 7131SOL    HW122292   2.508   1.234   3.484
 7131SOL    HW222293   2.601   1.135   3.394
 7132SOL     OW22294   3.098   3.880   2.154
 7132SOL    HW122295   3.172   3.819   2.124
 7132SOL    HW222296   3.088   3.954   2.088
 7133SOL     OW22297   6.501   4.345   1.482
 7133SOL    HW122298   6.526   4.260   1.529
 7133SOL    HW222299   6.415   4.331   1.433
 7134SOL     OW22300   4.745   4.615   2.333
 7134SOL    HW122301   4.711   4.599   2.426
 7134SOL    HW222302   4.727   4.710   2.307
 7135SOL     OW22303   0.355   1.650   5.937
 7135SOL    HW122304   0.409   1.672   6.018
 7135SOL    HW222305   0.268   1.610   5.965
 7136SOL     OW22306   1.457   1.863   6.687
 7136SOL    HW122307   1.373   1.833   6.641
 7136SOL    HW222308   1.536   1.818   6.646
 7137SOL     OW22309   5.148   2.124   5.071
 7137SOL    HW122310   5.137   2.221   5.092
 7137SOL    HW222311   5.058   2.084   5.049
 7138SOL     OW22312   2.120   2.228   6.632
 7138SOL    HW122313   2.027   2.193   6.637
 7138SOL    HW222314   2.119   2.320   6.593
 7139SOL     OW22315   2.377   1.816   0.379
 7139SOL    HW122316   2.443   1.787   0.448
 7139SOL    HW222317   2.344   1.737   0.328
 7140SOL     OW22318   6.702   4.608   4.319
 7140SOL    HW122319   6.686   4.700   4.284
 7140SOL    HW222320   6.752   4.555   4.250
 7141SOL     OW22321   0.829   0.184   2.078
 7141SOL    HW122322   0.808   0.087   2.091
 7141SOL    HW222323   0.928   0.196   2.070
 7142SOL     OW22324   3.480   6.191   3.837
 7142SOL    HW122325   3.387   6.155   3.847
 7142SOL    HW222326   3.518   6.162   3.749
 7143SOL     OW22327   1.492   2.255   3.527
 7143SOL    HW122328   1.536   2.252   3.617
 7143SOL    HW222329   1.463   2.162   3.501
 7144SOL     OW22330   1.283   3.610   3.642
 7144SOL    HW122331   1.380   3.624   3.663
 7144SOL    HW222332   1.252   3.525   3.685
 7145SOL     OW22333   4.106   5.657   6.539
 7145SOL    HW122334   4.052   5.577   6.511
 7145SOL    HW222335   4.191   5.627   6.581
 7146SOL     OW22336   3.346   4.994   1.801
 7146SOL    HW122337   3.301   4.981   1.713
 7146SOL    HW222338   3.308   5.075   1.846
 7147SOL     OW22339   0.418   0.907   3.381
 7147SOL    HW122340   0.398   0.998   3.417
 7147SOL    HW222341   0.336   0.850   3.389
 7148SOL     OW22342   6.455   1.772   0.285
 7148SOL    HW122343   6.470   1.674   0.297
 7148SOL    HW222344   6.529   1.811   0.231
 7149SOL     OW22345   1.143   0.705   4.564
 7149SOL    HW122346   1.117   0.691   4.468
 7149SOL    HW222347   1.221   0.768   4.568
 7150SOL     OW22348   5.799   2.902   5.844
 7150SOL    HW122349   5.821   2.920   5.940
 7150SOL    HW222350   5.849   2.966   5.786
 7151SOL     OW22351   1.927   6.855   7.024
 7151SOL    HW122352   1.875   6.937   6.997
 7151SOL    HW222353   2.018   6.882   0.028
 7152SOL     OW22354   1.297   2.269   4.811
 7152SOL    HW122355   1.292   2.275   4.911
 7152SOL    HW222356   1.209   2.294   4.772
 7153SOL     OW22357   4.309   1.906   3.127
 7153SOL    HW122358   4.338   1.907   3.031
 7153SOL    HW222359   4.209   1.898   3.131
 7154SOL     OW22360   3.271   0.040   4.668
 7154SOL    HW122361   3.352   0.026   4.724
 7154SOL    HW222362   3.269   6.998   4.594
 7155SOL     OW22363   2.256   1.433   3.886
 7155SOL    HW122364   2.349   1.470   3.884
 7155SOL    HW222365   2.199   1.482   3.819
 7156SOL     OW22366   2.237   5.635   5.577
 7156SOL    HW122367   2.297   5.560   5.548
 7156SOL    HW222368   2.185   5.606   5.658
 7157SOL     OW22369   4.946   4.772   0.114
 7157SOL    HW122370   4.928   4.843   0.046
 7157SOL    HW222371   4.937   4.682   0.071
 7158SOL     OW22372   4.220   0.628   3.578
 7158SOL    HW122373   4.150   0.694   3.605
 7158SOL    HW222374   4.208   0.604   3.482
 7159SOL     OW22375   1.399   6.325   6.934
 7159SOL    HW122376   1.424   6.328   0.005
 7159SOL    HW222377   1.378   6.417   6.901
 7160SOL     OW22378   6.766   0.817   2.155
 7160SOL    HW122379   6.819   0.866   2.224
 7160SOL    HW222380   6.810   0.730   2.135
 7161SOL     OW22381   3.418   4.193   4.458
 7161SOL    HW122382   3.465   4.105   4.466
 7161SOL    HW222383   3.449   4.240   4.375
 7162SOL     OW22384   3.506   4.923   4.109
 7162SOL    HW122385   3.450   4.907   4.190
 7162SOL    HW222386   3.453   4.902   4.027
 7163SOL     OW22387   1.310   6.573   3.492
 7163SOL    HW122388   1.405   6.602   3.502
 7163SOL    HW222389   1.258   6.645   3.447
 7164SOL     OW22390   2.937   1.850   4.682
 7164SOL    HW122391   2.934   1.947   4.656
 7164SOL    HW222392   2.942   1.843   4.781
 7165SOL     OW22393   4.289   5.071   2.106
 7165SOL    HW122394   4.202   5.115   2.124
 7165SOL    HW222395   4.325   5.032   2.191
 7166SOL     OW22396   3.631   6.590   2.149
 7166SOL    HW122397   3.569   6.659   2.112
 7166SOL    HW222398   3.591   6.550   2.232
 7167SOL     OW22399   5.529   3.466   0.386
 7167SOL    HW122400   5.534   3.560   0.422
 7167SOL    HW222401   5.449   3.457   0.327
 7168SOL     OW22402   7.005   1.515   4.365
 7168SOL    HW122403   0.002   1.420   4.388
 7168SOL    HW222404   6.924   1.517   4.305
 7169SOL     OW22405   2.377   2.646   6.769
 7169SOL    HW122406   2.453   2.633   6.705
 7169SOL    HW222407   2.404   2.613   6.860
 7170SOL     OW22408   5.179   3.814   4.300
 7170SOL    HW122409   5.103   3.750   4.288
 7170SOL    HW222410   5.146   3.908   4.293
 7171SOL     OW22411   3.660   3.857   5.564
 7171SOL    HW122412   3.601   3.919   5.617
 7171SOL    HW222413   3.754   3.889   5.569
 7172SOL     OW22414   6.812   6.047   1.280
 7172SOL    HW122415   6.817   5.952   1.310
 7172SOL    HW222416   6.892   6.097   1.315
 7173SOL     OW22417   6.577   6.637   4.578
 7173SOL    HW122418   6.573   6.580   4.659
 7173SOL    HW222419   6.577   6.734   4.605
 7174SOL     OW22420   1.159   6.238   5.876
 7174SOL    HW122421   1.216   6.221   5.957
 7174SOL    HW222422   1.201   6.195   5.796
 7175SOL     OW22423   6.305   3.536   5.456
 7175SOL    HW122424   6.328   3.504   5.363
 7175SOL    HW222425   6.369   3.608   5.483
 7176SOL     OW22426   1.304   3.456   1.139
 7176SOL    HW122427   1.260   3.512   1.069
 7176SOL    HW222428   1.391   3.421   1.105
 7177SOL     OW22429   0.687   5.181   1.430
 7177SOL    HW122430   0.673   5.132   1.516
 7177SOL    HW222431   0.640   5.132   1.356
 7178SOL     OW22432   6.238   0.615   6.352
 7178SOL    HW122433   6.312   0.680   6.368
 7178SOL    HW222434   6.154   0.649   6.395
 7179SOL     OW22435   0.591   3.813   5.753
 7179SOL    HW122436   0.634   3.841   5.668
 7179SOL    HW222437   0.654   3.754   5.804
 7180SOL     OW22438   6.646   0.427   2.420
 7180SOL    HW122439   6.645   0.512   2.472
 7180SOL    HW222440   6.621   0.445   2.325
 7181SOL     OW22441   5.368   5.678   2.364
 7181SOL    HW122442   5.346   5.632   2.450
 7181SOL    HW222443   5.365   5.777   2.378
 7182SOL     OW22444   4.372   3.760   6.206
 7182SOL    HW122445   4.457   3.781   6.254
 7182SOL    HW222446   4.383   3.778   6.108
 7183SOL     OW22447   2.206   2.869   2.982
 7183SOL    HW122448   2.268   2.791   2.973
 7183SOL    HW222449   2.222   2.932   2.906
 7184SOL     OW22450   2.295   5.250   3.368
 7184SOL    HW122451   2.264   5.283   3.279
 7184SOL    HW222452   2.261   5.157   3.382
 7185SOL     OW22453   4.983   2.193   6.906
 7185SOL    HW122454   5.005   2.279   6.951
 7185SOL    HW222455   4.886   2.172   6.920
 7186SOL     OW22456   0.934   6.694   4.593
 7186SOL    HW122457   0.943   6.764   4.521
 7186SOL    HW222458   0.844   6.651   4.585
 7187SOL     OW22459   1.678   5.036   1.722
 7187SOL    HW122460   1.750   4.990   1.671
 7187SOL    HW222461   1.629   4.970   1.779
 7188SOL     OW22462   5.008   0.796   1.444
 7188SOL    HW122463   5.077   0.750   1.387
 7188SOL    HW222464   5.043   0.806   1.537
 7189SOL     OW22465   5.992   0.780   5.625
 7189SOL    HW122466   5.992   0.764   5.526
 7189SOL    HW222467   5.947   0.703   5.671
 7190SOL     OW22468   4.673   5.351   2.843
 7190SOL    HW122469   4.627   5.263   2.828
 7190SOL    HW222470   4.613   5.426   2.816
 7191SOL     OW22471   0.917   2.812   1.300
 7191SOL    HW122472   0.961   2.819   1.210
 7191SOL    HW222473   0.934   2.721   1.338
 7192SOL     OW22474   3.173   3.987   6.346
 7192SOL    HW122475   3.190   4.043   6.427
 7192SOL    HW222476   3.233   4.016   6.272
 7193SOL     OW22477   5.727   1.862   4.849
 7193SOL    HW122478   5.645   1.827   4.894
 7193SOL    HW222479   5.806   1.805   4.875
 7194SOL     OW22480   3.110   1.163   2.341
 7194SOL    HW122481   3.146   1.198   2.255
 7194SOL    HW222482   3.010   1.159   2.336
 7195SOL     OW22483   0.633   0.008   2.506
 7195SOL    HW122484   0.601   0.065   2.430
 7195SOL    HW222485   0.597   0.043   2.592
 7196SOL     OW22486   3.847   3.609   1.675
 7196SOL    HW122487   3.937   3.605   1.718
 7196SOL    HW222488   3.848   3.679   1.603
 7197SOL     OW22489   1.918   1.102   4.255
 7197SOL    HW122490   2.014   1.095   4.228
 7197SOL    HW222491   1.910   1.154   4.340
 7198SOL     OW22492   0.378   6.996   5.740
 7198SOL    HW122493   0.377   0.054   5.796
 7198SOL    HW222494   0.467   6.952   5.748
 7199SOL     OW22495   6.244   5.473   2.028
 7199SOL    HW122496   6.265   5.391   1.974
 7199SOL    HW222497   6.302   5.549   1.997
 7200SOL     OW22498   1.306   2.308   2.427
 7200SOL    HW122499   1.342   2.336   2.516
 7200SOL    HW222500   1.295   2.209   2.425
 7201SOL     OW22501   1.742   4.205   4.037
 7201SOL    HW122502   1.772   4.242   3.948
 7201SOL    HW222503   1.822   4.184   4.093
 7202SOL     OW22504   2.207   0.056   6.063
 7202SOL    HW122505   2.203   7.006   5.997
 7202SOL    HW222506   2.210   0.018   6.156
 7203SOL     OW22507   5.515   0.110   7.013
 7203SOL    HW122508   5.417   0.092   7.002
 7203SOL    HW222509   5.538   0.199   6.974
 7204SOL     OW22510   6.756   2.411   2.815
 7204SOL    HW122511   6.773   2.376   2.907
 7204SOL    HW222512   6.662   2.444   2.809
 7205SOL     OW22513   1.328   3.862   1.644
 7205SOL    HW122514   1.240   3.883   1.686
 7205SOL    HW222515   1.366   3.945   1.604
 7206SOL     OW22516   6.178   0.951   1.414
 7206SOL    HW122517   6.148   1.039   1.452
 7206SOL    HW222518   6.278   0.946   1.419
 7207SOL     OW22519   4.039   0.058   1.567
 7207SOL    HW122520   3.962   0.073   1.629
 7207SOL    HW222521   4.068   0.146   1.529
 7208SOL     OW22522   2.580   0.672   5.212
 7208SOL    HW122523   2.486   0.643   5.197
 7208SOL    HW222524   2.585   0.733   5.290
 7209SOL     OW22525   3.243   3.482   5.173
 7209SOL    HW122526   3.184   3.560   5.152
 7209SOL    HW222527   3.205   3.431   5.250
 7210SOL     OW22528   4.496   6.674   4.477
 7210SOL    HW122529   4.596   6.668   4.470
 7210SOL    HW222530   4.469   6.679   4.573
 7211SOL     OW22531   0.711   5.187   2.458
 7211SOL    HW122532   0.704   5.138   2.371
 7211SOL    HW222533   0.792   5.246   2.457
 7212SOL     OW22534   5.434   6.878   3.422
 7212SOL    HW122535   5.481   6.965   3.431
 7212SOL    HW222536   5.359   6.888   3.356
 7213SOL     OW22537   5.850   6.265   5.812
 7213SOL    HW122538   5.771   6.321   5.787
 7213SOL    HW222539   5.875   6.206   5.735
 7214SOL     OW22540   1.211   5.081   5.883
 7214SOL    HW122541   1.289   5.095   5.944
 7214SOL    HW222542   1.140   5.149   5.903
 7215SOL     OW22543   1.294   3.198   1.269
 7215SOL    HW122544   1.386   3.161   1.278
 7215SOL    HW222545   1.298   3.288   1.224
 7216SOL     OW22546   2.915   1.626   2.731
 7216SOL    HW122547   2.967   1.542   2.716
 7216SOL    HW222548   2.939   1.694   2.662
 7217SOL     OW22549   0.318   3.496   1.781
 7217SOL    HW122550   0.257   3.430   1.738
 7217SOL    HW222551   0.364   3.454   1.859
 7218SOL     OW22552   6.372   2.902   3.977
 7218SOL    HW122553   6.365   2.914   4.076
 7218SOL    HW222554   6.351   2.988   3.931
 7219SOL     OW22555   2.639   1.146   1.425
 7219SOL    HW122556   2.571   1.163   1.354
 7219SOL    HW222557   2.597   1.095   1.500
 7220SOL     OW22558   0.046   1.790   2.940
 7220SOL    HW122559   6.989   1.773   2.995
 7220SOL    HW222560   0.126   1.755   2.988
 7221SOL     OW22561   6.914   4.203   4.958
 7221SOL    HW122562   6.856   4.138   4.910
 7221SOL    HW222563   6.877   4.221   5.049
 7222SOL     OW22564   6.714   0.021   2.901
 7222SOL    HW122565   6.781   0.008   2.974
 7222SOL    HW222566   6.627   0.051   2.940
 7223SOL     OW22567   4.624   1.219   4.553
 7223SOL    HW122568   4.600   1.205   4.457
 7223SOL    HW222569   4.541   1.214   4.609
 7224SOL     OW22570   5.657   1.473   3.436
 7224SOL    HW122571   5.730   1.433   3.381
 7224SOL    HW222572   5.695   1.540   3.500
 7225SOL     OW22573   2.861   0.451   1.502
 7225SOL    HW122574   2.777   0.497   1.474
 7225SOL    HW222575   2.932   0.520   1.519
 7226SOL     OW22576   6.074   6.503   5.422
 7226SOL    HW122577   6.060   6.542   5.331
 7226SOL    HW222578   6.041   6.409   5.424
 7227SOL     OW22579   0.357   3.062   6.016
 7227SOL    HW122580   0.337   2.967   5.995
 7227SOL    HW222581   0.390   3.108   5.934
 7228SOL     OW22582   1.764   0.339   2.675
 7228SOL    HW122583   1.700   0.411   2.648
 7228SOL    HW222584   1.769   0.334   2.775
 7229SOL     OW22585   0.074   0.118   3.346
 7229SOL    HW122586   0.068   0.030   3.393
 7229SOL    HW222587   0.128   0.107   3.262
 7230SOL     OW22588   6.413   5.568   1.088
 7230SOL    HW122589   6.484   5.554   1.157
 7230SOL    HW222590   6.394   5.666   1.078
 7231SOL     OW22591   5.746   0.415   0.144
 7231SOL    HW122592   5.783   0.416   0.052
 7231SOL    HW222593   5.684   0.492   0.156
 7232SOL     OW22594   3.090   3.985   0.789
 7232SOL    HW122595   3.126   3.971   0.697
 7232SOL    HW222596   3.157   3.956   0.857
 7233SOL     OW22597   0.850   2.106   5.536
 7233SOL    HW122598   0.770   2.048   5.553
 7233SOL    HW222599   0.872   2.157   5.619
 7234SOL     OW22600   5.650   2.755   4.026
 7234SOL    HW122601   5.653   2.655   4.026
 7234SOL    HW222602   5.614   2.787   3.938
 7235SOL     OW22603   6.126   2.803   5.071
 7235SOL    HW122604   6.181   2.733   5.026
 7235SOL    HW222605   6.079   2.859   5.002
 7236SOL     OW22606   0.945   1.674   3.391
 7236SOL    HW122607   1.002   1.684   3.309
 7236SOL    HW222608   0.986   1.606   3.452
 7237SOL     OW22609   5.583   6.112   4.922
 7237SOL    HW122610   5.679   6.087   4.912
 7237SOL    HW222611   5.566   6.196   4.872
 7238SOL     OW22612   1.566   0.210   2.388
 7238SOL    HW122613   1.647   0.266   2.372
 7238SOL    HW222614   1.551   0.151   2.308
 7239SOL     OW22615   4.694   2.201   2.374
 7239SOL    HW122616   4.681   2.278   2.437
 7239SOL    HW222617   4.636   2.214   2.293
 7240SOL     OW22618   3.276   3.262   2.940
 7240SOL    HW122619   3.189   3.217   2.921
 7240SOL    HW222620   3.272   3.304   3.031
 7241SOL     OW22621   4.941   6.901   4.478
 7241SOL    HW122622   4.885   6.906   4.561
 7241SOL    HW222623   4.904   6.964   4.409
 7242SOL     OW22624   6.740   6.214   0.241
 7242SOL    HW122625   6.789   6.160   0.173
 7242SOL    HW222626   6.663   6.161   0.276
 7243SOL     OW22627   0.548   6.156   1.147
 7243SOL    HW122628   0.470   6.178   1.088
 7243SOL    HW222629   0.575   6.061   1.133
 7244SOL     OW22630   5.965   2.169   1.840
 7244SOL    HW122631   5.896   2.240   1.837
 7244SOL    HW222632   5.988   2.140   1.747
 7245SOL     OW22633   5.680   1.683   3.586
 7245SOL    HW122634   5.635   1.757   3.537
 7245SOL    HW222635   5.773   1.712   3.612
 7246SOL     OW22636   1.356   5.698   5.615
 7246SOL    HW122637   1.334   5.608   5.652
 7246SOL    HW222638   1.381   5.688   5.518
 7247SOL     OW22639   3.883   5.750   4.023
 7247SOL    HW122640   3.823   5.671   4.024
 7247SOL    HW222641   3.899   5.779   3.929
 7248SOL     OW22642   3.280   1.271   5.128
 7248SOL    HW122643   3.263   1.215   5.047
 7248SOL    HW222644   3.351   1.340   5.107
 7249SOL     OW22645   4.505   3.176   6.479
 7249SOL    HW122646   4.565   3.099   6.501
 7249SOL    HW222647   4.418   3.143   6.443
 7250SOL     OW22648   2.989   2.911   0.064
 7250SOL    HW122649   2.919   2.882   0.131
 7250SOL    HW222650   3.032   2.995   0.096
 7251SOL     OW22651   5.837   1.287   5.695
 7251SOL    HW122652   5.822   1.344   5.614
 7251SOL    HW222653   5.838   1.191   5.668
 7252SOL     OW22654   4.587   3.422   5.321
 7252SOL    HW122655   4.623   3.487   5.254
 7252SOL    HW222656   4.609   3.329   5.292
 7253SOL     OW22657   5.225   4.912   6.697
 7253SOL    HW122658   5.137   4.951   6.668
 7253SOL    HW222659   5.243   4.938   6.792
 7254SOL     OW22660   4.941   6.425   5.290
 7254SOL    HW122661   5.010   6.497   5.276
 7254SOL    HW222662   4.987   6.337   5.300
 7255SOL     OW22663   3.514   3.206   3.098
 7255SOL    HW122664   3.505   3.246   3.007
 7255SOL    HW222665   3.496   3.107   3.093
 7256SOL     OW22666   3.206   5.655   3.344
 7256SOL    HW122667   3.167   5.563   3.356
 7256SOL    HW222668   3.137   5.716   3.305
 7257SOL     OW22669   6.079   5.413   2.597
 7257SOL    HW122670   6.004   5.348   2.611
 7257SOL    HW222671   6.076   5.484   2.666
 7258SOL     OW22672   2.536   0.463   6.084
 7258SOL    HW122673   2.533   0.366   6.061
 7258SOL    HW222674   2.539   0.475   6.183
 7259SOL     OW22675   3.313   4.135   6.164
 7259SOL    HW122676   3.344   4.225   6.194
 7259SOL    HW222677   3.260   4.145   6.079
 7260SOL     OW22678   4.406   2.289   2.841
 7260SOL    HW122679   4.374   2.224   2.772
 7260SOL    HW222680   4.471   2.352   2.799
 7261SOL     OW22681   2.344   4.978   1.409
 7261SOL    HW122682   2.426   4.985   1.465
 7261SOL    HW222683   2.329   5.063   1.360
 7262SOL     OW22684   6.136   0.572   4.643
 7262SOL    HW122685   6.200   0.495   4.653
 7262SOL    HW222686   6.186   0.658   4.646
 7263SOL     OW22687   5.357   5.231   1.193
 7263SOL    HW122688   5.313   5.294   1.130
 7263SOL    HW222689   5.448   5.206   1.159
 7264SOL     OW22690   0.040   6.871   4.543
 7264SOL    HW122691   6.974   6.845   4.575
 7264SOL    HW222692   0.078   6.941   4.604
 7265SOL     OW22693   4.653   2.842   6.802
 7265SOL    HW122694   4.746   2.815   6.828
 7265SOL    HW222695   4.591   2.764   6.813
 7266SOL     OW22696   4.097   1.523   2.859
 7266SOL    HW122697   4.098   1.600   2.795
 7266SOL    HW222698   4.032   1.542   2.933
 7267SOL     OW22699   5.032   2.141   4.075
 7267SOL    HW122700   5.131   2.152   4.075
 7267SOL    HW222701   5.009   2.044   4.084
 7268SOL     OW22702   4.159   6.440   0.007
 7268SOL    HW122703   4.227   6.400   0.068
 7268SOL    HW222704   4.069   6.438   0.051
 7269SOL     OW22705   1.751   0.025   2.654
 7269SOL    HW122706   1.709   0.023   2.745
 7269SOL    HW222707   1.706   0.096   2.600
 7270SOL     OW22708   3.363   2.678   1.644
 7270SOL    HW122709   3.313   2.594   1.667
 7270SOL    HW222710   3.356   2.694   1.545
 7271SOL     OW22711   5.877   5.471   3.682
 7271SOL    HW122712   5.901   5.550   3.626
 7271SOL    HW222713   5.955   5.408   3.687
 7272SOL     OW22714   5.929   1.458   1.826
 7272SOL    HW122715   5.943   1.425   1.919
 7272SOL    HW222716   5.906   1.555   1.828
 7273SOL     OW22717   6.319   5.275   4.782
 7273SOL    HW122718   6.244   5.245   4.722
 7273SOL    HW222719   6.286   5.345   4.844
 7274SOL     OW22720   5.505   5.050   3.804
 7274SOL    HW122721   5.536   5.115   3.873
 7274SOL    HW222722   5.418   5.010   3.833
 7275SOL     OW22723   5.985   6.704   2.216
 7275SOL    HW122724   6.016   6.632   2.154
 7275SOL    HW222725   5.918   6.762   2.169
 7276SOL     OW22726   4.070   1.786   2.727
 7276SOL    HW122727   4.053   1.851   2.801
 7276SOL    HW222728   3.989   1.780   2.669
 7277SOL     OW22729   6.069   2.401   4.012
 7277SOL    HW122730   5.989   2.390   4.071
 7277SOL    HW222731   6.107   2.492   4.022
 7278SOL     OW22732   3.581   1.017   3.376
 7278SOL    HW122733   3.521   1.016   3.456
 7278SOL    HW222734   3.649   0.945   3.385
 7279SOL     OW22735   3.702   3.932   1.598
 7279SOL    HW122736   3.802   3.933   1.595
 7279SOL    HW222737   3.671   3.847   1.642
 7280SOL     OW22738   6.909   1.474   5.566
 7280SOL    HW122739   6.934   1.559   5.611
 7280SOL    HW222740   6.968   1.400   5.597
 7281SOL     OW22741   3.609   6.590   3.689
 7281SOL    HW122742   3.551   6.560   3.613
 7281SOL    HW222743   3.551   6.632   3.760
 7282SOL     OW22744   0.668   3.921   1.283
 7282SOL    HW122745   0.604   3.971   1.225
 7282SOL    HW222746   0.634   3.920   1.377
 7283SOL     OW22747   2.809   6.346   2.952
 7283SOL    HW122748   2.790   6.360   2.855
 7283SOL    HW222749   2.891   6.289   2.961
 7284SOL     OW22750   0.620   0.308   3.687
 7284SOL    HW122751   0.680   0.388   3.679
 7284SOL    HW222752   0.658   0.244   3.753
 7285SOL     OW22753   5.159   2.584   1.739
 7285SOL    HW122754   5.177   2.675   1.701
 7285SOL    HW222755   5.063   2.579   1.767
 7286SOL     OW22756   6.522   1.181   4.601
 7286SOL    HW122757   6.589   1.255   4.613
 7286SOL    HW222758   6.508   1.135   4.689
 7287SOL     OW22759   3.055   1.722   4.466
 7287SOL    HW122760   3.148   1.755   4.446
 7287SOL    HW222761   3.018   1.772   4.544
 7288SOL     OW22762   2.900   1.998   1.735
 7288SOL    HW122763   2.908   1.908   1.777
 7288SOL    HW222764   2.990   2.041   1.729
 7289SOL     OW22765   6.654   2.419   1.287
 7289SOL    HW122766   6.659   2.319   1.291
 7289SOL    HW222767   6.649   2.456   1.380
 7290SOL     OW22768   3.274   2.113   4.894
 7290SOL    HW122769   3.276   2.024   4.939
 7290SOL    HW222770   3.242   2.183   4.958
 7291SOL     OW22771   1.072   0.933   0.471
 7291SOL    HW122772   1.110   0.914   0.381
 7291SOL    HW222773   0.991   0.991   0.461
 7292SOL     OW22774   4.092   1.349   2.347
 7292SOL    HW122775   4.166   1.283   2.336
 7292SOL    HW222776   4.032   1.346   2.267
 7293SOL     OW22777   6.318   1.137   4.201
 7293SOL    HW122778   6.373   1.155   4.119
 7293SOL    HW222779   6.234   1.190   4.197
 7294SOL     OW22780   2.505   1.099   2.880
 7294SOL    HW122781   2.459   1.188   2.871
 7294SOL    HW222782   2.585   1.109   2.939
 7295SOL     OW22783   5.528   4.174   1.545
 7295SOL    HW122784   5.576   4.122   1.616
 7295SOL    HW222785   5.436   4.197   1.577
 7296SOL     OW22786   3.181   0.049   2.762
 7296SOL    HW122787   3.094   0.042   2.712
 7296SOL    HW222788   3.171   0.115   2.837
 7297SOL     OW22789   4.096   6.981   0.467
 7297SOL    HW122790   4.133   6.889   0.477
 7297SOL    HW222791   4.000   6.981   0.497
 7298SOL     OW22792   3.799   4.289   1.030
 7298SOL    HW122793   3.749   4.234   0.964
 7298SOL    HW222794   3.858   4.354   0.982
 7299SOL     OW22795   6.621   3.245   0.194
 7299SOL    HW122796   6.716   3.271   0.177
 7299SOL    HW222797   6.560   3.302   0.139
 7300SOL     OW22798   1.007   4.342   1.794
 7300SOL    HW122799   1.003   4.398   1.711
 7300SOL    HW222800   1.101   4.316   1.812
 7301SOL     OW22801   4.139   1.747   0.547
 7301SOL    HW122802   4.124   1.675   0.616
 7301SOL    HW222803   4.095   1.721   0.461
 7302SOL     OW22804   5.422   2.012   6.739
 7302SOL    HW122805   5.409   2.087   6.674
 7302SOL    HW222806   5.512   1.970   6.724
 7303SOL     OW22807   3.750   2.136   1.396
 7303SOL    HW122808   3.798   2.049   1.386
 7303SOL    HW222809   3.797   2.207   1.343
 7304SOL     OW22810   2.398   6.933   0.816
 7304SOL    HW122811   2.333   6.957   0.744
 7304SOL    HW222812   2.392   6.835   0.836
 7305SOL     OW22813   6.821   0.193   6.304
 7305SOL    HW122814   6.772   0.245   6.374
 7305SOL    HW222815   6.883   0.128   6.348
 7306SOL     OW22816   1.934   3.562   0.932
 7306SOL    HW122817   1.852   3.618   0.945
 7306SOL    HW222818   1.947   3.502   1.012
 7307SOL     OW22819   4.213   6.798   2.110
 7307SOL    HW122820   4.221   6.764   2.016
 7307SOL    HW222821   4.166   6.729   2.165
 7308SOL     OW22822   3.719   1.856   3.051
 7308SOL    HW122823   3.798   1.908   3.018
 7308SOL    HW222824   3.720   1.764   3.011
 7309SOL     OW22825   2.609   4.588   3.831
 7309SOL    HW122826   2.564   4.612   3.917
 7309SOL    HW222827   2.637   4.671   3.783
 7310SOL     OW22828   4.552   2.966   0.443
 7310SOL    HW122829   4.646   2.949   0.414
 7310SOL    HW222830   4.505   3.018   0.371
 7311SOL     OW22831   1.433   6.489   5.753
 7311SOL    HW122832   1.388   6.524   5.835
 7311SOL    HW222833   1.369   6.492   5.676
 7312SOL     OW22834   5.868   2.063   4.147
 7312SOL    HW122835   5.781   2.043   4.193
 7312SOL    HW222836   5.882   2.162   4.146
 7313SOL     OW22837   3.459   0.941   3.120
 7313SOL    HW122838   3.521   0.903   3.051
 7313SOL    HW222839   3.510   0.959   3.204
 7314SOL     OW22840   2.524   5.579   4.556
 7314SOL    HW122841   2.475   5.547   4.475
 7314SOL    HW222842   2.489   5.532   4.637
 7315SOL     OW22843   2.281   4.783   2.481
 7315SOL    HW122844   2.368   4.778   2.432
 7315SOL    HW222845   2.291   4.845   2.559
 7316SOL     OW22846   3.891   0.871   2.352
 7316SOL    HW122847   3.934   0.860   2.442
 7316SOL    HW222848   3.933   0.807   2.287
 7317SOL     OW22849   6.356   1.732   1.782
 7317SOL    HW122850   6.441   1.762   1.824
 7317SOL    HW222851   6.278   1.771   1.833
 7318SOL     OW22852   4.522   6.016   1.782
 7318SOL    HW122853   4.542   6.101   1.831
 7318SOL    HW222854   4.604   5.959   1.780
 7319SOL     OW22855   4.615   4.881   5.983
 7319SOL    HW122856   4.643   4.970   6.017
 7319SOL    HW222857   4.686   4.813   6.004
 7320SOL     OW22858   1.481   3.134   0.726
 7320SOL    HW122859   1.438   3.065   0.667
 7320SOL    HW222860   1.415   3.206   0.747
 7321SOL     OW22861   2.487   2.311   5.352
 7321SOL    HW122862   2.558   2.285   5.418
 7321SOL    HW222863   2.519   2.389   5.298
 7322SOL     OW22864   2.391   1.840   4.235
 7322SOL    HW122865   2.401   1.940   4.226
 7322SOL    HW222866   2.364   1.802   4.147
 7323SOL     OW22867   1.970   1.586   0.387
 7323SOL    HW122868   2.034   1.635   0.328
 7323SOL    HW222869   1.964   1.491   0.358
 7324SOL     OW22870   5.437   3.681   4.942
 7324SOL    HW122871   5.403   3.735   4.865
 7324SOL    HW222872   5.397   3.589   4.939
 7325SOL     OW22873   3.605   0.350   6.426
 7325SOL    HW122874   3.547   0.270   6.443
 7325SOL    HW222875   3.568   0.429   6.476
 7326SOL     OW22876   3.815   6.327   6.578
 7326SOL    HW122877   3.721   6.295   6.590
 7326SOL    HW222878   3.815   6.426   6.568
 7327SOL     OW22879   1.306   4.324   3.511
 7327SOL    HW122880   1.340   4.330   3.417
 7327SOL    HW222881   1.275   4.230   3.529
 7328SOL     OW22882   4.415   5.499   6.905
 7328SOL    HW122883   4.329   5.455   6.877
 7328SOL    HW222884   4.396   5.566   6.977
 7329SOL     OW22885   2.441   4.008   6.348
 7329SOL    HW122886   2.459   4.092   6.398
 7329SOL    HW222887   2.525   3.955   6.341
 7330SOL     OW22888   2.149   3.702   1.365
 7330SOL    HW122889   2.109   3.794   1.366
 7330SOL    HW222890   2.226   3.698   1.430
 7331SOL     OW22891   5.292   1.216   2.726
 7331SOL    HW122892   5.199   1.224   2.690
 7331SOL    HW222893   5.311   1.294   2.785
 7332SOL     OW22894   2.102   0.013   5.084
 7332SOL    HW122895   2.020   0.007   5.027
 7332SOL    HW222896   2.154   0.094   5.059
 7333SOL     OW22897   6.464   1.462   1.986
 7333SOL    HW122898   6.529   1.434   1.915
 7333SOL    HW222899   6.373   1.468   1.947
 7334SOL     OW22900   1.095   4.718   5.009
 7334SOL    HW122901   1.093   4.643   4.943
 7334SOL    HW222902   1.178   4.710   5.065
 7335SOL     OW22903   6.618   3.188   2.192
 7335SOL    HW122904   6.700   3.233   2.227
 7335SOL    HW222905   6.641   3.095   2.163
 7336SOL     OW22906   2.759   0.343   1.148
 7336SOL    HW122907   2.766   0.244   1.163
 7336SOL    HW222908   2.663   0.370   1.153
 7337SOL     OW22909   3.193   1.679   1.908
 7337SOL    HW122910   3.206   1.744   1.983
 7337SOL    HW222911   3.262   1.695   1.837
 7338SOL     OW22912   5.201   3.062   0.560
 7338SOL    HW122913   5.268   3.107   0.501
 7338SOL    HW222914   5.199   2.964   0.539
 7339SOL     OW22915   6.664   0.005   3.896
 7339SOL    HW122916   6.650   0.066   3.818
 7339SOL    HW222917   6.711   0.054   3.969
 7340SOL     OW22918   3.020   6.875   0.292
 7340SOL    HW122919   3.059   6.964   0.266
 7340SOL    HW222920   2.920   6.880   0.286
 7341SOL     OW22921   6.646   5.603   3.292
 7341SOL    HW122922   6.662   5.508   3.321
 7341SOL    HW222923   6.549   5.625   3.302
 7342SOL     OW22924   0.074   5.147   0.284
 7342SOL    HW122925   0.168   5.160   0.318
 7342SOL    HW222926   0.069   5.063   0.230
 7343SOL     OW22927   0.569   2.068   2.816
 7343SOL    HW122928   0.551   2.147   2.758
 7343SOL    HW222929   0.482   2.025   2.842
 7344SOL     OW22930   2.095   1.543   5.745
 7344SOL    HW122931   2.122   1.487   5.823
 7344SOL    HW222932   2.110   1.640   5.767
 7345SOL     OW22933   1.291   6.909   6.922
 7345SOL    HW122934   1.242   6.852   6.988
 7345SOL    HW222935   1.237   6.916   6.838
 7346SOL     OW22936   3.754   5.483   3.194
 7346SOL    HW122937   3.683   5.433   3.243
 7346SOL    HW222938   3.837   5.428   3.189
 7347SOL     OW22939   5.660   2.615   3.525
 7347SOL    HW122940   5.585   2.609   3.590
 7347SOL    HW222941   5.648   2.695   3.466
 7348SOL     OW22942   5.467   0.114   6.216
 7348SOL    HW122943   5.472   0.096   6.117
 7348SOL    HW222944   5.456   0.028   6.265
 7349SOL     OW22945   3.496   2.363   1.500
 7349SOL    HW122946   3.466   2.291   1.563
 7349SOL    HW222947   3.571   2.414   1.542
 7350SOL     OW22948   1.494   1.784   2.763
 7350SOL    HW122949   1.396   1.763   2.766
 7350SOL    HW222950   1.537   1.755   2.849
 7351SOL     OW22951   6.091   4.903   6.907
 7351SOL    HW122952   6.183   4.895   6.869
 7351SOL    HW222953   6.081   4.837   6.982
 7352SOL     OW22954   6.617   1.497   3.182
 7352SOL    HW122955   6.551   1.554   3.133
 7352SOL    HW222956   6.655   1.549   3.259
 7353SOL     OW22957   5.506   1.754   4.969
 7353SOL    HW122958   5.433   1.823   4.970
 7353SOL    HW222959   5.475   1.674   4.916
 7354SOL     OW22960   5.653   4.256   5.449
 7354SOL    HW122961   5.684   4.315   5.523
 7354SOL    HW222962   5.704   4.170   5.450
 7355SOL     OW22963   7.019   5.575   0.656
 7355SOL    HW122964   6.971   5.517   0.722
 7355SOL    HW222965   6.960   5.651   0.629
 7356SOL     OW22966   6.972   2.087   6.185
 7356SOL    HW122967   6.891   2.112   6.133
 7356SOL    HW222968   0.026   2.136   6.149
 7357SOL     OW22969   0.247   1.219   0.703
 7357SOL    HW122970   0.248   1.318   0.707
 7357SOL    HW222971   0.178   1.183   0.765
 7358SOL     OW22972   3.345   1.517   3.772
 7358SOL    HW122973   3.279   1.452   3.733
 7358SOL    HW222974   3.305   1.561   3.852
 7359SOL     OW22975   3.184   3.400   4.311
 7359SOL    HW122976   3.156   3.483   4.262
 7359SOL    HW222977   3.123   3.325   4.287
 7360SOL     OW22978   1.718   4.241   6.042
 7360SOL    HW122979   1.677   4.331   6.023
 7360SOL    HW222980   1.732   4.231   6.140
 7361SOL     OW22981   4.617   0.019   1.841
 7361SOL    HW122982   4.607   0.062   1.930
 7361SOL    HW222983   4.551   6.969   1.832
 7362SOL     OW22984   1.104   4.851   0.059
 7362SOL    HW122985   1.054   4.845   0.146
 7362SOL    HW222986   1.133   4.945   0.044
 7363SOL     OW22987   5.015   1.958   5.857
 7363SOL    HW122988   5.036   1.977   5.953
 7363SOL    HW222989   4.926   1.914   5.851
 7364SOL     OW22990   5.207   0.070   0.405
 7364SOL    HW122991   5.182   7.024   0.471
 7364SOL    HW222992   5.291   0.043   0.357
 7365SOL     OW22993   5.332   6.911   1.433
 7365SOL    HW122994   5.289   6.993   1.397
 7365SOL    HW222995   5.390   6.870   1.363
 7366SOL     OW22996   2.728   6.736   0.409
 7366SOL    HW122997   2.807   6.779   0.453
 7366SOL    HW222998   2.651   6.737   0.472
 7367SOL     OW22999   4.459   3.133   6.127
 7367SOL    HW123000   4.411   3.120   6.214
 7367SOL    HW223001   4.395   3.121   6.052
 7368SOL     OW23002   3.270   2.975   4.777
 7368SOL    HW123003   3.203   3.016   4.840
 7368SOL    HW223004   3.228   2.964   4.687
 7369SOL     OW23005   6.846   6.690   6.431
 7369SOL    HW123006   6.837   6.686   6.530
 7369SOL    HW223007   6.769   6.641   6.389
 7370SOL     OW23008   0.078   5.786   1.131
 7370SOL    HW123009   0.033   5.806   1.218
 7370SOL    HW223010   0.010   5.787   1.058
 7371SOL     OW23011   2.088   4.579   3.847
 7371SOL    HW123012   2.058   4.534   3.762
 7371SOL    HW223013   2.153   4.652   3.824
 7372SOL     OW23014   2.841   0.409   5.189
 7372SOL    HW123015   2.874   0.327   5.143
 7372SOL    HW223016   2.913   0.446   5.248
 7373SOL     OW23017   3.935   1.594   1.157
 7373SOL    HW123018   3.876   1.625   1.232
 7373SOL    HW223019   3.889   1.611   1.070
 7374SOL     OW23020   2.129   3.715   0.459
 7374SOL    HW123021   2.075   3.673   0.532
 7374SOL    HW223022   2.120   3.814   0.464
 7375SOL     OW23023   2.223   5.601   3.128
 7375SOL    HW123024   2.312   5.614   3.085
 7375SOL    HW223025   2.235   5.555   3.216
 7376SOL     OW23026   3.246   4.213   6.982
 7376SOL    HW123027   3.301   4.151   0.013
 7376SOL    HW223028   3.153   4.218   7.019
 7377SOL     OW23029   5.420   6.006   1.271
 7377SOL    HW123030   5.394   5.910   1.267
 7377SOL    HW223031   5.517   6.014   1.293
 7378SOL     OW23032   1.002   1.839   6.181
 7378SOL    HW123033   1.007   1.746   6.217
 7378SOL    HW223034   1.052   1.901   6.241
 7379SOL     OW23035   4.254   0.609   0.560
 7379SOL    HW123036   4.227   0.705   0.564
 7379SOL    HW223037   4.230   0.564   0.646
 7380SOL     OW23038   0.144   3.096   6.927
 7380SOL    HW123039   0.204   3.137   6.858
 7380SOL    HW223040   0.084   3.029   6.884
 7381SOL     OW23041   5.224   2.578   0.844
 7381SOL    HW123042   5.198   2.672   0.866
 7381SOL    HW223043   5.144   2.519   0.848
 7382SOL     OW23044   1.125   5.087   3.620
 7382SOL    HW123045   1.128   5.008   3.681
 7382SOL    HW223046   1.109   5.056   3.526
 7383SOL     OW23047   1.851   4.462   2.669
 7383SOL    HW123048   1.924   4.394   2.676
 7383SOL    HW223049   1.890   4.550   2.641
 7384SOL     OW23050   5.929   1.428   1.390
 7384SOL    HW123051   6.021   1.418   1.428
 7384SOL    HW223052   5.882   1.340   1.394
 7385SOL     OW23053   5.342   0.225   1.905
 7385SOL    HW123054   5.421   0.202   1.961
 7385SOL    HW223055   5.372   0.253   1.814
 7386SOL     OW23056   6.234   1.694   5.667
 7386SOL    HW123057   6.268   1.751   5.593
 7386SOL    HW223058   6.312   1.653   5.716
 7387SOL     OW23059   4.576   5.985   3.807
 7387SOL    HW123060   4.673   5.980   3.784
 7387SOL    HW223061   4.562   6.053   3.879
 7388SOL     OW23062   5.080   3.568   4.722
 7388SOL    HW123063   5.072   3.487   4.780
 7388SOL    HW223064   5.006   3.632   4.743
 7389SOL     OW23065   2.299   2.965   5.551
 7389SOL    HW123066   2.388   3.005   5.529
 7389SOL    HW223067   2.297   2.937   5.647
 7390SOL     OW23068   4.660   6.689   0.627
 7390SOL    HW123069   4.750   6.727   0.648
 7390SOL    HW223070   4.670   6.592   0.605
 7391SOL     OW23071   6.656   5.607   0.851
 7391SOL    HW123072   6.594   5.543   0.806
 7391SOL    HW223073   6.605   5.686   0.884
 7392SOL     OW23074   1.791   4.254   2.395
 7392SOL    HW123075   1.769   4.186   2.465
 7392SOL    HW223076   1.888   4.249   2.373
 7393SOL     OW23077   1.421   3.963   0.653
 7393SOL    HW123078   1.505   3.916   0.678
 7393SOL    HW223079   1.372   3.910   0.583
 7394SOL     OW23080   2.879   3.456   6.956
 7394SOL    HW123081   2.876   3.537   6.898
 7394SOL    HW223082   2.908   3.377   6.902
 7395SOL     OW23083   2.569   0.103   6.882
 7395SOL    HW123084   2.661   0.110   6.922
 7395SOL    HW223085   2.574   0.057   6.794
 7396SOL     OW23086   6.857   6.972   2.368
 7396SOL    HW123087   6.923   6.907   2.405
 7396SOL    HW223088   6.876   0.038   2.405
 7397SOL     OW23089   5.966   4.098   3.851
 7397SOL    HW123090   5.962   4.166   3.778
 7397SOL    HW223091   5.912   4.128   3.929
 7398SOL     OW23092   4.235   6.318   2.801
 7398SOL    HW123093   4.252   6.327   2.899
 7398SOL    HW223094   4.321   6.322   2.751
 7399SOL     OW23095   4.955   5.907   4.085
 7399SOL    HW123096   5.050   5.932   4.066
 7399SOL    HW223097   4.931   5.934   4.178
 7400SOL     OW23098   2.757   4.614   6.532
 7400SOL    HW123099   2.708   4.540   6.578
 7400SOL    HW223100   2.854   4.590   6.525
 7401SOL     OW23101   6.657   2.797   3.959
 7401SOL    HW123102   6.586   2.727   3.957
 7401SOL    HW223103   6.618   2.885   3.933
 7402SOL     OW23104   1.947   6.316   4.660
 7402SOL    HW123105   1.994   6.297   4.574
 7402SOL    HW223106   1.892   6.237   4.687
 7403SOL     OW23107   2.515   2.882   1.788
 7403SOL    HW123108   2.419   2.853   1.788
 7403SOL    HW223109   2.573   2.804   1.762
 7404SOL     OW23110   1.270   3.114   2.902
 7404SOL    HW123111   1.277   3.083   2.996
 7404SOL    HW223112   1.227   3.204   2.899
 7405SOL     OW23113   3.416   4.837   6.340
 7405SOL    HW123114   3.496   4.883   6.301
 7405SOL    HW223115   3.383   4.767   6.277
 7406SOL     OW23116   6.349   6.213   2.959
 7406SOL    HW123117   6.347   6.119   2.991
 7406SOL    HW223118   6.347   6.214   2.859
 7407SOL     OW23119   3.904   1.372   5.866
 7407SOL    HW123120   4.000   1.386   5.890
 7407SOL    HW223121   3.887   1.275   5.851
 7408SOL     OW23122   1.119   3.483   4.674
 7408SOL    HW123123   1.183   3.560   4.663
 7408SOL    HW223124   1.153   3.405   4.622
 7409SOL     OW23125   2.161   0.103   4.730
 7409SOL    HW123126   2.229   0.037   4.697
 7409SOL    HW223127   2.175   0.191   4.684
 7410SOL     OW23128   4.728   5.817   5.882
 7410SOL    HW123129   4.632   5.792   5.891
 7410SOL    HW223130   4.781   5.737   5.854
 7411SOL     OW23131   6.248   3.858   5.497
 7411SOL    HW123132   6.237   3.758   5.502
 7411SOL    HW223133   6.157   3.901   5.498
 7412SOL     OW23134   1.256   0.587   0.593
 7412SOL    HW123135   1.242   0.489   0.607
 7412SOL    HW223136   1.180   0.638   0.634
 7413SOL     OW23137   6.475   3.965   3.428
 7413SOL    HW123138   6.532   4.031   3.477
 7413SOL    HW223139   6.480   3.876   3.474
 7414SOL     OW23140   0.032   6.038   2.087
 7414SOL    HW123141   0.075   6.006   2.002
 7414SOL    HW223142   0.078   6.121   2.119
 7415SOL     OW23143   2.776   1.467   2.920
 7415SOL    HW123144   2.829   1.523   2.856
 7415SOL    HW223145   2.723   1.526   2.981
 7416SOL     OW23146   6.028   0.336   2.472
 7416SOL    HW123147   5.976   0.316   2.555
 7416SOL    HW223148   6.102   0.270   2.462
 7417SOL     OW23149   0.292   5.279   1.416
 7417SOL    HW123150   0.233   5.267   1.496
 7417SOL    HW223151   0.371   5.336   1.441
 7418SOL     OW23152   2.438   3.677   0.946
 7418SOL    HW123153   2.435   3.633   0.856
 7418SOL    HW223154   2.349   3.668   0.991
 7419SOL     OW23155   6.551   1.954   5.679
 7419SOL    HW123156   6.640   1.986   5.645
 7419SOL    HW223157   6.565   1.884   5.749
 7420SOL     OW23158   0.371   5.483   2.007
 7420SOL    HW123159   0.411   5.521   2.091
 7420SOL    HW223160   0.442   5.434   1.956
 7421SOL     OW23161   4.223   2.258   1.501
 7421SOL    HW123162   4.154   2.241   1.571
 7421SOL    HW223163   4.302   2.198   1.517
 7422SOL     OW23164   1.311   2.312   0.465
 7422SOL    HW123165   1.230   2.337   0.516
 7422SOL    HW223166   1.329   2.214   0.476
 7423SOL     OW23167   3.014   4.396   0.393
 7423SOL    HW123168   3.090   4.390   0.458
 7423SOL    HW223169   2.932   4.429   0.440
 7424SOL     OW23170   5.515   0.302   3.722
 7424SOL    HW123171   5.471   0.260   3.801
 7424SOL    HW223172   5.596   0.352   3.751
 7425SOL     OW23173   3.482   0.586   4.533
 7425SOL    HW123174   3.387   0.584   4.562
 7425SOL    HW223175   3.515   0.492   4.522
 7426SOL     OW23176   0.244   0.525   6.672
 7426SOL    HW123177   0.205   0.599   6.727
 7426SOL    HW223178   0.169   0.472   6.632
 7427SOL     OW23179   5.303   5.330   5.672
 7427SOL    HW123180   5.346   5.268   5.738
 7427SOL    HW223181   5.222   5.286   5.633
 7428SOL     OW23182   5.320   1.661   5.398
 7428SOL    HW123183   5.244   1.646   5.461
 7428SOL    HW223184   5.386   1.723   5.440
 7429SOL     OW23185   5.853   5.974   3.446
 7429SOL    HW123186   5.848   6.060   3.496
 7429SOL    HW223187   5.911   5.985   3.365
 7430SOL     OW23188   0.843   4.057   4.506
 7430SOL    HW123189   0.859   3.981   4.569
 7430SOL    HW223190   0.885   4.037   4.418
 7431SOL     OW23191   0.129   3.974   2.667
 7431SOL    HW123192   0.119   4.019   2.756
 7431SOL    HW223193   0.217   4.000   2.627
 7432SOL     OW23194   2.071   6.018   5.837
 7432SOL    HW123195   2.011   5.980   5.767
 7432SOL    HW223196   2.143   5.952   5.858
 7433SOL     OW23197   0.572   6.764   0.728
 7433SOL    HW123198   0.487   6.816   0.742
 7433SOL    HW223199   0.550   6.668   0.711
 7434SOL     OW23200   4.454   6.879   0.672
 7434SOL    HW123201   4.458   6.948   0.600
 7434SOL    HW223202   4.532   6.816   0.662
 7435SOL     OW23203   0.985   4.724   6.862
 7435SOL    HW123204   0.994   4.774   6.948
 7435SOL    HW223205   1.076   4.711   6.822
 7436SOL     OW23206   5.010   3.720   6.816
 7436SOL    HW123207   4.999   3.663   6.734
 7436SOL    HW223208   5.075   3.794   6.797
 7437SOL     OW23209   6.817   6.633   5.568
 7437SOL    HW123210   6.855   6.550   5.609
 7437SOL    HW223211   6.793   6.697   5.641
 7438SOL     OW23212   6.284   4.260   0.427
 7438SOL    HW123213   6.252   4.336   0.485
 7438SOL    HW223214   6.381   4.244   0.444
 7439SOL     OW23215   1.291   6.536   3.095
 7439SOL    HW123216   1.209   6.575   3.051
 7439SOL    HW223217   1.358   6.608   3.109
 7440SOL     OW23218   0.941   0.832   4.759
 7440SOL    HW123219   0.849   0.792   4.765
 7440SOL    HW223220   0.993   0.784   4.688
 7441SOL     OW23221   6.618   0.708   4.157
 7441SOL    HW123222   6.701   0.651   4.157
 7441SOL    HW223223   6.544   0.660   4.110
 7442SOL     OW23224   1.820   0.816   0.250
 7442SOL    HW123225   1.846   0.893   0.308
 7442SOL    HW223226   1.730   0.782   0.277
 7443SOL     OW23227   6.617   1.578   1.637
 7443SOL    HW123228   6.535   1.636   1.640
 7443SOL    HW223229   6.600   1.495   1.690
 7444SOL     OW23230   1.628   2.798   5.659
 7444SOL    HW123231   1.653   2.806   5.756
 7444SOL    HW223232   1.594   2.706   5.641
 7445SOL     OW23233   5.556   3.133   2.662
 7445SOL    HW123234   5.513   3.047   2.690
 7445SOL    HW223235   5.497   3.180   2.597
 7446SOL     OW23236   4.661   4.424   2.913
 7446SOL    HW123237   4.609   4.338   2.918
 7446SOL    HW223238   4.706   4.441   3.001
 7447SOL     OW23239   1.380   3.308   6.070
 7447SOL    HW123240   1.340   3.348   6.152
 7447SOL    HW223241   1.311   3.305   5.997
 7448SOL     OW23242   0.547   0.920   5.708
 7448SOL    HW123243   0.545   0.870   5.795
 7448SOL    HW223244   0.541   1.018   5.726
 7449SOL     OW23245   3.249   0.924   3.397
 7449SOL    HW123246   3.241   0.833   3.357
 7449SOL    HW223247   3.266   0.991   3.324
 7450SOL     OW23248   4.015   1.428   1.878
 7450SOL    HW123249   4.031   1.527   1.880
 7450SOL    HW223250   3.956   1.405   1.801
 7451SOL     OW23251   1.217   0.603   1.880
 7451SOL    HW123252   1.198   0.699   1.857
 7451SOL    HW223253   1.162   0.576   1.958
 7452SOL     OW23254   1.893   5.851   2.916
 7452SOL    HW123255   1.900   5.773   2.979
 7452SOL    HW223256   1.972   5.911   2.928
 7453SOL     OW23257   6.708   4.552   5.044
 7453SOL    HW123258   6.687   4.577   5.138
 7453SOL    HW223259   6.704   4.453   5.033
 7454SOL     OW23260   2.469   1.942   0.138
 7454SOL    HW123261   2.554   1.993   0.152
 7454SOL    HW223262   2.487   1.860   0.084
 7455SOL     OW23263   4.752   6.967   0.934
 7455SOL    HW123264   4.792   0.027   0.900
 7455SOL    HW223265   4.820   6.894   0.928
 7456SOL     OW23266   1.453   3.525   5.743
 7456SOL    HW123267   1.504   3.447   5.779
 7456SOL    HW223268   1.358   3.521   5.777
 7457SOL     OW23269   0.230   6.374   5.928
 7457SOL    HW123270   0.248   6.471   5.919
 7457SOL    HW223271   0.148   6.360   5.983
 7458SOL     OW23272   2.698   0.205   1.480
 7458SOL    HW123273   2.612   0.228   1.526
 7458SOL    HW223274   2.741   0.288   1.446
 7459SOL     OW23275   3.833   6.279   3.414
 7459SOL    HW123276   3.753   6.242   3.461
 7459SOL    HW223277   3.805   6.354   3.354
 7460SOL     OW23278   0.888   5.213   6.378
 7460SOL    HW123279   0.892   5.301   6.330
 7460SOL    HW223280   0.923   5.141   6.318
 7461SOL     OW23281   3.729   1.442   3.451
 7461SOL    HW123282   3.664   1.432   3.526
 7461SOL    HW223283   3.822   1.426   3.485
 7462SOL     OW23284   1.671   1.799   3.859
 7462SOL    HW123285   1.657   1.887   3.904
 7462SOL    HW223286   1.596   1.782   3.795
 7463SOL     OW23287   3.739   4.097   2.879
 7463SOL    HW123288   3.657   4.047   2.909
 7463SOL    HW223289   3.821   4.046   2.905
 7464SOL     OW23290   4.519   5.770   0.286
 7464SOL    HW123291   4.545   5.682   0.247
 7464SOL    HW223292   4.486   5.757   0.379
 7465SOL     OW23293   3.421   1.438   2.916
 7465SOL    HW123294   3.331   1.403   2.941
 7465SOL    HW223295   3.467   1.374   2.854
 7466SOL     OW23296   6.847   6.737   0.675
 7466SOL    HW123297   6.876   6.832   0.664
 7466SOL    HW223298   6.915   6.677   0.632
 7467SOL     OW23299   4.222   2.473   1.257
 7467SOL    HW123300   4.218   2.433   1.349
 7467SOL    HW223301   4.293   2.428   1.203
 7468SOL     OW23302   5.220   4.577   4.900
 7468SOL    HW123303   5.243   4.544   4.809
 7468SOL    HW223304   5.228   4.502   4.966
 7469SOL     OW23305   5.628   2.088   1.466
 7469SOL    HW123306   5.668   1.998   1.482
 7469SOL    HW223307   5.701   2.153   1.445
 7470SOL     OW23308   0.751   3.324   3.126
 7470SOL    HW123309   0.702   3.380   3.059
 7470SOL    HW223310   0.850   3.330   3.109
 7471SOL     OW23311   6.809   4.309   5.641
 7471SOL    HW123312   6.900   4.311   5.600
 7471SOL    HW223313   6.783   4.215   5.660
 7472SOL     OW23314   4.259   5.491   3.256
 7472SOL    HW123315   4.336   5.477   3.195
 7472SOL    HW223316   4.226   5.402   3.289
 7473SOL     OW23317   1.656   2.455   6.676
 7473SOL    HW123318   1.722   2.472   6.750
 7473SOL    HW223319   1.686   2.377   6.622
 7474SOL     OW23320   2.752   1.262   2.087
 7474SOL    HW123321   2.781   1.218   2.172
 7474SOL    HW223322   2.654   1.249   2.074
 7475SOL     OW23323   5.141   0.659   6.061
 7475SOL    HW123324   5.124   0.744   6.112
 7475SOL    HW223325   5.196   0.680   5.980
 7476SOL     OW23326   2.107   6.652   4.633
 7476SOL    HW123327   2.012   6.659   4.661
 7476SOL    HW223328   2.138   6.558   4.644
 7477SOL     OW23329   4.575   4.564   4.709
 7477SOL    HW123330   4.610   4.540   4.800
 7477SOL    HW223331   4.581   4.663   4.697
 7478SOL     OW23332   0.383   4.356   1.238
 7478SOL    HW123333   0.408   4.435   1.295
 7478SOL    HW223334   0.284   4.345   1.238
 7479SOL     OW23335   3.773   0.477   4.620
 7479SOL    HW123336   3.749   0.555   4.678
 7479SOL    HW223337   3.712   0.401   4.639
 7480SOL     OW23338   5.557   5.302   7.011
 7480SOL    HW123339   5.523   5.343   0.070
 7480SOL    HW223340   5.627   5.234   0.008
 7481SOL     OW23341   5.836   6.377   0.242
 7481SOL    HW123342   5.879   6.459   0.205
 7481SOL    HW223343   5.768   6.403   0.310
 7482SOL     OW23344   4.734   0.530   5.092
 7482SOL    HW123345   4.751   0.494   5.001
 7482SOL    HW223346   4.684   0.462   5.146
 7483SOL     OW23347   3.229   0.255   6.887
 7483SOL    HW123348   3.153   0.308   6.925
 7483SOL    HW223349   3.206   0.158   6.888
 7484SOL     OW23350   3.142   6.865   1.017
 7484SOL    HW123351   3.192   6.850   0.932
 7484SOL    HW223352   3.147   6.962   1.042
 7485SOL     OW23353   0.935   0.187   5.188
 7485SOL    HW123354   0.892   0.110   5.141
 7485SOL    HW223355   0.866   0.241   5.235
 7486SOL     OW23356   1.444   2.156   5.230
 7486SOL    HW123357   1.447   2.057   5.247
 7486SOL    HW223358   1.509   2.179   5.158
 7487SOL     OW23359   3.015   5.342   2.857
 7487SOL    HW123360   3.009   5.372   2.761
 7487SOL    HW223361   2.974   5.251   2.866
 7488SOL     OW23362   4.438   1.634   4.863
 7488SOL    HW123363   4.482   1.715   4.825
 7488SOL    HW223364   4.343   1.630   4.831
 7489SOL     OW23365   0.912   3.177   3.569
 7489SOL    HW123366   0.823   3.172   3.524
 7489SOL    HW223367   0.905   3.142   3.663
 7490SOL     OW23368   5.756   6.862   2.128
 7490SOL    HW123369   5.664   6.885   2.156
 7490SOL    HW223370   5.809   6.945   2.113
 7491SOL     OW23371   0.824   6.775   0.854
 7491SOL    HW123372   0.738   6.773   0.803
 7491SOL    HW223373   0.804   6.766   0.951
 7492SOL     OW23374   1.913   1.971   2.795
 7492SOL    HW123375   1.935   1.959   2.892
 7492SOL    HW223376   1.820   1.939   2.778
 7493SOL     OW23377   5.808   4.212   6.587
 7493SOL    HW123378   5.749   4.175   6.515
 7493SOL    HW223379   5.888   4.256   6.545
 7494SOL     OW23380   4.858   1.945   1.533
 7494SOL    HW123381   4.874   2.035   1.493
 7494SOL    HW223382   4.880   1.948   1.631
 7495SOL     OW23383   1.392   1.471   3.672
 7495SOL    HW123384   1.365   1.445   3.765
 7495SOL    HW223385   1.490   1.460   3.661
 7496SOL     OW23386   0.964   5.007   6.211
 7496SOL    HW123387   0.938   5.024   6.116
 7496SOL    HW223388   1.014   4.920   6.217
 7497SOL     OW23389   0.978   4.949   3.068
 7497SOL    HW123390   0.931   4.900   2.995
 7497SOL    HW223391   1.072   4.915   3.076
 7498SOL     OW23392   5.257   2.083   4.401
 7498SOL    HW123393   5.270   2.131   4.314
 7498SOL    HW223394   5.346   2.066   4.443
 7499SOL     OW23395   3.905   5.336   3.581
 7499SOL    HW123396   3.957   5.334   3.496
 7499SOL    HW223397   3.932   5.415   3.636
 7500SOL     OW23398   4.984   4.303   1.336
 7500SOL    HW123399   5.038   4.330   1.256
 7500SOL    HW223400   4.953   4.384   1.385
 7501SOL     OW23401   0.905   3.990   3.571
 7501SOL    HW123402   0.984   3.949   3.524
 7501SOL    HW223403   0.926   4.086   3.592
 7502SOL     OW23404   1.315   1.885   4.079
 7502SOL    HW123405   1.402   1.932   4.095
 7502SOL    HW223406   1.305   1.866   3.982
 7503SOL     OW23407   2.130   1.774   0.247
 7503SOL    HW123408   2.042   1.821   0.237
 7503SOL    HW223409   2.195   1.834   0.293
 7504SOL     OW23410   5.017   6.114   5.384
 7504SOL    HW123411   5.019   6.091   5.482
 7504SOL    HW223412   5.088   6.063   5.337
 7505SOL     OW23413   1.412   1.993   3.489
 7505SOL    HW123414   1.410   1.932   3.568
 7505SOL    HW223415   1.324   1.990   3.442
 7506SOL     OW23416   4.041   0.650   3.349
 7506SOL    HW123417   4.007   0.585   3.281
 7506SOL    HW223418   4.004   0.628   3.439
 7507SOL     OW23419   1.625   0.254   5.411
 7507SOL    HW123420   1.652   0.316   5.484
 7507SOL    HW223421   1.648   0.295   5.322
 7508SOL     OW23422   5.405   6.028   3.255
 7508SOL    HW123423   5.402   6.095   3.329
 7508SOL    HW223424   5.381   6.073   3.168
 7509SOL     OW23425   3.418   4.404   6.302
 7509SOL    HW123426   3.485   4.444   6.366
 7509SOL    HW223427   3.350   4.474   6.278
 7510SOL     OW23428   4.105   3.395   5.044
 7510SOL    HW123429   4.092   3.316   4.984
 7510SOL    HW223430   4.149   3.469   4.992
 7511SOL     OW23431   1.118   1.387   2.130
 7511SOL    HW123432   1.147   1.337   2.212
 7511SOL    HW223433   1.165   1.475   2.128
 7512SOL     OW23434   2.307   2.664   2.517
 7512SOL    HW123435   2.315   2.705   2.426
 7512SOL    HW223436   2.257   2.725   2.577
 7513SOL     OW23437   2.178   3.268   6.777
 7513SOL    HW123438   2.273   3.238   6.783
 7513SOL    HW223439   2.173   3.353   6.725
 7514SOL     OW23440   3.106   5.170   3.217
 7514SOL    HW123441   3.194   5.213   3.196
 7514SOL    HW223442   3.118   5.071   3.220
 7515SOL     OW23443   0.256   4.968   3.260
 7515SOL    HW123444   0.250   4.948   3.162
 7515SOL    HW223445   0.242   4.884   3.312
 7516SOL     OW23446   2.106   3.137   1.182
 7516SOL    HW123447   2.148   3.056   1.140
 7516SOL    HW223448   2.172   3.211   1.183
 7517SOL     OW23449   1.230   5.180   2.386
 7517SOL    HW123450   1.288   5.099   2.385
 7517SOL    HW223451   1.138   5.154   2.416
 7518SOL     OW23452   5.197   4.039   2.422
 7518SOL    HW123453   5.103   4.008   2.411
 7518SOL    HW223454   5.252   4.010   2.344
 7519SOL     OW23455   1.763   0.383   4.890
 7519SOL    HW123456   1.838   0.449   4.879
 7519SOL    HW223457   1.728   0.357   4.800
 7520SOL     OW23458   1.892   0.109   4.698
 7520SOL    HW123459   1.840   0.105   4.783
 7520SOL    HW223460   1.990   0.101   4.718
 7521SOL     OW23461   4.647   2.937   6.034
 7521SOL    HW123462   4.598   3.012   6.079
 7521SOL    HW223463   4.604   2.916   5.946
 7522SOL     OW23464   2.065   6.801   2.900
 7522SOL    HW123465   2.130   6.859   2.948
 7522SOL    HW223466   2.052   6.835   2.807
 7523SOL     OW23467   6.764   6.349   6.657
 7523SOL    HW123468   6.764   6.448   6.672
 7523SOL    HW223469   6.857   6.317   6.638
 7524SOL     OW23470   6.485   1.313   5.108
 7524SOL    HW123471   6.500   1.347   5.015
 7524SOL    HW223472   6.564   1.337   5.165
 7525SOL     OW23473   0.208   0.195   0.797
 7525SOL    HW123474   0.295   0.245   0.793
 7525SOL    HW223475   0.208   0.137   0.878
 7526SOL     OW23476   3.951   2.983   5.498
 7526SOL    HW123477   4.040   2.976   5.544
 7526SOL    HW223478   3.952   2.928   5.415
 7527SOL     OW23479   2.589   6.255   2.162
 7527SOL    HW123480   2.668   6.205   2.128
 7527SOL    HW223481   2.526   6.192   2.207
 7528SOL     OW23482   6.146   2.871   0.322
 7528SOL    HW123483   6.140   2.949   0.261
 7528SOL    HW223484   6.099   2.792   0.280
 7529SOL     OW23485   1.543   0.165   4.267
 7529SOL    HW123486   1.546   0.065   4.270
 7529SOL    HW223487   1.499   0.200   4.350
 7530SOL     OW23488   0.101   3.159   2.843
 7530SOL    HW123489   0.119   3.061   2.836
 7530SOL    HW223490   0.141   3.194   2.928
 7531SOL     OW23491   1.923   2.022   3.898
 7531SOL    HW123492   1.946   1.939   3.847
 7531SOL    HW223493   1.925   2.101   3.837
 7532SOL     OW23494   4.655   4.310   2.216
 7532SOL    HW123495   4.648   4.400   2.174
 7532SOL    HW223496   4.610   4.242   2.158
 7533SOL     OW23497   3.426   0.961   5.038
 7533SOL    HW123498   3.486   1.038   5.018
 7533SOL    HW223499   3.390   0.923   4.952
 7534SOL     OW23500   3.828   6.442   4.306
 7534SOL    HW123501   3.875   6.377   4.246
 7534SOL    HW223502   3.893   6.513   4.334
 7535SOL     OW23503   2.927   5.369   6.942
 7535SOL    HW123504   2.898   5.308   6.868
 7535SOL    HW223505   2.969   5.451   6.902
 7536SOL     OW23506   4.806   5.253   6.239
 7536SOL    HW123507   4.750   5.271   6.319
 7536SOL    HW223508   4.881   5.319   6.235
 7537SOL     OW23509   2.447   4.513   5.255
 7537SOL    HW123510   2.454   4.524   5.156
 7537SOL    HW223511   2.355   4.538   5.285
 7538SOL     OW23512   3.518   4.197   5.126
 7538SOL    HW123513   3.596   4.151   5.170
 7538SOL    HW223514   3.475   4.259   5.192
 7539SOL     OW23515   0.638   2.290   4.766
 7539SOL    HW123516   0.649   2.389   4.777
 7539SOL    HW223517   0.541   2.268   4.761
 7540SOL     OW23518   2.838   0.672   0.071
 7540SOL    HW123519   2.771   0.613   0.115
 7540SOL    HW223520   2.793   0.753   0.034
 7541SOL     OW23521   0.438   2.014   6.027
 7541SOL    HW123522   0.408   1.921   6.052
 7541SOL    HW223523   0.392   2.081   6.085
 7542SOL     OW23524   1.528   0.221   4.783
 7542SOL    HW123525   1.481   0.303   4.816
 7542SOL    HW223526   1.563   0.169   4.860
 7543SOL     OW23527   2.956   2.479   1.295
 7543SOL    HW123528   3.053   2.503   1.298
 7543SOL    HW223529   2.921   2.470   1.388
 7544SOL     OW23530   1.366   2.093   2.125
 7544SOL    HW123531   1.327   2.079   2.216
 7544SOL    HW223532   1.332   2.180   2.088
 7545SOL     OW23533   4.667   0.292   3.376
 7545SOL    HW123534   4.721   0.309   3.293
 7545SOL    HW223535   4.685   0.200   3.410
 7546SOL     OW23536   5.236   6.996   5.312
 7546SOL    HW123537   5.288   0.056   5.300
 7546SOL    HW223538   5.237   6.970   5.409
 7547SOL     OW23539   2.611   6.412   0.234
 7547SOL    HW123540   2.668   6.357   0.172
 7547SOL    HW223541   2.651   6.413   0.325
 7548SOL     OW23542   2.593   3.832   1.085
 7548SOL    HW123543   2.539   3.787   1.014
 7548SOL    HW223544   2.592   3.777   1.168
 7549SOL     OW23545   5.952   0.316   2.210
 7549SOL    HW123546   5.975   0.324   2.306
 7549SOL    HW223547   5.889   0.390   2.184
 7550SOL     OW23548   0.849   4.877   0.801
 7550SOL    HW123549   0.896   4.925   0.727
 7550SOL    HW223550   0.874   4.780   0.800
 7551SOL     OW23551   4.934   3.651   5.909
 7551SOL    HW123552   4.966   3.629   6.001
 7551SOL    HW223553   4.871   3.580   5.877
 7552SOL     OW23554   3.618   5.880   4.034
 7552SOL    HW123555   3.581   5.787   4.034
 7552SOL    HW223556   3.710   5.879   4.073
 7553SOL     OW23557   4.289   4.031   6.171
 7553SOL    HW123558   4.291   3.932   6.189
 7553SOL    HW223559   4.195   4.059   6.149
 7554SOL     OW23560   0.205   1.716   1.073
 7554SOL    HW123561   0.136   1.765   1.019
 7554SOL    HW223562   0.240   1.775   1.144
 7555SOL     OW23563   1.948   6.618   5.786
 7555SOL    HW123564   2.034   6.596   5.831
 7555SOL    HW223565   1.894   6.679   5.844
 7556SOL     OW23566   6.802   3.558   2.751
 7556SOL    HW123567   6.865   3.495   2.795
 7556SOL    HW223568   6.750   3.510   2.680
 7557SOL     OW23569   4.350   3.976   0.711
 7557SOL    HW123570   4.360   4.013   0.803
 7557SOL    HW223571   4.282   3.902   0.712
 7558SOL     OW23572   1.605   3.434   3.672
 7558SOL    HW123573   1.621   3.354   3.614
 7558SOL    HW223574   1.556   3.407   3.754
 7559SOL     OW23575   0.746   5.020   0.081
 7559SOL    HW123576   0.680   5.008   0.007
 7559SOL    HW223577   0.769   5.117   0.090
 7560SOL     OW23578   4.677   0.282   5.490
 7560SOL    HW123579   4.671   0.211   5.559
 7560SOL    HW223580   4.611   0.355   5.510
 7561SOL     OW23581   0.884   3.287   6.876
 7561SOL    HW123582   0.916   3.247   6.961
 7561SOL    HW223583   0.924   3.378   6.865
 7562SOL     OW23584   4.409   6.533   5.178
 7562SOL    HW123585   4.508   6.548   5.184
 7562SOL    HW223586   4.391   6.449   5.127
 7563SOL     OW23587   1.979   1.329   3.580
 7563SOL    HW123588   1.922   1.279   3.645
 7563SOL    HW223589   1.921   1.370   3.510
 7564SOL     OW23590   6.303   5.548   4.304
 7564SOL    HW123591   6.287   5.644   4.325
 7564SOL    HW223592   6.266   5.492   4.378
 7565SOL     OW23593   5.353   4.736   6.192
 7565SOL    HW123594   5.284   4.778   6.252
 7565SOL    HW223595   5.437   4.722   6.244
 7566SOL     OW23596   1.706   5.095   4.369
 7566SOL    HW123597   1.767   5.156   4.318
 7566SOL    HW223598   1.694   5.010   4.319
 7567SOL     OW23599   2.495   3.583   0.168
 7567SOL    HW123600   2.594   3.597   0.177
 7567SOL    HW223601   2.450   3.605   0.254
 7568SOL     OW23602   4.236   4.753   3.867
 7568SOL    HW123603   4.267   4.828   3.807
 7568SOL    HW223604   4.150   4.779   3.910
 7569SOL     OW23605   4.266   0.344   2.559
 7569SOL    HW123606   4.266   0.247   2.533
 7569SOL    HW223607   4.360   0.377   2.567
 7570SOL     OW23608   5.795   4.679   5.256
 7570SOL    HW123609   5.772   4.638   5.168
 7570SOL    HW223610   5.785   4.779   5.251
 7571SOL     OW23611   6.824   3.952   6.943
 7571SOL    HW123612   6.747   3.917   6.889
 7571SOL    HW223613   6.871   3.875   6.987
 7572SOL     OW23614   6.190   1.707   3.526
 7572SOL    HW123615   6.202   1.786   3.465
 7572SOL    HW223616   6.096   1.673   3.517
 7573SOL     OW23617   3.707   5.213   3.716
 7573SOL    HW123618   3.784   5.263   3.677
 7573SOL    HW223619   3.688   5.132   3.660
 7574SOL     OW23620   4.154   5.886   1.607
 7574SOL    HW123621   4.126   5.796   1.572
 7574SOL    HW223622   4.183   5.876   1.702
 7575SOL     OW23623   5.009   3.160   4.287
 7575SOL    HW123624   4.994   3.130   4.193
 7575SOL    HW223625   5.095   3.211   4.293
 7576SOL     OW23626   0.321   4.125   1.873
 7576SOL    HW123627   0.406   4.119   1.925
 7576SOL    HW223628   0.295   4.034   1.840
 7577SOL     OW23629   4.070   1.501   4.106
 7577SOL    HW123630   4.048   1.598   4.103
 7577SOL    HW223631   4.030   1.460   4.188
 7578SOL     OW23632   2.223   5.416   5.292
 7578SOL    HW123633   2.297   5.459   5.344
 7578SOL    HW223634   2.214   5.321   5.321
 7579SOL     OW23635   4.581   2.046   4.020
 7579SOL    HW123636   4.605   2.056   3.923
 7579SOL    HW223637   4.627   2.116   4.073
 7580SOL     OW23638   2.118   3.303   2.134
 7580SOL    HW123639   2.171   3.386   2.116
 7580SOL    HW223640   2.052   3.289   2.060
 7581SOL     OW23641   5.666   0.923   0.976
 7581SOL    HW123642   5.639   1.016   1.001
 7581SOL    HW223643   5.585   0.872   0.945
 7582SOL     OW23644   4.110   2.776   1.397
 7582SOL    HW123645   4.093   2.756   1.301
 7582SOL    HW223646   4.162   2.861   1.404
 7583SOL     OW23647   6.965   4.006   3.170
 7583SOL    HW123648   6.956   4.011   3.071
 7583SOL    HW223649   0.026   4.049   3.198
 7584SOL     OW23650   1.797   2.230   1.968
 7584SOL    HW123651   1.745   2.225   2.054
 7584SOL    HW223652   1.895   2.232   1.989
 7585SOL     OW23653   2.653   4.283   0.819
 7585SOL    HW123654   2.589   4.240   0.756
 7585SOL    HW223655   2.732   4.222   0.834
 7586SOL     OW23656   1.724   2.795   3.435
 7586SOL    HW123657   1.790   2.865   3.461
 7586SOL    HW223658   1.700   2.740   3.514
 7587SOL     OW23659   2.638   1.034   5.596
 7587SOL    HW123660   2.605   0.983   5.516
 7587SOL    HW223661   2.698   0.976   5.651
 7588SOL     OW23662   0.599   5.003   1.637
 7588SOL    HW123663   0.617   4.978   1.732
 7588SOL    HW223664   0.501   4.994   1.618
 7589SOL     OW23665   5.162   5.888   6.008
 7589SOL    HW123666   5.222   5.839   6.071
 7589SOL    HW223667   5.071   5.894   6.047
 7590SOL     OW23668   2.162   1.085   5.188
 7590SOL    HW123669   2.090   1.154   5.199
 7590SOL    HW223670   2.162   1.025   5.268
 7591SOL     OW23671   6.567   5.815   6.261
 7591SOL    HW123672   6.516   5.900   6.270
 7591SOL    HW223673   6.594   5.803   6.165
 7592SOL     OW23674   4.376   4.755   6.053
 7592SOL    HW123675   4.302   4.759   5.987
 7592SOL    HW223676   4.455   4.805   6.017
 7593SOL     OW23677   6.937   4.562   0.152
 7593SOL    HW123678   6.910   4.565   0.056
 7593SOL    HW223679   6.895   4.483   0.196
 7594SOL     OW23680   1.135   6.827   4.174
 7594SOL    HW123681   1.124   6.860   4.080
 7594SOL    HW223682   1.145   6.727   4.172
 7595SOL     OW23683   6.865   3.443   6.705
 7595SOL    HW123684   6.785   3.385   6.723
 7595SOL    HW223685   6.934   3.427   6.776
 7596SOL     OW23686   4.736   5.452   2.132
 7596SOL    HW123687   4.815   5.503   2.165
 7596SOL    HW223688   4.746   5.355   2.157
 7597SOL     OW23689   2.157   4.498   1.909
 7597SOL    HW123690   2.244   4.499   1.959
 7597SOL    HW223691   2.084   4.469   1.969
 7598SOL     OW23692   6.645   0.958   2.908
 7598SOL    HW123693   6.619   0.869   2.946
 7598SOL    HW223694   6.643   1.027   2.980
 7599SOL     OW23695   5.370   3.655   2.204
 7599SOL    HW123696   5.435   3.730   2.198
 7599SOL    HW223697   5.350   3.620   2.113
 7600SOL     OW23698   2.398   2.309   2.856
 7600SOL    HW123699   2.472   2.373   2.834
 7600SOL    HW223700   2.427   2.249   2.930
 7601SOL     OW23701   2.129   0.929   5.397
 7601SOL    HW123702   2.075   0.851   5.365
 7601SOL    HW223703   2.120   0.936   5.497
 7602SOL     OW23704   1.927   2.815   5.223
 7602SOL    HW123705   2.013   2.844   5.266
 7602SOL    HW223706   1.890   2.737   5.272
 7603SOL     OW23707   6.810   1.601   2.362
 7603SOL    HW123708   6.756   1.596   2.278
 7603SOL    HW223709   6.886   1.536   2.357
 7604SOL     OW23710   5.560   5.543   6.445
 7604SOL    HW123711   5.475   5.491   6.440
 7604SOL    HW223712   5.541   5.639   6.423
 7605SOL     OW23713   5.521   3.561   5.960
 7605SOL    HW123714   5.447   3.504   5.996
 7605SOL    HW223715   5.511   3.654   5.996
 7606SOL     OW23716   5.687   1.378   3.781
 7606SOL    HW123717   5.710   1.357   3.686
 7606SOL    HW223718   5.736   1.461   3.809
 7607SOL     OW23719   4.931   6.229   6.047
 7607SOL    HW123720   4.979   6.290   6.110
 7607SOL    HW223721   4.971   6.138   6.051
 7608SOL     OW23722   3.764   3.822   5.102
 7608SOL    HW123723   3.845   3.796   5.155
 7608SOL    HW223724   3.790   3.886   5.030
 7609SOL     OW23725   0.992   2.766   3.137
 7609SOL    HW123726   0.945   2.851   3.112
 7609SOL    HW223727   1.041   2.779   3.223
 7610SOL     OW23728   5.526   0.434   2.104
 7610SOL    HW123729   5.513   0.336   2.088
 7610SOL    HW223730   5.486   0.486   2.028
 7611SOL     OW23731   1.413   1.271   1.137
 7611SOL    HW123732   1.408   1.252   1.039
 7611SOL    HW223733   1.475   1.205   1.181
 7612SOL     OW23734   4.592   1.580   2.932
 7612SOL    HW123735   4.659   1.580   2.858
 7612SOL    HW223736   4.509   1.533   2.901
 7613SOL     OW23737   6.470   0.479   2.159
 7613SOL    HW123738   6.415   0.551   2.202
 7613SOL    HW223739   6.414   0.398   2.144
 7614SOL     OW23740   4.496   0.858   0.630
 7614SOL    HW123741   4.447   0.945   0.639
 7614SOL    HW223742   4.473   0.816   0.543
 7615SOL     OW23743   3.709   4.763   5.658
 7615SOL    HW123744   3.674   4.839   5.603
 7615SOL    HW223745   3.655   4.681   5.641
 7616SOL     OW23746   0.145   6.105   3.407
 7616SOL    HW123747   0.069   6.167   3.388
 7616SOL    HW223748   0.144   6.079   3.503
 7617SOL     OW23749   3.875   5.855   3.741
 7617SOL    HW123750   3.893   5.951   3.758
 7617SOL    HW223751   3.810   5.846   3.665
 7618SOL     OW23752   3.347   1.555   7.012
 7618SOL    HW123753   3.328   1.541   0.084
 7618SOL    HW223754   3.354   1.466   6.966
 7619SOL     OW23755   5.592   3.064   5.570
 7619SOL    HW123756   5.569   3.005   5.493
 7619SOL    HW223757   5.674   3.117   5.547
 7620SOL     OW23758   2.852   5.580   1.542
 7620SOL    HW123759   2.773   5.598   1.483
 7620SOL    HW223760   2.829   5.510   1.610
 7621SOL     OW23761   2.581   2.695   1.202
 7621SOL    HW123762   2.614   2.745   1.121
 7621SOL    HW223763   2.522   2.755   1.256
 7622SOL     OW23764   4.856   2.059   1.183
 7622SOL    HW123765   4.870   1.962   1.162
 7622SOL    HW223766   4.810   2.068   1.271
 7623SOL     OW23767   6.982   6.689   4.892
 7623SOL    HW123768   6.967   6.755   4.818
 7623SOL    HW223769   6.907   6.623   4.892
 7624SOL     OW23770   6.600   0.697   5.004
 7624SOL    HW123771   6.536   0.623   4.988
 7624SOL    HW223772   6.659   0.709   4.924
 7625SOL     OW23773   2.562   4.961   0.951
 7625SOL    HW123774   2.548   4.990   1.046
 7625SOL    HW223775   2.578   4.862   0.948
 7626SOL     OW23776   2.685   4.112   5.439
 7626SOL    HW123777   2.700   4.165   5.523
 7626SOL    HW223778   2.618   4.158   5.382
 7627SOL     OW23779   6.859   0.871   0.430
 7627SOL    HW123780   6.761   0.889   0.427
 7627SOL    HW223781   6.875   0.772   0.435
 7628SOL     OW23782   4.364   1.506   0.403
 7628SOL    HW123783   4.391   1.602   0.408
 7628SOL    HW223784   4.422   1.451   0.462
 7629SOL     OW23785   6.144   5.623   2.801
 7629SOL    HW123786   6.157   5.697   2.735
 7629SOL    HW223787   6.194   5.643   2.885
 7630SOL     OW23788   5.921   1.798   1.799
 7630SOL    HW123789   5.845   1.853   1.835
 7630SOL    HW223790   5.923   1.804   1.699
 7631SOL     OW23791   1.222   0.483   4.030
 7631SOL    HW123792   1.176   0.571   4.018
 7631SOL    HW223793   1.155   0.415   4.059
 7632SOL     OW23794   4.413   1.061   4.831
 7632SOL    HW123795   4.505   1.022   4.838
 7632SOL    HW223796   4.355   1.025   4.904
 7633SOL     OW23797   6.164   3.464   6.214
 7633SOL    HW123798   6.199   3.460   6.308
 7633SOL    HW223799   6.188   3.552   6.173
 7634SOL     OW23800   1.301   2.438   1.781
 7634SOL    HW123801   1.363   2.515   1.772
 7634SOL    HW223802   1.308   2.400   1.873
 7635SOL     OW23803   2.521   4.536   5.578
 7635SOL    HW123804   2.533   4.508   5.483
 7635SOL    HW223805   2.568   4.472   5.638
 7636SOL     OW23806   0.788   1.114   3.522
 7636SOL    HW123807   0.769   1.065   3.437
 7636SOL    HW223808   0.790   1.213   3.504
 7637SOL     OW23809   2.898   5.909   3.957
 7637SOL    HW123810   2.868   5.969   3.883
 7637SOL    HW223811   2.985   5.867   3.932
 7638SOL     OW23812   4.492   4.620   1.611
 7638SOL    HW123813   4.417   4.576   1.661
 7638SOL    HW223814   4.576   4.614   1.666
 7639SOL     OW23815   0.643   2.249   4.427
 7639SOL    HW123816   0.688   2.269   4.514
 7639SOL    HW223817   0.707   2.203   4.366
 7640SOL     OW23818   2.095   3.262   6.360
 7640SOL    HW123819   2.105   3.260   6.261
 7640SOL    HW223820   2.026   3.195   6.388
 7641SOL     OW23821   5.969   3.773   2.201
 7641SOL    HW123822   5.880   3.731   2.223
 7641SOL    HW223823   6.037   3.741   2.266
 7642SOL     OW23824   1.259   2.586   2.882
 7642SOL    HW123825   1.163   2.612   2.886
 7642SOL    HW223826   1.275   2.506   2.940
 7643SOL     OW23827   5.264   3.755   3.092
 7643SOL    HW123828   5.274   3.699   3.174
 7643SOL    HW223829   5.218   3.841   3.116
 7644SOL     OW23830   6.232   3.103   3.847
 7644SOL    HW123831   6.237   3.194   3.805
 7644SOL    HW223832   6.140   3.089   3.885
 7645SOL     OW23833   4.197   3.109   0.872
 7645SOL    HW123834   4.277   3.103   0.812
 7645SOL    HW223835   4.114   3.108   0.816
 7646SOL     OW23836   1.068   0.245   1.979
 7646SOL    HW123837   1.163   0.246   2.010
 7646SOL    HW223838   1.061   0.192   1.894
 7647SOL     OW23839   2.378   4.564   6.822
 7647SOL    HW123840   2.314   4.618   6.768
 7647SOL    HW223841   2.338   4.475   6.842
 7648SOL     OW23842   2.780   0.297   3.647
 7648SOL    HW123843   2.781   0.250   3.736
 7648SOL    HW223844   2.859   0.268   3.593
 7649SOL     OW23845   3.488   2.040   1.465
 7649SOL    HW123846   3.573   2.076   1.426
 7649SOL    HW223847   3.460   2.098   1.542
 7650SOL     OW23848   6.685   5.085   0.642
 7650SOL    HW123849   6.652   5.087   0.736
 7650SOL    HW223850   6.705   4.990   0.616
 7651SOL     OW23851   5.417   1.938   6.111
 7651SOL    HW123852   5.511   1.957   6.139
 7651SOL    HW223853   5.356   1.952   6.189
 7652SOL     OW23854   0.784   3.634   2.752
 7652SOL    HW123855   0.855   3.701   2.731
 7652SOL    HW223856   0.697   3.664   2.711
 7653SOL     OW23857   4.397   2.461   2.011
 7653SOL    HW123858   4.433   2.517   2.085
 7653SOL    HW223859   4.413   2.506   1.924
 7654SOL     OW23860   5.390   3.903   5.295
 7654SOL    HW123861   5.369   3.808   5.317
 7654SOL    HW223862   5.433   3.909   5.205
 7655SOL     OW23863   4.891   5.236   6.677
 7655SOL    HW123864   4.810   5.210   6.728
 7655SOL    HW223865   4.962   5.270   6.740
 7656SOL     OW23866   0.234   0.462   5.119
 7656SOL    HW123867   0.328   0.476   5.150
 7656SOL    HW223868   0.192   0.389   5.172
 7657SOL     OW23869   3.961   1.939   3.412
 7657SOL    HW123870   3.910   1.902   3.490
 7657SOL    HW223871   3.945   2.038   3.407
 7658SOL     OW23872   4.178   0.527   5.523
 7658SOL    HW123873   4.103   0.483   5.572
 7658SOL    HW223874   4.163   0.626   5.521
 7659SOL     OW23875   5.068   6.174   6.356
 7659SOL    HW123876   5.119   6.145   6.275
 7659SOL    HW223877   5.120   6.149   6.438
 7660SOL     OW23878   5.191   5.272   3.962
 7660SOL    HW123879   5.217   5.187   3.916
 7660SOL    HW223880   5.097   5.295   3.938
 7661SOL     OW23881   5.948   3.151   3.884
 7661SOL    HW123882   5.915   3.217   3.818
 7661SOL    HW223883   5.881   3.140   3.958
 7662SOL     OW23884   6.376   5.505   3.550
 7662SOL    HW123885   6.395   5.576   3.618
 7662SOL    HW223886   6.375   5.416   3.596
 7663SOL     OW23887   0.803   6.077   0.223
 7663SOL    HW123888   0.715   6.059   0.179
 7663SOL    HW223889   0.788   6.133   0.305
 7664SOL     OW23890   3.786   5.471   4.638
 7664SOL    HW123891   3.814   5.524   4.558
 7664SOL    HW223892   3.794   5.529   4.720
 7665SOL     OW23893   1.829   5.635   3.849
 7665SOL    HW123894   1.767   5.634   3.928
 7665SOL    HW223895   1.838   5.543   3.811
 7666SOL     OW23896   2.089   0.600   2.658
 7666SOL    HW123897   2.051   0.660   2.729
 7666SOL    HW223898   2.132   0.521   2.701
 7667SOL     OW23899   5.845   6.833   5.732
 7667SOL    HW123900   5.925   6.849   5.674
 7667SOL    HW223901   5.762   6.835   5.676
 7668SOL     OW23902   3.126   3.563   2.387
 7668SOL    HW123903   3.061   3.637   2.375
 7668SOL    HW223904   3.171   3.543   2.300
 7669SOL     OW23905   4.458   6.813   5.138
 7669SOL    HW123906   4.435   6.716   5.144
 7669SOL    HW223907   4.508   6.841   5.220
 7670SOL     OW23908   1.860   5.880   1.028
 7670SOL    HW123909   1.829   5.806   0.969
 7670SOL    HW223910   1.835   5.968   0.987
 7671SOL     OW23911   4.540   2.531   4.906
 7671SOL    HW123912   4.574   2.502   4.816
 7671SOL    HW223913   4.445   2.504   4.916
 7672SOL     OW23914   6.230   6.986   1.529
 7672SOL    HW123915   6.218   6.898   1.576
 7672SOL    HW223916   6.253   0.031   1.596
 7673SOL     OW23917   1.611   3.381   0.478
 7673SOL    HW123918   1.547   3.304   0.485
 7673SOL    HW223919   1.616   3.412   0.383
 7674SOL     OW23920   6.090   1.178   5.171
 7674SOL    HW123921   6.174   1.182   5.224
 7674SOL    HW223922   6.085   1.257   5.110
 7675SOL     OW23923   5.203   0.504   3.178
 7675SOL    HW123924   5.162   0.558   3.104
 7675SOL    HW223925   5.281   0.554   3.216
 7676SOL     OW23926   2.129   6.980   1.338
 7676SOL    HW123927   2.150   7.014   1.246
 7676SOL    HW223928   2.198   6.912   1.365
 7677SOL     OW23929   1.958   2.690   2.733
 7677SOL    HW123930   2.010   2.754   2.675
 7677SOL    HW223931   2.018   2.654   2.805
 7678SOL     OW23932   4.956   6.676   5.886
 7678SOL    HW123933   4.966   6.775   5.889
 7678SOL    HW223934   5.045   6.632   5.901
 7679SOL     OW23935   1.703   4.872   4.651
 7679SOL    HW123936   1.684   4.961   4.611
 7679SOL    HW223937   1.627   4.810   4.633
 7680SOL     OW23938   4.700   0.445   0.455
 7680SOL    HW123939   4.657   0.485   0.536
 7680SOL    HW223940   4.687   0.506   0.377
 7681SOL     OW23941   3.865   2.281   5.694
 7681SOL    HW123942   3.897   2.191   5.726
 7681SOL    HW223943   3.906   2.353   5.750
 7682SOL     OW23944   2.888   0.690   0.430
 7682SOL    HW123945   2.817   0.661   0.366
 7682SOL    HW223946   2.976   0.694   0.382
 7683SOL     OW23947   6.826   3.327   3.690
 7683SOL    HW123948   6.798   3.376   3.606
 7683SOL    HW223949   6.881   3.248   3.666
 7684SOL     OW23950   4.163   1.443   5.916
 7684SOL    HW123951   4.225   1.452   5.838
 7684SOL    HW223952   4.192   1.367   5.973
 7685SOL     OW23953   4.318   4.211   1.315
 7685SOL    HW123954   4.319   4.211   1.216
 7685SOL    HW223955   4.384   4.144   1.350
 7686SOL     OW23956   2.201   0.839   2.441
 7686SOL    HW123957   2.239   0.913   2.497
 7686SOL    HW223958   2.114   0.868   2.402
 7687SOL     OW23959   4.838   4.184   5.671
 7687SOL    HW123960   4.753   4.210   5.718
 7687SOL    HW223961   4.838   4.085   5.654
 7688SOL     OW23962   6.634   0.846   3.232
 7688SOL    HW123963   6.612   0.806   3.143
 7688SOL    HW223964   6.567   0.815   3.299
 7689SOL     OW23965   3.272   6.907   5.050
 7689SOL    HW123966   3.236   6.867   5.135
 7689SOL    HW223967   3.222   6.991   5.029
 7690SOL     OW23968   1.017   5.439   3.114
 7690SOL    HW123969   1.069   5.503   3.058
 7690SOL    HW223970   0.985   5.486   3.197
 7691SOL     OW23971   6.814   3.466   5.615
 7691SOL    HW123972   6.806   3.429   5.522
 7691SOL    HW223973   6.832   3.391   5.679
 7692SOL     OW23974   1.727   6.179   1.026
 7692SOL    HW123975   1.813   6.183   1.077
 7692SOL    HW223976   1.651   6.177   1.090
 7693SOL     OW23977   4.930   0.917   0.556
 7693SOL    HW123978   4.883   0.948   0.638
 7693SOL    HW223979   5.023   0.953   0.554
 7694SOL     OW23980   5.902   4.644   3.190
 7694SOL    HW123981   5.904   4.573   3.260
 7694SOL    HW223982   5.994   4.681   3.177
 7695SOL     OW23983   4.718   0.504   6.562
 7695SOL    HW123984   4.650   0.577   6.561
 7695SOL    HW223985   4.704   0.443   6.484
 7696SOL     OW23986   1.046   4.043   5.581
 7696SOL    HW123987   1.066   4.113   5.649
 7696SOL    HW223988   1.032   3.955   5.627
 7697SOL     OW23989   4.633   1.032   2.194
 7697SOL    HW123990   4.641   1.010   2.291
 7697SOL    HW223991   4.627   0.948   2.141
 7698SOL     OW23992   0.073   1.675   6.049
 7698SOL    HW123993   0.098   1.585   6.088
 7698SOL    HW223994   0.129   1.746   6.092
 7699SOL     OW23995   3.365   3.432   1.285
 7699SOL    HW123996   3.395   3.527   1.294
 7699SOL    HW223997   3.273   3.430   1.245
 7700SOL     OW23998   5.280   0.199   5.029
 7700SOL    HW123999   5.341   0.121   5.012
 7700SOL    HW224000   5.330   0.284   5.013
 7701SOL     OW24001   6.348   1.842   5.448
 7701SOL    HW124002   6.426   1.784   5.426
 7701SOL    HW224003   6.273   1.822   5.384
 7702SOL     OW24004   1.337   6.559   6.820
 7702SOL    HW124005   1.431   6.579   6.792
 7702SOL    HW224006   1.273   6.611   6.763
 7703SOL     OW24007   0.469   2.412   6.705
 7703SOL    HW124008   0.535   2.341   6.733
 7703SOL    HW224009   0.380   2.392   6.747
 7704SOL     OW24010   3.176   3.894   1.288
 7704SOL    HW124011   3.184   3.809   1.340
 7704SOL    HW224012   3.192   3.972   1.348
 7705SOL     OW24013   4.057   3.702   4.322
 7705SOL    HW124014   4.041   3.797   4.296
 7705SOL    HW224015   4.084   3.650   4.241
 7706SOL     OW24016   6.099   1.035   5.617
 7706SOL    HW124017   6.072   0.943   5.588
 7706SOL    HW224018   6.075   1.048   5.713
 7707SOL     OW24019   7.024   5.293   6.404
 7707SOL    HW124020   0.021   5.383   6.367
 7707SOL    HW224021   6.969   5.304   6.487
 7708SOL     OW24022   4.984   1.232   4.815
 7708SOL    HW124023   4.934   1.316   4.794
 7708SOL    HW224024   5.071   1.254   4.858
 7709SOL     OW24025   3.727   2.417   1.155
 7709SOL    HW124026   3.802   2.361   1.188
 7709SOL    HW224027   3.762   2.504   1.121
 7710SOL     OW24028   3.572   2.123   6.824
 7710SOL    HW124029   3.592   2.218   6.846
 7710SOL    HW224030   3.640   2.089   6.758
 7711SOL     OW24031   4.301   6.192   4.892
 7711SOL    HW124032   4.288   6.202   4.991
 7711SOL    HW224033   4.396   6.166   4.873
 7712SOL     OW24034   6.288   4.115   6.213
 7712SOL    HW124035   6.328   4.203   6.240
 7712SOL    HW224036   6.246   4.072   6.292
 7713SOL     OW24037   0.670   5.493   6.658
 7713SOL    HW124038   0.613   5.417   6.688
 7713SOL    HW224039   0.752   5.498   6.716
 7714SOL     OW24040   5.476   4.362   4.935
 7714SOL    HW124041   5.385   4.346   4.973
 7714SOL    HW224042   5.544   4.313   4.989
 7715SOL     OW24043   3.749   2.149   1.683
 7715SOL    HW124044   3.734   2.185   1.591
 7715SOL    HW224045   3.674   2.177   1.742
 7716SOL     OW24046   4.025   2.256   4.368
 7716SOL    HW124047   3.956   2.192   4.401
 7716SOL    HW224048   4.021   2.261   4.268
 7717SOL     OW24049   2.919   6.779   6.837
 7717SOL    HW124050   2.921   6.685   6.802
 7717SOL    HW224051   2.924   6.843   6.761
 7718SOL     OW24052   2.284   6.523   3.491
 7718SOL    HW124053   2.341   6.585   3.544
 7718SOL    HW224054   2.324   6.511   3.400
 7719SOL     OW24055   5.747   2.547   5.013
 7719SOL    HW124056   5.712   2.455   4.997
 7719SOL    HW224057   5.808   2.548   5.092
 7720SOL     OW24058   4.706   6.592   1.232
 7720SOL    HW124059   4.687   6.642   1.317
 7720SOL    HW224060   4.653   6.631   1.157
 7721SOL     OW24061   0.585   5.391   2.743
 7721SOL    HW124062   0.510   5.444   2.704
 7721SOL    HW224063   0.630   5.444   2.815
 7722SOL     OW24064   0.804   5.850   3.786
 7722SOL    HW124065   0.826   5.900   3.869
 7722SOL    HW224066   0.734   5.899   3.734
 7723SOL     OW24067   6.749   1.825   6.848
 7723SOL    HW124068   6.769   1.828   6.750
 7723SOL    HW224069   6.823   1.775   6.895
 7724SOL     OW24070   2.397   6.180   6.492
 7724SOL    HW124071   2.428   6.086   6.502
 7724SOL    HW224072   2.443   6.223   6.415
 7725SOL     OW24073   5.449   4.165   3.840
 7725SOL    HW124074   5.384   4.099   3.877
 7725SOL    HW224075   5.535   4.159   3.891
 7726SOL     OW24076   5.280   5.390   3.326
 7726SOL    HW124077   5.211   5.352   3.263
 7726SOL    HW224078   5.243   5.388   3.419
 7727SOL     OW24079   5.984   3.895   1.937
 7727SOL    HW124080   5.993   3.995   1.933
 7727SOL    HW224081   5.976   3.866   2.032
 7728SOL     OW24082   1.735   2.683   2.924
 7728SOL    HW124083   1.812   2.685   2.861
 7728SOL    HW224084   1.765   2.646   3.012
 7729SOL     OW24085   5.314   1.652   6.077
 7729SOL    HW124086   5.221   1.647   6.038
 7729SOL    HW224087   5.372   1.706   6.016
 7730SOL     OW24088   4.545   6.676   2.406
 7730SOL    HW124089   4.626   6.688   2.348
 7730SOL    HW224090   4.522   6.763   2.448
 7731SOL     OW24091   6.287   1.593   3.749
 7731SOL    HW124092   6.249   1.652   3.676
 7731SOL    HW224093   6.218   1.581   3.820
 7732SOL     OW24094   4.617   5.251   0.818
 7732SOL    HW124095   4.575   5.189   0.884
 7732SOL    HW224096   4.595   5.221   0.725
 7733SOL     OW24097   3.514   5.609   0.962
 7733SOL    HW124098   3.569   5.539   0.916
 7733SOL    HW224099   3.421   5.607   0.926
 7734SOL     OW24100   1.373   2.847   1.806
 7734SOL    HW124101   1.348   2.924   1.746
 7734SOL    HW224102   1.290   2.798   1.833
 7735SOL     OW24103   5.806   4.353   0.507
 7735SOL    HW124104   5.830   4.392   0.596
 7735SOL    HW224105   5.867   4.390   0.437
 7736SOL     OW24106   5.840   4.705   6.465
 7736SOL    HW124107   5.821   4.621   6.515
 7736SOL    HW224108   5.893   4.684   6.383
 7737SOL     OW24109   4.789   2.884   0.340
 7737SOL    HW124110   4.868   2.824   0.329
 7737SOL    HW224111   4.736   2.886   0.256
 7738SOL     OW24112   2.027   5.106   6.766
 7738SOL    HW124113   1.997   5.069   6.678
 7738SOL    HW224114   1.949   5.146   6.814
 7739SOL     OW24115   5.340   4.324   2.417
 7739SOL    HW124116   5.408   4.343   2.346
 7739SOL    HW224117   5.325   4.226   2.424
 7740SOL     OW24118   6.777   6.097   3.693
 7740SOL    HW124119   6.872   6.126   3.700
 7740SOL    HW224120   6.718   6.166   3.734
 7741SOL     OW24121   3.355   5.247   3.511
 7741SOL    HW124122   3.414   5.285   3.582
 7741SOL    HW224123   3.260   5.247   3.542
 7742SOL     OW24124   6.736   0.713   4.759
 7742SOL    HW124125   6.796   0.661   4.698
 7742SOL    HW224126   6.765   0.808   4.762
 7743SOL     OW24127   4.913   3.404   2.340
 7743SOL    HW124128   4.898   3.312   2.305
 7743SOL    HW224129   4.952   3.398   2.432
 7744SOL     OW24130   0.439   6.518   4.725
 7744SOL    HW124131   0.417   6.478   4.814
 7744SOL    HW224132   0.514   6.466   4.683
 7745SOL     OW24133   5.537   2.843   5.401
 7745SOL    HW124134   5.550   2.745   5.417
 7745SOL    HW224135   5.445   2.859   5.368
 7746SOL     OW24136   1.813   0.803   6.332
 7746SOL    HW124137   1.727   0.811   6.383
 7746SOL    HW224138   1.860   0.719   6.358
 7747SOL     OW24139   4.600   5.539   0.203
 7747SOL    HW124140   4.564   5.457   0.246
 7747SOL    HW224141   4.636   5.517   0.113
 7748SOL     OW24142   2.107   4.014   6.922
 7748SOL    HW124143   2.087   3.964   6.838
 7748SOL    HW224144   2.022   4.038   6.968
 7749SOL     OW24145   5.892   3.246   6.375
 7749SOL    HW124146   5.903   3.162   6.428
 7749SOL    HW224147   5.886   3.224   6.278
 7750SOL     OW24148   4.544   5.579   3.187
 7750SOL    HW124149   4.528   5.507   3.119
 7750SOL    HW224150   4.599   5.543   3.262
 7751SOL     OW24151   0.795   2.391   1.028
 7751SOL    HW124152   0.888   2.389   1.064
 7751SOL    HW224153   0.733   2.346   1.092
 7752SOL     OW24154   3.442   0.745   2.791
 7752SOL    HW124155   3.528   0.699   2.813
 7752SOL    HW224156   3.368   0.678   2.793
 7753SOL     OW24157   3.939   0.375   5.644
 7753SOL    HW124158   3.873   0.445   5.669
 7753SOL    HW224159   3.912   0.333   5.558
 7754SOL     OW24160   4.555   5.894   1.393
 7754SOL    HW124161   4.557   5.993   1.409
 7754SOL    HW224162   4.460   5.866   1.378
 7755SOL     OW24163   0.512   4.047   6.280
 7755SOL    HW124164   0.482   4.054   6.185
 7755SOL    HW224165   0.446   4.093   6.339
 7756SOL     OW24166   2.033   3.964   2.455
 7756SOL    HW124167   1.977   4.019   2.517
 7756SOL    HW224168   2.072   3.887   2.506
 7757SOL     OW24169   0.786   4.422   0.105
 7757SOL    HW124170   0.863   4.466   0.152
 7757SOL    HW224171   0.767   4.334   0.149
 7758SOL     OW24172   0.802   1.180   5.775
 7758SOL    HW124173   0.817   1.263   5.829
 7758SOL    HW224174   0.823   1.100   5.831
 7759SOL     OW24175   3.805   0.965   2.726
 7759SOL    HW124176   3.864   1.034   2.685
 7759SOL    HW224177   3.709   0.993   2.716
 7760SOL     OW24178   4.582   2.964   0.128
 7760SOL    HW124179   4.483   2.976   0.126
 7760SOL    HW224180   4.626   3.043   0.087
 7761SOL     OW24181   5.402   5.342   2.882
 7761SOL    HW124182   5.365   5.414   2.941
 7761SOL    HW224183   5.362   5.254   2.907
 7762SOL     OW24184   4.705   1.655   1.042
 7762SOL    HW124185   4.653   1.597   1.105
 7762SOL    HW224186   4.743   1.598   0.969
 7763SOL     OW24187   1.719   0.608   3.493
 7763SOL    HW124188   1.664   0.600   3.576
 7763SOL    HW224189   1.709   0.700   3.455
 7764SOL     OW24190   3.801   4.586   5.366
 7764SOL    HW124191   3.716   4.576   5.417
 7764SOL    HW224192   3.825   4.499   5.323
 7765SOL     OW24193   6.580   4.342   4.852
 7765SOL    HW124194   6.528   4.291   4.783
 7765SOL    HW224195   6.651   4.397   4.807
 7766SOL     OW24196   6.850   1.672   5.899
 7766SOL    HW124197   6.875   1.705   5.808
 7766SOL    HW224198   6.921   1.697   5.965
 7767SOL     OW24199   4.357   0.256   3.804
 7767SOL    HW124200   4.399   0.321   3.741
 7767SOL    HW224201   4.332   0.303   3.889
 7768SOL     OW24202   3.662   5.460   3.522
 7768SOL    HW124203   3.647   5.556   3.544
 7768SOL    HW224204   3.742   5.426   3.572
 7769SOL     OW24205   4.038   2.422   6.502
 7769SOL    HW124206   3.989   2.481   6.566
 7769SOL    HW224207   4.032   2.460   6.410
 7770SOL     OW24208   1.104   2.836   3.832
 7770SOL    HW124209   1.202   2.858   3.833
 7770SOL    HW224210   1.058   2.887   3.905
 7771SOL     OW24211   1.114   4.060   5.041
 7771SOL    HW124212   1.204   4.021   5.056
 7771SOL    HW224213   1.046   4.009   5.093
 7772SOL     OW24214   5.059   5.607   1.839
 7772SOL    HW124215   4.982   5.607   1.775
 7772SOL    HW224216   5.135   5.556   1.799
 7773SOL     OW24217   2.688   6.360   6.770
 7773SOL    HW124218   2.645   6.416   6.841
 7773SOL    HW224219   2.618   6.306   6.724
 7774SOL     OW24220   5.017   1.173   2.805
 7774SOL    HW124221   4.929   1.174   2.853
 7774SOL    HW224222   5.091   1.168   2.871
 7775SOL     OW24223   3.638   1.874   0.999
 7775SOL    HW124224   3.559   1.813   0.987
 7775SOL    HW224225   3.606   1.963   1.031
 7776SOL     OW24226   2.894   1.336   3.787
 7776SOL    HW124227   2.835   1.296   3.857
 7776SOL    HW224228   2.954   1.404   3.829
 7777SOL     OW24229   5.085   4.928   3.271
 7777SOL    HW124230   5.028   4.980   3.336
 7777SOL    HW224231   5.176   4.914   3.310
 7778SOL     OW24232   1.043   3.337   1.824
 7778SOL    HW124233   0.960   3.297   1.864
 7778SOL    HW224234   1.075   3.278   1.750
 7779SOL     OW24235   2.706   0.687   3.086
 7779SOL    HW124236   2.765   0.720   3.159
 7779SOL    HW224237   2.716   0.747   3.006
 7780SOL     OW24238   6.523   5.573   4.146
 7780SOL    HW124239   6.483   5.591   4.056
 7780SOL    HW224240   6.450   5.551   4.210
 7781SOL     OW24241   3.318   3.113   1.200
 7781SOL    HW124242   3.294   3.148   1.291
 7781SOL    HW224243   3.298   3.016   1.196
 7782SOL     OW24244   5.310   4.956   4.033
 7782SOL    HW124245   5.291   4.955   4.131
 7782SOL    HW224246   5.387   4.896   4.014
 7783SOL     OW24247   0.475   6.316   3.958
 7783SOL    HW124248   0.570   6.327   3.988
 7783SOL    HW224249   0.461   6.367   3.874
 7784SOL     OW24250   1.149   2.811   2.386
 7784SOL    HW124251   1.127   2.906   2.365
 7784SOL    HW224252   1.213   2.807   2.462
 7785SOL     OW24253   5.950   6.632   2.486
 7785SOL    HW124254   5.866   6.579   2.487
 7785SOL    HW224255   5.982   6.641   2.392
 7786SOL     OW24256   5.657   0.616   6.891
 7786SOL    HW124257   5.634   0.713   6.877
 7786SOL    HW224258   5.577   0.567   6.924
 7787SOL     OW24259   1.061   2.369   1.159
 7787SOL    HW124260   1.150   2.393   1.198
 7787SOL    HW224261   1.053   2.410   1.068
 7788SOL     OW24262   1.091   4.177   2.138
 7788SOL    HW124263   1.163   4.228   2.090
 7788SOL    HW224264   1.132   4.122   2.210
 7789SOL     OW24265   3.415   0.321   6.159
 7789SOL    HW124266   3.469   0.253   6.208
 7789SOL    HW224267   3.448   0.413   6.182
 7790SOL     OW24268   3.920   5.237   4.355
 7790SOL    HW124269   3.891   5.184   4.434
 7790SOL    HW224270   3.989   5.304   4.383
 7791SOL     OW24271   2.537   6.493   1.507
 7791SOL    HW124272   2.632   6.519   1.528
 7791SOL    HW224273   2.520   6.507   1.410
 7792SOL     OW24274   1.211   1.123   2.288
 7792SOL    HW124275   1.286   1.069   2.251
 7792SOL    HW224276   1.125   1.073   2.280
 7793SOL     OW24277   5.369   1.547   0.428
 7793SOL    HW124278   5.360   1.452   0.455
 7793SOL    HW224279   5.419   1.597   0.499
 7794SOL     OW24280   1.051   1.259   2.839
 7794SOL    HW124281   1.019   1.353   2.826
 7794SOL    HW224282   1.008   1.199   2.772
 7795SOL     OW24283   4.322   3.601   1.237
 7795SOL    HW124284   4.316   3.573   1.332
 7795SOL    HW224285   4.409   3.571   1.198
 7796SOL     OW24286   4.382   1.528   1.358
 7796SOL    HW124287   4.292   1.515   1.399
 7796SOL    HW224288   4.399   1.625   1.346
 7797SOL     OW24289   1.431   6.376   3.278
 7797SOL    HW124290   1.494   6.436   3.328
 7797SOL    HW224291   1.373   6.431   3.219
 7798SOL     OW24292   1.672   3.195   1.112
 7798SOL    HW124293   1.631   3.116   1.066
 7798SOL    HW224294   1.627   3.278   1.082
 7799SOL     OW24295   2.063   5.749   4.071
 7799SOL    HW124296   1.991   5.680   4.074
 7799SOL    HW224297   2.144   5.710   4.028
 7800SOL     OW24298   0.620   0.662   2.231
 7800SOL    HW124299   0.686   0.672   2.305
 7800SOL    HW224300   0.611   0.749   2.182
 7801SOL     OW24301   2.454   1.974   0.750
 7801SOL    HW124302   2.358   1.975   0.720
 7801SOL    HW224303   2.458   1.987   0.849
 7802SOL     OW24304   6.673   5.229   3.815
 7802SOL    HW124305   6.679   5.141   3.767
 7802SOL    HW224306   6.754   5.283   3.795
 7803SOL     OW24307   3.317   2.294   6.375
 7803SOL    HW124308   3.350   2.240   6.298
 7803SOL    HW224309   3.275   2.234   6.443
 7804SOL     OW24310   2.983   1.054   5.740
 7804SOL    HW124311   2.944   1.145   5.753
 7804SOL    HW224312   3.011   1.042   5.645
 7805SOL     OW24313   6.380   2.073   6.724
 7805SOL    HW124314   6.430   2.130   6.790
 7805SOL    HW224315   6.357   1.985   6.767
 7806SOL     OW24316   6.254   1.973   5.168
 7806SOL    HW124317   6.170   1.931   5.202
 7806SOL    HW224318   6.246   2.073   5.172
 7807SOL     OW24319   1.920   5.611   5.383
 7807SOL    HW124320   1.926   5.701   5.427
 7807SOL    HW224321   1.947   5.620   5.287
 7808SOL     OW24322   7.021   2.792   4.511
 7808SOL    HW124323   7.022   2.727   4.435
 7808SOL    HW224324   6.927   2.806   4.542
 7809SOL     OW24325   3.360   0.446   3.281
 7809SOL    HW124326   3.365   0.498   3.196
 7809SOL    HW224327   3.435   0.380   3.284
 7810SOL     OW24328   2.228   6.863   5.868
 7810SOL    HW124329   2.178   6.906   5.793
 7810SOL    HW224330   2.320   6.901   5.873
 7811SOL     OW24331   1.397   5.294   3.019
 7811SOL    HW124332   1.313   5.294   3.073
 7811SOL    HW224333   1.389   5.360   2.945
 7812SOL     OW24334   3.121   0.814   6.013
 7812SOL    HW124335   3.047   0.831   6.078
 7812SOL    HW224336   3.089   0.753   5.941
 7813SOL     OW24337   5.868   1.139   0.566
 7813SOL    HW124338   5.773   1.158   0.590
 7813SOL    HW224339   5.872   1.058   0.507
 7814SOL     OW24340   0.022   2.746   1.546
 7814SOL    HW124341   0.047   2.735   1.450
 7814SOL    HW224342   7.013   2.659   1.581
 7815SOL     OW24343   5.047   6.169   3.121
 7815SOL    HW124344   4.981   6.226   3.073
 7815SOL    HW224345   5.072   6.212   3.208
 7816SOL     OW24346   1.279   1.643   5.531
 7816SOL    HW124347   1.214   1.576   5.497
 7816SOL    HW224348   1.233   1.707   5.592
 7817SOL     OW24349   4.851   0.915   5.605
 7817SOL    HW124350   4.877   0.828   5.646
 7817SOL    HW224351   4.848   0.904   5.505
 7818SOL     OW24352   5.020   0.874   2.969
 7818SOL    HW124353   5.047   0.950   3.027
 7818SOL    HW224354   4.920   0.862   2.975
 7819SOL     OW24355   2.527   2.171   4.575
 7819SOL    HW124356   2.439   2.125   4.563
 7819SOL    HW224357   2.555   2.164   4.671
 7820SOL     OW24358   1.653   0.755   6.108
 7820SOL    HW124359   1.697   0.752   6.018
 7820SOL    HW224360   1.721   0.774   6.178
 7821SOL     OW24361   3.735   5.684   6.590
 7821SOL    HW124362   3.820   5.641   6.560
 7821SOL    HW224363   3.658   5.626   6.566
 7822SOL     OW24364   0.536   1.200   4.707
 7822SOL    HW124365   0.624   1.185   4.752
 7822SOL    HW224366   0.546   1.272   4.639
 7823SOL     OW24367   2.641   2.857   5.839
 7823SOL    HW124368   2.655   2.874   5.742
 7823SOL    HW224369   2.657   2.760   5.859
 7824SOL     OW24370   6.210   4.230   2.583
 7824SOL    HW124371   6.179   4.147   2.536
 7824SOL    HW224372   6.270   4.281   2.522
 7825SOL     OW24373   3.528   3.100   3.935
 7825SOL    HW124374   3.471   3.168   3.890
 7825SOL    HW224375   3.567   3.139   4.019
 7826SOL     OW24376   6.426   6.565   0.885
 7826SOL    HW124377   6.503   6.623   0.859
 7826SOL    HW224378   6.393   6.592   0.975
 7827SOL     OW24379   4.913   3.881   0.649
 7827SOL    HW124380   4.897   3.944   0.725
 7827SOL    HW224381   4.878   3.920   0.564
 7828SOL     OW24382   0.587   5.925   0.464
 7828SOL    HW124383   0.637   6.008   0.488
 7828SOL    HW224384   0.598   5.908   0.366
 7829SOL     OW24385   3.425   4.180   2.981
 7829SOL    HW124386   3.447   4.100   2.924
 7829SOL    HW224387   3.506   4.237   2.991
 7830SOL     OW24388   0.115   4.496   6.905
 7830SOL    HW124389   0.020   4.469   6.888
 7830SOL    HW224390   0.119   4.596   6.917
 7831SOL     OW24391   2.775   2.819   6.915
 7831SOL    HW124392   2.814   2.825   6.823
 7831SOL    HW224393   2.844   2.845   6.983
 7832SOL     OW24394   3.705   2.866   5.769
 7832SOL    HW124395   3.661   2.956   5.764
 7832SOL    HW224396   3.637   2.794   5.753
 7833SOL     OW24397   6.615   0.031   1.483
 7833SOL    HW124398   6.609   6.982   1.550
 7833SOL    HW224399   6.592   0.118   1.528
 7834SOL     OW24400   5.219   1.182   1.365
 7834SOL    HW124401   5.142   1.172   1.301
 7834SOL    HW224402   5.280   1.103   1.356
 7835SOL     OW24403   2.512   2.426   4.246
 7835SOL    HW124404   2.501   2.429   4.346
 7835SOL    HW224405   2.604   2.396   4.224
 7836SOL     OW24406   2.441   0.409   6.749
 7836SOL    HW124407   2.424   0.310   6.753
 7836SOL    HW224408   2.395   0.447   6.669
 7837SOL     OW24409   5.541   6.502   2.113
 7837SOL    HW124410   5.583   6.569   2.052
 7837SOL    HW224411   5.599   6.421   2.119
 7838SOL     OW24412   3.502   5.624   4.081
 7838SOL    HW124413   3.530   5.574   4.163
 7838SOL    HW224414   3.428   5.574   4.036
 7839SOL     OW24415   7.002   5.629   3.003
 7839SOL    HW124416   6.914   5.582   3.010
 7839SOL    HW224417   6.989   5.716   2.955
 7840SOL     OW24418   4.289   2.621   6.232
 7840SOL    HW124419   4.199   2.579   6.219
 7840SOL    HW224420   4.335   2.628   6.144
 7841SOL     OW24421   1.247   2.200   5.878
 7841SOL    HW124422   1.205   2.111   5.897
 7841SOL    HW224423   1.176   2.270   5.874
 7842SOL     OW24424   1.884   1.141   2.608
 7842SOL    HW124425   1.799   1.092   2.595
 7842SOL    HW224426   1.937   1.099   2.682
 7843SOL     OW24427   0.289   2.417   1.870
 7843SOL    HW124428   0.267   2.443   1.776
 7843SOL    HW224429   0.318   2.497   1.922
 7844SOL     OW24430   3.121   1.803   3.317
 7844SOL    HW124431   3.166   1.742   3.253
 7844SOL    HW224432   3.147   1.778   3.411
 7845SOL     OW24433   0.914   0.823   4.393
 7845SOL    HW124434   1.014   0.829   4.402
 7845SOL    HW224435   0.871   0.865   4.472
 7846SOL     OW24436   4.996   6.889   2.376
 7846SOL    HW124437   5.027   6.818   2.439
 7846SOL    HW224438   4.979   6.974   2.426
 7847SOL     OW24439   0.655   6.721   6.646
 7847SOL    HW124440   0.563   6.759   6.634
 7847SOL    HW224441   0.673   6.654   6.575
 7848SOL     OW24442   4.412   3.974   1.431
 7848SOL    HW124443   4.510   3.953   1.436
 7848SOL    HW224444   4.377   3.991   1.523
 7849SOL     OW24445   5.448   4.014   5.016
 7849SOL    HW124446   5.403   3.997   4.929
 7849SOL    HW224447   5.503   3.935   5.042
 7850SOL     OW24448   1.102   2.667   5.163
 7850SOL    HW124449   1.029   2.634   5.103
 7850SOL    HW224450   1.095   2.766   5.173
 7851SOL     OW24451   2.964   6.681   0.751
 7851SOL    HW124452   3.055   6.685   0.792
 7851SOL    HW224453   2.950   6.761   0.692
 7852SOL     OW24454   2.578   6.610   0.649
 7852SOL    HW124455   2.496   6.609   0.706
 7852SOL    HW224456   2.652   6.563   0.697
 7853SOL     OW24457   1.940   1.312   0.318
 7853SOL    HW124458   1.871   1.258   0.366
 7853SOL    HW224459   1.922   1.309   0.219
 7854SOL     OW24460   3.908   3.860   4.105
 7854SOL    HW124461   3.937   3.765   4.113
 7854SOL    HW224462   3.850   3.871   4.024
 7855SOL     OW24463   2.943   0.056   4.702
 7855SOL    HW124464   2.958   7.013   4.630
 7855SOL    HW224465   3.010   0.129   4.693
 7856SOL     OW24466   3.009   3.266   6.318
 7856SOL    HW124467   2.955   3.349   6.331
 7856SOL    HW224468   2.958   3.200   6.264
 7857SOL     OW24469   7.023   2.538   4.895
 7857SOL    HW124470   0.042   2.566   4.981
 7857SOL    HW224471   0.030   2.447   4.870
 7858SOL     OW24472   5.324   3.093   3.246
 7858SOL    HW124473   5.370   3.129   3.165
 7858SOL    HW224474   5.378   3.115   3.327
 7859SOL     OW24475   6.870   0.311   0.469
 7859SOL    HW124476   6.911   0.303   0.560
 7859SOL    HW224477   6.774   0.282   0.474
 7860SOL     OW24478   4.531   6.346   1.229
 7860SOL    HW124479   4.577   6.434   1.219
 7860SOL    HW224480   4.600   6.273   1.234
 7861SOL     OW24481   6.246   3.405   0.613
 7861SOL    HW124482   6.291   3.363   0.692
 7861SOL    HW224483   6.303   3.480   0.579
 7862SOL     OW24484   2.763   4.496   1.649
 7862SOL    HW124485   2.840   4.510   1.710
 7862SOL    HW224486   2.704   4.423   1.686
 7863SOL     OW24487   4.455   6.037   2.753
 7863SOL    HW124488   4.466   6.131   2.721
 7863SOL    HW224489   4.476   6.032   2.851
 7864SOL     OW24490   1.668   5.512   5.398
 7864SOL    HW124491   1.627   5.466   5.477
 7864SOL    HW224492   1.753   5.556   5.426
 7865SOL     OW24493   4.400   0.866   3.424
 7865SOL    HW124494   4.467   0.837   3.493
 7865SOL    HW224495   4.363   0.786   3.378
 7866SOL     OW24496   2.970   0.650   5.525
 7866SOL    HW124497   2.909   0.571   5.527
 7866SOL    HW224498   2.955   0.701   5.440
 7867SOL     OW24499   6.582   3.155   0.915
 7867SOL    HW124500   6.586   3.085   0.986
 7867SOL    HW224501   6.675   3.182   0.890
 7868SOL     OW24502   4.651   6.547   0.936
 7868SOL    HW124503   4.592   6.498   0.872
 7868SOL    HW224504   4.744   6.511   0.929
 7869SOL     OW24505   5.948   1.624   4.207
 7869SOL    HW124506   5.928   1.641   4.303
 7869SOL    HW224507   5.994   1.704   4.168
 7870SOL     OW24508   6.508   0.097   3.601
 7870SOL    HW124509   6.482   0.179   3.653
 7870SOL    HW224510   6.608   0.093   3.592
 7871SOL     OW24511   5.549   3.014   3.514
 7871SOL    HW124512   5.550   2.941   3.445
 7871SOL    HW224513   5.632   3.069   3.506
 7872SOL     OW24514   6.241   3.605   3.804
 7872SOL    HW124515   6.147   3.628   3.829
 7872SOL    HW224516   6.301   3.683   3.822
 7873SOL     OW24517   6.794   5.714   4.886
 7873SOL    HW124518   6.775   5.616   4.880
 7873SOL    HW224519   6.881   5.733   4.839
 7874SOL     OW24520   6.009   6.861   0.110
 7874SOL    HW124521   6.020   6.934   0.178
 7874SOL    HW224522   6.087   6.863   0.047
 7875SOL     OW24523   5.710   2.854   0.407
 7875SOL    HW124524   5.647   2.922   0.371
 7875SOL    HW224525   5.798   2.897   0.428
 7876SOL     OW24526   7.008   1.683   4.575
 7876SOL    HW124527   7.003   1.624   4.494
 7876SOL    HW224528   6.916   1.719   4.595
 7877SOL     OW24529   5.749   3.996   1.794
 7877SOL    HW124530   5.661   3.980   1.838
 7877SOL    HW224531   5.822   3.955   1.849
 7878SOL     OW24532   3.773   4.055   2.297
 7878SOL    HW124533   3.812   4.029   2.386
 7878SOL    HW224534   3.836   4.027   2.224
 7879SOL     OW24535   6.795   1.107   4.994
 7879SOL    HW124536   6.707   1.064   5.014
 7879SOL    HW224537   6.843   1.125   5.079
 7880SOL     OW24538   1.817   5.991   6.561
 7880SOL    HW124539   1.882   6.034   6.623
 7880SOL    HW224540   1.832   6.026   6.468
 7881SOL     OW24541   0.427   5.197   4.939
 7881SOL    HW124542   0.406   5.176   5.034
 7881SOL    HW224543   0.452   5.293   4.930
 7882SOL     OW24544   1.364   5.027   1.236
 7882SOL    HW124545   1.448   5.076   1.211
 7882SOL    HW224546   1.335   5.055   1.328
 7883SOL     OW24547   2.846   2.177   2.532
 7883SOL    HW124548   2.916   2.222   2.587
 7883SOL    HW224549   2.870   2.183   2.435
 7884SOL     OW24550   0.281   2.026   5.771
 7884SOL    HW124551   0.294   2.126   5.771
 7884SOL    HW224552   0.348   1.985   5.833
 7885SOL     OW24553   6.072   5.159   2.798
 7885SOL    HW124554   6.003   5.178   2.729
 7885SOL    HW224555   6.138   5.234   2.802
 7886SOL     OW24556   3.845   4.858   2.973
 7886SOL    HW124557   3.844   4.946   2.925
 7886SOL    HW224558   3.753   4.838   3.008
 7887SOL     OW24559   0.312   3.169   0.564
 7887SOL    HW124560   0.255   3.150   0.484
 7887SOL    HW224561   0.331   3.083   0.611
 7888SOL     OW24562   0.660   1.677   5.238
 7888SOL    HW124563   0.598   1.691   5.161
 7888SOL    HW224564   0.718   1.598   5.221
 7889SOL     OW24565   5.245   5.143   0.250
 7889SOL    HW124566   5.274   5.051   0.278
 7889SOL    HW224567   5.325   5.199   0.233
 7890SOL     OW24568   1.961   2.669   2.042
 7890SOL    HW124569   1.983   2.667   2.140
 7890SOL    HW224570   2.016   2.600   1.995
 7891SOL     OW24571   5.750   1.152   4.225
 7891SOL    HW124572   5.794   1.143   4.135
 7891SOL    HW224573   5.652   1.137   4.215
 7892SOL     OW24574   0.873   2.128   4.214
 7892SOL    HW124575   0.818   2.114   4.131
 7892SOL    HW224576   0.957   2.075   4.207
 7893SOL     OW24577   5.221   6.118   0.729
 7893SOL    HW124578   5.121   6.114   0.732
 7893SOL    HW224579   5.259   6.030   0.759
 7894SOL     OW24580   2.988   6.904   6.528
 7894SOL    HW124581   3.058   6.972   6.550
 7894SOL    HW224582   2.924   6.942   6.462
 7895SOL     OW24583   5.315   6.622   2.724
 7895SOL    HW124584   5.412   6.637   2.705
 7895SOL    HW224585   5.294   6.525   2.715
 7896SOL     OW24586   2.784   2.526   1.086
 7896SOL    HW124587   2.841   2.494   1.162
 7896SOL    HW224588   2.694   2.555   1.121
 7897SOL     OW24589   5.527   1.195   1.471
 7897SOL    HW124590   5.484   1.114   1.432
 7897SOL    HW224591   5.493   1.209   1.564
 7898SOL     OW24592   4.442   6.681   2.769
 7898SOL    HW124593   4.523   6.653   2.821
 7898SOL    HW224594   4.368   6.703   2.832
 7899SOL     OW24595   6.322   5.109   3.080
 7899SOL    HW124596   6.414   5.068   3.074
 7899SOL    HW224597   6.281   5.111   2.990
 7900SOL     OW24598   0.289   3.448   0.485
 7900SOL    HW124599   0.260   3.353   0.487
 7900SOL    HW224600   0.375   3.459   0.533
 7901SOL     OW24601   0.577   2.387   6.361
 7901SOL    HW124602   0.615   2.418   6.274
 7901SOL    HW224603   0.649   2.343   6.415
 7902SOL     OW24604   1.850   0.347   1.526
 7902SOL    HW124605   1.845   0.434   1.477
 7902SOL    HW224606   1.928   0.294   1.493
 7903SOL     OW24607   3.092   2.132   5.967
 7903SOL    HW124608   3.114   2.082   5.883
 7903SOL    HW224609   3.009   2.187   5.951
 7904SOL     OW24610   5.497   3.577   2.693
 7904SOL    HW124611   5.474   3.662   2.741
 7904SOL    HW224612   5.414   3.527   2.672
 7905SOL     OW24613   6.208   2.046   1.704
 7905SOL    HW124614   6.141   2.061   1.632
 7905SOL    HW224615   6.297   2.026   1.663
 7906SOL     OW24616   0.244   6.104   6.301
 7906SOL    HW124617   0.274   6.197   6.323
 7906SOL    HW224618   0.295   6.072   6.221
 7907SOL     OW24619   5.672   5.646   3.423
 7907SOL    HW124620   5.617   5.728   3.411
 7907SOL    HW224621   5.614   5.571   3.453
 7908SOL     OW24622   1.850   0.050   6.139
 7908SOL    HW124623   1.771   0.012   6.187
 7908SOL    HW224624   1.874   7.016   6.062
 7909SOL     OW24625   6.811   4.077   2.127
 7909SOL    HW124626   6.902   4.101   2.092
 7909SOL    HW224627   6.818   4.055   2.225
 7910SOL     OW24628   1.440   4.165   4.780
 7910SOL    HW124629   1.385   4.229   4.726
 7910SOL    HW224630   1.438   4.191   4.876
 7911SOL     OW24631   6.213   3.674   6.029
 7911SOL    HW124632   6.287   3.698   5.966
 7911SOL    HW224633   6.140   3.628   5.979
 7912SOL     OW24634   5.416   5.697   1.642
 7912SOL    HW124635   5.400   5.632   1.568
 7912SOL    HW224636   5.359   5.778   1.629
 7913SOL     OW24637   1.388   4.839   6.410
 7913SOL    HW124638   1.419   4.746   6.390
 7913SOL    HW224639   1.293   4.837   6.441
 7914SOL     OW24640   0.968   0.083   4.825
 7914SOL    HW124641   1.028   0.163   4.822
 7914SOL    HW224642   0.873   0.112   4.812
 7915SOL     OW24643   3.626   5.717   2.345
 7915SOL    HW124644   3.543   5.664   2.364
 7915SOL    HW224645   3.703   5.655   2.332
 7916SOL     OW24646   1.643   1.002   4.263
 7916SOL    HW124647   1.604   1.037   4.177
 7916SOL    HW224648   1.736   1.038   4.273
 7917SOL     OW24649   4.983   1.970   2.767
 7917SOL    HW124650   4.883   1.969   2.756
 7917SOL    HW224651   5.007   2.029   2.844
 7918SOL     OW24652   1.411   2.388   2.675
 7918SOL    HW124653   1.411   2.488   2.669
 7918SOL    HW224654   1.424   2.360   2.770
 7919SOL     OW24655   0.756   6.904   4.725
 7919SOL    HW124656   0.789   6.833   4.663
 7919SOL    HW224657   0.715   6.979   4.673
 7920SOL     OW24658   5.310   6.825   1.049
 7920SOL    HW124659   5.339   6.827   0.953
 7920SOL    HW224660   5.242   6.753   1.061
 7921SOL     OW24661   5.662   3.598   1.124
 7921SOL    HW124662   5.699   3.590   1.032
 7921SOL    HW224663   5.569   3.635   1.120
 7922SOL     OW24664   2.400   6.271   3.496
 7922SOL    HW124665   2.341   6.348   3.518
 7922SOL    HW224666   2.390   6.247   3.400
 7923SOL     OW24667   4.912   0.104   1.156
 7923SOL    HW124668   4.853   0.106   1.075
 7923SOL    HW224669   5.006   0.086   1.128
 7924SOL     OW24670   5.561   6.153   6.982
 7924SOL    HW124671   5.553   6.167   6.883
 7924SOL    HW224672   5.593   6.060   7.000
 7925SOL     OW24673   2.263   4.968   6.103
 7925SOL    HW124674   2.295   4.873   6.098
 7925SOL    HW224675   2.342   5.029   6.102
 7926SOL     OW24676   4.205   6.056   5.948
 7926SOL    HW124677   4.168   5.965   5.930
 7926SOL    HW224678   4.134   6.113   5.990
 7927SOL     OW24679   5.187   0.255   3.280
 7927SOL    HW124680   5.200   0.350   3.251
 7927SOL    HW224681   5.226   0.243   3.371
 7928SOL     OW24682   5.581   1.981   4.008
 7928SOL    HW124683   5.598   1.899   3.954
 7928SOL    HW224684   5.603   1.964   4.104
 7929SOL     OW24685   4.562   3.776   5.381
 7929SOL    HW124686   4.611   3.862   5.368
 7929SOL    HW224687   4.612   3.702   5.336
 7930SOL     OW24688   4.083   5.224   0.930
 7930SOL    HW124689   4.139   5.208   0.848
 7930SOL    HW224690   4.120   5.301   0.981
 7931SOL     OW24691   5.091   0.462   0.510
 7931SOL    HW124692   5.029   0.386   0.493
 7931SOL    HW224693   5.164   0.461   0.442
 7932SOL     OW24694   0.913   3.487   0.946
 7932SOL    HW124695   0.988   3.426   0.922
 7932SOL    HW224696   0.839   3.477   0.879
 7933SOL     OW24697   1.461   1.288   0.612
 7933SOL    HW124698   1.379   1.241   0.578
 7933SOL    HW224699   1.496   1.348   0.541
 7934SOL     OW24700   6.503   5.424   0.662
 7934SOL    HW124701   6.502   5.358   0.737
 7934SOL    HW224702   6.409   5.449   0.639
 7935SOL     OW24703   6.096   3.784   3.166
 7935SOL    HW124704   6.014   3.750   3.212
 7935SOL    HW224705   6.082   3.785   3.067
 7936SOL     OW24706   2.255   5.882   3.373
 7936SOL    HW124707   2.258   5.936   3.458
 7936SOL    HW224708   2.161   5.874   3.342
 7937SOL     OW24709   3.668   1.535   1.265
 7937SOL    HW124710   3.698   1.617   1.314
 7937SOL    HW224711   3.576   1.510   1.295
 7938SOL     OW24712   2.303   6.767   3.234
 7938SOL    HW124713   2.258   6.678   3.236
 7938SOL    HW224714   2.268   6.823   3.309
 7939SOL     OW24715   1.467   0.078   3.033
 7939SOL    HW124716   1.469   0.046   3.128
 7939SOL    HW224717   1.560   0.074   2.996
 7940SOL     OW24718   6.518   1.669   5.156
 7940SOL    HW124719   6.429   1.636   5.124
 7940SOL    HW224720   6.511   1.766   5.181
 7941SOL     OW24721   3.359   0.550   0.913
 7941SOL    HW124722   3.432   0.514   0.970
 7941SOL    HW224723   3.281   0.575   0.970
 7942SOL     OW24724   1.290   3.825   1.122
 7942SOL    HW124725   1.229   3.879   1.180
 7942SOL    HW224726   1.367   3.792   1.175
 7943SOL     OW24727   1.906   5.280   0.077
 7943SOL    HW124728   1.899   5.361   0.019
 7943SOL    HW224729   2.002   5.263   0.099
 7944SOL     OW24730   0.856   2.102   0.790
 7944SOL    HW124731   0.802   2.184   0.768
 7944SOL    HW224732   0.954   2.125   0.783
 7945SOL     OW24733   6.414   4.499   3.214
 7945SOL    HW124734   6.352   4.460   3.282
 7945SOL    HW224735   6.481   4.557   3.259
 7946SOL     OW24736   4.936   1.477   5.739
 7946SOL    HW124737   4.982   1.438   5.820
 7946SOL    HW224738   4.927   1.406   5.669
 7947SOL     OW24739   0.962   3.781   7.004
 7947SOL    HW124740   1.044   3.780   0.036
 7947SOL    HW224741   0.901   3.855   0.010
 7948SOL     OW24742   1.570   5.769   1.405
 7948SOL    HW124743   1.637   5.757   1.331
 7948SOL    HW224744   1.507   5.843   1.382
 7949SOL     OW24745   3.192   5.350   5.346
 7949SOL    HW124746   3.107   5.297   5.339
 7949SOL    HW224747   3.267   5.289   5.373
 7950SOL     OW24748   6.564   2.744   5.721
 7950SOL    HW124749   6.552   2.757   5.819
 7950SOL    HW224750   6.630   2.811   5.686
 7951SOL     OW24751   3.732   0.511   2.805
 7951SOL    HW124752   3.798   0.436   2.792
 7951SOL    HW224753   3.671   0.514   2.726
 7952SOL     OW24754   6.922   3.043   5.126
 7952SOL    HW124755   6.932   3.078   5.033
 7952SOL    HW224756   6.978   3.098   5.188
 7953SOL     OW24757   1.453   0.347   0.258
 7953SOL    HW124758   1.372   0.373   0.206
 7953SOL    HW224759   1.462   0.247   0.258
 7954SOL     OW24760   3.799   2.747   0.458
 7954SOL    HW124761   3.814   2.749   0.360
 7954SOL    HW224762   3.847   2.669   0.499
 7955SOL     OW24763   6.700   0.748   6.401
 7955SOL    HW124764   6.644   0.724   6.322
 7955SOL    HW224765   6.761   0.672   6.424
 7956SOL     OW24766   0.032   0.367   0.705
 7956SOL    HW124767   0.093   0.302   0.752
 7956SOL    HW224768   6.968   0.367   0.749
 7957SOL     OW24769   5.519   1.578   5.752
 7957SOL    HW124770   5.482   1.670   5.764
 7957SOL    HW224771   5.612   1.584   5.717
 7958SOL     OW24772   4.596   2.509   6.659
 7958SOL    HW124773   4.692   2.532   6.641
 7958SOL    HW224774   4.537   2.571   6.608
 7959SOL     OW24775   5.072   2.988   6.780
 7959SOL    HW124776   5.034   3.050   6.712
 7959SOL    HW224777   5.060   3.027   6.871
 7960SOL     OW24778   1.020   1.896   4.909
 7960SOL    HW124779   1.016   1.984   4.956
 7960SOL    HW224780   0.929   1.871   4.877
 7961SOL     OW24781   6.053   0.111   6.219
 7961SOL    HW124782   6.000   0.170   6.280
 7961SOL    HW224783   6.106   0.046   6.275
 7962SOL     OW24784   5.452   7.019   4.917
 7962SOL    HW124785   5.423   7.014   4.821
 7962SOL    HW224786   5.484   6.929   4.947
 7963SOL     OW24787   5.550   6.030   2.637
 7963SOL    HW124788   5.563   6.049   2.735
 7963SOL    HW224789   5.455   6.006   2.620
 7964SOL     OW24790   0.140   3.821   1.464
 7964SOL    HW124791   0.163   3.814   1.367
 7964SOL    HW224792   0.041   3.827   1.475
 7965SOL     OW24793   4.279   1.557   6.844
 7965SOL    HW124794   4.250   1.525   6.754
 7965SOL    HW224795   4.297   1.656   6.840
 7966SOL     OW24796   6.020   3.552   5.130
 7966SOL    HW124797   6.056   3.494   5.057
 7966SOL    HW224798   6.080   3.545   5.210
 7967SOL     OW24799   1.783   4.033   1.598
 7967SOL    HW124800   1.787   3.936   1.573
 7967SOL    HW224801   1.696   4.071   1.566
 7968SOL     OW24802   2.421   2.252   3.769
 7968SOL    HW124803   2.329   2.223   3.741
 7968SOL    HW224804   2.415   2.300   3.857
 7969SOL     OW24805   2.842   3.953   6.619
 7969SOL    HW124806   2.767   3.998   6.572
 7969SOL    HW224807   2.895   3.899   6.554
 7970SOL     OW24808   6.653   3.306   2.843
 7970SOL    HW124809   6.735   3.351   2.879
 7970SOL    HW224810   6.605   3.259   2.918
 7971SOL     OW24811   2.847   0.195   6.809
 7971SOL    HW124812   2.830   0.228   6.716
 7971SOL    HW224813   2.857   0.273   6.871
 7972SOL     OW24814   4.062   3.830   4.653
 7972SOL    HW124815   4.095   3.761   4.588
 7972SOL    HW224816   4.103   3.919   4.632
 7973SOL     OW24817   0.178   5.067   2.080
 7973SOL    HW124818   0.105   5.093   2.017
 7973SOL    HW224819   0.212   5.147   2.129
 7974SOL     OW24820   6.915   2.496   4.617
 7974SOL    HW124821   6.968   2.528   4.695
 7974SOL    HW224822   6.952   2.533   4.533
 7975SOL     OW24823   3.765   6.901   6.626
 7975SOL    HW124824   3.726   6.902   6.718
 7975SOL    HW224825   3.827   6.979   6.615
 7976SOL     OW24826   0.430   0.372   0.801
 7976SOL    HW124827   0.411   0.419   0.887
 7976SOL    HW224828   0.528   0.352   0.795
 7977SOL     OW24829   4.844   5.043   2.734
 7977SOL    HW124830   4.885   5.114   2.791
 7977SOL    HW224831   4.774   4.995   2.786
 7978SOL     OW24832   0.241   4.236   0.944
 7978SOL    HW124833   0.209   4.240   0.850
 7978SOL    HW224834   0.320   4.297   0.955
 7979SOL     OW24835   3.495   2.712   5.748
 7979SOL    HW124836   3.454   2.651   5.681
 7979SOL    HW224837   3.437   2.716   5.830
 7980SOL     OW24838   3.953   6.293   2.781
 7980SOL    HW124839   3.914   6.264   2.869
 7980SOL    HW224840   4.053   6.295   2.789
 7981SOL     OW24841   0.982   2.991   4.510
 7981SOL    HW124842   1.069   2.954   4.478
 7981SOL    HW224843   0.924   2.917   4.544
 7982SOL     OW24844   6.695   0.066   0.342
 7982SOL    HW124845   6.740   0.092   0.256
 7982SOL    HW224846   6.614   0.012   0.322
 7983SOL     OW24847   3.406   1.460   1.297
 7983SOL    HW124848   3.395   1.393   1.370
 7983SOL    HW224849   3.378   1.420   1.210
 7984SOL     OW24850   6.292   2.931   2.948
 7984SOL    HW124851   6.209   2.984   2.931
 7984SOL    HW224852   6.284   2.841   2.905
 7985SOL     OW24853   3.319   3.457   5.912
 7985SOL    HW124854   3.396   3.416   5.862
 7985SOL    HW224855   3.324   3.557   5.904
 7986SOL     OW24856   2.693   1.043   3.671
 7986SOL    HW124857   2.781   1.044   3.717
 7986SOL    HW224858   2.696   1.103   3.591
 7987SOL     OW24859   1.678   3.114   5.717
 7987SOL    HW124860   1.627   3.028   5.713
 7987SOL    HW224861   1.705   3.141   5.624
 7988SOL     OW24862   6.562   0.313   1.514
 7988SOL    HW124863   6.474   0.350   1.542
 7988SOL    HW224864   6.584   0.345   1.422
 7989SOL     OW24865   0.701   4.728   1.394
 7989SOL    HW124866   0.749   4.763   1.474
 7989SOL    HW224867   0.613   4.775   1.385
 7990SOL     OW24868   3.943   5.332   5.352
 7990SOL    HW124869   4.039   5.353   5.332
 7990SOL    HW224870   3.934   5.309   5.449
 7991SOL     OW24871   5.420   0.888   4.473
 7991SOL    HW124872   5.368   0.942   4.540
 7991SOL    HW224873   5.370   0.805   4.452
 7992SOL     OW24874   2.161   0.189   0.020
 7992SOL    HW124875   2.234   0.252   0.044
 7992SOL    HW224876   2.098   0.233   6.981
 7993SOL     OW24877   6.127   6.004   0.699
 7993SOL    HW124878   6.208   5.962   0.739
 7993SOL    HW224879   6.145   6.025   0.603
 7994SOL     OW24880   0.822   1.550   4.708
 7994SOL    HW124881   0.921   1.556   4.721
 7994SOL    HW224882   0.789   1.633   4.664
 7995SOL     OW24883   0.439   6.411   1.228
 7995SOL    HW124884   0.533   6.401   1.262
 7995SOL    HW224885   0.379   6.347   1.277
 7996SOL     OW24886   2.190   6.723   3.890
 7996SOL    HW124887   2.290   6.733   3.888
 7996SOL    HW224888   2.166   6.628   3.911
 7997SOL     OW24889   2.795   0.851   5.769
 7997SOL    HW124890   2.874   0.906   5.743
 7997SOL    HW224891   2.826   0.773   5.824
 7998SOL     OW24892   2.375   1.455   1.562
 7998SOL    HW124893   2.345   1.546   1.531
 7998SOL    HW224894   2.348   1.387   1.494
 7999SOL     OW24895   0.063   1.021   2.398
 7999SOL    HW124896   0.136   0.953   2.391
 7999SOL    HW224897   0.025   1.020   2.490
 8000SOL     OW24898   4.636   5.760   1.159
 8000SOL    HW124899   4.590   5.795   1.240
 8000SOL    HW224900   4.585   5.785   1.077
 8001SOL     OW24901   5.252   4.921   2.354
 8001SOL    HW124902   5.222   4.900   2.447
 8001SOL    HW224903   5.198   4.998   2.318
 8002SOL     OW24904   1.502   0.931   5.264
 8002SOL    HW124905   1.412   0.966   5.290
 8002SOL    HW224906   1.492   0.845   5.215
 8003SOL     OW24907   2.487   5.383   2.892
 8003SOL    HW124908   2.572   5.431   2.915
 8003SOL    HW224909   2.422   5.447   2.852
 8004SOL     OW24910   1.842   3.669   3.862
 8004SOL    HW124911   1.886   3.599   3.805
 8004SOL    HW224912   1.765   3.629   3.911
 8005SOL     OW24913   2.880   0.539   4.259
 8005SOL    HW124914   2.781   0.543   4.246
 8005SOL    HW224915   2.919   0.629   4.241
 8006SOL     OW24916   4.974   5.025   6.314
 8006SOL    HW124917   5.021   4.990   6.233
 8006SOL    HW224918   4.902   5.089   6.285
 8007SOL     OW24919   0.043   0.842   1.413
 8007SOL    HW124920   7.021   0.759   1.443
 8007SOL    HW224921   0.119   0.817   1.352
 8008SOL     OW24922   5.423   5.445   0.994
 8008SOL    HW124923   5.518   5.429   1.021
 8008SOL    HW224924   5.419   5.521   0.929
 8009SOL     OW24925   6.383   0.636   1.154
 8009SOL    HW124926   6.437   0.689   1.088
 8009SOL    HW224927   6.441   0.565   1.194
 8010SOL     OW24928   2.708   0.325   6.607
 8010SOL    HW124929   2.647   0.278   6.543
 8010SOL    HW224930   2.654   0.369   6.678
 8011SOL     OW24931   3.967   2.043   2.241
 8011SOL    HW124932   3.985   2.072   2.147
 8011SOL    HW224933   3.878   2.078   2.271
 8012SOL     OW24934   6.232   0.588   5.490
 8012SOL    HW124935   6.311   0.646   5.469
 8012SOL    HW224936   6.149   0.636   5.462
 8013SOL     OW24937   3.721   0.358   3.250
 8013SOL    HW124938   3.667   0.284   3.289
 8013SOL    HW224939   3.796   0.320   3.196
 8014SOL     OW24940   2.412   2.593   3.196
 8014SOL    HW124941   2.384   2.655   3.269
 8014SOL    HW224942   2.495   2.544   3.223
 8015SOL     OW24943   3.263   5.987   4.892
 8015SOL    HW124944   3.189   6.032   4.942
 8015SOL    HW224945   3.345   5.985   4.950
 8016SOL     OW24946   3.095   3.086   4.958
 8016SOL    HW124947   3.037   3.167   4.967
 8016SOL    HW224948   3.046   3.006   4.994
 8017SOL     OW24949   5.079   6.486   1.930
 8017SOL    HW124950   5.163   6.437   1.953
 8017SOL    HW224951   5.066   6.562   1.993
 8018SOL     OW24952   2.977   2.673   0.945
 8018SOL    HW124953   2.898   2.640   0.995
 8018SOL    HW224954   2.998   2.767   0.974
 8019SOL     OW24955   2.860   3.475   1.296
 8019SOL    HW124956   2.811   3.416   1.360
 8019SOL    HW224957   2.803   3.555   1.273
 8020SOL     OW24958   0.850   0.152   0.301
 8020SOL    HW124959   0.783   0.134   0.373
 8020SOL    HW224960   0.808   0.137   0.212
 8021SOL     OW24961   0.829   2.365   0.722
 8021SOL    HW124962   0.907   2.377   0.783
 8021SOL    HW224963   0.764   2.440   0.734
 8022SOL     OW24964   4.390   0.580   2.949
 8022SOL    HW124965   4.320   0.638   2.908
 8022SOL    HW224966   4.358   0.485   2.952
 8023SOL     OW24967   3.644   4.862   2.254
 8023SOL    HW124968   3.740   4.834   2.246
 8023SOL    HW224969   3.596   4.838   2.169
 8024SOL     OW24970   2.715   0.680   6.056
 8024SOL    HW124971   2.651   0.694   5.982
 8024SOL    HW224972   2.687   0.601   6.111
 8025SOL     OW24973   1.438   6.894   1.315
 8025SOL    HW124974   1.500   6.971   1.321
 8025SOL    HW224975   1.344   6.926   1.312
 8026SOL     OW24976   0.314   6.576   5.530
 8026SOL    HW124977   0.335   6.643   5.459
 8026SOL    HW224978   0.309   6.623   5.619
 8027SOL     OW24979   4.071   6.758   6.557
 8027SOL    HW124980   4.035   6.846   6.524
 8027SOL    HW224981   4.028   6.734   6.643
 8028SOL     OW24982   4.116   5.800   6.300
 8028SOL    HW124983   4.126   5.741   6.381
 8028SOL    HW224984   4.019   5.820   6.286
 8029SOL     OW24985   1.291   6.838   1.823
 8029SOL    HW124986   1.371   6.857   1.766
 8029SOL    HW224987   1.314   6.856   1.919
 8030SOL     OW24988   0.931   3.858   1.206
 8030SOL    HW124989   0.935   3.760   1.186
 8030SOL    HW224990   0.837   3.883   1.231
 8031SOL     OW24991   6.947   0.802   3.732
 8031SOL    HW124992   6.880   0.846   3.792
 8031SOL    HW224993   6.904   0.779   3.645
 8032SOL     OW24994   0.128   3.288   1.364
 8032SOL    HW124995   0.119   3.295   1.464
 8032SOL    HW224996   0.125   3.192   1.337
 8033SOL     OW24997   4.369   4.933   0.827
 8033SOL    HW124998   4.405   4.842   0.803
 8033SOL    HW224999   4.421   4.970   0.904
 8034SOL     OW25000   1.682   1.377   4.979
 8034SOL    HW125001   1.583   1.357   4.977
 8034SOL    HW225002   1.725   1.337   4.898
 8035SOL     OW25003   5.488   0.797   4.875
 8035SOL    HW125004   5.444   0.748   4.950
 8035SOL    HW225005   5.587   0.785   4.880
 8036SOL     OW25006   5.327   4.496   4.674
 8036SOL    HW125007   5.262   4.480   4.600
 8036SOL    HW225008   5.402   4.430   4.668
 8037SOL     OW25009   2.412   1.141   6.815
 8037SOL    HW125010   2.367   1.171   6.899
 8037SOL    HW225011   2.509   1.166   6.819
 8038SOL     OW25012   6.291   5.428   1.685
 8038SOL    HW125013   6.373   5.377   1.663
 8038SOL    HW225014   6.314   5.524   1.700
 8039SOL     OW25015   1.981   2.748   4.954
 8039SOL    HW125016   1.944   2.778   5.042
 8039SOL    HW225017   2.060   2.688   4.969
 8040SOL     OW25018   0.694   6.577   5.591
 8040SOL    HW125019   0.602   6.561   5.555
 8040SOL    HW225020   0.712   6.675   5.596
 8041SOL     OW25021   3.191   1.963   2.759
 8041SOL    HW125022   3.163   1.880   2.808
 8041SOL    HW225023   3.229   1.938   2.670
 8042SOL     OW25024   4.448   3.857   5.962
 8042SOL    HW125025   4.379   3.929   5.969
 8042SOL    HW225026   4.539   3.898   5.964
 8043SOL     OW25027   5.069   5.321   6.855
 8043SOL    HW125028   5.148   5.374   6.822
 8043SOL    HW225029   5.064   5.329   6.955
 8044SOL     OW25030   1.220   2.902   1.311
 8044SOL    HW125031   1.259   2.818   1.349
 8044SOL    HW225032   1.293   2.970   1.298
 8045SOL     OW25033   5.834   3.067   4.966
 8045SOL    HW125034   5.795   3.089   5.056
 8045SOL    HW225035   5.817   2.971   4.946
 8046SOL     OW25036   0.619   4.169   0.880
 8046SOL    HW125037   0.550   4.242   0.873
 8046SOL    HW225038   0.624   4.137   0.975
 8047SOL     OW25039   3.192   6.410   6.715
 8047SOL    HW125040   3.102   6.431   6.754
 8047SOL    HW225041   3.182   6.380   6.620
 8048SOL     OW25042   4.682   2.078   6.461
 8048SOL    HW125043   4.738   2.019   6.517
 8048SOL    HW225044   4.616   2.127   6.518
 8049SOL     OW25045   2.293   1.621   1.018
 8049SOL    HW125046   2.229   1.693   0.990
 8049SOL    HW225047   2.290   1.547   0.951
 8050SOL     OW25048   6.935   5.426   5.757
 8050SOL    HW125049   6.884   5.340   5.749
 8050SOL    HW225050   6.960   5.442   5.852
 8051SOL     OW25051   4.212   6.662   2.950
 8051SOL    HW125052   4.249   6.621   3.033
 8051SOL    HW225053   4.122   6.623   2.929
 8052SOL     OW25054   2.372   1.318   2.872
 8052SOL    HW125055   2.338   1.389   2.933
 8052SOL    HW225056   2.294   1.274   2.827
 8053SOL     OW25057   1.291   1.531   6.383
 8053SOL    HW125058   1.385   1.521   6.349
 8053SOL    HW225059   1.278   1.623   6.417
 8054SOL     OW25060   5.093   3.735   5.180
 8054SOL    HW125061   5.178   3.701   5.219
 8054SOL    HW225062   5.112   3.782   5.094
 8055SOL     OW25063   0.170   0.761   6.473
 8055SOL    HW125064   0.250   0.770   6.533
 8055SOL    HW225065   0.091   0.731   6.527
 8056SOL     OW25066   1.985   2.203   2.920
 8056SOL    HW125067   2.052   2.239   2.854
 8056SOL    HW225068   1.926   2.136   2.874
 8057SOL     OW25069   3.190   1.974   1.635
 8057SOL    HW125070   3.169   2.028   1.717
 8057SOL    HW225071   3.257   1.904   1.659
 8058SOL     OW25072   3.648   6.574   1.758
 8058SOL    HW125073   3.625   6.661   1.802
 8058SOL    HW225074   3.573   6.509   1.770
 8059SOL     OW25075   4.665   4.023   5.363
 8059SOL    HW125076   4.747   4.079   5.366
 8059SOL    HW225077   4.605   4.047   5.440
 8060SOL     OW25078   0.356   1.414   5.207
 8060SOL    HW125079   0.426   1.344   5.215
 8060SOL    HW225080   0.390   1.491   5.153
 8061SOL     OW25081   6.741   1.009   1.328
 8061SOL    HW125082   6.753   1.092   1.274
 8061SOL    HW225083   6.804   1.010   1.405
 8062SOL     OW25084   4.618   4.702   6.276
 8062SOL    HW125085   4.605   4.636   6.349
 8062SOL    HW225086   4.530   4.722   6.233
 8063SOL     OW25087   2.607   4.689   2.555
 8063SOL    HW125088   2.564   4.722   2.472
 8063SOL    HW225089   2.565   4.602   2.582
 8064SOL     OW25090   6.824   2.895   0.259
 8064SOL    HW125091   6.740   2.885   0.205
 8064SOL    HW225092   6.849   2.807   0.299
 8065SOL     OW25093   4.708   0.370   6.341
 8065SOL    HW125094   4.650   0.385   6.261
 8065SOL    HW225095   4.696   0.276   6.373
 8066SOL     OW25096   6.776   1.082   6.095
 8066SOL    HW125097   6.817   1.170   6.119
 8066SOL    HW225098   6.677   1.092   6.086
 8067SOL     OW25099   5.274   0.679   4.362
 8067SOL    HW125100   5.182   0.660   4.395
 8067SOL    HW225101   5.298   0.611   4.292
 8068SOL     OW25102   0.055   4.634   0.807
 8068SOL    HW125103   0.107   4.705   0.855
 8068SOL    HW225104   0.018   4.569   0.874
 8069SOL     OW25105   1.127   2.725   1.772
 8069SOL    HW125106   1.111   2.740   1.674
 8069SOL    HW225107   1.063   2.657   1.806
 8070SOL     OW25108   5.265   4.503   1.636
 8070SOL    HW125109   5.236   4.598   1.636
 8070SOL    HW225110   5.335   4.489   1.705
 8071SOL     OW25111   1.841   0.305   6.193
 8071SOL    HW125112   1.843   0.320   6.292
 8071SOL    HW225113   1.884   0.217   6.172
 8072SOL     OW25114   2.700   2.562   5.644
 8072SOL    HW125115   2.700   2.578   5.545
 8072SOL    HW225116   2.629   2.617   5.687
 8073SOL     OW25117   5.435   6.731   6.754
 8073SOL    HW125118   5.482   6.820   6.753
 8073SOL    HW225119   5.444   6.690   6.845
 8074SOL     OW25120   6.179   0.543   0.969
 8074SOL    HW125121   6.239   0.577   1.042
 8074SOL    HW225122   6.088   0.582   0.980
 8075SOL     OW25123   0.356   0.195   1.400
 8075SOL    HW125124   0.316   0.180   1.310
 8075SOL    HW225125   0.452   0.224   1.389
 8076SOL     OW25126   6.815   5.751   0.580
 8076SOL    HW125127   6.841   5.804   0.499
 8076SOL    HW225128   6.763   5.670   0.552
 8077SOL     OW25129   6.632   4.435   1.050
 8077SOL    HW125130   6.552   4.377   1.032
 8077SOL    HW225131   6.641   4.450   1.148
 8078SOL     OW25132   5.990   2.135   1.566
 8078SOL    HW125133   5.927   2.080   1.511
 8078SOL    HW225134   6.030   2.207   1.509
 8079SOL     OW25135   0.003   0.784   0.047
 8079SOL    HW125136   0.037   0.804   0.138
 8079SOL    HW225137   6.985   0.694   0.046
 8080SOL     OW25138   0.658   3.667   3.967
 8080SOL    HW125139   0.624   3.594   3.908
 8080SOL    HW225140   0.583   3.728   3.991
 8081SOL     OW25141   6.026   0.276   5.399
 8081SOL    HW125142   6.086   0.306   5.473
 8081SOL    HW225143   6.030   0.176   5.391
 8082SOL     OW25144   5.009   1.933   4.731
 8082SOL    HW125145   5.086   1.872   4.718
 8082SOL    HW225146   5.004   1.961   4.827
 8083SOL     OW25147   6.901   2.983   4.275
 8083SOL    HW125148   6.972   3.024   4.332
 8083SOL    HW225149   6.943   2.925   4.205
 8084SOL     OW25150   5.338   1.758   0.024
 8084SOL    HW125151   5.271   1.825   7.017
 8084SOL    HW225152   5.393   1.799   0.097
 8085SOL     OW25153   1.534   6.068   4.659
 8085SOL    HW125154   1.595   6.043   4.584
 8085SOL    HW225155   1.569   6.151   4.703
 8086SOL     OW25156   0.073   2.591   1.959
 8086SOL    HW125157   0.133   2.521   1.999
 8086SOL    HW225158   7.007   2.583   2.000
 8087SOL     OW25159   6.414   0.652   5.968
 8087SOL    HW125160   6.331   0.707   5.954
 8087SOL    HW225161   6.401   0.562   5.928
 8088SOL     OW25162   6.808   6.866   5.110
 8088SOL    HW125163   6.836   6.808   5.187
 8088SOL    HW225164   6.884   6.877   5.047
 8089SOL     OW25165   6.251   1.304   0.288
 8089SOL    HW125166   6.293   1.293   0.378
 8089SOL    HW225167   6.296   1.379   0.239
 8090SOL     OW25168   4.433   2.145   4.623
 8090SOL    HW125169   4.384   2.219   4.575
 8090SOL    HW225170   4.520   2.127   4.577
 8091SOL     OW25171   1.082   3.277   5.292
 8091SOL    HW125172   1.147   3.319   5.228
 8091SOL    HW225173   0.999   3.332   5.295
 8092SOL     OW25174   4.620   0.047   5.293
 8092SOL    HW125175   4.650   0.136   5.327
 8092SOL    HW225176   4.588   0.057   5.198
 8093SOL     OW25177   3.931   0.094   3.490
 8093SOL    HW125178   3.926   0.158   3.413
 8093SOL    HW225179   3.917   0.143   3.576
 8094SOL     OW25180   1.899   4.538   3.668
 8094SOL    HW125181   1.884   4.636   3.662
 8094SOL    HW225182   1.873   4.494   3.582
 8095SOL     OW25183   1.158   5.682   4.422
 8095SOL    HW125184   1.202   5.768   4.394
 8095SOL    HW225185   1.110   5.643   4.344
 8096SOL     OW25186   0.621   5.034   0.835
 8096SOL    HW125187   0.558   5.084   0.776
 8096SOL    HW225188   0.700   5.004   0.782
 8097SOL     OW25189   4.748   7.020   0.426
 8097SOL    HW125190   4.793   0.079   0.456
 8097SOL    HW225191   4.757   7.010   0.327
 8098SOL     OW25192   2.328   6.478   4.726
 8098SOL    HW125193   2.354   6.459   4.631
 8098SOL    HW225194   2.345   6.396   4.782
 8099SOL     OW25195   2.067   3.272   2.621
 8099SOL    HW125196   2.120   3.190   2.596
 8099SOL    HW225197   2.031   3.315   2.539
 8100SOL     OW25198   0.045   6.644   0.541
 8100SOL    HW125199   0.100   6.560   0.539
 8100SOL    HW225200   0.033   6.678   0.448
 8101SOL     OW25201   2.767   5.007   0.220
 8101SOL    HW125202   2.696   4.981   0.286
 8101SOL    HW225203   2.730   5.074   0.156
 8102SOL     OW25204   1.602   4.536   3.838
 8102SOL    HW125205   1.604   4.456   3.778
 8102SOL    HW225206   1.520   4.533   3.895
 8103SOL     OW25207   4.595   0.322   1.706
 8103SOL    HW125208   4.509   0.301   1.659
 8103SOL    HW225209   4.642   0.237   1.730
 8104SOL     OW25210   1.454   6.387   0.188
 8104SOL    HW125211   1.409   6.474   0.207
 8104SOL    HW225212   1.442   6.326   0.266
 8105SOL     OW25213   6.841   0.193   2.738
 8105SOL    HW125214   6.828   0.191   2.639
 8105SOL    HW225215   6.778   0.128   2.781
 8106SOL     OW25216   3.559   6.325   6.469
 8106SOL    HW125217   3.588   6.399   6.408
 8106SOL    HW225218   3.543   6.362   6.560
 8107SOL     OW25219   0.753   6.144   0.517
 8107SOL    HW125220   0.843   6.156   0.560
 8107SOL    HW225221   0.738   6.218   0.452
 8108SOL     OW25222   1.714   0.831   0.590
 8108SOL    HW125223   1.764   0.823   0.503
 8108SOL    HW225224   1.740   0.916   0.635
 8109SOL     OW25225   0.199   3.608   2.044
 8109SOL    HW125226   0.192   3.545   1.967
 8109SOL    HW225227   0.237   3.560   2.124
 8110SOL     OW25228   4.591   4.510   0.051
 8110SOL    HW125229   4.591   4.449   6.996
 8110SOL    HW225230   4.507   4.494   0.104
 8111SOL     OW25231   5.624   2.127   2.395
 8111SOL    HW125232   5.629   2.213   2.445
 8111SOL    HW225233   5.679   2.057   2.441
 8112SOL     OW25234   2.011   4.517   6.696
 8112SOL    HW125235   2.008   4.417   6.702
 8112SOL    HW225236   1.927   4.551   6.653
 8113SOL     OW25237   5.496   5.007   6.258
 8113SOL    HW125238   5.473   4.910   6.257
 8113SOL    HW225239   5.594   5.018   6.238
 8114SOL     OW25240   2.213   3.078   2.775
 8114SOL    HW125241   2.240   3.174   2.777
 8114SOL    HW225242   2.118   3.069   2.806
 8115SOL     OW25243   2.283   1.593   6.226
 8115SOL    HW125244   2.275   1.494   6.214
 8115SOL    HW225245   2.198   1.637   6.197
 8116SOL     OW25246   4.019   3.178   2.365
 8116SOL    HW125247   4.062   3.249   2.309
 8116SOL    HW225248   4.009   3.095   2.310
 8117SOL     OW25249   0.919   0.461   4.024
 8117SOL    HW125250   0.904   0.548   4.071
 8117SOL    HW225251   0.859   0.457   3.943
 8118SOL     OW25252   6.934   2.488   6.477
 8118SOL    HW125253   6.887   2.405   6.448
 8118SOL    HW225254   6.941   2.552   6.400
 8119SOL     OW25255   5.468   4.742   6.572
 8119SOL    HW125256   5.539   4.712   6.635
 8119SOL    HW225257   5.427   4.827   6.605
 8120SOL     OW25258   2.184   6.631   2.277
 8120SOL    HW125259   2.121   6.708   2.264
 8120SOL    HW225260   2.198   6.616   2.375
 8121SOL     OW25261   0.984   2.660   2.882
 8121SOL    HW125262   0.955   2.742   2.833
 8121SOL    HW225263   0.993   2.681   2.980
 8122SOL     OW25264   1.094   5.004   1.179
 8122SOL    HW125265   1.190   5.031   1.189
 8122SOL    HW225266   1.038   5.053   1.246
 8123SOL     OW25267   0.108   1.520   5.778
 8123SOL    HW125268   0.050   1.446   5.813
 8123SOL    HW225269   0.117   1.591   5.847
 8124SOL     OW25270   6.248   6.105   5.422
 8124SOL    HW125271   6.277   6.148   5.508
 8124SOL    HW225272   6.321   6.047   5.387
 8125SOL     OW25273   0.424   6.211   2.140
 8125SOL    HW125274   0.500   6.230   2.078
 8125SOL    HW225275   0.453   6.145   2.210
 8126SOL     OW25276   3.173   5.535   4.554
 8126SOL    HW125277   3.110   5.545   4.630
 8126SOL    HW225278   3.263   5.571   4.580
 8127SOL     OW25279   4.500   1.186   5.719
 8127SOL    HW125280   4.517   1.193   5.621
 8127SOL    HW225281   4.422   1.244   5.743
 8128SOL     OW25282   3.569   3.172   1.183
 8128SOL    HW125283   3.623   3.111   1.241
 8128SOL    HW225284   3.475   3.140   1.180
 8129SOL     OW25285   6.678   2.928   3.070
 8129SOL    HW125286   6.694   2.938   2.971
 8129SOL    HW225287   6.623   3.004   3.102
 8130SOL     OW25288   6.818   6.535   0.015
 8130SOL    HW125289   6.816   6.524   0.114
 8130SOL    HW225290   6.744   6.483   6.998
 8131SOL     OW25291   2.157   2.655   0.959
 8131SOL    HW125292   2.232   2.637   1.022
 8131SOL    HW225293   2.189   2.716   0.886
 8132SOL     OW25294   5.911   1.634   4.491
 8132SOL    HW125295   5.982   1.602   4.553
 8132SOL    HW225296   5.830   1.577   4.500
 8133SOL     OW25297   3.674   5.718   1.339
 8133SOL    HW125298   3.584   5.675   1.328
 8133SOL    HW225299   3.743   5.662   1.293
 8134SOL     OW25300   5.673   1.664   6.887
 8134SOL    HW125301   5.618   1.583   6.869
 8134SOL    HW225302   5.709   1.661   6.980
 8135SOL     OW25303   2.361   6.056   2.254
 8135SOL    HW125304   2.412   5.976   2.286
 8135SOL    HW225305   2.356   6.055   2.155
 8136SOL     OW25306   4.644   4.891   2.333
 8136SOL    HW125307   4.718   4.942   2.376
 8136SOL    HW225308   4.556   4.936   2.354
 8137SOL     OW25309   4.511   0.884   5.521
 8137SOL    HW125310   4.588   0.934   5.560
 8137SOL    HW225311   4.542   0.833   5.441
 8138SOL     OW25312   6.160   0.561   2.527
 8138SOL    HW125313   6.114   0.641   2.565
 8138SOL    HW225314   6.094   0.486   2.518
 8139SOL     OW25315   0.735   1.341   4.310
 8139SOL    HW125316   0.653   1.348   4.254
 8139SOL    HW225317   0.785   1.258   4.286
 8140SOL     OW25318   4.763   2.796   3.005
 8140SOL    HW125319   4.825   2.717   3.006
 8140SOL    HW225320   4.744   2.821   2.910
 8141SOL     OW25321   5.676   4.027   3.562
 8141SOL    HW125322   5.759   3.972   3.558
 8141SOL    HW225323   5.596   3.966   3.565
 8142SOL     OW25324   0.198   6.155   0.450
 8142SOL    HW125325   0.230   6.060   0.445
 8142SOL    HW225326   0.108   6.158   0.493
 8143SOL     OW25327   6.796   2.634   6.080
 8143SOL    HW125328   6.820   2.557   6.020
 8143SOL    HW225329   6.879   2.667   6.126
 8144SOL     OW25330   4.830   6.313   0.142
 8144SOL    HW125331   4.744   6.274   0.108
 8144SOL    HW225332   4.858   6.388   0.082
 8145SOL     OW25333   5.167   6.288   4.262
 8145SOL    HW125334   5.092   6.324   4.317
 8145SOL    HW225335   5.199   6.202   4.303
 8146SOL     OW25336   3.412   1.814   3.706
 8146SOL    HW125337   3.331   1.793   3.650
 8146SOL    HW225338   3.471   1.877   3.656
 8147SOL     OW25339   4.889   1.584   3.770
 8147SOL    HW125340   4.872   1.507   3.830
 8147SOL    HW225341   4.904   1.667   3.824
 8148SOL     OW25342   0.299   3.579   3.067
 8148SOL    HW125343   0.203   3.549   3.068
 8148SOL    HW225344   0.308   3.663   3.121
 8149SOL     OW25345   3.938   5.204   4.084
 8149SOL    HW125346   3.925   5.206   4.183
 8149SOL    HW225347   3.870   5.144   4.042
 8150SOL     OW25348   1.537   6.145   1.216
 8150SOL    HW125349   1.581   6.222   1.262
 8150SOL    HW225350   1.471   6.102   1.278
 8151SOL     OW25351   0.767   1.902   4.796
 8151SOL    HW125352   0.799   1.987   4.753
 8151SOL    HW225353   0.708   1.853   4.732
 8152SOL     OW25354   0.922   0.757   3.447
 8152SOL    HW125355   0.953   0.852   3.436
 8152SOL    HW225356   0.823   0.756   3.461
 8153SOL     OW25357   2.142   5.957   0.509
 8153SOL    HW125358   2.238   5.975   0.530
 8153SOL    HW225359   2.134   5.870   0.460
 8154SOL     OW25360   2.291   6.026   3.643
 8154SOL    HW125361   2.349   6.096   3.602
 8154SOL    HW225362   2.347   5.964   3.699
 8155SOL     OW25363   3.305   3.676   4.762
 8155SOL    HW125364   3.322   3.775   4.766
 8155SOL    HW225365   3.287   3.649   4.668
 8156SOL     OW25366   0.651   6.692   4.893
 8156SOL    HW125367   0.680   6.769   4.835
 8156SOL    HW225368   0.595   6.629   4.838
 8157SOL     OW25369   5.581   2.656   6.912
 8157SOL    HW125370   5.520   2.674   6.835
 8157SOL    HW225371   5.545   2.579   6.965
 8158SOL     OW25372   0.970   5.841   2.427
 8158SOL    HW125373   0.912   5.918   2.403
 8158SOL    HW225374   1.059   5.874   2.458
 8159SOL     OW25375   0.378   6.238   0.273
 8159SOL    HW125376   0.437   6.166   0.238
 8159SOL    HW225377   0.317   6.200   0.343
 8160SOL     OW25378   5.188   1.956   1.135
 8160SOL    HW125379   5.122   1.970   1.209
 8160SOL    HW225380   5.278   1.986   1.164
 8161SOL     OW25381   4.197   3.783   1.410
 8161SOL    HW125382   4.193   3.743   1.319
 8161SOL    HW225383   4.273   3.847   1.415
 8162SOL     OW25384   6.205   1.276   2.222
 8162SOL    HW125385   6.260   1.207   2.176
 8162SOL    HW225386   6.239   1.290   2.315
 8163SOL     OW25387   2.430   2.714   5.044
 8163SOL    HW125388   2.336   2.685   5.065
 8163SOL    HW225389   2.442   2.810   5.072
 8164SOL     OW25390   5.419   4.440   1.422
 8164SOL    HW125391   5.456   4.349   1.403
 8164SOL    HW225392   5.382   4.442   1.515
 8165SOL     OW25393   1.437   3.535   1.816
 8165SOL    HW125394   1.362   3.547   1.751
 8165SOL    HW225395   1.401   3.505   1.904
 8166SOL     OW25396   2.860   6.928   1.787
 8166SOL    HW125397   2.903   7.018   1.802
 8166SOL    HW225398   2.789   6.913   1.856
 8167SOL     OW25399   5.685   2.940   4.578
 8167SOL    HW125400   5.600   2.943   4.526
 8167SOL    HW225401   5.681   2.864   4.643
 8168SOL     OW25402   2.657   1.549   2.437
 8168SOL    HW125403   2.600   1.531   2.517
 8168SOL    HW225404   2.683   1.645   2.435
 8169SOL     OW25405   5.556   3.972   5.706
 8169SOL    HW125406   5.647   4.012   5.694
 8169SOL    HW225407   5.494   4.009   5.637
 8170SOL     OW25408   1.137   4.916   3.839
 8170SOL    HW125409   1.218   4.858   3.837
 8170SOL    HW225410   1.141   4.976   3.919
 8171SOL     OW25411   2.008   0.698   6.755
 8171SOL    HW125412   1.961   0.617   6.789
 8171SOL    HW225413   1.943   0.775   6.751
 8172SOL     OW25414   6.938   6.293   2.277
 8172SOL    HW125415   7.017   6.353   2.289
 8172SOL    HW225416   6.934   6.227   2.352
 8173SOL     OW25417   6.872   3.056   0.469
 8173SOL    HW125418   6.919   3.012   0.545
 8173SOL    HW225419   6.858   2.990   0.395
 8174SOL     OW25420   4.962   6.534   2.766
 8174SOL    HW125421   5.057   6.535   2.736
 8174SOL    HW225422   4.942   6.617   2.818
 8175SOL     OW25423   1.127   2.318   3.270
 8175SOL    HW125424   1.210   2.349   3.317
 8175SOL    HW225425   1.106   2.225   3.298
 8176SOL     OW25426   3.910   5.540   3.768
 8176SOL    HW125427   3.868   5.501   3.850
 8176SOL    HW225428   3.890   5.638   3.764
 8177SOL     OW25429   1.725   6.617   6.187
 8177SOL    HW125430   1.697   6.622   6.282
 8177SOL    HW225431   1.821   6.589   6.181
 8178SOL     OW25432   1.709   6.713   6.491
 8178SOL    HW125433   1.616   6.690   6.520
 8178SOL    HW225434   1.773   6.644   6.526
 8179SOL     OW25435   4.249   0.303   6.837
 8179SOL    HW125436   4.172   0.323   6.775
 8179SOL    HW225437   4.310   0.382   6.841
 8180SOL     OW25438   4.904   4.555   4.876
 8180SOL    HW125439   4.995   4.535   4.912
 8180SOL    HW225440   4.909   4.562   4.776
 8181SOL     OW25441   2.325   2.050   2.356
 8181SOL    HW125442   2.395   2.116   2.383
 8181SOL    HW225443   2.325   2.041   2.256
 8182SOL     OW25444   5.313   2.819   5.252
 8182SOL    HW125445   5.309   2.747   5.183
 8182SOL    HW225446   5.220   2.850   5.274
 8183SOL     OW25447   2.007   3.430   3.274
 8183SOL    HW125448   2.091   3.398   3.231
 8183SOL    HW225449   1.933   3.428   3.206
 8184SOL     OW25450   6.312   6.332   4.369
 8184SOL    HW125451   6.387   6.320   4.435
 8184SOL    HW225452   6.349   6.326   4.276
 8185SOL     OW25453   0.770   2.200   3.559
 8185SOL    HW125454   0.755   2.285   3.508
 8185SOL    HW225455   0.715   2.127   3.519
 8186SOL     OW25456   4.377   3.801   6.556
 8186SOL    HW125457   4.401   3.717   6.605
 8186SOL    HW225458   4.432   3.808   6.473
 8187SOL     OW25459   2.144   1.409   5.997
 8187SOL    HW125460   2.089   1.480   6.041
 8187SOL    HW225461   2.218   1.382   6.058
 8188SOL     OW25462   5.247   3.145   2.768
 8188SOL    HW125463   5.308   3.180   2.696
 8188SOL    HW225464   5.252   3.205   2.848
 8189SOL     OW25465   6.682   5.262   3.259
 8189SOL    HW125466   6.582   5.260   3.267
 8189SOL    HW225467   6.708   5.248   3.163
 8190SOL     OW25468   5.686   3.689   2.952
 8190SOL    HW125469   5.640   3.606   2.984
 8190SOL    HW225470   5.619   3.750   2.910
 8191SOL     OW25471   5.733   4.989   1.599
 8191SOL    HW125472   5.702   4.969   1.692
 8191SOL    HW225473   5.795   4.916   1.568
 8192SOL     OW25474   1.384   2.025   0.868
 8192SOL    HW125475   1.423   2.096   0.808
 8192SOL    HW225476   1.420   2.036   0.960
 8193SOL     OW25477   3.717   6.221   5.576
 8193SOL    HW125478   3.806   6.262   5.597
 8193SOL    HW225479   3.731   6.136   5.526
 8194SOL     OW25480   1.635   1.031   3.004
 8194SOL    HW125481   1.637   0.935   3.035
 8194SOL    HW225482   1.576   1.038   2.923
 8195SOL     OW25483   5.788   1.193   1.733
 8195SOL    HW125484   5.838   1.266   1.780
 8195SOL    HW225485   5.799   1.202   1.635
 8196SOL     OW25486   2.567   1.087   1.041
 8196SOL    HW125487   2.495   1.022   1.067
 8196SOL    HW225488   2.562   1.103   0.942
 8197SOL     OW25489   0.470   6.757   1.025
 8197SOL    HW125490   0.453   6.659   1.036
 8197SOL    HW225491   0.552   6.783   1.076
 8198SOL     OW25492   3.158   1.325   2.993
 8198SOL    HW125493   3.147   1.317   2.894
 8198SOL    HW225494   3.078   1.288   3.039
 8199SOL     OW25495   6.029   4.430   1.331
 8199SOL    HW125496   6.035   4.530   1.326
 8199SOL    HW225497   5.936   4.400   1.309
 8200SOL     OW25498   3.799   4.343   1.708
 8200SOL    HW125499   3.793   4.442   1.693
 8200SOL    HW225500   3.707   4.304   1.709
 8201SOL     OW25501   0.986   1.138   5.173
 8201SOL    HW125502   1.041   1.219   5.152
 8201SOL    HW225503   0.978   1.127   5.272
 8202SOL     OW25504   1.512   3.074   4.062
 8202SOL    HW125505   1.581   3.068   3.990
 8202SOL    HW225506   1.553   3.048   4.149
 8203SOL     OW25507   6.866   4.378   6.190
 8203SOL    HW125508   6.852   4.299   6.249
 8203SOL    HW225509   6.911   4.350   6.105
 8204SOL     OW25510   3.280   6.770   0.789
 8204SOL    HW125511   3.319   6.752   0.698
 8204SOL    HW225512   3.346   6.745   0.859
 8205SOL     OW25513   3.905   6.968   3.050
 8205SOL    HW125514   4.004   6.967   3.033
 8205SOL    HW225515   3.872   6.875   3.061
 8206SOL     OW25516   3.592   2.136   4.921
 8206SOL    HW125517   3.517   2.174   4.866
 8206SOL    HW225518   3.565   2.046   4.956
 8207SOL     OW25519   2.661   5.676   0.111
 8207SOL    HW125520   2.752   5.717   0.106
 8207SOL    HW225521   2.605   5.710   0.035
 8208SOL     OW25522   1.335   6.051   1.030
 8208SOL    HW125523   1.316   5.963   1.072
 8208SOL    HW225524   1.409   6.097   1.079
 8209SOL     OW25525   0.864   5.830   4.832
 8209SOL    HW125526   0.952   5.799   4.797
 8209SOL    HW225527   0.835   5.912   4.782
 8210SOL     OW25528   2.519   0.435   1.023
 8210SOL    HW125529   2.566   0.395   0.945
 8210SOL    HW225530   2.470   0.517   0.995
 8211SOL     OW25531   2.991   3.871   3.733
 8211SOL    HW125532   3.069   3.904   3.680
 8211SOL    HW225533   3.001   3.901   3.828
 8212SOL     OW25534   4.255   4.652   6.968
 8212SOL    HW125535   4.207   4.729   7.009
 8212SOL    HW225536   4.222   4.567   7.007
 8213SOL     OW25537   4.796   4.077   2.184
 8213SOL    HW125538   4.774   4.171   2.208
 8213SOL    HW225539   4.741   4.048   2.106
 8214SOL     OW25540   4.278   5.307   3.587
 8214SOL    HW125541   4.375   5.332   3.579
 8214SOL    HW225542   4.226   5.388   3.613
 8215SOL     OW25543   2.670   6.278   5.470
 8215SOL    HW125544   2.694   6.219   5.393
 8215SOL    HW225545   2.613   6.228   5.535
 8216SOL     OW25546   5.909   5.365   0.591
 8216SOL    HW125547   5.954   5.321   0.513
 8216SOL    HW225548   5.810   5.359   0.579
 8217SOL     OW25549   3.419   6.088   3.353
 8217SOL    HW125550   3.457   6.155   3.290
 8217SOL    HW225551   3.319   6.089   3.347
 8218SOL     OW25552   2.431   6.123   3.961
 8218SOL    HW125553   2.384   6.144   4.046
 8218SOL    HW225554   2.401   6.033   3.928
 8219SOL     OW25555   3.491   3.388   3.785
 8219SOL    HW125556   3.571   3.340   3.751
 8219SOL    HW225557   3.506   3.487   3.777
 8220SOL     OW25558   4.368   4.331   5.963
 8220SOL    HW125559   4.411   4.366   6.047
 8220SOL    HW225560   4.271   4.312   5.980
 8221SOL     OW25561   6.985   3.932   3.662
 8221SOL    HW125562   6.925   3.957   3.586
 8221SOL    HW225563   6.953   3.976   3.746
 8222SOL     OW25564   5.268   2.186   6.298
 8222SOL    HW125565   5.240   2.250   6.370
 8222SOL    HW225566   5.273   2.234   6.211
 8223SOL     OW25567   1.271   6.143   5.549
 8223SOL    HW125568   1.366   6.143   5.517
 8223SOL    HW225569   1.258   6.069   5.614
 8224SOL     OW25570   5.577   0.481   5.620
 8224SOL    HW125571   5.630   0.405   5.581
 8224SOL    HW225572   5.553   0.459   5.714
 8225SOL     OW25573   6.147   2.452   0.293
 8225SOL    HW125574   6.131   2.368   0.346
 8225SOL    HW225575   6.245   2.467   0.284
 8226SOL     OW25576   3.667   0.431   6.840
 8226SOL    HW125577   3.574   0.429   6.877
 8226SOL    HW225578   3.729   0.472   6.907
 8227SOL     OW25579   5.618   4.160   2.217
 8227SOL    HW125580   5.537   4.101   2.224
 8227SOL    HW225581   5.589   4.254   2.200
 8228SOL     OW25582   2.803   1.605   4.313
 8228SOL    HW125583   2.752   1.574   4.393
 8228SOL    HW225584   2.876   1.667   4.341
 8229SOL     OW25585   3.996   4.359   0.511
 8229SOL    HW125586   3.985   4.289   0.440
 8229SOL    HW225587   3.914   4.360   0.569
 8230SOL     OW25588   6.453   0.756   6.515
 8230SOL    HW125589   6.546   0.722   6.506
 8230SOL    HW225590   6.454   0.846   6.558
 8231SOL     OW25591   3.379   1.734   1.722
 8231SOL    HW125592   3.467   1.772   1.749
 8231SOL    HW225593   3.386   1.694   1.631
 8232SOL     OW25594   3.786   6.558   3.937
 8232SOL    HW125595   3.751   6.482   3.991
 8232SOL    HW225596   3.723   6.576   3.861
 8233SOL     OW25597   3.185   0.331   6.373
 8233SOL    HW125598   3.266   0.390   6.372
 8233SOL    HW225599   3.180   0.281   6.287
 8234SOL     OW25600   0.747   2.900   6.778
 8234SOL    HW125601   0.846   2.917   6.774
 8234SOL    HW225602   0.699   2.979   6.741
 8235SOL     OW25603   1.010   6.267   0.030
 8235SOL    HW125604   1.065   6.350   0.040
 8235SOL    HW225605   1.056   6.191   0.076
 8236SOL     OW25606   1.345   0.040   1.105
 8236SOL    HW125607   1.422   0.033   1.042
 8236SOL    HW225608   1.294   0.124   1.086
 8237SOL     OW25609   4.050   4.948   5.676
 8237SOL    HW125610   4.124   4.958   5.743
 8237SOL    HW225611   4.010   4.856   5.684
 8238SOL     OW25612   6.712   4.877   6.797
 8238SOL    HW125613   6.762   4.792   6.816
 8238SOL    HW225614   6.614   4.858   6.796
 8239SOL     OW25615   4.346   2.406   3.756
 8239SOL    HW125616   4.387   2.399   3.665
 8239SOL    HW225617   4.378   2.490   3.801
 8240SOL     OW25618   3.890   3.698   5.311
 8240SOL    HW125619   3.918   3.743   5.396
 8240SOL    HW225620   3.930   3.606   5.308
 8241SOL     OW25621   0.437   3.146   5.729
 8241SOL    HW125622   0.422   3.107   5.638
 8241SOL    HW225623   0.532   3.178   5.735
 8242SOL     OW25624   0.746   3.156   3.342
 8242SOL    HW125625   0.783   3.066   3.318
 8242SOL    HW225626   0.741   3.213   3.261
 8243SOL     OW25627   1.825   5.889   3.738
 8243SOL    HW125628   1.799   5.809   3.792
 8243SOL    HW225629   1.851   5.860   3.646
 8244SOL     OW25630   5.820   0.333   4.568
 8244SOL    HW125631   5.821   0.305   4.472
 8244SOL    HW225632   5.727   0.360   4.593
 8245SOL     OW25633   5.962   4.484   2.428
 8245SOL    HW125634   6.056   4.490   2.463
 8245SOL    HW225635   5.898   4.482   2.504
 8246SOL     OW25636   2.260   4.637   0.124
 8246SOL    HW125637   2.223   4.576   0.055
 8246SOL    HW225638   2.267   4.730   0.087
 8247SOL     OW25639   2.010   4.838   3.301
 8247SOL    HW125640   1.992   4.859   3.397
 8247SOL    HW225641   2.006   4.739   3.288
 8248SOL     OW25642   6.591   7.002   2.620
 8248SOL    HW125643   6.510   6.944   2.620
 8248SOL    HW225644   6.658   6.967   2.686
 8249SOL     OW25645   3.279   6.941   5.680
 8249SOL    HW125646   3.268   7.004   5.757
 8249SOL    HW225647   3.194   6.936   5.628
 8250SOL     OW25648   1.178   1.489   0.162
 8250SOL    HW125649   1.115   1.503   0.085
 8250SOL    HW225650   1.192   1.576   0.209
 8251SOL     OW25651   1.114   2.104   6.647
 8251SOL    HW125652   1.176   2.084   6.723
 8251SOL    HW225653   1.067   2.190   6.664
 8252SOL     OW25654   1.024   1.351   6.523
 8252SOL    HW125655   1.014   1.296   6.440
 8252SOL    HW225656   0.954   1.325   6.589
 8253SOL     OW25657   0.397   4.184   5.528
 8253SOL    HW125658   0.468   4.244   5.564
 8253SOL    HW225659   0.376   4.209   5.434
 8254SOL     OW25660   4.891   4.497   0.023
 8254SOL    HW125661   4.941   4.477   0.107
 8254SOL    HW225662   4.794   4.509   0.044
 8255SOL     OW25663   1.795   6.395   5.477
 8255SOL    HW125664   1.889   6.427   5.467
 8255SOL    HW225665   1.742   6.461   5.531
 8256SOL     OW25666   1.543   5.681   2.690
 8256SOL    HW125667   1.545   5.750   2.618
 8256SOL    HW225668   1.585   5.596   2.656
 8257SOL     OW25669   4.733   4.621   3.733
 8257SOL    HW125670   4.800   4.572   3.788
 8257SOL    HW225671   4.670   4.555   3.691
 8258SOL     OW25672   7.019   3.217   4.901
 8258SOL    HW125673   0.019   3.143   4.839
 8258SOL    HW225674   0.070   3.236   4.963
 8259SOL     OW25675   5.806   3.212   4.107
 8259SOL    HW125676   5.751   3.289   4.075
 8259SOL    HW225677   5.778   3.187   4.200
 8260SOL     OW25678   4.900   2.237   6.413
 8260SOL    HW125679   4.932   2.212   6.321
 8260SOL    HW225680   4.817   2.185   6.435
 8261SOL     OW25681   5.304   2.538   2.721
 8261SOL    HW125682   5.385   2.501   2.767
 8261SOL    HW225683   5.301   2.504   2.627
 8262SOL     OW25684   5.038   4.341   2.056
 8262SOL    HW125685   4.959   4.292   2.018
 8262SOL    HW225686   5.010   4.390   2.139
 8263SOL     OW25687   6.669   1.422   6.866
 8263SOL    HW125688   6.665   1.485   6.943
 8263SOL    HW225689   6.591   1.436   6.806
 8264SOL     OW25690   3.350   1.184   1.781
 8264SOL    HW125691   3.337   1.230   1.869
 8264SOL    HW225692   3.432   1.127   1.785
 8265SOL     OW25693   5.119   5.707   0.067
 8265SOL    HW125694   5.090   5.792   0.024
 8265SOL    HW225695   5.170   5.651   0.001
 8266SOL     OW25696   4.793   2.841   2.751
 8266SOL    HW125697   4.884   2.800   2.762
 8266SOL    HW225698   4.772   2.849   2.654
 8267SOL     OW25699   1.961   3.073   2.878
 8267SOL    HW125700   1.939   2.996   2.938
 8267SOL    HW225701   1.887   3.086   2.812
 8268SOL     OW25702   2.706   5.332   1.392
 8268SOL    HW125703   2.669   5.257   1.448
 8268SOL    HW225704   2.800   5.310   1.365
 8269SOL     OW25705   6.773   2.008   3.383
 8269SOL    HW125706   6.809   1.968   3.467
 8269SOL    HW225707   6.677   2.032   3.395
 8270SOL     OW25708   3.803   4.810   0.102
 8270SOL    HW125709   3.715   4.836   0.142
 8270SOL    HW225710   3.872   4.877   0.130
 8271SOL     OW25711   2.710   0.153   5.108
 8271SOL    HW125712   2.770   0.097   5.165
 8271SOL    HW225713   2.759   0.182   5.026
 8272SOL     OW25714   0.807   0.591   2.003
 8272SOL    HW125715   0.811   0.672   1.945
 8272SOL    HW225716   0.892   0.583   2.054
 8273SOL     OW25717   5.164   0.088   6.043
 8273SOL    HW125718   5.079   0.110   5.995
 8273SOL    HW225719   5.206   0.008   6.001
 8274SOL     OW25720   5.444   6.528   4.040
 8274SOL    HW125721   5.358   6.525   3.990
 8274SOL    HW225722   5.506   6.457   4.005
 8275SOL     OW25723   4.930   0.324   4.439
 8275SOL    HW125724   4.906   0.405   4.384
 8275SOL    HW225725   4.847   0.290   4.484
 8276SOL     OW25726   5.518   2.855   0.845
 8276SOL    HW125727   5.494   2.767   0.885
 8276SOL    HW225728   5.594   2.844   0.781
 8277SOL     OW25729   1.523   0.025   2.167
 8277SOL    HW125730   1.598   6.990   2.140
 8277SOL    HW225731   1.437   6.998   2.168
 8278SOL     OW25732   1.860   0.611   1.411
 8278SOL    HW125733   1.854   0.635   1.314
 8278SOL    HW225734   1.771   0.579   1.443
 8279SOL     OW25735   6.320   5.019   5.717
 8279SOL    HW125736   6.279   4.968   5.642
 8279SOL    HW225737   6.325   5.116   5.694
 8280SOL     OW25738   0.499   4.785   6.990
 8280SOL    HW125739   0.491   4.706   6.929
 8280SOL    HW225740   0.529   4.755   0.055
 8281SOL     OW25741   3.050   4.809   0.054
 8281SOL    HW125742   3.037   4.711   0.063
 8281SOL    HW225743   3.016   4.855   0.136
 8282SOL     OW25744   4.259   3.401   0.542
 8282SOL    HW125745   4.353   3.434   0.547
 8282SOL    HW225746   4.209   3.432   0.623
 8283SOL     OW25747   0.801   1.390   3.532
 8283SOL    HW125748   0.726   1.452   3.556
 8283SOL    HW225749   0.807   1.382   3.433
 8284SOL     OW25750   4.862   2.542   1.120
 8284SOL    HW125751   4.957   2.534   1.151
 8284SOL    HW225752   4.850   2.630   1.074
 8285SOL     OW25753   0.311   5.007   6.971
 8285SOL    HW125754   0.378   4.935   6.958
 8285SOL    HW225755   0.279   5.040   6.883
 8286SOL     OW25756   6.185   2.124   6.535
 8286SOL    HW125757   6.227   2.176   6.461
 8286SOL    HW225758   6.243   2.130   6.616
 8287SOL     OW25759   0.584   1.005   3.073
 8287SOL    HW125760   0.501   1.057   3.095
 8287SOL    HW225761   0.567   0.948   2.993
 8288SOL     OW25762   2.502   6.717   2.502
 8288SOL    HW125763   2.499   6.718   2.602
 8288SOL    HW225764   2.434   6.653   2.467
 8289SOL     OW25765   6.041   0.037   0.322
 8289SOL    HW125766   5.981   0.116   0.306
 8289SOL    HW225767   6.003   7.006   0.395
 8290SOL     OW25768   4.494   2.812   1.740
 8290SOL    HW125769   4.509   2.859   1.653
 8290SOL    HW225770   4.532   2.868   1.814
 8291SOL     OW25771   5.547   5.496   5.364
 8291SOL    HW125772   5.547   5.546   5.450
 8291SOL    HW225773   5.630   5.442   5.356
 8292SOL     OW25774   6.841   3.837   5.502
 8292SOL    HW125775   6.930   3.817   5.461
 8292SOL    HW225776   6.791   3.901   5.444
 8293SOL     OW25777   2.814   5.440   4.303
 8293SOL    HW125778   2.858   5.380   4.235
 8293SOL    HW225779   2.883   5.500   4.344
 8294SOL     OW25780   6.627   3.466   5.813
 8294SOL    HW125781   6.670   3.473   5.723
 8294SOL    HW225782   6.690   3.503   5.882
 8295SOL     OW25783   4.357   4.480   1.324
 8295SOL    HW125784   4.334   4.386   1.348
 8295SOL    HW225785   4.342   4.539   1.403
 8296SOL     OW25786   3.326   0.679   2.169
 8296SOL    HW125787   3.234   0.701   2.200
 8296SOL    HW225788   3.320   0.614   2.093
 8297SOL     OW25789   6.025   4.566   1.896
 8297SOL    HW125790   6.055   4.510   1.819
 8297SOL    HW225791   5.993   4.507   1.970
 8298SOL     OW25792   6.937   6.369   0.678
 8298SOL    HW125793   0.004   6.403   0.660
 8298SOL    HW225794   6.933   6.271   0.656
 8299SOL     OW25795   0.853   1.689   0.107
 8299SOL    HW125796   0.920   1.758   0.079
 8299SOL    HW225797   0.804   1.655   0.027
 8300SOL     OW25798   4.623   5.991   4.630
 8300SOL    HW125799   4.657   5.900   4.606
 8300SOL    HW225800   4.692   6.060   4.607
 8301SOL     OW25801   6.430   4.997   0.035
 8301SOL    HW125802   6.354   5.062   0.032
 8301SOL    HW225803   6.412   4.929   0.106
 8302SOL     OW25804   3.669   6.715   5.738
 8302SOL    HW125805   3.608   6.638   5.718
 8302SOL    HW225806   3.652   6.747   5.831
 8303SOL     OW25807   0.273   4.667   4.083
 8303SOL    HW125808   0.334   4.734   4.040
 8303SOL    HW225809   0.220   4.712   4.155
 8304SOL     OW25810   5.654   2.894   3.782
 8304SOL    HW125811   5.720   2.962   3.815
 8304SOL    HW225812   5.601   2.932   3.706
 8305SOL     OW25813   4.385   5.949   5.526
 8305SOL    HW125814   4.428   5.981   5.610
 8305SOL    HW225815   4.310   6.011   5.502
 8306SOL     OW25816   5.424   1.430   3.827
 8306SOL    HW125817   5.520   1.404   3.820
 8306SOL    HW225818   5.376   1.402   3.744
 8307SOL     OW25819   6.793   4.992   4.380
 8307SOL    HW125820   6.713   4.995   4.320
 8307SOL    HW225821   6.876   5.009   4.325
 8308SOL     OW25822   2.178   5.177   0.140
 8308SOL    HW125823   2.143   5.101   0.195
 8308SOL    HW225824   2.258   5.216   0.186
 8309SOL     OW25825   5.846   5.281   2.690
 8309SOL    HW125826   5.791   5.315   2.614
 8309SOL    HW225827   5.799   5.302   2.777
 8310SOL     OW25828   1.603   5.901   2.889
 8310SOL    HW125829   1.702   5.895   2.898
 8310SOL    HW225830   1.565   5.810   2.875
 8311SOL     OW25831   4.681   6.524   1.963
 8311SOL    HW125832   4.680   6.606   2.020
 8311SOL    HW225833   4.716   6.545   1.872
 8312SOL     OW25834   6.894   0.629   1.158
 8312SOL    HW125835   6.869   0.723   1.135
 8312SOL    HW225836   6.991   0.614   1.136
 8313SOL     OW25837   4.840   2.398   5.632
 8313SOL    HW125838   4.806   2.400   5.539
 8313SOL    HW225839   4.900   2.319   5.644
 8314SOL     OW25840   5.125   6.068   4.518
 8314SOL    HW125841   5.221   6.042   4.518
 8314SOL    HW225842   5.083   6.041   4.605
 8315SOL     OW25843   3.419   1.719   0.965
 8315SOL    HW125844   3.337   1.732   0.908
 8315SOL    HW225845   3.402   1.759   1.055
 8316SOL     OW25846   1.510   1.804   4.656
 8316SOL    HW125847   1.497   1.894   4.698
 8316SOL    HW225848   1.560   1.745   4.718
 8317SOL     OW25849   2.103   1.873   6.503
 8317SOL    HW125850   2.104   1.865   6.603
 8317SOL    HW225851   2.195   1.892   6.470
 8318SOL     OW25852   4.199   6.197   5.153
 8318SOL    HW125853   4.161   6.112   5.117
 8318SOL    HW225854   4.214   6.189   5.251
 8319SOL     OW25855   2.924   5.800   6.020
 8319SOL    HW125856   2.971   5.731   6.074
 8319SOL    HW225857   2.839   5.762   5.984
 8320SOL     OW25858   3.975   5.213   5.654
 8320SOL    HW125859   4.005   5.279   5.723
 8320SOL    HW225860   4.011   5.122   5.677
 8321SOL     OW25861   0.336   0.030   0.574
 8321SOL    HW125862   0.357   6.992   0.648
 8321SOL    HW225863   0.299   0.115   0.612
 8322SOL     OW25864   2.550   0.436   2.092
 8322SOL    HW125865   2.515   0.363   2.151
 8322SOL    HW225866   2.640   0.465   2.125
 8323SOL     OW25867   5.825   5.357   6.666
 8323SOL    HW125868   5.852   5.310   6.582
 8323SOL    HW225869   5.725   5.356   6.675
 8324SOL     OW25870   6.433   5.967   5.658
 8324SOL    HW125871   6.490   6.047   5.640
 8324SOL    HW225872   6.341   5.997   5.685
 8325SOL     OW25873   1.912   6.142   5.080
 8325SOL    HW125874   1.869   6.083   5.149
 8325SOL    HW225875   1.864   6.230   5.078
 8326SOL     OW25876   2.859   1.026   6.422
 8326SOL    HW125877   2.876   1.006   6.518
 8326SOL    HW225878   2.909   1.109   6.395
 8327SOL     OW25879   0.744   5.869   5.362
 8327SOL    HW125880   0.811   5.907   5.297
 8327SOL    HW225881   0.675   5.817   5.312
 8328SOL     OW25882   1.180   0.292   0.687
 8328SOL    HW125883   1.277   0.291   0.711
 8328SOL    HW225884   1.144   0.199   0.689
 8329SOL     OW25885   1.849   2.625   5.383
 8329SOL    HW125886   1.771   2.567   5.408
 8329SOL    HW225887   1.861   2.696   5.453
 8330SOL     OW25888   3.899   6.620   0.076
 8330SOL    HW125889   3.930   6.597   0.168
 8330SOL    HW225890   3.862   6.713   0.076
 8331SOL     OW25891   2.079   2.341   5.798
 8331SOL    HW125892   2.015   2.352   5.875
 8331SOL    HW225893   2.150   2.276   5.823
 8332SOL     OW25894   5.571   4.462   1.134
 8332SOL    HW125895   5.571   4.562   1.140
 8332SOL    HW225896   5.648   4.426   1.185
 8333SOL     OW25897   2.695   4.294   6.391
 8333SOL    HW125898   2.782   4.262   6.428
 8333SOL    HW225899   2.620   4.249   6.439
 8334SOL     OW25900   3.290   2.693   5.282
 8334SOL    HW125901   3.268   2.600   5.253
 8334SOL    HW225902   3.347   2.690   5.364
 8335SOL     OW25903   5.731   3.358   6.965
 8335SOL    HW125904   5.768   3.445   6.997
 8335SOL    HW225905   5.671   3.375   6.886
 8336SOL     OW25906   0.920   4.519   3.896
 8336SOL    HW125907   0.955   4.598   3.847
 8336SOL    HW225908   0.835   4.487   3.853
 8337SOL     OW25909   5.992   6.735   4.156
 8337SOL    HW125910   6.089   6.716   4.139
 8337SOL    HW225911   5.937   6.697   4.081
 8338SOL     OW25912   2.558   5.135   1.173
 8338SOL    HW125913   2.587   5.100   1.262
 8338SOL    HW225914   2.639   5.161   1.120
 8339SOL     OW25915   0.075   0.096   1.889
 8339SOL    HW125916   0.007   0.034   1.851
 8339SOL    HW225917   0.155   0.099   1.830
 8340SOL     OW25918   6.191   2.606   6.212
 8340SOL    HW125919   6.144   2.637   6.129
 8340SOL    HW225920   6.132   2.542   6.262
 8341SOL     OW25921   3.192   0.086   1.088
 8341SOL    HW125922   3.144   0.161   1.042
 8341SOL    HW225923   3.205   0.109   1.184
 8342SOL     OW25924   3.837   1.022   1.378
 8342SOL    HW125925   3.891   1.016   1.294
 8342SOL    HW225926   3.829   0.931   1.418
 8343SOL     OW25927   4.883   6.336   2.959
 8343SOL    HW125928   4.784   6.338   2.972
 8343SOL    HW225929   4.907   6.391   2.880
 8344SOL     OW25930   2.067   4.456   5.024
 8344SOL    HW125931   2.011   4.389   5.074
 8344SOL    HW225932   2.133   4.408   4.967
 8345SOL     OW25933   6.329   7.024   4.223
 8345SOL    HW125934   6.314   6.995   4.318
 8345SOL    HW225935   6.339   6.943   4.165
 8346SOL     OW25936   5.491   4.506   3.172
 8346SOL    HW125937   5.454   4.414   3.170
 8346SOL    HW225938   5.553   4.517   3.250
 8347SOL     OW25939   1.086   0.887   6.653
 8347SOL    HW125940   1.077   0.827   6.574
 8347SOL    HW225941   1.077   0.833   6.737
 8348SOL     OW25942   3.208   6.348   0.783
 8348SOL    HW125943   3.298   6.382   0.756
 8348SOL    HW225944   3.203   6.339   0.882
 8349SOL     OW25945   4.318   5.763   1.354
 8349SOL    HW125946   4.316   5.792   1.259
 8349SOL    HW225947   4.226   5.737   1.384
 8350SOL     OW25948   2.122   0.243   6.544
 8350SOL    HW125949   2.175   0.283   6.469
 8350SOL    HW225950   2.181   0.182   6.597
 8351SOL     OW25951   0.008   3.613   2.980
 8351SOL    HW125952   6.986   3.673   2.916
 8351SOL    HW225953   7.004   3.633   3.073
 8352SOL     OW25954   2.488   0.221   6.008
 8352SOL    HW125955   2.528   0.152   5.949
 8352SOL    HW225956   2.394   0.195   6.031
 8353SOL     OW25957   0.606   5.656   2.326
 8353SOL    HW125958   0.683   5.603   2.289
 8353SOL    HW225959   0.633   5.698   2.412
 8354SOL     OW25960   4.943   2.887   3.819
 8354SOL    HW125961   4.988   2.817   3.765
 8354SOL    HW225962   4.932   2.970   3.764
 8355SOL     OW25963   3.297   4.867   6.069
 8355SOL    HW125964   3.383   4.911   6.094
 8355SOL    HW225965   3.260   4.910   5.987
 8356SOL     OW25966   3.313   2.862   2.247
 8356SOL    HW125967   3.236   2.907   2.293
 8356SOL    HW225968   3.280   2.818   2.163
 8357SOL     OW25969   2.715   6.630   4.782
 8357SOL    HW125970   2.717   6.530   4.786
 8357SOL    HW225971   2.675   6.660   4.695
 8358SOL     OW25972   0.236   0.680   4.368
 8358SOL    HW125973   0.309   0.710   4.431
 8358SOL    HW225974   0.150   0.723   4.394
 8359SOL     OW25975   4.753   2.221   4.851
 8359SOL    HW125976   4.730   2.145   4.790
 8359SOL    HW225977   4.763   2.186   4.945
 8360SOL     OW25978   2.885   0.427   2.624
 8360SOL    HW125979   2.920   0.507   2.576
 8360SOL    HW225980   2.885   0.348   2.563
 8361SOL     OW25981   4.555   1.157   0.304
 8361SOL    HW125982   4.616   1.111   0.239
 8361SOL    HW225983   4.609   1.196   0.379
 8362SOL     OW25984   0.701   4.655   1.746
 8362SOL    HW125985   0.644   4.585   1.789
 8362SOL    HW225986   0.753   4.615   1.671
 8363SOL     OW25987   2.823   1.985   0.767
 8363SOL    HW125988   2.836   2.002   0.865
 8363SOL    HW225989   2.752   2.045   0.731
 8364SOL     OW25990   0.423   1.155   3.495
 8364SOL    HW125991   0.488   1.173   3.568
 8364SOL    HW225992   0.439   1.220   3.420
 8365SOL     OW25993   1.903   2.578   0.976
 8365SOL    HW125994   1.839   2.636   1.026
 8365SOL    HW225995   1.994   2.620   0.977
 8366SOL     OW25996   5.004   5.933   1.723
 8366SOL    HW125997   4.931   5.869   1.749
 8366SOL    HW225998   5.033   5.985   1.803
 8367SOL     OW25999   2.092   4.837   3.554
 8367SOL    HW126000   2.002   4.836   3.597
 8367SOL    HW226001   2.159   4.796   3.617
 8368SOL     OW26002   0.881   3.193   6.382
 8368SOL    HW126003   0.791   3.163   6.350
 8368SOL    HW226004   0.894   3.165   6.477
 8369SOL     OW26005   1.136   0.586   0.339
 8369SOL    HW126006   1.191   0.583   0.422
 8369SOL    HW226007   1.157   0.669   0.288
 8370SOL     OW26008   3.048   2.920   1.022
 8370SOL    HW126009   2.990   2.934   0.941
 8370SOL    HW226010   2.996   2.943   1.104
 8371SOL     OW26011   3.069   4.184   5.588
 8371SOL    HW126012   3.017   4.223   5.664
 8371SOL    HW226013   3.062   4.244   5.508
 8372SOL     OW26014   1.715   0.037   2.952
 8372SOL    HW126015   1.771   6.981   2.969
 8372SOL    HW226016   1.771   0.119   2.965
 8373SOL     OW26017   5.511   0.478   4.197
 8373SOL    HW126018   5.550   0.389   4.222
 8373SOL    HW226019   5.413   0.470   4.184
 8374SOL     OW26020   0.752   1.991   3.768
 8374SOL    HW126021   0.661   1.953   3.750
 8374SOL    HW226022   0.762   2.078   3.721
 8375SOL     OW26023   2.202   2.687   5.895
 8375SOL    HW126024   2.181   2.667   5.799
 8375SOL    HW226025   2.247   2.776   5.901
 8376SOL     OW26026   0.767   1.243   3.926
 8376SOL    HW126027   0.732   1.294   4.005
 8376SOL    HW226028   0.844   1.186   3.955
 8377SOL     OW26029   3.964   5.080   1.477
 8377SOL    HW126030   4.020   5.045   1.402
 8377SOL    HW226031   3.985   5.177   1.492
 8378SOL     OW26032   4.473   5.739   5.106
 8378SOL    HW126033   4.401   5.766   5.169
 8378SOL    HW226034   4.448   5.653   5.061
 8379SOL     OW26035   5.483   2.788   1.817
 8379SOL    HW126036   5.438   2.724   1.879
 8379SOL    HW226037   5.578   2.760   1.804
 8380SOL     OW26038   1.697   4.778   3.010
 8380SOL    HW126039   1.760   4.826   2.949
 8380SOL    HW226040   1.607   4.771   2.966
 8381SOL     OW26041   1.153   2.113   2.558
 8381SOL    HW126042   1.072   2.167   2.581
 8381SOL    HW226043   1.212   2.107   2.639
 8382SOL     OW26044   1.493   0.279   1.785
 8382SOL    HW126045   1.500   0.376   1.759
 8382SOL    HW226046   1.570   0.229   1.746
 8383SOL     OW26047   2.231   6.756   5.064
 8383SOL    HW126048   2.278   6.733   4.978
 8383SOL    HW226049   2.233   6.855   5.077
 8384SOL     OW26050   0.443   4.207   3.707
 8384SOL    HW126051   0.530   4.181   3.750
 8384SOL    HW226052   0.384   4.128   3.700
 8385SOL     OW26053   4.321   2.400   2.500
 8385SOL    HW126054   4.354   2.309   2.478
 8385SOL    HW226055   4.222   2.404   2.486
 8386SOL     OW26056   6.502   5.025   2.096
 8386SOL    HW126057   6.503   5.108   2.153
 8386SOL    HW226058   6.449   4.954   2.141
 8387SOL     OW26059   0.377   2.016   3.481
 8387SOL    HW126060   0.466   2.023   3.435
 8387SOL    HW226061   0.339   2.108   3.494
 8388SOL     OW26062   3.907   5.957   2.099
 8388SOL    HW126063   3.908   5.955   1.999
 8388SOL    HW226064   3.959   6.036   2.131
 8389SOL     OW26065   1.643   2.551   4.465
 8389SOL    HW126066   1.569   2.518   4.523
 8389SOL    HW226067   1.722   2.575   4.521
 8390SOL     OW26068   1.350   6.845   6.487
 8390SOL    HW126069   1.295   6.810   6.410
 8390SOL    HW226070   1.403   6.770   6.527
 8391SOL     OW26071   4.762   6.407   0.665
 8391SOL    HW126072   4.742   6.325   0.612
 8391SOL    HW226073   4.851   6.398   0.710
 8392SOL     OW26074   3.582   5.762   0.583
 8392SOL    HW126075   3.596   5.770   0.484
 8392SOL    HW226076   3.486   5.740   0.601
 8393SOL     OW26077   1.488   6.302   1.728
 8393SOL    HW126078   1.465   6.378   1.668
 8393SOL    HW226079   1.458   6.216   1.686
 8394SOL     OW26080   1.638   1.443   3.601
 8394SOL    HW126081   1.723   1.481   3.567
 8394SOL    HW226082   1.653   1.348   3.631
 8395SOL     OW26083   2.087   5.892   6.340
 8395SOL    HW126084   1.997   5.921   6.307
 8395SOL    HW226085   2.078   5.803   6.386
 8396SOL     OW26086   4.453   1.956   0.897
 8396SOL    HW126087   4.548   1.925   0.905
 8396SOL    HW226088   4.411   1.958   0.987
 8397SOL     OW26089   0.576   4.531   3.347
 8397SOL    HW126090   0.600   4.445   3.303
 8397SOL    HW226091   0.537   4.513   3.438
 8398SOL     OW26092   5.536   1.091   6.688
 8398SOL    HW126093   5.506   1.147   6.611
 8398SOL    HW226094   5.614   1.135   6.733
 8399SOL     OW26095   5.781   6.110   5.333
 8399SOL    HW126096   5.870   6.154   5.344
 8399SOL    HW226097   5.794   6.019   5.294
 8400SOL     OW26098   6.058   6.047   3.248
 8400SOL    HW126099   6.069   6.000   3.160
 8400SOL    HW226100   6.145   6.046   3.298
 8401SOL     OW26101   2.643   3.652   5.481
 8401SOL    HW126102   2.685   3.589   5.416
 8401SOL    HW226103   2.621   3.738   5.435
 8402SOL     OW26104   5.233   1.313   4.948
 8402SOL    HW126105   5.278   1.245   5.007
 8402SOL    HW226106   5.300   1.381   4.919
 8403SOL     OW26107   0.480   1.769   6.142
 8403SOL    HW126108   0.463   1.823   6.225
 8403SOL    HW226109   0.578   1.767   6.123
 8404SOL     OW26110   5.004   5.295   5.624
 8404SOL    HW126111   4.913   5.302   5.666
 8404SOL    HW226112   5.017   5.373   5.562
 8405SOL     OW26113   0.749   2.498   6.168
 8405SOL    HW126114   0.783   2.568   6.105
 8405SOL    HW226115   0.787   2.515   6.259
 8406SOL     OW26116   5.732   3.959   1.126
 8406SOL    HW126117   5.690   3.869   1.143
 8406SOL    HW226118   5.661   4.030   1.130
 8407SOL     OW26119   5.488   3.864   2.444
 8407SOL    HW126120   5.486   3.950   2.495
 8407SOL    HW226121   5.405   3.812   2.464
 8408SOL     OW26122   4.767   4.258   4.022
 8408SOL    HW126123   4.844   4.195   4.014
 8408SOL    HW226124   4.764   4.294   4.115
 8409SOL     OW26125   1.830   2.258   3.755
 8409SOL    HW126126   1.864   2.251   3.661
 8409SOL    HW226127   1.733   2.234   3.756
 8410SOL     OW26128   1.992   4.959   2.582
 8410SOL    HW126129   1.918   4.964   2.650
 8410SOL    HW226130   2.080   4.965   2.629
 8411SOL     OW26131   1.819   3.386   3.031
 8411SOL    HW126132   1.738   3.327   3.035
 8411SOL    HW226133   1.842   3.403   2.935
 8412SOL     OW26134   5.954   2.747   2.400
 8412SOL    HW126135   5.918   2.822   2.344
 8412SOL    HW226136   5.880   2.707   2.453
 8413SOL     OW26137   2.127   5.824   1.913
 8413SOL    HW126138   2.063   5.827   1.989
 8413SOL    HW226139   2.079   5.846   1.828
 8414SOL     OW26140   5.989   0.298   4.090
 8414SOL    HW126141   6.082   0.265   4.105
 8414SOL    HW226142   5.969   0.372   4.154
 8415SOL     OW26143   0.568   5.057   1.195
 8415SOL    HW126144   0.661   5.044   1.160
 8415SOL    HW226145   0.504   5.058   1.118
 8416SOL     OW26146   4.288   4.693   3.209
 8416SOL    HW126147   4.191   4.716   3.214
 8416SOL    HW226148   4.327   4.728   3.124
 8417SOL     OW26149   0.886   5.667   0.224
 8417SOL    HW126150   0.839   5.669   0.312
 8417SOL    HW226151   0.837   5.606   0.161
 8418SOL     OW26152   5.148   5.695   2.780
 8418SOL    HW126153   5.077   5.656   2.839
 8418SOL    HW226154   5.234   5.701   2.830
 8419SOL     OW26155   3.419   1.441   3.414
 8419SOL    HW126156   3.481   1.501   3.364
 8419SOL    HW226157   3.435   1.451   3.512
 8420SOL     OW26158   4.931   1.773   5.354
 8420SOL    HW126159   4.926   1.719   5.270
 8420SOL    HW226160   4.952   1.869   5.331
 8421SOL     OW26161   0.173   0.825   0.559
 8421SOL    HW126162   0.256   0.850   0.609
 8421SOL    HW226163   0.156   0.727   0.570
 8422SOL     OW26164   2.533   0.837   1.357
 8422SOL    HW126165   2.503   0.926   1.392
 8422SOL    HW226166   2.593   0.851   1.278
 8423SOL     OW26167   1.945   4.482   1.082
 8423SOL    HW126168   2.037   4.442   1.080
 8423SOL    HW226169   1.951   4.576   1.115
 8424SOL     OW26170   2.734   2.114   1.967
 8424SOL    HW126171   2.798   2.190   1.980
 8424SOL    HW226172   2.771   2.052   1.898
 8425SOL     OW26173   0.607   5.087   6.019
 8425SOL    HW126174   0.632   4.996   6.053
 8425SOL    HW226175   0.682   5.124   5.964
 8426SOL     OW26176   3.766   3.275   2.403
 8426SOL    HW126177   3.712   3.226   2.334
 8426SOL    HW226178   3.862   3.248   2.395
 8427SOL     OW26179   2.173   1.324   6.722
 8427SOL    HW126180   2.178   1.251   6.654
 8427SOL    HW226181   2.149   1.285   6.811
 8428SOL     OW26182   6.455   3.818   0.843
 8428SOL    HW126183   6.419   3.730   0.873
 8428SOL    HW226184   6.536   3.841   0.898
 8429SOL     OW26185   1.489   6.794   2.852
 8429SOL    HW126186   1.578   6.840   2.850
 8429SOL    HW226187   1.416   6.863   2.851
 8430SOL     OW26188   3.721   6.231   2.597
 8430SOL    HW126189   3.809   6.245   2.643
 8430SOL    HW226190   3.705   6.133   2.584
 8431SOL     OW26191   3.001   3.192   2.260
 8431SOL    HW126192   3.047   3.151   2.339
 8431SOL    HW226193   3.028   3.143   2.177
 8432SOL     OW26194   4.882   5.739   0.285
 8432SOL    HW126195   4.972   5.708   0.255
 8432SOL    HW226196   4.829   5.661   0.317
 8433SOL     OW26197   6.910   1.660   4.104
 8433SOL    HW126198   6.865   1.574   4.130
 8433SOL    HW226199   6.984   1.641   4.040
 8434SOL     OW26200   5.149   6.322   6.793
 8434SOL    HW126201   5.116   6.405   6.747
 8434SOL    HW226202   5.235   6.343   6.840
 8435SOL     OW26203   4.467   3.464   1.043
 8435SOL    HW126204   4.537   3.394   1.054
 8435SOL    HW226205   4.377   3.422   1.052
 8436SOL     OW26206   2.920   4.260   1.691
 8436SOL    HW126207   2.910   4.339   1.752
 8436SOL    HW226208   3.005   4.212   1.712
 8437SOL     OW26209   7.009   2.386   0.719
 8437SOL    HW126210   6.921   2.434   0.728
 8437SOL    HW226211   7.023   2.328   0.799
 8438SOL     OW26212   2.104   5.723   1.510
 8438SOL    HW126213   2.161   5.741   1.430
 8438SOL    HW226214   2.084   5.625   1.515
 8439SOL     OW26215   5.407   0.354   1.672
 8439SOL    HW126216   5.494   0.380   1.629
 8439SOL    HW226217   5.333   0.366   1.606
 8440SOL     OW26218   0.936   3.556   4.221
 8440SOL    HW126219   0.895   3.635   4.174
 8440SOL    HW226220   1.021   3.585   4.265
 8441SOL     OW26221   3.721   5.986   1.309
 8441SOL    HW126222   3.692   5.891   1.305
 8441SOL    HW226223   3.795   5.995   1.376
 8442SOL     OW26224   2.396   2.797   0.818
 8442SOL    HW126225   2.465   2.868   0.804
 8442SOL    HW226226   2.420   2.716   0.766
 8443SOL     OW26227   6.961   2.449   1.173
 8443SOL    HW126228   6.891   2.417   1.237
 8443SOL    HW226229   6.961   2.549   1.172
 8444SOL     OW26230   5.043   2.086   3.432
 8444SOL    HW126231   4.992   2.048   3.355
 8444SOL    HW226232   5.010   2.046   3.518
 8445SOL     OW26233   4.162   5.602   2.074
 8445SOL    HW126234   4.240   5.544   2.052
 8445SOL    HW226235   4.195   5.690   2.109
 8446SOL     OW26236   6.300   3.992   3.194
 8446SOL    HW126237   6.360   3.952   3.263
 8446SOL    HW226238   6.212   3.943   3.195
 8447SOL     OW26239   4.468   4.642   1.016
 8447SOL    HW126240   4.489   4.656   0.919
 8447SOL    HW226241   4.530   4.697   1.072
 8448SOL     OW26242   1.857   4.609   5.932
 8448SOL    HW126243   1.922   4.671   5.889
 8448SOL    HW226244   1.764   4.644   5.920
 8449SOL     OW26245   1.446   0.522   5.189
 8449SOL    HW126246   1.382   0.563   5.255
 8449SOL    HW226247   1.510   0.592   5.157
 8450SOL     OW26248   1.550   5.731   0.670
 8450SOL    HW126249   1.484   5.685   0.611
 8450SOL    HW226250   1.517   5.728   0.765
 8451SOL     OW26251   2.863   4.356   1.281
 8451SOL    HW126252   2.888   4.333   1.187
 8451SOL    HW226253   2.850   4.273   1.334
 8452SOL     OW26254   6.546   5.828   2.636
 8452SOL    HW126255   6.506   5.790   2.553
 8452SOL    HW226256   6.477   5.831   2.708
 8453SOL     OW26257   0.464   4.905   5.157
 8453SOL    HW126258   0.395   4.978   5.166
 8453SOL    HW226259   0.540   4.938   5.100
 8454SOL     OW26260   1.940   6.980   5.306
 8454SOL    HW126261   1.991   6.989   5.220
 8454SOL    HW226262   1.889   0.039   5.323
 8455SOL     OW26263   6.020   2.334   0.624
 8455SOL    HW126264   6.002   2.296   0.534
 8455SOL    HW226265   6.112   2.308   0.654
 8456SOL     OW26266   6.371   4.613   3.535
 8456SOL    HW126267   6.336   4.706   3.546
 8456SOL    HW226268   6.465   4.609   3.570
 8457SOL     OW26269   6.069   6.242   6.365
 8457SOL    HW126270   5.980   6.286   6.352
 8457SOL    HW226271   6.091   6.241   6.462
 8458SOL     OW26272   1.075   1.888   1.096
 8458SOL    HW126273   1.053   1.979   1.131
 8458SOL    HW226274   0.991   1.836   1.083
 8459SOL     OW26275   2.716   5.053   3.158
 8459SOL    HW126276   2.767   5.018   3.237
 8459SOL    HW226277   2.778   5.104   3.098
 8460SOL     OW26278   3.742   1.281   1.146
 8460SOL    HW126279   3.834   1.257   1.117
 8460SOL    HW226280   3.741   1.376   1.179
 8461SOL     OW26281   5.646   4.473   2.947
 8461SOL    HW126282   5.741   4.495   2.970
 8461SOL    HW226283   5.590   4.482   3.029
 8462SOL     OW26284   1.816   4.186   0.811
 8462SOL    HW126285   1.760   4.267   0.828
 8462SOL    HW226286   1.900   4.192   0.865
 8463SOL     OW26287   0.208   6.635   1.388
 8463SOL    HW126288   0.193   6.631   1.289
 8463SOL    HW226289   0.303   6.609   1.408
 8464SOL     OW26290   0.313   3.232   6.754
 8464SOL    HW126291   0.313   3.257   6.657
 8464SOL    HW226292   0.332   3.314   6.808
 8465SOL     OW26293   5.777   4.669   0.465
 8465SOL    HW126294   5.819   4.590   0.422
 8465SOL    HW226295   5.695   4.640   0.516
 8466SOL     OW26296   0.705   1.450   4.970
 8466SOL    HW126297   0.747   1.500   4.894
 8466SOL    HW226298   0.690   1.355   4.943
 8467SOL     OW26299   2.996   1.363   0.693
 8467SOL    HW126300   3.064   1.309   0.742
 8467SOL    HW226301   2.942   1.417   0.758
 8468SOL     OW26302   6.646   3.830   1.015
 8468SOL    HW126303   6.647   3.789   1.106
 8468SOL    HW226304   6.646   3.930   1.022
 8469SOL     OW26305   3.659   3.049   5.213
 8469SOL    HW126306   3.641   3.066   5.310
 8469SOL    HW226307   3.584   2.994   5.175
 8470SOL     OW26308   1.966   5.405   1.270
 8470SOL    HW126309   1.995   5.330   1.329
 8470SOL    HW226310   2.039   5.473   1.265
 8471SOL     OW26311   4.107   1.844   3.804
 8471SOL    HW126312   4.150   1.764   3.761
 8471SOL    HW226313   4.178   1.906   3.838
 8472SOL     OW26314   5.565   1.657   6.573
 8472SOL    HW126315   5.592   1.720   6.646
 8472SOL    HW226316   5.489   1.600   6.605
 8473SOL     OW26317   4.829   5.083   5.967
 8473SOL    HW126318   4.911   5.141   5.969
 8473SOL    HW226319   4.838   5.016   5.893
 8474SOL     OW26320   3.747   3.713   5.780
 8474SOL    HW126321   3.713   3.752   5.694
 8474SOL    HW226322   3.839   3.677   5.765
 8475SOL     OW26323   0.067   1.717   2.523
 8475SOL    HW126324   0.013   1.736   2.605
 8475SOL    HW226325   0.077   1.618   2.513
 8476SOL     OW26326   6.758   1.039   2.438
 8476SOL    HW126327   6.749   1.135   2.461
 8476SOL    HW226328   6.681   1.012   2.379
 8477SOL     OW26329   5.445   6.487   1.266
 8477SOL    HW126330   5.421   6.399   1.225
 8477SOL    HW226331   5.375   6.513   1.333
 8478SOL     OW26332   1.611   6.563   6.771
 8478SOL    HW126333   1.606   6.470   6.737
 8478SOL    HW226334   1.616   6.562   6.871
 8479SOL     OW26335   0.953   2.424   6.981
 8479SOL    HW126336   1.032   2.381   0.002
 8479SOL    HW226337   0.876   2.428   0.020
 8480SOL     OW26338   3.203   4.427   1.681
 8480SOL    HW126339   3.243   4.515   1.707
 8480SOL    HW226340   3.139   4.440   1.606
 8481SOL     OW26341   4.955   3.677   2.308
 8481SOL    HW126342   4.936   3.581   2.332
 8481SOL    HW226343   4.941   3.690   2.210
 8482SOL     OW26344   4.656   0.610   5.658
 8482SOL    HW126345   4.728   0.541   5.664
 8482SOL    HW226346   4.678   0.686   5.720
 8483SOL     OW26347   4.521   5.385   3.691
 8483SOL    HW126348   4.465   5.395   3.774
 8483SOL    HW226349   4.555   5.475   3.663
 8484SOL     OW26350   6.345   6.736   5.568
 8484SOL    HW126351   6.360   6.757   5.665
 8484SOL    HW226352   6.398   6.655   5.543
 8485SOL     OW26353   3.592   0.357   5.439
 8485SOL    HW126354   3.663   0.426   5.423
 8485SOL    HW226355   3.630   0.266   5.420
 8486SOL     OW26356   4.950   2.594   4.746
 8486SOL    HW126357   4.865   2.556   4.710
 8486SOL    HW226358   4.933   2.685   4.783
 8487SOL     OW26359   6.940   1.596   5.216
 8487SOL    HW126360   6.982   1.510   5.186
 8487SOL    HW226361   7.012   1.664   5.229
 8488SOL     OW26362   4.415   5.393   3.038
 8488SOL    HW126363   4.374   5.301   3.045
 8488SOL    HW226364   4.436   5.413   2.943
 8489SOL     OW26365   6.546   2.195   1.748
 8489SOL    HW126366   6.452   2.210   1.778
 8489SOL    HW226367   6.603   2.175   1.828
 8490SOL     OW26368   4.016   6.515   0.313
 8490SOL    HW126369   4.008   6.417   0.332
 8490SOL    HW226370   4.110   6.545   0.330
 8491SOL     OW26371   3.324   5.878   2.292
 8491SOL    HW126372   3.424   5.882   2.299
 8491SOL    HW226373   3.283   5.944   2.355
 8492SOL     OW26374   5.690   0.033   4.111
 8492SOL    HW126375   5.632   0.015   4.190
 8492SOL    HW226376   5.737   6.974   4.085
 8493SOL     OW26377   4.858   0.452   5.780
 8493SOL    HW126378   4.898   0.451   5.872
 8493SOL    HW226379   4.927   0.426   5.713
 8494SOL     OW26380   6.926   3.565   2.381
 8494SOL    HW126381   6.960   3.659   2.389
 8494SOL    HW226382   6.832   3.561   2.416
 8495SOL     OW26383   5.030   5.920   5.014
 8495SOL    HW126384   5.050   5.944   5.110
 8495SOL    HW226385   5.064   5.828   4.995
 8496SOL     OW26386   4.063   2.098   2.501
 8496SOL    HW126387   4.030   2.099   2.407
 8496SOL    HW226388   3.986   2.087   2.564
 8497SOL     OW26389   6.503   0.556   3.262
 8497SOL    HW126390   6.519   0.485   3.331
 8497SOL    HW226391   6.406   0.559   3.239
 8498SOL     OW26392   5.284   6.574   4.897
 8498SOL    HW126393   5.345   6.521   4.956
 8498SOL    HW226394   5.213   6.514   4.860
 8499SOL     OW26395   6.137   0.004   5.869
 8499SOL    HW126396   6.146   6.963   5.794
 8499SOL    HW226397   6.068   0.072   5.846
 8500SOL     OW26398   0.886   0.625   6.240
 8500SOL    HW126399   0.788   0.619   6.222
 8500SOL    HW226400   0.936   0.589   6.161
 8501SOL     OW26401   3.579   1.201   5.033
 8501SOL    HW126402   3.628   1.276   4.989
 8501SOL    HW226403   3.572   1.218   5.131
 8502SOL     OW26404   6.502   3.133   0.456
 8502SOL    HW126405   6.593   3.172   0.472
 8502SOL    HW226406   6.472   3.084   0.538
 8503SOL     OW26407   4.262   1.817   5.742
 8503SOL    HW126408   4.298   1.794   5.652
 8503SOL    HW226409   4.218   1.907   5.738
 8504SOL     OW26410   1.268   0.888   3.395
 8504SOL    HW126411   1.305   0.935   3.475
 8504SOL    HW226412   1.308   0.928   3.312
 8505SOL     OW26413   5.982   1.882   3.034
 8505SOL    HW126414   5.990   1.799   3.089
 8505SOL    HW226415   6.062   1.940   3.048
 8506SOL     OW26416   1.759   0.803   4.763
 8506SOL    HW126417   1.733   0.892   4.800
 8506SOL    HW226418   1.816   0.816   4.682
 8507SOL     OW26419   4.468   4.766   6.734
 8507SOL    HW126420   4.518   4.770   6.820
 8507SOL    HW226421   4.382   4.716   6.748
 8508SOL     OW26422   4.041   0.417   6.697
 8508SOL    HW126423   3.957   0.371   6.667
 8508SOL    HW226424   4.017   0.505   6.739
 8509SOL     OW26425   4.298   1.782   2.321
 8509SOL    HW126426   4.310   1.871   2.366
 8509SOL    HW226427   4.214   1.739   2.354
 8510SOL     OW26428   0.842   2.136   4.661
 8510SOL    HW126429   0.792   2.205   4.714
 8510SOL    HW226430   0.936   2.130   4.694
 8511SOL     OW26431   5.618   2.248   4.110
 8511SOL    HW126432   5.531   2.257   4.159
 8511SOL    HW226433   5.622   2.158   4.066
 8512SOL     OW26434   1.994   6.548   6.146
 8512SOL    HW126435   2.032   6.609   6.215
 8512SOL    HW226436   2.067   6.519   6.083
 8513SOL     OW26437   4.128   5.756   6.799
 8513SOL    HW126438   4.127   5.736   6.701
 8513SOL    HW226439   4.102   5.851   6.814
 8514SOL     OW26440   4.225   5.371   4.743
 8514SOL    HW126441   4.164   5.333   4.812
 8514SOL    HW226442   4.175   5.435   4.685
 8515SOL     OW26443   5.436   3.342   1.843
 8515SOL    HW126444   5.426   3.244   1.827
 8515SOL    HW226445   5.531   3.369   1.824
 8516SOL     OW26446   6.727   2.634   1.493
 8516SOL    HW126447   6.712   2.731   1.513
 8516SOL    HW226448   6.824   2.613   1.501
 8517SOL     OW26449   0.954   3.843   4.607
 8517SOL    HW126450   0.917   3.751   4.591
 8517SOL    HW226451   1.044   3.850   4.565
 8518SOL     OW26452   3.712   5.944   0.728
 8518SOL    HW126453   3.670   5.873   0.672
 8518SOL    HW226454   3.799   5.972   0.688
 8519SOL     OW26455   2.603   5.410   3.501
 8519SOL    HW126456   2.684   5.464   3.481
 8519SOL    HW226457   2.574   5.362   3.418
 8520SOL     OW26458   3.750   5.531   6.856
 8520SOL    HW126459   3.755   5.625   6.823
 8520SOL    HW226460   3.838   5.506   6.898
 8521SOL     OW26461   0.932   0.893   2.994
 8521SOL    HW126462   0.957   0.951   3.071
 8521SOL    HW226463   0.883   0.947   2.926
 8522SOL     OW26464   2.576   6.341   4.329
 8522SOL    HW126465   2.660   6.389   4.352
 8522SOL    HW226466   2.590   6.242   4.337
 8523SOL     OW26467   1.616   6.013   6.718
 8523SOL    HW126468   1.638   6.038   6.813
 8523SOL    HW226469   1.700   6.009   6.664
 8524SOL     OW26470   1.617   1.420   6.992
 8524SOL    HW126471   1.679   1.472   6.934
 8524SOL    HW226472   1.577   1.344   6.940
 8525SOL     OW26473   5.762   4.582   4.356
 8525SOL    HW126474   5.832   4.635   4.309
 8525SOL    HW226475   5.794   4.488   4.371
 8526SOL     OW26476   0.117   2.993   2.080
 8526SOL    HW126477   0.174   3.073   2.097
 8526SOL    HW226478   0.023   3.022   2.061
 8527SOL     OW26479   4.997   0.627   5.015
 8527SOL    HW126480   4.995   0.621   4.916
 8527SOL    HW226481   4.907   0.605   5.052
 8528SOL     OW26482   5.249   0.328   0.131
 8528SOL    HW126483   5.175   0.395   0.131
 8528SOL    HW226484   5.289   0.323   0.222
 8529SOL     OW26485   6.686   0.275   4.496
 8529SOL    HW126486   6.714   0.281   4.592
 8529SOL    HW226487   6.705   0.183   4.462
 8530SOL     OW26488   2.079   4.866   6.314
 8530SOL    HW126489   2.128   4.909   6.238
 8530SOL    HW226490   2.131   4.787   6.346
 8531SOL     OW26491   3.836   5.972   2.834
 8531SOL    HW126492   3.764   5.937   2.894
 8531SOL    HW226493   3.924   5.968   2.882
 8532SOL     OW26494   1.284   4.067   6.937
 8532SOL    HW126495   1.273   3.985   6.880
 8532SOL    HW226496   1.363   4.055   6.996
 8533SOL     OW26497   3.184   0.444   6.041
 8533SOL    HW126498   3.262   0.400   6.086
 8533SOL    HW226499   3.214   0.483   5.954
 8534SOL     OW26500   2.387   2.535   1.046
 8534SOL    HW126501   2.444   2.541   1.128
 8534SOL    HW226502   2.424   2.464   0.985
 8535SOL     OW26503   0.374   2.364   6.144
 8535SOL    HW126504   0.343   2.458   6.131
 8535SOL    HW226505   0.408   2.352   6.237
 8536SOL     OW26506   6.411   0.874   6.206
 8536SOL    HW126507   6.496   0.829   6.178
 8536SOL    HW226508   6.345   0.870   6.132
 8537SOL     OW26509   3.848   5.935   3.169
 8537SOL    HW126510   3.928   5.917   3.111
 8537SOL    HW226511   3.846   5.870   3.245
 8538SOL     OW26512   4.120   1.069   5.018
 8538SOL    HW126513   4.180   1.083   5.097
 8538SOL    HW226514   4.091   0.973   5.015
 8539SOL     OW26515   0.573   3.098   2.962
 8539SOL    HW126516   0.556   3.078   2.865
 8539SOL    HW226517   0.503   3.161   2.996
 8540SOL     OW26518   4.696   6.207   5.914
 8540SOL    HW126519   4.634   6.262   5.971
 8540SOL    HW226520   4.788   6.208   5.953
 8541SOL     OW26521   3.286   5.840   5.657
 8541SOL    HW126522   3.209   5.866   5.715
 8541SOL    HW226523   3.360   5.907   5.668
 8542SOL     OW26524   1.855   5.002   5.929
 8542SOL    HW126525   1.773   4.944   5.924
 8542SOL    HW226526   1.897   5.007   5.838
 8543SOL     OW26527   3.711   1.414   5.499
 8543SOL    HW126528   3.650   1.427   5.578
 8543SOL    HW226529   3.805   1.437   5.525
 8544SOL     OW26530   4.935   3.775   5.464
 8544SOL    HW126531   4.984   3.703   5.513
 8544SOL    HW226532   4.992   3.857   5.460
 8545SOL     OW26533   2.106   0.628   5.837
 8545SOL    HW126534   2.164   0.675   5.904
 8545SOL    HW226535   2.029   0.586   5.884
 8546SOL     OW26536   2.543   1.385   3.900
 8546SOL    HW126537   2.556   1.323   3.823
 8546SOL    HW226538   2.587   1.348   3.982
 8547SOL     OW26539   5.960   5.264   5.259
 8547SOL    HW126540   5.981   5.198   5.331
 8547SOL    HW226541   5.995   5.354   5.285
 8548SOL     OW26542   1.463   4.423   4.381
 8548SOL    HW126543   1.517   4.449   4.462
 8548SOL    HW226544   1.515   4.446   4.298
 8549SOL     OW26545   3.324   0.391   3.614
 8549SOL    HW126546   3.386   0.347   3.679
 8549SOL    HW226547   3.374   0.461   3.563
 8550SOL     OW26548   0.306   3.332   4.880
 8550SOL    HW126549   0.259   3.344   4.793
 8550SOL    HW226550   0.401   3.362   4.872
 8551SOL     OW26551   3.666   1.709   3.708
 8551SOL    HW126552   3.733   1.776   3.676
 8551SOL    HW226553   3.582   1.757   3.735
 8552SOL     OW26554   4.376   1.175   1.908
 8552SOL    HW126555   4.308   1.199   1.838
 8552SOL    HW226556   4.328   1.149   1.992
 8553SOL     OW26557   5.379   3.620   0.710
 8553SOL    HW126558   5.401   3.522   0.714
 8553SOL    HW226559   5.280   3.632   0.705
 8554SOL     OW26560   0.663   1.068   0.265
 8554SOL    HW126561   0.587   1.003   0.278
 8554SOL    HW226562   0.729   1.028   0.201
 8555SOL     OW26563   3.380   1.765   3.962
 8555SOL    HW126564   3.432   1.837   4.009
 8555SOL    HW226565   3.384   1.781   3.864
 8556SOL     OW26566   0.754   4.147   5.520
 8556SOL    HW126567   0.829   4.192   5.568
 8556SOL    HW226568   0.683   4.215   5.498
 8557SOL     OW26569   5.939   0.717   0.641
 8557SOL    HW126570   6.025   0.666   0.642
 8557SOL    HW226571   5.945   0.793   0.705
 8558SOL     OW26572   2.681   5.983   3.185
 8558SOL    HW126573   2.708   5.888   3.171
 8558SOL    HW226574   2.582   5.991   3.181
 8559SOL     OW26575   1.517   3.013   3.376
 8559SOL    HW126576   1.611   2.978   3.380
 8559SOL    HW226577   1.518   3.112   3.393
 8560SOL     OW26578   3.480   4.366   1.556
 8560SOL    HW126579   3.475   4.296   1.628
 8560SOL    HW226580   3.405   4.431   1.569
 8561SOL     OW26581   3.765   0.793   1.945
 8561SOL    HW126582   3.746   0.748   2.032
 8561SOL    HW226583   3.851   0.843   1.951
 8562SOL     OW26584   5.320   3.421   6.043
 8562SOL    HW126585   5.388   3.368   6.094
 8562SOL    HW226586   5.242   3.362   6.021
 8563SOL     OW26587   0.649   4.618   2.858
 8563SOL    HW126588   0.694   4.558   2.925
 8563SOL    HW226589   0.550   4.609   2.867
 8564SOL     OW26590   4.364   6.115   6.792
 8564SOL    HW126591   4.306   6.101   6.712
 8564SOL    HW226592   4.307   6.120   6.874
 8565SOL     OW26593   0.818   5.014   1.086
 8565SOL    HW126594   0.909   5.045   1.113
 8565SOL    HW226595   0.824   4.962   1.000
 8566SOL     OW26596   1.854   0.895   3.165
 8566SOL    HW126597   1.914   0.907   3.245
 8566SOL    HW226598   1.908   0.860   3.088
 8567SOL     OW26599   1.519   3.454   0.735
 8567SOL    HW126600   1.425   3.429   0.713
 8567SOL    HW226601   1.579   3.428   0.659
 8568SOL     OW26602   5.834   6.678   6.317
 8568SOL    HW126603   5.740   6.679   6.352
 8568SOL    HW226604   5.832   6.683   6.217
 8569SOL     OW26605   4.280   1.497   6.177
 8569SOL    HW126606   4.369   1.544   6.173
 8569SOL    HW226607   4.220   1.532   6.106
 8570SOL     OW26608   1.828   2.635   4.231
 8570SOL    HW126609   1.734   2.620   4.200
 8570SOL    HW226610   1.845   2.581   4.313
 8571SOL     OW26611   0.979   0.924   3.821
 8571SOL    HW126612   1.020   0.953   3.735
 8571SOL    HW226613   0.889   0.885   3.804
 8572SOL     OW26614   2.616   3.372   6.060
 8572SOL    HW126615   2.657   3.426   5.987
 8572SOL    HW226616   2.681   3.303   6.091
 8573SOL     OW26617   1.854   6.063   6.282
 8573SOL    HW126618   1.877   6.154   6.247
 8573SOL    HW226619   1.825   6.005   6.206
 8574SOL     OW26620   5.811   2.414   5.347
 8574SOL    HW126621   5.776   2.371   5.431
 8574SOL    HW226622   5.806   2.513   5.356
 8575SOL     OW26623   2.534   6.413   4.073
 8575SOL    HW126624   2.555   6.370   4.161
 8575SOL    HW226625   2.614   6.405   4.013
 8576SOL     OW26626   1.331   3.605   4.799
 8576SOL    HW126627   1.305   3.659   4.879
 8576SOL    HW226628   1.326   3.508   4.822
 8577SOL     OW26629   1.937   0.966   0.434
 8577SOL    HW126630   1.892   1.049   0.468
 8577SOL    HW226631   1.987   0.988   0.350
 8578SOL     OW26632   1.438   0.414   5.681
 8578SOL    HW126633   1.533   0.410   5.650
 8578SOL    HW226634   1.380   0.446   5.606
 8579SOL     OW26635   2.795   0.222   2.456
 8579SOL    HW126636   2.805   0.229   2.356
 8579SOL    HW226637   2.713   0.168   2.477
 8580SOL     OW26638   1.483   0.672   2.007
 8580SOL    HW126639   1.400   0.621   1.982
 8580SOL    HW226640   1.541   0.682   1.926
 8581SOL     OW26641   4.025   3.431   3.603
 8581SOL    HW126642   4.034   3.337   3.635
 8581SOL    HW226643   3.998   3.490   3.680
 8582SOL     OW26644   5.092   5.828   5.744
 8582SOL    HW126645   5.046   5.899   5.690
 8582SOL    HW226646   5.115   5.863   5.834
 8583SOL     OW26647   3.224   0.579   2.818
 8583SOL    HW126648   3.124   0.579   2.807
 8583SOL    HW226649   3.247   0.583   2.915
 8584SOL     OW26650   5.447   2.363   5.511
 8584SOL    HW126651   5.535   2.324   5.483
 8584SOL    HW226652   5.374   2.322   5.456
 8585SOL     OW26653   4.799   2.416   3.072
 8585SOL    HW126654   4.792   2.319   3.048
 8585SOL    HW226655   4.810   2.425   3.171
 8586SOL     OW26656   6.504   7.020   5.773
 8586SOL    HW126657   6.575   6.991   5.710
 8586SOL    HW226658   6.459   6.939   5.812
 8587SOL     OW26659   6.718   0.149   1.001
 8587SOL    HW126660   6.730   0.170   1.098
 8587SOL    HW226661   6.621   0.137   0.981
 8588SOL     OW26662   1.779   1.783   5.621
 8588SOL    HW126663   1.834   1.801   5.540
 8588SOL    HW226664   1.693   1.740   5.593
 8589SOL     OW26665   5.963   3.085   6.821
 8589SOL    HW126666   5.979   3.184   6.823
 8589SOL    HW226667   5.865   3.067   6.835
 8590SOL     OW26668   0.976   1.069   3.208
 8590SOL    HW126669   1.051   1.096   3.269
 8590SOL    HW226670   0.890   1.107   3.242
 8591SOL     OW26671   0.478   4.077   5.795
 8591SOL    HW126672   0.515   3.985   5.785
 8591SOL    HW226673   0.417   4.097   5.718
 8592SOL     OW26674   0.010   2.251   4.629
 8592SOL    HW126675   0.085   2.264   4.564
 8592SOL    HW226676   6.951   2.291   4.592
 8593SOL     OW26677   6.469   1.381   0.478
 8593SOL    HW126678   6.474   1.303   0.541
 8593SOL    HW226679   6.546   1.442   0.494
 8594SOL     OW26680   6.413   2.942   6.424
 8594SOL    HW126681   6.316   2.962   6.432
 8594SOL    HW226682   6.437   2.868   6.487
 8595SOL     OW26683   5.712   6.480   2.491
 8595SOL    HW126684   5.707   6.380   2.489
 8595SOL    HW226685   5.623   6.518   2.467
 8596SOL     OW26686   0.327   2.828   5.358
 8596SOL    HW126687   0.250   2.779   5.400
 8596SOL    HW226688   0.388   2.763   5.313
 8597SOL     OW26689   6.313   2.237   5.734
 8597SOL    HW126690   6.214   2.240   5.747
 8597SOL    HW226691   6.348   2.330   5.725
 8598SOL     OW26692   6.851   0.879   5.935
 8598SOL    HW126693   6.933   0.889   5.878
 8598SOL    HW226694   6.834   0.965   5.983
 8599SOL     OW26695   5.588   4.229   5.154
 8599SOL    HW126696   5.546   4.145   5.119
 8599SOL    HW226697   5.597   4.222   5.253
 8600SOL     OW26698   3.949   2.968   1.750
 8600SOL    HW126699   3.973   2.875   1.722
 8600SOL    HW226700   3.990   3.033   1.687
 8601SOL     OW26701   4.481   5.378   1.763
 8601SOL    HW126702   4.443   5.339   1.679
 8601SOL    HW226703   4.487   5.307   1.833
 8602SOL     OW26704   1.772   6.388   5.070
 8602SOL    HW126705   1.796   6.460   5.135
 8602SOL    HW226706   1.802   6.414   4.978
 8603SOL     OW26707   0.952   0.984   0.145
 8603SOL    HW126708   0.945   0.991   0.045
 8603SOL    HW226709   0.990   1.069   0.182
 8604SOL     OW26710   1.797   5.480   6.107
 8604SOL    HW126711   1.752   5.562   6.142
 8604SOL    HW226712   1.881   5.463   6.158
 8605SOL     OW26713   6.608   4.458   4.090
 8605SOL    HW126714   6.547   4.523   4.045
 8605SOL    HW226715   6.672   4.420   4.023
 8606SOL     OW26716   0.899   0.298   6.448
 8606SOL    HW126717   0.916   0.285   6.350
 8606SOL    HW226718   0.933   0.388   6.476
 8607SOL     OW26719   2.815   2.801   1.639
 8607SOL    HW126720   2.881   2.733   1.672
 8607SOL    HW226721   2.776   2.770   1.553
 8608SOL     OW26722   2.024   5.182   2.181
 8608SOL    HW126723   1.993   5.145   2.093
 8608SOL    HW226724   2.111   5.141   2.206
 8609SOL     OW26725   4.773   2.248   4.101
 8609SOL    HW126726   4.747   2.247   4.197
 8609SOL    HW226727   4.867   2.215   4.091
 8610SOL     OW26728   6.976   5.227   2.455
 8610SOL    HW126729   6.923   5.170   2.393
 8610SOL    HW226730   6.919   5.256   2.531
 8611SOL     OW26731   1.960   1.858   5.459
 8611SOL    HW126732   2.047   1.811   5.447
 8611SOL    HW226733   1.972   1.956   5.442
 8612SOL     OW26734   3.382   2.912   6.050
 8612SOL    HW126735   3.430   2.985   6.002
 8612SOL    HW226736   3.366   2.836   5.987
 8613SOL     OW26737   3.014   3.195   3.507
 8613SOL    HW126738   3.022   3.181   3.606
 8613SOL    HW226739   3.081   3.137   3.460
 8614SOL     OW26740   0.310   3.482   3.925
 8614SOL    HW126741   0.260   3.568   3.928
 8614SOL    HW226742   0.250   3.407   3.954
 8615SOL     OW26743   3.816   0.830   5.052
 8615SOL    HW126744   3.914   0.818   5.036
 8615SOL    HW226745   3.776   0.883   4.978
 8616SOL     OW26746   6.161   4.205   5.220
 8616SOL    HW126747   6.092   4.257   5.270
 8616SOL    HW226748   6.161   4.235   5.124
 8617SOL     OW26749   0.826   0.076   3.974
 8617SOL    HW126750   0.820   0.067   3.874
 8617SOL    HW226751   0.763   0.147   4.004
 8618SOL     OW26752   6.702   5.220   0.396
 8618SOL    HW126753   6.698   5.197   0.493
 8618SOL    HW226754   6.614   5.255   0.366
 8619SOL     OW26755   5.856   5.210   6.420
 8619SOL    HW126756   5.767   5.166   6.434
 8619SOL    HW226757   5.926   5.139   6.409
 8620SOL     OW26758   1.317   6.449   3.902
 8620SOL    HW126759   1.250   6.469   3.831
 8620SOL    HW226760   1.404   6.492   3.879
 8621SOL     OW26761   6.474   3.694   1.424
 8621SOL    HW126762   6.447   3.608   1.467
 8621SOL    HW226763   6.394   3.753   1.415
 8622SOL     OW26764   0.732   6.193   1.832
 8622SOL    HW126765   0.829   6.168   1.825
 8622SOL    HW226766   0.680   6.145   1.761
 8623SOL     OW26767   2.035   1.974   3.350
 8623SOL    HW126768   2.060   1.996   3.256
 8623SOL    HW226769   2.079   1.889   3.378
 8624SOL     OW26770   3.081   3.366   5.928
 8624SOL    HW126771   3.174   3.402   5.932
 8624SOL    HW226772   3.077   3.277   5.973
 8625SOL     OW26773   4.570   3.378   6.169
 8625SOL    HW126774   4.545   3.288   6.135
 8625SOL    HW226775   4.648   3.413   6.118
 8626SOL     OW26776   4.922   1.687   0.628
 8626SOL    HW126777   4.892   1.764   0.684
 8626SOL    HW226778   4.976   1.721   0.551
 8627SOL     OW26779   0.074   0.312   2.346
 8627SOL    HW126780   0.112   0.301   2.438
 8627SOL    HW226781   0.149   0.312   2.280
 8628SOL     OW26782   1.025   6.414   0.350
 8628SOL    HW126783   1.006   6.326   0.395
 8628SOL    HW226784   1.097   6.401   0.281
 8629SOL     OW26785   0.028   0.936   4.623
 8629SOL    HW126786   0.039   0.921   4.525
 8629SOL    HW226787   0.113   0.972   4.661
 8630SOL     OW26788   5.082   3.057   1.743
 8630SOL    HW126789   5.071   3.103   1.831
 8630SOL    HW226790   5.106   3.125   1.673
 8631SOL     OW26791   1.363   5.854   6.674
 8631SOL    HW126792   1.430   5.789   6.709
 8631SOL    HW226793   1.381   5.944   6.714
 8632SOL     OW26794   6.180   5.965   3.658
 8632SOL    HW126795   6.137   6.040   3.708
 8632SOL    HW226796   6.110   5.901   3.626
 8633SOL     OW26797   6.707   4.102   5.971
 8633SOL    HW126798   6.703   4.073   5.875
 8633SOL    HW226799   6.622   4.075   6.017
 8634SOL     OW26800   4.856   4.610   6.538
 8634SOL    HW126801   4.883   4.579   6.629
 8634SOL    HW226802   4.926   4.585   6.471
 8635SOL     OW26803   5.477   2.194   6.547
 8635SOL    HW126804   5.408   2.251   6.501
 8635SOL    HW226805   5.493   2.111   6.493
 8636SOL     OW26806   4.424   5.887   0.070
 8636SOL    HW126807   4.478   5.865   0.151
 8636SOL    HW226808   4.349   5.821   0.061
 8637SOL     OW26809   3.344   2.477   0.653
 8637SOL    HW126810   3.437   2.456   0.683
 8637SOL    HW226811   3.312   2.560   0.698
 8638SOL     OW26812   4.859   2.335   4.431
 8638SOL    HW126813   4.888   2.408   4.368
 8638SOL    HW226814   4.932   2.316   4.496
 8639SOL     OW26815   3.590   4.187   0.321
 8639SOL    HW126816   3.614   4.250   0.246
 8639SOL    HW226817   3.672   4.136   0.348
 8640SOL     OW26818   2.910   2.567   6.627
 8640SOL    HW126819   2.900   2.525   6.536
 8640SOL    HW226820   2.931   2.495   6.694
 8641SOL     OW26821   3.583   4.896   3.116
 8641SOL    HW126822   3.510   4.931   3.057
 8641SOL    HW226823   3.557   4.906   3.212
 8642SOL     OW26824   2.111   6.268   3.112
 8642SOL    HW126825   2.052   6.287   3.191
 8642SOL    HW226826   2.126   6.353   3.061
 8643SOL     OW26827   3.664   6.228   1.188
 8643SOL    HW126828   3.617   6.280   1.260
 8643SOL    HW226829   3.685   6.136   1.221
 8644SOL     OW26830   5.307   2.414   6.501
 8644SOL    HW126831   5.242   2.371   6.563
 8644SOL    HW226832   5.367   2.476   6.552
 8645SOL     OW26833   4.920   5.338   2.505
 8645SOL    HW126834   5.009   5.296   2.524
 8645SOL    HW226835   4.930   5.403   2.430
 8646SOL     OW26836   6.854   1.886   4.274
 8646SOL    HW126837   6.761   1.922   4.277
 8646SOL    HW226838   6.859   1.809   4.211
 8647SOL     OW26839   1.918   4.657   1.851
 8647SOL    HW126840   1.973   4.726   1.899
 8647SOL    HW226841   1.971   4.573   1.843
 8648SOL     OW26842   5.870   5.673   6.247
 8648SOL    HW126843   5.964   5.652   6.273
 8648SOL    HW226844   5.813   5.591   6.257
 8649SOL     OW26845   5.470   2.598   2.006
 8649SOL    HW126846   5.379   2.574   2.039
 8649SOL    HW226847   5.532   2.520   2.018
 8650SOL     OW26848   1.184   0.878   4.894
 8650SOL    HW126849   1.084   0.879   4.906
 8650SOL    HW226850   1.215   0.784   4.883
 8651SOL     OW26851   5.005   1.391   1.554
 8651SOL    HW126852   5.041   1.375   1.462
 8651SOL    HW226853   5.015   1.487   1.577
 8652SOL     OW26854   6.538   3.331   4.909
 8652SOL    HW126855   6.492   3.242   4.907
 8652SOL    HW226856   6.543   3.368   4.817
 8653SOL     OW26857   4.655   0.570   0.184
 8653SOL    HW126858   4.612   0.572   0.093
 8653SOL    HW226859   4.674   0.663   0.214
 8654SOL     OW26860   0.410   4.290   2.900
 8654SOL    HW126861   0.313   4.317   2.905
 8654SOL    HW226862   0.467   4.370   2.919
 8655SOL     OW26863   1.335   7.002   5.095
 8655SOL    HW126864   1.330   6.953   5.182
 8655SOL    HW226865   1.306   6.943   5.021
 8656SOL     OW26866   3.829   6.102   0.447
 8656SOL    HW126867   3.730   6.102   0.453
 8656SOL    HW226868   3.860   6.185   0.401
 8657SOL     OW26869   3.216   1.928   2.481
 8657SOL    HW126870   3.270   1.851   2.447
 8657SOL    HW226871   3.234   2.009   2.425
 8658SOL     OW26872   6.365   4.061   0.712
 8658SOL    HW126873   6.388   3.978   0.763
 8658SOL    HW226874   6.267   4.078   0.717
 8659SOL     OW26875   3.595   0.238   3.639
 8659SOL    HW126876   3.611   0.336   3.633
 8659SOL    HW226877   3.678   0.193   3.673
 8660SOL     OW26878   6.769   4.802   0.949
 8660SOL    HW126879   6.863   4.794   0.916
 8660SOL    HW226880   6.711   4.737   0.901
 8661SOL     OW26881   5.784   3.368   1.583
 8661SOL    HW126882   5.743   3.343   1.495
 8661SOL    HW226883   5.762   3.299   1.651
 8662SOL     OW26884   1.734   2.528   2.593
 8662SOL    HW126885   1.824   2.552   2.631
 8662SOL    HW226886   1.662   2.573   2.646
 8663SOL     OW26887   3.180   5.223   2.285
 8663SOL    HW126888   3.141   5.260   2.369
 8663SOL    HW226889   3.111   5.169   2.237
 8664SOL     OW26890   3.078   5.865   4.200
 8664SOL    HW126891   3.045   5.860   4.106
 8664SOL    HW226892   3.176   5.842   4.202
 8665SOL     OW26893   0.758   3.630   6.679
 8665SOL    HW126894   0.789   3.717   6.640
 8665SOL    HW226895   0.736   3.643   6.776
 8666SOL     OW26896   4.886   0.251   2.822
 8666SOL    HW126897   4.918   0.265   2.916
 8666SOL    HW226898   4.927   0.321   2.763
 8667SOL     OW26899   4.325   2.095   2.646
 8667SOL    HW126900   4.386   2.095   2.567
 8667SOL    HW226901   4.230   2.088   2.615
 8668SOL     OW26902   3.610   1.957   3.290
 8668SOL    HW126903   3.645   1.892   3.222
 8668SOL    HW226904   3.518   1.985   3.265
 8669SOL     OW26905   0.531   6.048   5.490
 8669SOL    HW126906   0.571   5.968   5.445
 8669SOL    HW226907   0.548   6.044   5.588
 8670SOL     OW26908   0.069   5.003   4.774
 8670SOL    HW126909   0.167   4.996   4.791
 8670SOL    HW226910   0.035   4.916   4.738
 8671SOL     OW26911   0.465   3.880   3.814
 8671SOL    HW126912   0.565   3.884   3.806
 8671SOL    HW226913   0.440   3.856   3.908
 8672SOL     OW26914   6.586   1.390   2.482
 8672SOL    HW126915   6.617   1.384   2.387
 8672SOL    HW226916   6.577   1.486   2.509
 8673SOL     OW26917   0.037   1.688   1.693
 8673SOL    HW126918   0.058   1.695   1.595
 8673SOL    HW226919   0.104   1.739   1.746
 8674SOL     OW26920   0.066   3.045   4.456
 8674SOL    HW126921   0.040   2.950   4.471
 8674SOL    HW226922   0.165   3.052   4.450
 8675SOL     OW26923   5.060   2.379   5.096
 8675SOL    HW126924   5.074   2.452   5.163
 8675SOL    HW226925   5.119   2.394   5.017
 8676SOL     OW26926   4.751   3.216   0.764
 8676SOL    HW126927   4.829   3.276   0.779
 8676SOL    HW226928   4.668   3.271   0.755
 8677SOL     OW26929   3.138   0.875   0.343
 8677SOL    HW126930   3.127   0.865   0.244
 8677SOL    HW226931   3.236   0.875   0.365
 8678SOL     OW26932   3.216   1.827   0.002
 8678SOL    HW126933   3.272   1.745   0.015
 8678SOL    HW226934   3.250   1.900   0.060
 8679SOL     OW26935   1.493   2.151   6.590
 8679SOL    HW126936   1.562   2.171   6.520
 8679SOL    HW226937   1.495   2.054   6.612
 8680SOL     OW26938   0.602   6.820   1.647
 8680SOL    HW126939   0.541   6.805   1.725
 8680SOL    HW226940   0.696   6.826   1.679
 8681SOL     OW26941   5.295   5.175   0.826
 8681SOL    HW126942   5.258   5.197   0.736
 8681SOL    HW226943   5.338   5.257   0.865
 8682SOL     OW26944   1.637   1.396   2.001
 8682SOL    HW126945   1.622   1.485   1.958
 8682SOL    HW226946   1.697   1.406   2.080
 8683SOL     OW26947   2.364   4.336   4.339
 8683SOL    HW126948   2.345   4.433   4.325
 8683SOL    HW226949   2.277   4.286   4.344
 8684SOL     OW26950   2.130   3.968   3.668
 8684SOL    HW126951   2.208   4.030   3.670
 8684SOL    HW226952   2.153   3.888   3.613
 8685SOL     OW26953   5.043   3.321   5.667
 8685SOL    HW126954   5.060   3.254   5.739
 8685SOL    HW226955   5.075   3.411   5.696
 8686SOL     OW26956   1.180   4.811   2.468
 8686SOL    HW126957   1.240   4.860   2.531
 8686SOL    HW226958   1.092   4.858   2.462
 8687SOL     OW26959   6.379   4.033   5.271
 8687SOL    HW126960   6.312   4.105   5.255
 8687SOL    HW226961   6.340   3.964   5.332
 8688SOL     OW26962   1.281   3.272   4.610
 8688SOL    HW126963   1.300   3.269   4.708
 8688SOL    HW226964   1.302   3.184   4.569
 8689SOL     OW26965   5.403   3.455   1.368
 8689SOL    HW126966   5.501   3.444   1.351
 8689SOL    HW226967   5.353   3.382   1.321
 8690SOL     OW26968   1.626   2.237   2.177
 8690SOL    HW126969   1.577   2.150   2.181
 8690SOL    HW226970   1.642   2.271   2.269
 8691SOL     OW26971   3.148   1.050   6.861
 8691SOL    HW126972   3.239   1.034   6.899
 8691SOL    HW226973   3.125   0.976   6.797
 8692SOL     OW26974   5.856   2.390   4.174
 8692SOL    HW126975   5.771   2.338   4.161
 8692SOL    HW226976   5.847   2.452   4.251
 8693SOL     OW26977   0.389   6.760   5.345
 8693SOL    HW126978   0.392   6.707   5.260
 8693SOL    HW226979   0.435   6.848   5.331
 8694SOL     OW26980   4.200   3.888   5.438
 8694SOL    HW126981   4.204   3.965   5.374
 8694SOL    HW226982   4.264   3.903   5.513
 8695SOL     OW26983   3.947   4.142   1.253
 8695SOL    HW126984   3.900   4.203   1.190
 8695SOL    HW226985   3.899   4.055   1.258
 8696SOL     OW26986   2.778   5.170   6.781
 8696SOL    HW126987   2.843   5.131   6.716
 8696SOL    HW226988   2.720   5.236   6.733
 8697SOL     OW26989   0.814   2.790   4.639
 8697SOL    HW126990   0.727   2.769   4.596
 8697SOL    HW226991   0.802   2.798   4.738
 8698SOL     OW26992   6.011   4.321   6.468
 8698SOL    HW126993   6.109   4.326   6.446
 8698SOL    HW226994   5.957   4.331   6.385
 8699SOL     OW26995   2.405   1.905   1.299
 8699SOL    HW126996   2.504   1.917   1.309
 8699SOL    HW226997   2.367   1.868   1.383
 8700SOL     OW26998   0.419   2.114   4.598
 8700SOL    HW126999   0.495   2.137   4.536
 8700SOL    HW227000   0.393   2.194   4.651
 8701SOL     OW27001   2.483   3.221   6.851
 8701SOL    HW127002   2.502   3.123   6.864
 8701SOL    HW227003   2.477   3.266   6.941
 8702SOL     OW27004   5.835   4.402   0.805
 8702SOL    HW127005   5.746   4.358   0.796
 8702SOL    HW227006   5.893   4.348   0.867
 8703SOL     OW27007   2.113   5.004   1.194
 8703SOL    HW127008   2.054   4.937   1.239
 8703SOL    HW227009   2.060   5.056   1.127
 8704SOL     OW27010   6.556   1.311   3.521
 8704SOL    HW127011   6.512   1.373   3.456
 8704SOL    HW227012   6.491   1.285   3.592
 8705SOL     OW27013   3.856   2.248   0.422
 8705SOL    HW127014   3.904   2.171   0.381
 8705SOL    HW227015   3.757   2.232   0.419
 8706SOL     OW27016   4.551   2.900   5.243
 8706SOL    HW127017   4.595   2.853   5.167
 8706SOL    HW227018   4.476   2.844   5.278
 8707SOL     OW27019   1.576   1.176   4.485
 8707SOL    HW127020   1.587   1.100   4.421
 8707SOL    HW227021   1.590   1.262   4.436
 8708SOL     OW27022   5.476   2.583   0.973
 8708SOL    HW127023   5.505   2.490   0.950
 8708SOL    HW227024   5.379   2.595   0.948
 8709SOL     OW27025   6.533   6.336   4.183
 8709SOL    HW127026   6.590   6.280   4.123
 8709SOL    HW227027   6.590   6.379   4.253
 8710SOL     OW27028   2.299   2.782   3.360
 8710SOL    HW127029   2.299   2.800   3.459
 8710SOL    HW227030   2.206   2.763   3.329
 8711SOL     OW27031   1.187   1.995   2.298
 8711SOL    HW127032   1.194   2.020   2.395
 8711SOL    HW227033   1.127   1.915   2.289
 8712SOL     OW27034   1.521   3.740   4.152
 8712SOL    HW127035   1.561   3.805   4.087
 8712SOL    HW227036   1.438   3.700   4.113
 8713SOL     OW27037   0.007   4.701   3.754
 8713SOL    HW127038   7.003   4.673   3.845
 8713SOL    HW227039   0.092   4.753   3.761
 8714SOL     OW27040   0.865   4.607   6.209
 8714SOL    HW127041   0.791   4.540   6.202
 8714SOL    HW227042   0.925   4.583   6.285
 8715SOL     OW27043   1.861   4.835   1.614
 8715SOL    HW127044   1.959   4.852   1.612
 8715SOL    HW227045   1.845   4.742   1.647
 8716SOL     OW27046   5.220   0.160   2.769
 8716SOL    HW127047   5.155   0.174   2.844
 8716SOL    HW227048   5.233   0.246   2.719
 8717SOL     OW27049   3.892   2.524   6.706
 8717SOL    HW127050   3.818   2.501   6.769
 8717SOL    HW227051   3.961   2.579   6.754
 8718SOL     OW27052   2.984   5.040   5.955
 8718SOL    HW127053   3.001   5.120   5.899
 8718SOL    HW227054   3.039   5.046   6.039
 8719SOL     OW27055   3.125   2.132   4.468
 8719SOL    HW127056   3.073   2.211   4.500
 8719SOL    HW227057   3.066   2.071   4.416
 8720SOL     OW27058   0.235   6.718   5.015
 8720SOL    HW127059   0.290   6.797   5.042
 8720SOL    HW227060   0.157   6.750   4.961
 8721SOL     OW27061   0.631   0.361   1.683
 8721SOL    HW127062   0.716   0.400   1.717
 8721SOL    HW227063   0.592   0.300   1.752
 8722SOL     OW27064   3.819   1.014   0.385
 8722SOL    HW127065   3.816   0.996   0.483
 8722SOL    HW227066   3.829   0.929   0.335
 8723SOL     OW27067   3.699   0.030   2.827
 8723SOL    HW127068   3.763   0.024   2.750
 8723SOL    HW227069   3.738   7.008   2.906
 8724SOL     OW27070   4.722   0.643   5.373
 8724SOL    HW127071   4.725   0.737   5.338
 8724SOL    HW227072   4.679   0.642   5.464
 8725SOL     OW27073   6.746   1.273   2.664
 8725SOL    HW127074   6.677   1.309   2.601
 8725SOL    HW227075   6.701   1.233   2.744
 8726SOL     OW27076   7.003   1.059   0.558
 8726SOL    HW127077   6.960   0.980   0.514
 8726SOL    HW227078   0.034   1.028   0.635
 8727SOL     OW27079   4.797   5.642   6.125
 8727SOL    HW127080   4.831   5.736   6.134
 8727SOL    HW227081   4.792   5.618   6.029
 8728SOL     OW27082   5.445   6.886   4.309
 8728SOL    HW127083   5.462   6.871   4.407
 8728SOL    HW227084   5.503   6.824   4.256
 8729SOL     OW27085   5.818   6.362   6.329
 8729SOL    HW127086   5.748   6.319   6.386
 8729SOL    HW227087   5.840   6.452   6.366
 8730SOL     OW27088   4.037   4.869   1.631
 8730SOL    HW127089   4.021   4.954   1.581
 8730SOL    HW227090   4.131   4.866   1.665
 8731SOL     OW27091   0.148   2.439   4.104
 8731SOL    HW127092   0.203   2.406   4.027
 8731SOL    HW227093   0.073   2.375   4.121
 8732SOL     OW27094   5.421   6.201   5.251
 8732SOL    HW127095   5.464   6.119   5.288
 8732SOL    HW227096   5.400   6.264   5.325
 8733SOL     OW27097   5.701   4.602   2.333
 8733SOL    HW127098   5.743   4.570   2.418
 8733SOL    HW227099   5.724   4.698   2.318
 8734SOL     OW27100   0.540   6.073   1.643
 8734SOL    HW127101   0.526   6.121   1.557
 8734SOL    HW227102   0.458   6.079   1.700
 8735SOL     OW27103   1.338   2.217   6.835
 8735SOL    HW127104   1.404   2.175   6.773
 8735SOL    HW227105   1.290   2.291   6.787
 8736SOL     OW27106   1.194   5.983   3.984
 8736SOL    HW127107   1.252   6.055   4.023
 8736SOL    HW227108   1.244   5.896   3.986
 8737SOL     OW27109   0.541   5.637   0.013
 8737SOL    HW127110   0.549   5.714   6.974
 8737SOL    HW227111   0.625   5.583   0.011
 8738SOL     OW27112   2.169   2.325   2.735
 8738SOL    HW127113   2.197   2.334   2.639
 8738SOL    HW227114   2.248   2.307   2.792
 8739SOL     OW27115   4.393   4.576   3.650
 8739SOL    HW127116   4.435   4.490   3.680
 8739SOL    HW227117   4.384   4.637   3.729
 8740SOL     OW27118   1.825   0.849   3.795
 8740SOL    HW127119   1.908   0.810   3.756
 8740SOL    HW227120   1.790   0.788   3.866
 8741SOL     OW27121   2.216   2.048   3.101
 8741SOL    HW127122   2.251   2.128   3.150
 8741SOL    HW227123   2.213   2.068   3.003
 8742SOL     OW27124   1.516   3.016   0.978
 8742SOL    HW127125   1.470   3.037   0.892
 8742SOL    HW227126   1.475   2.934   1.018
 8743SOL     OW27127   1.997   2.929   0.383
 8743SOL    HW127128   2.016   3.004   0.319
 8743SOL    HW227129   2.079   2.911   0.438
 8744SOL     OW27130   2.437   3.868   5.895
 8744SOL    HW127131   2.455   3.944   5.834
 8744SOL    HW227132   2.523   3.835   5.934
 8745SOL     OW27133   5.575   1.419   6.832
 8745SOL    HW127134   5.640   1.346   6.811
 8745SOL    HW227135   5.498   1.414   6.769
 8746SOL     OW27136   4.805   4.815   4.451
 8746SOL    HW127137   4.725   4.863   4.486
 8746SOL    HW227138   4.809   4.824   4.352
 8747SOL     OW27139   0.439   6.474   1.549
 8747SOL    HW127140   0.519   6.437   1.500
 8747SOL    HW227141   0.359   6.419   1.527
 8748SOL     OW27142   6.122   1.396   5.018
 8748SOL    HW127143   6.157   1.487   5.038
 8748SOL    HW227144   6.163   1.362   4.933
 8749SOL     OW27145   2.117   0.932   3.905
 8749SOL    HW127146   2.112   0.977   3.815
 8749SOL    HW227147   2.106   0.833   3.893
 8750SOL     OW27148   4.168   3.341   2.164
 8750SOL    HW127149   4.125   3.365   2.077
 8750SOL    HW227150   4.261   3.306   2.147
 8751SOL     OW27151   1.908   6.352   6.730
 8751SOL    HW127152   1.808   6.355   6.740
 8751SOL    HW227153   1.940   6.258   6.742
 8752SOL     OW27154   1.249   2.979   6.885
 8752SOL    HW127155   1.307   3.040   6.940
 8752SOL    HW227156   1.215   3.029   6.805
 8753SOL     OW27157   1.767   1.962   0.904
 8753SOL    HW127158   1.760   1.863   0.917
 8753SOL    HW227159   1.700   1.992   0.836
 8754SOL     OW27160   1.586   6.286   6.668
 8754SOL    HW127161   1.569   6.193   6.702
 8754SOL    HW227162   1.579   6.286   6.568
 8755SOL     OW27163   0.229   1.897   1.755
 8755SOL    HW127164   0.168   1.975   1.768
 8755SOL    HW227165   0.279   1.879   1.841
 8756SOL     OW27166   1.783   1.478   2.419
 8756SOL    HW127167   1.825   1.441   2.336
 8756SOL    HW227168   1.826   1.566   2.442
 8757SOL     OW27169   5.154   5.674   4.936
 8757SOL    HW127170   5.221   5.613   4.979
 8757SOL    HW227171   5.176   5.684   4.839
 8758SOL     OW27172   3.607   4.752   6.923
 8758SOL    HW127173   3.526   4.809   6.936
 8758SOL    HW227174   3.645   4.728   7.012
 8759SOL     OW27175   6.765   1.202   1.525
 8759SOL    HW127176   6.849   1.202   1.580
 8759SOL    HW227177   6.759   1.287   1.473
 8760SOL     OW27178   1.459   2.725   4.604
 8760SOL    HW127179   1.448   2.788   4.680
 8760SOL    HW227180   1.519   2.766   4.535
 8761SOL     OW27181   5.109   2.988   3.514
 8761SOL    HW127182   5.017   3.001   3.477
 8761SOL    HW227183   5.177   3.016   3.446
 8762SOL     OW27184   4.040   6.251   2.508
 8762SOL    HW127185   4.000   6.290   2.425
 8762SOL    HW227186   4.009   6.302   2.588
 8763SOL     OW27187   0.132   1.786   5.283
 8763SOL    HW127188   0.137   1.837   5.369
 8763SOL    HW227189   0.221   1.787   5.239
 8764SOL     OW27190   2.473   5.116   6.188
 8764SOL    HW127191   2.566   5.112   6.152
 8764SOL    HW227192   2.476   5.120   6.288
 8765SOL     OW27193   4.544   6.814   3.303
 8765SOL    HW127194   4.613   6.874   3.262
 8765SOL    HW227195   4.454   6.858   3.297
 8766SOL     OW27196   6.292   6.962   5.077
 8766SOL    HW127197   6.299   6.879   5.134
 8766SOL    HW227198   6.345   0.010   5.119
 8767SOL     OW27199   2.039   1.315   4.863
 8767SOL    HW127200   2.057   1.337   4.959
 8767SOL    HW227201   2.097   1.370   4.804
 8768SOL     OW27202   6.607   2.282   0.965
 8768SOL    HW127203   6.531   2.346   0.954
 8768SOL    HW227204   6.617   2.227   0.882
 8769SOL     OW27205   6.954   7.013   0.154
 8769SOL    HW127206   6.960   7.003   0.254
 8769SOL    HW227207   0.002   0.048   0.122
 8770SOL     OW27208   4.627   2.026   0.602
 8770SOL    HW127209   4.549   1.962   0.605
 8770SOL    HW227210   4.593   2.119   0.612
 8771SOL     OW27211   1.019   2.818   6.642
 8771SOL    HW127212   1.005   2.722   6.664
 8771SOL    HW227213   1.113   2.833   6.611
 8772SOL     OW27214   0.450   6.363   3.677
 8772SOL    HW127215   0.438   6.455   3.714
 8772SOL    HW227216   0.524   6.364   3.609
 8773SOL     OW27217   6.266   1.540   4.231
 8773SOL    HW127218   6.200   1.477   4.190
 8773SOL    HW227219   6.317   1.587   4.159
 8774SOL     OW27220   1.199   2.422   6.682
 8774SOL    HW127221   1.118   2.478   6.697
 8774SOL    HW227222   1.227   2.428   6.587
 8775SOL     OW27223   4.448   1.701   2.127
 8775SOL    HW127224   4.419   1.617   2.081
 8775SOL    HW227225   4.392   1.716   2.209
 8776SOL     OW27226   5.718   3.218   1.844
 8776SOL    HW127227   5.738   3.121   1.839
 8776SOL    HW227228   5.640   3.234   1.905
 8777SOL     OW27229   6.282   2.417   3.828
 8777SOL    HW127230   6.197   2.407   3.879
 8777SOL    HW227231   6.265   2.470   3.744
 8778SOL     OW27232   1.727   4.170   6.337
 8778SOL    HW127233   1.815   4.128   6.355
 8778SOL    HW227234   1.735   4.269   6.342
 8779SOL     OW27235   3.738   6.543   3.276
 8779SOL    HW127236   3.737   6.605   3.354
 8779SOL    HW227237   3.804   6.576   3.208
 8780SOL     OW27238   0.795   3.160   4.394
 8780SOL    HW127239   0.873   3.128   4.448
 8780SOL    HW227240   0.723   3.194   4.455
 8781SOL     OW27241   3.992   1.189   2.112
 8781SOL    HW127242   3.923   1.125   2.145
 8781SOL    HW227243   3.948   1.263   2.060
 8782SOL     OW27244   6.463   2.347   6.968
 8782SOL    HW127245   6.525   2.366   6.892
 8782SOL    HW227246   6.432   2.433   7.009
 8783SOL     OW27247   3.668   3.804   6.290
 8783SOL    HW127248   3.752   3.793   6.343
 8783SOL    HW227249   3.690   3.847   6.202
 8784SOL     OW27250   4.614   1.223   5.446
 8784SOL    HW127251   4.666   1.307   5.434
 8784SOL    HW227252   4.561   1.204   5.364
 8785SOL     OW27253   6.823   6.936   6.009
 8785SOL    HW127254   6.818   0.010   5.993
 8785SOL    HW227255   6.741   6.907   6.059
 8786SOL     OW27256   5.401   2.592   3.032
 8786SOL    HW127257   5.343   2.510   3.034
 8786SOL    HW227258   5.443   2.601   2.941
 8787SOL     OW27259   3.250   5.263   2.628
 8787SOL    HW127260   3.310   5.265   2.548
 8787SOL    HW227261   3.155   5.270   2.599
 8788SOL     OW27262   0.134   7.010   3.887
 8788SOL    HW127263   0.059   0.050   3.882
 8788SOL    HW227264   0.113   6.939   3.955
 8789SOL     OW27265   2.419   3.694   6.965
 8789SOL    HW127266   2.430   3.647   0.028
 8789SOL    HW227267   2.329   3.673   6.926
 8790SOL     OW27268   4.680   3.170   5.244
 8790SOL    HW127269   4.773   3.193   5.273
 8790SOL    HW227270   4.675   3.073   5.220
 8791SOL     OW27271   3.954   6.449   5.422
 8791SOL    HW127272   4.035   6.501   5.394
 8791SOL    HW227273   3.916   6.402   5.342
 8792SOL     OW27274   5.343   4.543   0.935
 8792SOL    HW127275   5.397   4.614   0.890
 8792SOL    HW227276   5.381   4.525   1.026
 8793SOL     OW27277   6.425   0.456   5.789
 8793SOL    HW127278   6.519   0.422   5.786
 8793SOL    HW227279   6.409   0.516   5.711
 8794SOL     OW27280   0.319   2.969   3.243
 8794SOL    HW127281   0.407   2.921   3.231
 8794SOL    HW227282   0.246   2.913   3.204
 8795SOL     OW27283   1.697   0.332   6.811
 8795SOL    HW127284   1.778   0.382   6.843
 8795SOL    HW227285   1.635   0.395   6.765
 8796SOL     OW27286   5.821   5.250   4.204
 8796SOL    HW127287   5.776   5.229   4.291
 8796SOL    HW227288   5.911   5.207   4.202
 8797SOL     OW27289   5.333   5.971   5.448
 8797SOL    HW127290   5.333   5.907   5.525
 8797SOL    HW227291   5.266   5.943   5.380
 8798SOL     OW27292   1.472   5.307   0.083
 8798SOL    HW127293   1.490   5.216   0.120
 8798SOL    HW227294   1.507   5.313   7.015
 8799SOL     OW27295   1.554   6.358   2.123
 8799SOL    HW127296   1.609   6.320   2.049
 8799SOL    HW227297   1.607   6.355   2.208
 8800SOL     OW27298   6.826   6.069   4.647
 8800SOL    HW127299   6.738   6.048   4.605
 8800SOL    HW227300   6.900   6.044   4.585
 8801SOL     OW27301   5.101   3.379   6.906
 8801SOL    HW127302   5.175   3.358   6.841
 8801SOL    HW227303   5.121   3.337   6.994
 8802SOL     OW27304   1.157   6.805   0.101
 8802SOL    HW127305   1.235   6.747   0.125
 8802SOL    HW227306   1.140   6.871   0.175
 8803SOL     OW27307   4.716   4.709   5.434
 8803SOL    HW127308   4.706   4.754   5.345
 8803SOL    HW227309   4.715   4.779   5.506
 8804SOL     OW27310   2.311   6.461   1.657
 8804SOL    HW127311   2.385   6.467   1.591
 8804SOL    HW227312   2.229   6.505   1.620
 8805SOL     OW27313   4.888   5.210   0.978
 8805SOL    HW127314   4.955   5.285   0.975
 8805SOL    HW227315   4.814   5.228   0.913
 8806SOL     OW27316   1.501   1.197   1.869
 8806SOL    HW127317   1.538   1.272   1.923
 8806SOL    HW227318   1.408   1.220   1.839
 8807SOL     OW27319   5.653   2.406   2.032
 8807SOL    HW127320   5.745   2.420   1.993
 8807SOL    HW227321   5.647   2.314   2.069
 8808SOL     OW27322   1.799   1.326   0.815
 8808SOL    HW127323   1.802   1.369   0.725
 8808SOL    HW227324   1.723   1.365   0.868
 8809SOL     OW27325   0.970   3.524   2.947
 8809SOL    HW127326   0.969   3.571   3.036
 8809SOL    HW227327   0.891   3.552   2.894
 8810SOL     OW27328   6.215   2.591   3.607
 8810SOL    HW127329   6.276   2.668   3.626
 8810SOL    HW227330   6.120   2.622   3.607
 8811SOL     OW27331   3.888   5.661   2.975
 8811SOL    HW127332   3.828   5.649   3.055
 8811SOL    HW227333   3.960   5.727   2.998
 8812SOL     OW27334   5.457   0.576   0.205
 8812SOL    HW127335   5.457   0.542   0.110
 8812SOL    HW227336   5.450   0.498   0.267
 8813SOL     OW27337   1.502   2.664   1.613
 8813SOL    HW127338   1.439   2.702   1.681
 8813SOL    HW227339   1.589   2.713   1.617
 8814SOL     OW27340   5.932   6.871   5.133
 8814SOL    HW127341   5.952   6.903   5.040
 8814SOL    HW227342   5.955   6.774   5.140
 8815SOL     OW27343   4.405   0.426   1.216
 8815SOL    HW127344   4.500   0.394   1.211
 8815SOL    HW227345   4.366   0.424   1.124
 8816SOL     OW27346   0.219   0.890   2.785
 8816SOL    HW127347   0.249   0.809   2.834
 8816SOL    HW227348   0.300   0.946   2.762
 8817SOL     OW27349   0.879   2.493   4.554
 8817SOL    HW127350   0.860   2.556   4.629
 8817SOL    HW227351   0.808   2.500   4.485
 8818SOL     OW27352   1.370   5.627   6.117
 8818SOL    HW127353   1.299   5.697   6.129
 8818SOL    HW227354   1.326   5.539   6.098
 8819SOL     OW27355   5.503   6.495   6.568
 8819SOL    HW127356   5.430   6.561   6.585
 8819SOL    HW227357   5.493   6.458   6.476
 8820SOL     OW27358   3.224   6.713   5.992
 8820SOL    HW127359   3.132   6.680   6.010
 8820SOL    HW227360   3.241   6.716   5.894
 8821SOL     OW27361   1.531   5.086   5.431
 8821SOL    HW127362   1.436   5.094   5.403
 8821SOL    HW227363   1.574   5.176   5.432
 8822SOL     OW27364   0.431   0.623   5.386
 8822SOL    HW127365   0.389   0.713   5.397
 8822SOL    HW227366   0.480   0.599   5.470
 8823SOL     OW27367   4.417   2.406   3.074
 8823SOL    HW127368   4.383   2.344   3.144
 8823SOL    HW227369   4.407   2.364   2.984
 8824SOL     OW27370   1.477   0.381   4.074
 8824SOL    HW127371   1.498   0.286   4.097
 8824SOL    HW227372   1.379   0.389   4.053
 8825SOL     OW27373   1.144   6.856   0.476
 8825SOL    HW127374   1.136   6.907   0.390
 8825SOL    HW227375   1.068   6.791   0.483
 8826SOL     OW27376   0.451   3.572   0.214
 8826SOL    HW127377   0.416   3.479   0.203
 8826SOL    HW227378   0.527   3.572   0.279
 8827SOL     OW27379   5.363   5.724   3.957
 8827SOL    HW127380   5.300   5.660   4.001
 8827SOL    HW227381   5.454   5.682   3.949
 8828SOL     OW27382   4.956   2.663   5.610
 8828SOL    HW127383   4.914   2.572   5.613
 8828SOL    HW227384   4.896   2.725   5.559
 8829SOL     OW27385   6.604   0.706   2.990
 8829SOL    HW127386   6.677   0.669   2.933
 8829SOL    HW227387   6.553   0.631   3.031
 8830SOL     OW27388   2.775   1.206   2.595
 8830SOL    HW127389   2.854   1.153   2.626
 8830SOL    HW227390   2.752   1.275   2.663
 8831SOL     OW27391   0.782   2.013   2.648
 8831SOL    HW127392   0.838   2.096   2.644
 8831SOL    HW227393   0.696   2.033   2.694
 8832SOL     OW27394   6.067   0.062   5.028
 8832SOL    HW127395   6.142   0.002   5.054
 8832SOL    HW227396   6.103   0.152   5.002
 8833SOL     OW27397   4.887   2.771   0.998
 8833SOL    HW127398   4.908   2.742   0.904
 8833SOL    HW227399   4.811   2.837   0.996
 8834SOL     OW27400   6.417   4.511   5.799
 8834SOL    HW127401   6.386   4.604   5.819
 8834SOL    HW227402   6.517   4.509   5.800
 8835SOL     OW27403   6.409   0.760   5.394
 8835SOL    HW127404   6.361   0.818   5.328
 8835SOL    HW227405   6.501   0.796   5.409
 8836SOL     OW27406   4.498   1.634   0.682
 8836SOL    HW127407   4.450   1.721   0.666
 8836SOL    HW227408   4.480   1.604   0.776
 8837SOL     OW27409   5.796   4.946   0.398
 8837SOL    HW127410   5.805   4.853   0.433
 8837SOL    HW227411   5.854   5.008   0.450
 8838SOL     OW27412   1.530   3.247   2.031
 8838SOL    HW127413   1.538   3.339   2.070
 8838SOL    HW227414   1.434   3.219   2.030
 8839SOL     OW27415   4.726   4.691   1.760
 8839SOL    HW127416   4.750   4.739   1.676
 8839SOL    HW227417   4.800   4.630   1.787
 8840SOL     OW27418   0.251   6.903   1.194
 8840SOL    HW127419   0.347   6.884   1.175
 8840SOL    HW227420   0.236   6.909   1.293
 8841SOL     OW27421   4.706   2.027   0.349
 8841SOL    HW127422   4.788   2.080   0.370
 8841SOL    HW227423   4.650   2.016   0.431
 8842SOL     OW27424   3.795   2.939   3.582
 8842SOL    HW127425   3.828   2.845   3.593
 8842SOL    HW227426   3.711   2.951   3.634
 8843SOL     OW27427   2.453   6.213   4.818
 8843SOL    HW127428   2.394   6.162   4.880
 8843SOL    HW227429   2.435   6.186   4.723
 8844SOL     OW27430   3.961   2.820   5.280
 8844SOL    HW127431   4.016   2.738   5.261
 8844SOL    HW227432   3.953   2.875   5.197
 8845SOL     OW27433   0.617   3.887   2.321
 8845SOL    HW127434   0.633   3.817   2.250
 8845SOL    HW227435   0.704   3.920   2.355
 8846SOL     OW27436   6.116   5.218   4.547
 8846SOL    HW127437   6.060   5.164   4.609
 8846SOL    HW227438   6.187   5.159   4.507
 8847SOL     OW27439   0.785   2.429   3.872
 8847SOL    HW127440   0.837   2.514   3.861
 8847SOL    HW227441   0.749   2.425   3.965
 8848SOL     OW27442   5.816   2.750   1.014
 8848SOL    HW127443   5.812   2.650   1.008
 8848SOL    HW227444   5.811   2.790   0.923
 8849SOL     OW27445   3.374   4.938   4.866
 8849SOL    HW127446   3.471   4.914   4.853
 8849SOL    HW227447   3.368   5.022   4.920
 8850SOL     OW27448   4.143   2.179   1.139
 8850SOL    HW127449   4.181   2.205   1.050
 8850SOL    HW227450   4.205   2.115   1.185
 8851SOL     OW27451   0.030   5.681   3.399
 8851SOL    HW127452   0.074   5.716   3.317
 8851SOL    HW227453   0.026   5.581   3.395
 8852SOL     OW27454   5.960   3.934   4.861
 8852SOL    HW127455   5.896   3.868   4.822
 8852SOL    HW227456   5.916   4.023   4.869
 8853SOL     OW27457   4.658   1.886   4.211
 8853SOL    HW127458   4.590   1.815   4.231
 8853SOL    HW227459   4.638   1.928   4.123
 8854SOL     OW27460   3.366   0.537   6.320
 8854SOL    HW127461   3.459   0.570   6.340
 8854SOL    HW227462   3.300   0.609   6.343
 8855SOL     OW27463   6.580   5.044   6.158
 8855SOL    HW127464   6.648   5.108   6.193
 8855SOL    HW227465   6.502   5.094   6.122
 8856SOL     OW27466   5.402   1.829   5.805
 8856SOL    HW127467   5.421   1.917   5.847
 8856SOL    HW227468   5.312   1.831   5.762
 8857SOL     OW27469   1.501   2.868   4.343
 8857SOL    HW127470   1.553   2.948   4.314
 8857SOL    HW227471   1.432   2.847   4.274
 8858SOL     OW27472   0.795   3.472   5.499
 8858SOL    HW127473   0.715   3.439   5.450
 8858SOL    HW227474   0.778   3.469   5.598
 8859SOL     OW27475   2.387   6.026   5.039
 8859SOL    HW127476   2.410   6.023   5.136
 8859SOL    HW227477   2.290   6.006   5.027
 8860SOL     OW27478   2.183   1.321   1.406
 8860SOL    HW127479   2.089   1.354   1.407
 8860SOL    HW227480   2.197   1.264   1.325
 8861SOL     OW27481   1.772   1.586   6.856
 8861SOL    HW127482   1.801   1.553   6.766
 8861SOL    HW227483   1.852   1.598   6.915
 8862SOL     OW27484   0.138   3.023   3.989
 8862SOL    HW127485   0.155   2.950   4.056
 8862SOL    HW227486   0.084   2.986   3.914
 8863SOL     OW27487   1.607   5.585   5.137
 8863SOL    HW127488   1.644   5.536   5.216
 8863SOL    HW227489   1.639   5.680   5.140
 8864SOL     OW27490   2.033   4.579   5.618
 8864SOL    HW127491   2.020   4.647   5.690
 8864SOL    HW227492   2.126   4.543   5.622
 8865SOL     OW27493   2.823   2.250   5.949
 8865SOL    HW127494   2.778   2.199   6.022
 8865SOL    HW227495   2.762   2.255   5.870
 8866SOL     OW27496   5.009   0.124   5.699
 8866SOL    HW127497   5.076   0.054   5.724
 8866SOL    HW227498   4.926   0.111   5.755
 8867SOL     OW27499   5.752   0.912   3.149
 8867SOL    HW127500   5.672   0.925   3.208
 8867SOL    HW227501   5.756   0.817   3.118
 8868SOL     OW27502   5.879   2.990   0.591
 8868SOL    HW127503   5.976   2.989   0.613
 8868SOL    HW227504   5.842   3.081   0.609
 8869SOL     OW27505   2.253   1.921   3.731
 8869SOL    HW127506   2.288   1.875   3.813
 8869SOL    HW227507   2.267   1.862   3.652
 8870SOL     OW27508   4.030   6.655   1.821
 8870SOL    HW127509   3.964   6.623   1.889
 8870SOL    HW227510   4.013   6.610   1.733
 8871SOL     OW27511   1.501   2.335   4.196
 8871SOL    HW127512   1.563   2.413   4.186
 8871SOL    HW227513   1.457   2.317   4.109
 8872SOL     OW27514   1.188   1.701   2.555
 8872SOL    HW127515   1.224   1.693   2.647
 8872SOL    HW227516   1.092   1.730   2.559
 8873SOL     OW27517   6.959   5.653   4.534
 8873SOL    HW127518   6.861   5.632   4.534
 8873SOL    HW227519   6.971   5.752   4.543
 8874SOL     OW27520   1.337   1.377   6.067
 8874SOL    HW127521   1.314   1.471   6.040
 8874SOL    HW227522   1.318   1.315   5.992
 8875SOL     OW27523   1.541   1.427   4.384
 8875SOL    HW127524   1.489   1.486   4.446
 8875SOL    HW227525   1.541   1.467   4.292
 8876SOL     OW27526   2.720   1.362   4.754
 8876SOL    HW127527   2.628   1.374   4.792
 8876SOL    HW227528   2.744   1.442   4.700
 8877SOL     OW27529   2.959   6.588   4.538
 8877SOL    HW127530   3.039   6.538   4.570
 8877SOL    HW227531   2.877   6.530   4.548
 8878SOL     OW27532   5.423   4.441   5.808
 8878SOL    HW127533   5.327   4.466   5.808
 8878SOL    HW227534   5.433   4.346   5.839
 8879SOL     OW27535   5.925   5.557   4.646
 8879SOL    HW127536   5.941   5.508   4.732
 8879SOL    HW227537   5.905   5.491   4.573
 8880SOL     OW27538   1.212   6.906   4.836
 8880SOL    HW127539   1.282   6.893   4.766
 8880SOL    HW227540   1.142   6.969   4.801
 8881SOL     OW27541   0.006   2.118   2.396
 8881SOL    HW127542   7.017   2.139   2.493
 8881SOL    HW227543   6.998   2.194   2.340
 8882SOL     OW27544   5.357   2.130   0.809
 8882SOL    HW127545   5.323   2.052   0.861
 8882SOL    HW227546   5.457   2.133   0.813
 8883SOL     OW27547   6.085   1.270   5.471
 8883SOL    HW127548   6.080   1.183   5.521
 8883SOL    HW227549   6.063   1.254   5.374
 8884SOL     OW27550   0.346   1.294   6.558
 8884SOL    HW127551   0.429   1.327   6.602
 8884SOL    HW227552   0.369   1.219   6.495
 8885SOL     OW27553   6.154   3.944   1.146
 8885SOL    HW127554   6.233   3.999   1.174
 8885SOL    HW227555   6.154   3.935   1.046
 8886SOL     OW27556   3.650   5.859   5.893
 8886SOL    HW127557   3.561   5.880   5.932
 8886SOL    HW227558   3.659   5.760   5.881
 8887SOL     OW27559   1.504   1.018   0.860
 8887SOL    HW127560   1.468   1.111   0.870
 8887SOL    HW227561   1.596   1.022   0.822
 8888SOL     OW27562   2.538   2.170   3.049
 8888SOL    HW127563   2.501   2.113   3.123
 8888SOL    HW227564   2.623   2.214   3.081
 8889SOL     OW27565   3.482   1.458   5.101
 8889SOL    HW127566   3.548   1.426   5.169
 8889SOL    HW227567   3.530   1.513   5.032
 8890SOL     OW27568   6.853   4.903   3.892
 8890SOL    HW127569   6.799   4.895   3.809
 8890SOL    HW227570   6.856   4.816   3.940
 8891SOL     OW27571   3.774   1.609   5.958
 8891SOL    HW127572   3.701   1.570   6.014
 8891SOL    HW227573   3.811   1.539   5.898
 8892SOL     OW27574   1.112   6.855   3.059
 8892SOL    HW127575   1.021   6.894   3.051
 8892SOL    HW227576   1.172   6.894   2.990
 8893SOL     OW27577   0.096   0.860   0.310
 8893SOL    HW127578   0.009   0.907   0.327
 8893SOL    HW227579   0.147   0.853   0.395
 8894SOL     OW27580   4.523   2.426   5.571
 8894SOL    HW127581   4.554   2.472   5.654
 8894SOL    HW227582   4.585   2.448   5.495
 8895SOL     OW27583   1.181   1.176   3.330
 8895SOL    HW127584   1.275   1.150   3.310
 8895SOL    HW227585   1.180   1.264   3.378
 8896SOL     OW27586   1.390   3.988   5.058
 8896SOL    HW127587   1.456   4.014   4.987
 8896SOL    HW227588   1.437   3.982   5.146
 8897SOL     OW27589   1.037   2.348   1.714
 8897SOL    HW127590   1.051   2.256   1.753
 8897SOL    HW227591   1.119   2.403   1.729
 8898SOL     OW27592   6.667   2.563   5.486
 8898SOL    HW127593   6.609   2.531   5.411
 8898SOL    HW227594   6.610   2.603   5.558
 8899SOL     OW27595   3.528   6.041   2.453
 8899SOL    HW127596   3.466   6.005   2.523
 8899SOL    HW227597   3.618   5.998   2.463
 8900SOL     OW27598   6.833   1.833   3.578
 8900SOL    HW127599   6.914   1.800   3.626
 8900SOL    HW227600   6.777   1.889   3.639
 8901SOL     OW27601   1.971   0.297   2.299
 8901SOL    HW127602   1.909   0.278   2.223
 8901SOL    HW227603   1.958   0.391   2.330
 8902SOL     OW27604   3.626   6.794   6.000
 8902SOL    HW127605   3.702   6.831   6.054
 8902SOL    HW227606   3.556   6.864   5.989
 8903SOL     OW27607   6.618   1.120   3.121
 8903SOL    HW127608   6.628   1.044   3.184
 8903SOL    HW227609   6.698   1.180   3.128
 8904SOL     OW27610   1.674   3.527   4.026
 8904SOL    HW127611   1.612   3.570   4.091
 8904SOL    HW227612   1.628   3.451   3.980
 8905SOL     OW27613   1.852   4.370   4.713
 8905SOL    HW127614   1.894   4.455   4.684
 8905SOL    HW227615   1.908   4.293   4.682
 8906SOL     OW27616   2.054   5.169   4.793
 8906SOL    HW127617   2.140   5.143   4.837
 8906SOL    HW227618   2.061   5.152   4.695
 8907SOL     OW27619   3.561   2.872   6.370
 8907SOL    HW127620   3.494   2.941   6.400
 8907SOL    HW227621   3.514   2.787   6.348
 8908SOL     OW27622   0.511   3.409   2.731
 8908SOL    HW127623   0.504   3.498   2.686
 8908SOL    HW227624   0.567   3.348   2.676
 8909SOL     OW27625   3.061   6.649   5.089
 8909SOL    HW127626   2.987   6.709   5.120
 8909SOL    HW227627   3.111   6.693   5.015
 8910SOL     OW27628   4.326   2.724   0.041
 8910SOL    HW127629   4.400   2.751   0.102
 8910SOL    HW227630   4.269   2.655   0.086
 8911SOL     OW27631   4.995   2.957   4.482
 8911SOL    HW127632   5.003   3.018   4.403
 8911SOL    HW227633   5.054   2.877   4.468
 8912SOL     OW27634   3.972   0.709   0.415
 8912SOL    HW127635   4.019   0.783   0.463
 8912SOL    HW227636   3.991   0.716   0.317
 8913SOL     OW27637   4.173   4.047   1.121
 8913SOL    HW127638   4.271   4.050   1.142
 8913SOL    HW227639   4.123   4.105   1.186
 8914SOL     OW27640   5.221   3.601   3.729
 8914SOL    HW127641   5.273   3.573   3.810
 8914SOL    HW227642   5.205   3.521   3.671
 8915SOL     OW27643   0.790   5.514   2.174
 8915SOL    HW127644   0.859   5.586   2.170
 8915SOL    HW227645   0.835   5.425   2.180
 8916SOL     OW27646   5.906   3.642   1.468
 8916SOL    HW127647   5.925   3.725   1.522
 8916SOL    HW227648   5.837   3.588   1.514
 8917SOL     OW27649   5.748   4.235   5.818
 8917SOL    HW127650   5.798   4.152   5.840
 8917SOL    HW227651   5.800   4.315   5.851
 8918SOL     OW27652   4.592   4.217   5.829
 8918SOL    HW127653   4.513   4.252   5.878
 8918SOL    HW227654   4.662   4.188   5.894
 8919SOL     OW27655   2.054   3.248   1.416
 8919SOL    HW127656   2.053   3.201   1.328
 8919SOL    HW227657   1.965   3.239   1.461
 8920SOL     OW27658   6.254   5.686   5.515
 8920SOL    HW127659   6.341   5.717   5.553
 8920SOL    HW227660   6.246   5.587   5.525
 8921SOL     OW27661   1.179   5.624   3.340
 8921SOL    HW127662   1.160   5.528   3.363
 8921SOL    HW227663   1.130   5.684   3.402
 8922SOL     OW27664   0.705   2.562   6.783
 8922SOL    HW127665   0.646   2.535   6.707
 8922SOL    HW227666   0.649   2.575   6.865
 8923SOL     OW27667   2.284   4.597   4.340
 8923SOL    HW127668   2.287   4.697   4.337
 8923SOL    HW227669   2.209   4.564   4.282
 8924SOL     OW27670   2.319   6.427   4.465
 8924SOL    HW127671   2.245   6.477   4.419
 8924SOL    HW227672   2.393   6.409   4.401
 8925SOL     OW27673   4.401   5.676   0.863
 8925SOL    HW127674   4.309   5.638   0.878
 8925SOL    HW227675   4.462   5.644   0.935
 8926SOL     OW27676   5.615   6.950   6.830
 8926SOL    HW127677   5.622   7.015   6.755
 8926SOL    HW227678   5.569   6.993   6.908
 8927SOL     OW27679   2.946   2.168   4.962
 8927SOL    HW127680   2.881   2.244   4.960
 8927SOL    HW227681   3.039   2.205   4.966
 8928SOL     OW27682   1.925   0.739   5.326
 8928SOL    HW127683   1.874   0.787   5.398
 8928SOL    HW227684   1.889   0.766   5.237
 8929SOL     OW27685   4.639   4.796   3.030
 8929SOL    HW127686   4.709   4.747   2.980
 8929SOL    HW227687   4.549   4.761   3.005
 8930SOL     OW27688   0.292   5.606   5.276
 8930SOL    HW127689   0.234   5.597   5.357
 8930SOL    HW227690   0.264   5.541   5.206
 8931SOL     OW27691   5.415   1.189   1.716
 8931SOL    HW127692   5.441   1.094   1.735
 8931SOL    HW227693   5.362   1.225   1.793
 8932SOL     OW27694   4.482   0.733   0.381
 8932SOL    HW127695   4.415   0.662   0.363
 8932SOL    HW227696   4.443   0.822   0.358
 8933SOL     OW27697   1.961   7.009   5.592
 8933SOL    HW127698   2.028   0.045   5.635
 8933SOL    HW227699   1.979   7.006   5.493
 8934SOL     OW27700   3.269   6.732   4.006
 8934SOL    HW127701   3.240   6.651   4.056
 8934SOL    HW227702   3.209   6.809   4.029
 8935SOL     OW27703   5.799   1.960   2.522
 8935SOL    HW127704   5.848   1.920   2.600
 8935SOL    HW227705   5.809   1.901   2.443
 8936SOL     OW27706   1.016   3.882   1.770
 8936SOL    HW127707   0.926   3.847   1.795
 8936SOL    HW227708   1.054   3.935   1.845
 8937SOL     OW27709   2.948   6.265   5.203
 8937SOL    HW127710   2.910   6.331   5.137
 8937SOL    HW227711   2.961   6.310   5.291
 8938SOL     OW27712   5.077   6.710   2.101
 8938SOL    HW127713   5.058   6.711   2.199
 8938SOL    HW227714   5.012   6.769   2.053
 8939SOL     OW27715   6.359   3.169   4.616
 8939SOL    HW127716   6.435   3.107   4.639
 8939SOL    HW227717   6.365   3.195   4.520
 8940SOL     OW27718   6.001   3.956   2.662
 8940SOL    HW127719   6.035   3.974   2.570
 8940SOL    HW227720   5.902   3.940   2.659
 8941SOL     OW27721   5.590   2.384   3.432
 8941SOL    HW127722   5.644   2.463   3.461
 8941SOL    HW227723   5.493   2.409   3.431
 8942SOL     OW27724   4.865   5.936   4.411
 8942SOL    HW127725   4.941   5.994   4.439
 8942SOL    HW227726   4.850   5.865   4.479
 8943SOL     OW27727   4.329   3.724   0.402
 8943SOL    HW127728   4.415   3.770   0.427
 8943SOL    HW227729   4.329   3.705   0.304
 8944SOL     OW27730   4.637   5.891   5.315
 8944SOL    HW127731   4.637   5.791   5.313
 8944SOL    HW227732   4.639   5.923   5.409
 8945SOL     OW27733   6.699   4.914   1.945
 8945SOL    HW127734   6.621   4.970   1.970
 8945SOL    HW227735   6.709   4.912   1.845
 8946SOL     OW27736   3.798   2.140   3.734
 8946SOL    HW127737   3.886   2.168   3.772
 8946SOL    HW227738   3.724   2.178   3.790
 8947SOL     OW27739   2.678   5.319   0.514
 8947SOL    HW127740   2.656   5.387   0.584
 8947SOL    HW227741   2.634   5.232   0.536
 8948SOL     OW27742   5.786   0.304   2.616
 8948SOL    HW127743   5.702   0.265   2.652
 8948SOL    HW227744   5.776   0.320   2.517
 8949SOL     OW27745   3.759   6.568   1.218
 8949SOL    HW127746   3.799   6.506   1.286
 8949SOL    HW227747   3.758   6.523   1.129
 8950SOL     OW27748   3.758   3.823   3.792
 8950SOL    HW127749   3.692   3.749   3.780
 8950SOL    HW227750   3.743   3.892   3.721
 8951SOL     OW27751   0.657   0.969   4.065
 8951SOL    HW127752   0.608   0.947   3.981
 8951SOL    HW227753   0.733   0.905   4.077
 8952SOL     OW27754   1.763   3.558   5.109
 8952SOL    HW127755   1.699   3.612   5.164
 8952SOL    HW227756   1.771   3.598   5.018
 8953SOL     OW27757   1.233   5.707   0.813
 8953SOL    HW127758   1.161   5.679   0.877
 8953SOL    HW227759   1.317   5.725   0.863
 8954SOL     OW27760   2.322   4.143   5.509
 8954SOL    HW127761   2.275   4.056   5.495
 8954SOL    HW227762   2.363   4.172   5.423
 8955SOL     OW27763   6.382   3.097   5.568
 8955SOL    HW127764   6.314   3.043   5.617
 8955SOL    HW227765   6.387   3.188   5.607
 8956SOL     OW27766   1.187   6.501   1.214
 8956SOL    HW127767   1.237   6.487   1.128
 8956SOL    HW227768   1.106   6.442   1.215
 8957SOL     OW27769   0.509   6.970   3.515
 8957SOL    HW127770   0.498   6.876   3.481
 8957SOL    HW227771   0.512   6.969   3.615
 8958SOL     OW27772   6.862   3.060   4.629
 8958SOL    HW127773   6.944   3.069   4.572
 8958SOL    HW227774   6.888   3.021   4.718
 8959SOL     OW27775   4.964   1.324   3.587
 8959SOL    HW127776   5.054   1.354   3.556
 8959SOL    HW227777   4.934   1.380   3.664
 8960SOL     OW27778   3.869   6.286   1.944
 8960SOL    HW127779   3.902   6.351   2.012
 8960SOL    HW227780   3.947   6.244   1.897
 8961SOL     OW27781   2.554   2.016   5.782
 8961SOL    HW127782   2.613   1.981   5.855
 8961SOL    HW227783   2.597   2.096   5.740
 8962SOL     OW27784   6.466   6.026   1.386
 8962SOL    HW127785   6.416   5.978   1.315
 8962SOL    HW227786   6.501   6.113   1.350
 8963SOL     OW27787   2.465   4.924   5.898
 8963SOL    HW127788   2.517   4.856   5.950
 8963SOL    HW227789   2.429   4.881   5.815
 8964SOL     OW27790   0.851   3.032   4.160
 8964SOL    HW127791   0.945   3.031   4.193
 8964SOL    HW227792   0.791   3.068   4.231
 8965SOL     OW27793   3.387   5.748   6.828
 8965SOL    HW127794   3.413   5.673   6.888
 8965SOL    HW227795   3.291   5.772   6.844
 8966SOL     OW27796   5.057   6.786   5.065
 8966SOL    HW127797   5.091   6.701   5.104
 8966SOL    HW227798   5.029   6.848   5.138
 8967SOL     OW27799   2.312   0.278   3.365
 8967SOL    HW127800   2.328   0.367   3.324
 8967SOL    HW227801   2.389   0.253   3.424
 8968SOL     OW27802   2.771   5.682   2.276
 8968SOL    HW127803   2.686   5.729   2.252
 8968SOL    HW227804   2.820   5.735   2.344
 8969SOL     OW27805   6.852   1.176   1.827
 8969SOL    HW127806   6.937   1.166   1.774
 8969SOL    HW227807   6.811   1.086   1.842
 8970SOL     OW27808   2.569   1.769   4.429
 8970SOL    HW127809   2.640   1.839   4.414
 8970SOL    HW227810   2.500   1.777   4.357
 8971SOL     OW27811   3.206   5.294   1.533
 8971SOL    HW127812   3.161   5.309   1.620
 8971SOL    HW227813   3.200   5.198   1.508
 8972SOL     OW27814   6.460   3.683   5.878
 8972SOL    HW127815   6.491   3.761   5.823
 8972SOL    HW227816   6.518   3.604   5.860
 8973SOL     OW27817   2.416   1.543   3.387
 8973SOL    HW127818   2.401   1.595   3.303
 8973SOL    HW227819   2.507   1.562   3.422
 8974SOL     OW27820   1.494   4.867   5.268
 8974SOL    HW127821   1.500   4.939   5.337
 8974SOL    HW227822   1.563   4.797   5.288
 8975SOL     OW27823   0.783   3.832   6.002
 8975SOL    HW127824   0.693   3.860   5.968
 8975SOL    HW227825   0.853   3.855   5.934
 8976SOL     OW27826   5.686   0.202   1.322
 8976SOL    HW127827   5.708   0.106   1.339
 8976SOL    HW227828   5.769   0.250   1.293
 8977SOL     OW27829   0.887   5.061   5.963
 8977SOL    HW127830   0.888   5.125   5.887
 8977SOL    HW227831   0.930   4.975   5.935
 8978SOL     OW27832   6.455   4.870   5.186
 8978SOL    HW127833   6.527   4.854   5.118
 8978SOL    HW227834   6.382   4.926   5.146
 8979SOL     OW27835   1.783   4.104   3.397
 8979SOL    HW127836   1.820   4.025   3.348
 8979SOL    HW227837   1.822   4.106   3.490
 8980SOL     OW27838   5.153   0.717   0.310
 8980SOL    HW127839   5.107   0.775   0.243
 8980SOL    HW227840   5.244   0.692   0.275
 8981SOL     OW27841   3.987   2.218   6.789
 8981SOL    HW127842   3.958   2.302   6.744
 8981SOL    HW227843   4.080   2.230   6.825
 8982SOL     OW27844   0.690   0.328   3.056
 8982SOL    HW127845   0.758   0.271   3.101
 8982SOL    HW227846   0.604   0.325   3.107
 8983SOL     OW27847   1.722   6.379   2.347
 8983SOL    HW127848   1.699   6.388   2.444
 8983SOL    HW227849   1.795   6.443   2.324
 8984SOL     OW27850   6.002   0.903   3.886
 8984SOL    HW127851   6.031   0.954   3.966
 8984SOL    HW227852   5.902   0.897   3.885
 8985SOL     OW27853   4.985   1.061   1.249
 8985SOL    HW127854   4.995   1.046   1.347
 8985SOL    HW227855   4.911   1.004   1.214
 8986SOL     OW27856   0.917   6.906   6.351
 8986SOL    HW127857   0.896   6.826   6.408
 8986SOL    HW227858   1.014   6.907   6.330
 8987SOL     OW27859   2.904   6.782   2.493
 8987SOL    HW127860   2.858   6.706   2.447
 8987SOL    HW227861   2.848   6.813   2.570
 8988SOL     OW27862   2.336   6.791   1.090
 8988SOL    HW127863   2.421   6.843   1.076
 8988SOL    HW227864   2.262   6.855   1.113
 8989SOL     OW27865   6.544   1.700   2.544
 8989SOL    HW127866   6.630   1.750   2.553
 8989SOL    HW227867   6.485   1.721   2.622
 8990SOL     OW27868   3.753   1.220   3.258
 8990SOL    HW127869   3.705   1.136   3.285
 8990SOL    HW227870   3.724   1.295   3.316
 8991SOL     OW27871   1.460   1.619   0.625
 8991SOL    HW127872   1.553   1.645   0.648
 8991SOL    HW227873   1.401   1.700   0.627
 8992SOL     OW27874   1.170   5.717   5.108
 8992SOL    HW127875   1.200   5.808   5.136
 8992SOL    HW227876   1.237   5.649   5.138
 8993SOL     OW27877   5.425   4.397   3.669
 8993SOL    HW127878   5.406   4.487   3.708
 8993SOL    HW227879   5.459   4.336   3.740
 8994SOL     OW27880   1.336   6.444   1.959
 8994SOL    HW127881   1.356   6.419   1.864
 8994SOL    HW227882   1.398   6.395   2.020
 8995SOL     OW27883   1.883   4.312   3.830
 8995SOL    HW127884   1.978   4.312   3.860
 8995SOL    HW227885   1.867   4.387   3.766
 8996SOL     OW27886   3.013   3.436   1.595
 8996SOL    HW127887   2.930   3.491   1.586
 8996SOL    HW227888   3.022   3.404   1.689
 8997SOL     OW27889   4.119   1.652   4.509
 8997SOL    HW127890   4.125   1.748   4.481
 8997SOL    HW227891   4.068   1.600   4.441
 8998SOL     OW27892   1.065   1.615   6.665
 8998SOL    HW127893   1.065   1.525   6.621
 8998SOL    HW227894   1.088   1.606   6.761
 8999SOL     OW27895   5.888   2.885   5.363
 8999SOL    HW127896   5.982   2.920   5.356
 8999SOL    HW227897   5.828   2.939   5.305
 9000SOL     OW27898   4.855   5.285   1.294
 9000SOL    HW127899   4.803   5.370   1.302
 9000SOL    HW227900   4.902   5.283   1.206
 9001SOL     OW27901   0.307   3.151   4.377
 9001SOL    HW127902   0.316   3.246   4.346
 9001SOL    HW227903   0.398   3.114   4.395
 9002SOL     OW27904   4.919   2.935   5.886
 9002SOL    HW127905   4.901   2.858   5.825
 9002SOL    HW227906   4.861   2.929   5.967
 9003SOL     OW27907   0.546   3.677   7.011
 9003SOL    HW127908   0.505   3.675   0.077
 9003SOL    HW227909   0.628   3.618   7.010
 9004SOL     OW27910   5.206   5.757   0.383
 9004SOL    HW127911   5.201   5.792   0.477
 9004SOL    HW227912   5.190   5.832   0.319
 9005SOL     OW27913   4.859   3.911   4.141
 9005SOL    HW127914   4.896   3.865   4.060
 9005SOL    HW227915   4.913   3.993   4.160
 9006SOL     OW27916   3.342   6.412   2.120
 9006SOL    HW127917   3.412   6.438   2.054
 9006SOL    HW227918   3.368   6.328   2.166
 9007SOL     OW27919   2.446   6.605   5.489
 9007SOL    HW127920   2.468   6.520   5.537
 9007SOL    HW227921   2.368   6.590   5.429
 9008SOL     OW27922   0.231   4.711   1.502
 9008SOL    HW127923   0.151   4.734   1.447
 9008SOL    HW227924   0.260   4.791   1.554
 9009SOL     OW27925   3.716   6.842   6.892
 9009SOL    HW127926   3.799   6.795   6.861
 9009SOL    HW227927   3.740   6.906   6.964
 9010SOL     OW27928   6.979   6.022   4.938
 9010SOL    HW127929   0.029   6.002   4.875
 9010SOL    HW227930   6.972   5.949   5.007
 9011SOL     OW27931   4.530   2.566   2.350
 9011SOL    HW127932   4.445   2.544   2.398
 9011SOL    HW227933   4.547   2.665   2.358
 9012SOL     OW27934   4.311   5.142   2.990
 9012SOL    HW127935   4.340   5.072   3.056
 9012SOL    HW227936   4.242   5.103   2.929
 9013SOL     OW27937   3.634   6.214   1.972
 9013SOL    HW127938   3.618   6.123   1.934
 9013SOL    HW227939   3.730   6.240   1.959
 9014SOL     OW27940   2.107   1.627   1.866
 9014SOL    HW127941   2.042   1.550   1.865
 9014SOL    HW227942   2.200   1.592   1.854
 9015SOL     OW27943   6.150   2.142   4.466
 9015SOL    HW127944   6.079   2.073   4.479
 9015SOL    HW227945   6.121   2.229   4.505
 9016SOL     OW27946   0.229   5.146   6.478
 9016SOL    HW127947   0.312   5.202   6.465
 9016SOL    HW227948   0.153   5.189   6.429
 9017SOL     OW27949   6.067   3.059   2.844
 9017SOL    HW127950   5.988   3.094   2.893
 9017SOL    HW227951   6.062   3.086   2.748
 9018SOL     OW27952   5.142   1.315   6.620
 9018SOL    HW127953   5.151   1.259   6.702
 9018SOL    HW227954   5.134   1.257   6.539
 9019SOL     OW27955   1.733   5.764   0.485
 9019SOL    HW127956   1.686   5.802   0.405
 9019SOL    HW227957   1.674   5.773   0.566
 9020SOL     OW27958   0.739   5.021   4.364
 9020SOL    HW127959   0.664   4.958   4.344
 9020SOL    HW227960   0.703   5.101   4.412
 9021SOL     OW27961   6.466   5.171   5.270
 9021SOL    HW127962   6.425   5.112   5.201
 9021SOL    HW227963   6.504   5.253   5.227
 9022SOL     OW27964   1.001   6.649   6.046
 9022SOL    HW127965   1.029   6.574   6.106
 9022SOL    HW227966   0.992   6.615   5.952
 9023SOL     OW27967   3.424   3.490   4.095
 9023SOL    HW127968   3.368   3.409   4.081
 9023SOL    HW227969   3.452   3.496   4.191
 9024SOL     OW27970   1.225   0.138   0.089
 9024SOL    HW127971   1.310   0.094   0.061
 9024SOL    HW227972   1.213   0.223   0.036
 9025SOL     OW27973   0.667   2.950   0.622
 9025SOL    HW127974   0.711   2.862   0.606
 9025SOL    HW227975   0.732   3.024   0.605
 9026SOL     OW27976   3.017   3.850   5.760
 9026SOL    HW127977   3.074   3.893   5.691
 9026SOL    HW227978   2.940   3.910   5.783
 9027SOL     OW27979   1.249   3.233   1.999
 9027SOL    HW127980   1.171   3.263   1.944
 9027SOL    HW227981   1.244   3.274   2.090
 9028SOL     OW27982   1.446   4.324   5.036
 9028SOL    HW127983   1.391   4.390   4.986
 9028SOL    HW227984   1.541   4.329   5.005
 9029SOL     OW27985   5.541   5.143   2.598
 9029SOL    HW127986   5.446   5.168   2.583
 9029SOL    HW227987   5.553   5.111   2.692
 9030SOL     OW27988   5.054   2.607   3.201
 9030SOL    HW127989   5.097   2.689   3.162
 9030SOL    HW227990   5.099   2.526   3.165
 9031SOL     OW27991   2.812   1.162   2.334
 9031SOL    HW127992   2.785   1.208   2.418
 9031SOL    HW227993   2.807   1.063   2.347
 9032SOL     OW27994   0.313   3.659   2.459
 9032SOL    HW127995   0.290   3.722   2.385
 9032SOL    HW227996   0.240   3.660   2.528
 9033SOL     OW27997   0.965   3.461   2.602
 9033SOL    HW127998   1.063   3.478   2.611
 9033SOL    HW227999   0.919   3.490   2.686
 9034SOL     OW28000   1.571   6.672   0.402
 9034SOL    HW128001   1.543   6.677   0.498
 9034SOL    HW228002   1.641   6.601   0.391
 9035SOL     OW28003   5.915   1.373   4.349
 9035SOL    HW128004   5.832   1.322   4.330
 9035SOL    HW228005   5.918   1.455   4.292
 9036SOL     OW28006   0.325   1.437   4.516
 9036SOL    HW128007   0.423   1.453   4.529
 9036SOL    HW228008   0.275   1.462   4.599
 9037SOL     OW28009   2.721   4.516   6.205
 9037SOL    HW128010   2.675   4.470   6.281
 9037SOL    HW228011   2.819   4.524   6.224
 9038SOL     OW28012   4.138   5.630   5.493
 9038SOL    HW128013   4.203   5.650   5.566
 9038SOL    HW228014   4.069   5.566   5.527
 9039SOL     OW28015   2.633   5.114   7.009
 9039SOL    HW128016   2.691   5.162   6.942
 9039SOL    HW228017   2.566   5.058   6.960
 9040SOL     OW28018   3.598   1.292   2.373
 9040SOL    HW128019   3.682   1.275   2.425
 9040SOL    HW228020   3.620   1.298   2.276
 9041SOL     OW28021   2.174   2.634   5.135
 9041SOL    HW128022   2.143   2.717   5.180
 9041SOL    HW228023   2.138   2.554   5.183
 9042SOL     OW28024   1.895   5.170   2.424
 9042SOL    HW128025   1.935   5.094   2.475
 9042SOL    HW228026   1.936   5.172   2.332
 9043SOL     OW28027   0.524   1.293   0.326
 9043SOL    HW128028   0.580   1.215   0.300
 9043SOL    HW228029   0.439   1.293   0.273
 9044SOL     OW28030   0.685   4.080   0.489
 9044SOL    HW128031   0.715   4.059   0.582
 9044SOL    HW228032   0.602   4.028   0.468
 9045SOL     OW28033   2.111   4.722   4.924
 9045SOL    HW128034   2.033   4.782   4.905
 9045SOL    HW228035   2.078   4.640   4.972
 9046SOL     OW28036   3.516   4.344   5.641
 9046SOL    HW128037   3.434   4.289   5.622
 9046SOL    HW228038   3.507   4.386   5.731
 9047SOL     OW28039   0.869   4.546   4.158
 9047SOL    HW128040   0.888   4.524   4.062
 9047SOL    HW228041   0.927   4.622   4.187
 9048SOL     OW28042   1.415   2.624   5.498
 9048SOL    HW128043   1.379   2.716   5.508
 9048SOL    HW228044   1.430   2.584   5.589
 9049SOL     OW28045   4.534   6.460   5.759
 9049SOL    HW128046   4.450   6.509   5.736
 9049SOL    HW228047   4.582   6.433   5.675
 9050SOL     OW28048   6.938   4.130   6.795
 9050SOL    HW128049   6.894   4.082   6.870
 9050SOL    HW228050   0.000   4.085   6.773
 9051SOL     OW28051   7.012   6.255   6.599
 9051SOL    HW128052   0.019   6.323   6.533
 9051SOL    HW228053   0.066   6.209   6.640
 9052SOL     OW28054   2.319   4.811   5.101
 9052SOL    HW128055   2.255   4.776   5.033
 9052SOL    HW228056   2.309   4.910   5.107
 9053SOL     OW28057   1.298   0.629   2.665
 9053SOL    HW128058   1.335   0.695   2.731
 9053SOL    HW228059   1.320   0.536   2.695
 9054SOL     OW28060   1.761   6.959   2.088
 9054SOL    HW128061   1.809   6.883   2.131
 9054SOL    HW228062   1.821   0.014   2.087
 9055SOL     OW28063   1.544   2.539   5.091
 9055SOL    HW128064   1.594   2.591   5.021
 9055SOL    HW228065   1.477   2.599   5.135
 9056SOL     OW28066   5.139   2.017   1.474
 9056SOL    HW128067   5.088   1.932   1.469
 9056SOL    HW228068   5.109   2.069   1.554
 9057SOL     OW28069   3.248   6.924   6.153
 9057SOL    HW128070   3.237   6.857   6.079
 9057SOL    HW228071   3.306   6.885   6.225
 9058SOL     OW28072   2.149   3.122   3.645
 9058SOL    HW128073   2.119   3.113   3.550
 9058SOL    HW228074   2.230   3.180   3.649
 9059SOL     OW28075   6.970   0.626   2.401
 9059SOL    HW128076   6.969   0.611   2.303
 9059SOL    HW228077   0.035   0.603   2.438
 9060SOL     OW28078   0.523   5.245   6.795
 9060SOL    HW128079   0.482   5.233   6.704
 9060SOL    HW228080   0.452   5.275   6.859
 9061SOL     OW28081   4.265   4.697   2.665
 9061SOL    HW128082   4.227   4.677   2.756
 9061SOL    HW228083   4.244   4.622   2.603
 9062SOL     OW28084   0.419   5.780   2.594
 9062SOL    HW128085   0.349   5.801   2.526
 9062SOL    HW228086   0.393   5.698   2.645
 9063SOL     OW28087   6.114   6.753   0.995
 9063SOL    HW128088   6.198   6.769   1.047
 9063SOL    HW228089   6.100   6.828   0.931
 9064SOL     OW28090   1.380   5.683   3.120
 9064SOL    HW128091   1.371   5.778   3.090
 9064SOL    HW228092   1.290   5.644   3.138
 9065SOL     OW28093   2.886   3.944   6.888
 9065SOL    HW128094   2.863   3.938   6.791
 9065SOL    HW228095   2.912   4.038   6.909
 9066SOL     OW28096   5.476   4.899   3.078
 9066SOL    HW128097   5.565   4.853   3.070
 9066SOL    HW228098   5.403   4.833   3.060
 9067SOL     OW28099   2.003   6.913   4.308
 9067SOL    HW128100   1.941   6.834   4.306
 9067SOL    HW228101   2.076   6.896   4.374
 9068SOL     OW28102   5.076   0.372   5.612
 9068SOL    HW128103   5.053   0.279   5.641
 9068SOL    HW228104   5.056   0.382   5.515
 9069SOL     OW28105   4.557   2.254   2.129
 9069SOL    HW128106   4.511   2.169   2.102
 9069SOL    HW228107   4.550   2.320   2.055
 9070SOL     OW28108   1.501   0.430   6.668
 9070SOL    HW128109   1.455   0.342   6.679
 9070SOL    HW228110   1.433   0.503   6.660
 9071SOL     OW28111   4.903   2.765   6.830
 9071SOL    HW128112   4.971   2.830   6.795
 9071SOL    HW228113   4.948   2.679   6.852
 9072SOL     OW28114   6.421   1.143   2.087
 9072SOL    HW128115   6.368   1.124   2.005
 9072SOL    HW228116   6.499   1.202   2.064
 9073SOL     OW28117   4.937   2.661   5.969
 9073SOL    HW128118   4.847   2.636   6.006
 9073SOL    HW228119   4.984   2.578   5.937
 9074SOL     OW28120   2.102   0.528   3.556
 9074SOL    HW128121   2.073   0.610   3.507
 9074SOL    HW228122   2.201   0.529   3.569
 9075SOL     OW28123   4.848   5.782   0.870
 9075SOL    HW128124   4.816   5.693   0.904
 9075SOL    HW228125   4.809   5.798   0.779
 9076SOL     OW28126   1.419   6.455   2.337
 9076SOL    HW128127   1.468   6.435   2.253
 9076SOL    HW228128   1.352   6.383   2.355
 9077SOL     OW28129   6.688   1.481   6.550
 9077SOL    HW128130   6.684   1.390   6.509
 9077SOL    HW228131   6.617   1.490   6.620
 9078SOL     OW28132   5.069   6.821   6.318
 9078SOL    HW128133   5.085   6.920   6.321
 9078SOL    HW228134   5.118   6.777   6.393
 9079SOL     OW28135   1.881   1.696   6.447
 9079SOL    HW128136   1.961   1.753   6.469
 9079SOL    HW228137   1.880   1.677   6.349
 9080SOL     OW28138   6.308   4.473   0.606
 9080SOL    HW128139   6.276   4.538   0.537
 9080SOL    HW228140   6.297   4.514   0.697
 9081SOL     OW28141   4.564   1.415   6.647
 9081SOL    HW128142   4.591   1.511   6.656
 9081SOL    HW228143   4.517   1.385   6.730
 9082SOL     OW28144   3.015   4.878   6.581
 9082SOL    HW128145   3.022   4.902   6.677
 9082SOL    HW228146   3.084   4.927   6.529
 9083SOL     OW28147   3.796   0.302   0.989
 9083SOL    HW128148   3.844   0.218   1.014
 9083SOL    HW228149   3.848   0.381   1.024
 9084SOL     OW28150   6.766   4.780   4.538
 9084SOL    HW128151   6.778   4.867   4.492
 9084SOL    HW228152   6.723   4.715   4.475
 9085SOL     OW28153   3.276   4.915   1.550
 9085SOL    HW128154   3.355   4.916   1.488
 9085SOL    HW228155   3.194   4.942   1.499
 9086SOL     OW28156   6.750   1.817   0.185
 9086SOL    HW128157   6.814   1.807   0.261
 9086SOL    HW228158   6.746   1.913   0.156
 9087SOL     OW28159   4.694   1.262   0.501
 9087SOL    HW128160   4.745   1.230   0.581
 9087SOL    HW228161   4.671   1.359   0.512
 9088SOL     OW28162   5.090   6.819   0.284
 9088SOL    HW128163   5.164   6.850   0.224
 9088SOL    HW228164   5.110   6.726   0.317
 9089SOL     OW28165   5.424   5.741   2.865
 9089SOL    HW128166   5.435   5.723   2.963
 9089SOL    HW228167   5.488   5.684   2.813
 9090SOL     OW28168   6.013   5.419   4.851
 9090SOL    HW128169   6.083   5.490   4.863
 9090SOL    HW228170   6.032   5.343   4.913
 9091SOL     OW28171   2.318   1.935   1.690
 9091SOL    HW128172   2.268   1.901   1.610
 9091SOL    HW228173   2.406   1.888   1.696
 9092SOL     OW28174   3.261   1.713   5.403
 9092SOL    HW128175   3.184   1.769   5.434
 9092SOL    HW228176   3.245   1.618   5.430
 9093SOL     OW28177   1.873   3.337   0.548
 9093SOL    HW128178   1.858   3.279   0.628
 9093SOL    HW228179   1.785   3.357   0.504
 9094SOL     OW28180   6.678   2.379   6.814
 9094SOL    HW128181   6.656   2.329   6.730
 9094SOL    HW228182   6.736   2.322   6.872
 9095SOL     OW28183   2.195   2.821   0.534
 9095SOL    HW128184   2.287   2.858   0.518
 9095SOL    HW228185   2.171   2.833   0.630
 9096SOL     OW28186   6.841   4.202   2.560
 9096SOL    HW128187   6.770   4.272   2.562
 9096SOL    HW228188   6.919   4.232   2.615
 9097SOL     OW28189   6.948   5.788   6.328
 9097SOL    HW128190   7.001   5.873   6.336
 9097SOL    HW228191   6.895   5.774   6.412
 9098SOL     OW28192   4.032   3.400   5.557
 9098SOL    HW128193   4.064   3.431   5.468
 9098SOL    HW228194   3.953   3.340   5.546
 9099SOL     OW28195   2.140   2.818   6.771
 9099SOL    HW128196   2.129   2.894   6.707
 9099SOL    HW228197   2.231   2.779   6.761
 9100SOL     OW28198   1.489   2.725   0.765
 9100SOL    HW128199   1.427   2.802   0.756
 9100SOL    HW228200   1.572   2.754   0.813
 9101SOL     OW28201   2.262   2.138   0.084
 9101SOL    HW128202   2.303   2.190   0.009
 9101SOL    HW228203   2.323   2.063   0.110
 9102SOL     OW28204   4.542   6.381   2.298
 9102SOL    HW128205   4.580   6.347   2.384
 9102SOL    HW228206   4.481   6.458   2.317
 9103SOL     OW28207   1.016   4.342   6.172
 9103SOL    HW128208   0.986   4.267   6.113
 9103SOL    HW228209   0.951   4.417   6.165
 9104SOL     OW28210   4.482   6.853   2.595
 9104SOL    HW128211   4.509   6.939   2.638
 9104SOL    HW228212   4.485   6.779   2.662
 9105SOL     OW28213   3.625   2.526   6.032
 9105SOL    HW128214   3.644   2.622   6.052
 9105SOL    HW228215   3.529   2.516   6.005
 9106SOL     OW28216   6.341   5.553   1.409
 9106SOL    HW128217   6.439   5.543   1.392
 9106SOL    HW228218   6.318   5.512   1.498
 9107SOL     OW28219   5.182   6.122   6.606
 9107SOL    HW128220   5.196   6.043   6.665
 9107SOL    HW228221   5.182   6.205   6.662
 9108SOL     OW28222   3.727   5.542   0.681
 9108SOL    HW128223   3.688   5.632   0.661
 9108SOL    HW228224   3.668   5.495   0.746
 9109SOL     OW28225   3.517   2.003   4.011
 9109SOL    HW128226   3.587   2.039   4.072
 9109SOL    HW228227   3.510   2.063   3.931
 9110SOL     OW28228   0.883   3.769   4.074
 9110SOL    HW128229   0.792   3.740   4.043
 9110SOL    HW228230   0.952   3.740   4.008
 9111SOL     OW28231   3.544   4.138   1.690
 9111SOL    HW128232   3.497   4.104   1.771
 9111SOL    HW228233   3.612   4.071   1.660
 9112SOL     OW28234   0.985   6.352   2.218
 9112SOL    HW128235   1.065   6.355   2.278
 9112SOL    HW228236   0.975   6.260   2.180
 9113SOL     OW28237   2.519   5.804   6.934
 9113SOL    HW128238   2.470   5.848   7.009
 9113SOL    HW228239   2.569   5.873   6.882
 9114SOL     OW28240   2.518   3.502   1.653
 9114SOL    HW128241   2.591   3.555   1.696
 9114SOL    HW228242   2.463   3.458   1.724
 9115SOL     OW28243   1.461   3.989   4.550
 9115SOL    HW128244   1.544   3.985   4.495
 9115SOL    HW228245   1.460   4.073   4.604
 9116SOL     OW28246   2.938   2.403   6.335
 9116SOL    HW128247   2.929   2.305   6.356
 9116SOL    HW228248   3.035   2.426   6.327
 9117SOL     OW28249   0.603   2.722   0.197
 9117SOL    HW128250   0.639   2.666   0.272
 9117SOL    HW228251   0.644   2.813   0.201
 9118SOL     OW28252   0.421   6.487   1.823
 9118SOL    HW128253   0.479   6.415   1.863
 9118SOL    HW228254   0.432   6.488   1.724
 9119SOL     OW28255   5.942   6.955   1.155
 9119SOL    HW128256   5.989   6.867   1.143
 9119SOL    HW228257   5.864   6.943   1.216
 9120SOL     OW28258   6.295   0.383   0.217
 9120SOL    HW128259   6.273   0.477   0.241
 9120SOL    HW228260   6.280   0.323   0.296
 9121SOL     OW28261   1.309   1.267   6.491
 9121SOL    HW128262   1.292   1.363   6.470
 9121SOL    HW228263   1.253   1.239   6.569
 9122SOL     OW28264   0.643   3.217   1.199
 9122SOL    HW128265   0.595   3.255   1.278
 9122SOL    HW228266   0.610   3.261   1.115
 9123SOL     OW28267   1.098   6.423   6.177
 9123SOL    HW128268   1.036   6.357   6.220
 9123SOL    HW228269   1.174   6.374   6.133
 9124SOL     OW28270   0.341   3.904   4.900
 9124SOL    HW128271   0.312   3.812   4.872
 9124SOL    HW228272   0.367   3.956   4.819
 9125SOL     OW28273   4.826   5.995   1.054
 9125SOL    HW128274   4.740   6.030   1.015
 9125SOL    HW228275   4.822   5.896   1.059
 9126SOL     OW28276   5.559   0.607   3.227
 9126SOL    HW128277   5.513   0.552   3.157
 9126SOL    HW228278   5.658   0.604   3.211
 9127SOL     OW28279   6.065   5.519   5.703
 9127SOL    HW128280   6.159   5.532   5.736
 9127SOL    HW228281   6.002   5.522   5.780
 9128SOL     OW28282   4.803   2.823   5.419
 9128SOL    HW128283   4.728   2.828   5.353
 9128SOL    HW228284   4.782   2.880   5.498
 9129SOL     OW28285   2.896   1.348   0.278
 9129SOL    HW128286   2.965   1.311   0.340
 9129SOL    HW228287   2.922   1.328   0.183
 9130SOL     OW28288   5.727   5.619   0.857
 9130SOL    HW128289   5.753   5.710   0.890
 9130SOL    HW228290   5.796   5.586   0.792
 9131SOL     OW28291   1.320   4.755   4.150
 9131SOL    HW128292   1.326   4.661   4.117
 9131SOL    HW228293   1.401   4.777   4.204
 9132SOL     OW28294   1.307   2.745   4.110
 9132SOL    HW128295   1.227   2.687   4.125
 9132SOL    HW228296   1.318   2.761   4.012
 9133SOL     OW28297   1.166   5.186   0.842
 9133SOL    HW128298   1.163   5.236   0.928
 9133SOL    HW228299   1.158   5.251   0.766
 9134SOL     OW28300   3.053   4.985   6.217
 9134SOL    HW128301   3.124   5.014   6.281
 9134SOL    HW228302   3.023   4.892   6.241
 9135SOL     OW28303   1.133   6.450   3.690
 9135SOL    HW128304   1.132   6.350   3.691
 9135SOL    HW228305   1.198   6.483   3.622
 9136SOL     OW28306   3.375   5.166   5.464
 9136SOL    HW128307   3.351   5.069   5.472
 9136SOL    HW228308   3.461   5.176   5.414
 9137SOL     OW28309   4.154   0.455   2.056
 9137SOL    HW128310   4.194   0.370   2.089
 9137SOL    HW228311   4.082   0.434   1.989
 9138SOL     OW28312   3.392   4.747   1.034
 9138SOL    HW128313   3.426   4.766   1.126
 9138SOL    HW228314   3.445   4.673   0.993
 9139SOL     OW28315   3.721   0.523   5.700
 9139SOL    HW128316   3.641   0.555   5.650
 9139SOL    HW228317   3.693   0.481   5.786
 9140SOL     OW28318   6.409   2.722   3.139
 9140SOL    HW128319   6.440   2.751   3.230
 9140SOL    HW228320   6.401   2.801   3.079
 9141SOL     OW28321   5.412   0.411   5.849
 9141SOL    HW128322   5.357   0.372   5.923
 9141SOL    HW228323   5.475   0.479   5.887
 9142SOL     OW28324   1.462   3.883   6.805
 9142SOL    HW128325   1.393   3.898   6.734
 9142SOL    HW228326   1.434   3.807   6.863
 9143SOL     OW28327   6.377   4.372   7.020
 9143SOL    HW128328   6.453   4.307   7.024
 9143SOL    HW228329   6.336   4.369   6.929
 9144SOL     OW28330   0.955   5.642   4.616
 9144SOL    HW128331   1.003   5.695   4.546
 9144SOL    HW228332   1.020   5.584   4.665
 9145SOL     OW28333   1.011   3.637   6.449
 9145SOL    HW128334   0.951   3.687   6.386
 9145SOL    HW228335   0.984   3.656   6.543
 9146SOL     OW28336   0.799   1.504   0.824
 9146SOL    HW128337   0.890   1.544   0.817
 9146SOL    HW228338   0.753   1.540   0.904
 9147SOL     OW28339   4.344   5.578   6.627
 9147SOL    HW128340   4.379   5.634   6.552
 9147SOL    HW228341   4.411   5.575   6.701
 9148SOL     OW28342   3.334   4.901   2.933
 9148SOL    HW128343   3.375   4.975   2.880
 9148SOL    HW228344   3.270   4.850   2.875
 9149SOL     OW28345   6.610   3.274   5.178
 9149SOL    HW128346   6.617   3.290   5.080
 9149SOL    HW228347   6.624   3.177   5.197
 9150SOL     OW28348   4.131   1.268   2.763
 9150SOL    HW128349   4.226   1.270   2.729
 9150SOL    HW228350   4.105   1.360   2.792
 9151SOL     OW28351   6.362   2.972   2.113
 9151SOL    HW128352   6.405   3.049   2.066
 9151SOL    HW228353   6.415   2.948   2.194
 9152SOL     OW28354   2.463   4.722   3.252
 9152SOL    HW128355   2.546   4.676   3.222
 9152SOL    HW228356   2.454   4.809   3.205
 9153SOL     OW28357   2.124   2.848   0.042
 9153SOL    HW128358   2.116   2.837   6.968
 9153SOL    HW228359   2.057   2.790   0.088
 9154SOL     OW28360   0.851   5.606   0.782
 9154SOL    HW128361   0.836   5.537   0.711
 9154SOL    HW228362   0.849   5.697   0.742
 9155SOL     OW28363   1.550   4.694   0.224
 9155SOL    HW128364   1.607   4.617   0.251
 9155SOL    HW228365   1.462   4.689   0.272
 9156SOL     OW28366   4.877   2.687   1.682
 9156SOL    HW128367   4.860   2.785   1.694
 9156SOL    HW228368   4.894   2.667   1.586
 9157SOL     OW28369   5.753   3.444   5.480
 9157SOL    HW128370   5.740   3.471   5.385
 9157SOL    HW228371   5.754   3.525   5.539
 9158SOL     OW28372   1.222   4.323   4.167
 9158SOL    HW128373   1.236   4.238   4.217
 9158SOL    HW228374   1.152   4.378   4.212
 9159SOL     OW28375   6.942   4.813   1.792
 9159SOL    HW128376   7.023   4.836   1.739
 9159SOL    HW228377   6.940   4.868   1.875
 9160SOL     OW28378   0.635   0.055   1.341
 9160SOL    HW128379   0.724   0.010   1.338
 9160SOL    HW228380   0.565   7.014   1.367
 9161SOL     OW28381   5.052   4.278   2.515
 9161SOL    HW128382   5.109   4.206   2.475
 9161SOL    HW228383   5.008   4.329   2.441
 9162SOL     OW28384   4.889   2.660   3.401
 9162SOL    HW128385   4.845   2.741   3.363
 9162SOL    HW228386   4.963   2.630   3.340
 9163SOL     OW28387   3.747   0.951   4.781
 9163SOL    HW128388   3.659   0.990   4.755
 9163SOL    HW228389   3.816   1.022   4.783
 9164SOL     OW28390   2.760   0.740   0.886
 9164SOL    HW128391   2.710   0.664   0.845
 9164SOL    HW228392   2.817   0.706   0.961
 9165SOL     OW28393   4.784   6.123   0.606
 9165SOL    HW128394   4.851   6.055   0.578
 9165SOL    HW228395   4.692   6.085   0.597
 9166SOL     OW28396   3.032   5.570   1.209
 9166SOL    HW128397   3.055   5.474   1.196
 9166SOL    HW228398   2.936   5.579   1.236
 9167SOL     OW28399   0.356   3.570   4.621
 9167SOL    HW128400   0.274   3.626   4.612
 9167SOL    HW228401   0.333   3.474   4.601
 9168SOL     OW28402   3.565   0.542   0.695
 9168SOL    HW128403   3.499   0.546   0.770
 9168SOL    HW228404   3.594   0.447   0.681
 9169SOL     OW28405   0.364   6.739   3.415
 9169SOL    HW128406   0.283   6.696   3.375
 9169SOL    HW228407   0.338   6.785   3.500
 9170SOL     OW28408   6.470   5.635   0.103
 9170SOL    HW128409   6.505   5.724   0.073
 9170SOL    HW228410   6.541   5.566   0.090
 9171SOL     OW28411   3.715   5.419   5.243
 9171SOL    HW128412   3.799   5.375   5.275
 9171SOL    HW228413   3.733   5.514   5.221
 9172SOL     OW28414   2.510   2.423   3.969
 9172SOL    HW128415   2.508   2.429   4.069
 9172SOL    HW228416   2.481   2.510   3.929
 9173SOL     OW28417   0.084   5.279   5.199
 9173SOL    HW128418   7.018   5.302   5.165
 9173SOL    HW228419   0.076   5.225   5.282
 9174SOL     OW28420   0.292   5.826   6.433
 9174SOL    HW128421   0.254   5.822   6.526
 9174SOL    HW228422   0.264   5.911   6.389
 9175SOL     OW28423   2.632   6.173   5.835
 9175SOL    HW128424   2.695   6.114   5.885
 9175SOL    HW228425   2.546   6.124   5.818
 9176SOL     OW28426   1.507   2.545   5.762
 9176SOL    HW128427   1.481   2.486   5.839
 9176SOL    HW228428   1.606   2.549   5.755
 9177SOL     OW28429   1.360   4.411   3.009
 9177SOL    HW128430   1.285   4.477   3.017
 9177SOL    HW228431   1.327   4.326   2.968
 9178SOL     OW28432   2.097   4.009   0.443
 9178SOL    HW128433   2.125   4.105   0.452
 9178SOL    HW228434   2.002   4.005   0.412
 9179SOL     OW28435   2.829   4.878   5.366
 9179SOL    HW128436   2.872   4.790   5.387
 9179SOL    HW228437   2.760   4.865   5.295
 9180SOL     OW28438   5.121   1.970   2.482
 9180SOL    HW128439   5.103   2.050   2.425
 9180SOL    HW228440   5.049   1.962   2.551
 9181SOL     OW28441   4.321   1.183   2.338
 9181SOL    HW128442   4.379   1.116   2.385
 9181SOL    HW228443   4.293   1.146   2.249
 9182SOL     OW28444   2.309   6.632   1.849
 9182SOL    HW128445   2.304   6.563   1.777
 9182SOL    HW228446   2.350   6.716   1.812
 9183SOL     OW28447   5.124   5.525   5.810
 9183SOL    HW128448   5.195   5.461   5.784
 9183SOL    HW228449   5.153   5.618   5.789
 9184SOL     OW28450   4.857   6.969   0.123
 9184SOL    HW128451   4.914   6.892   0.152
 9184SOL    HW228452   4.799   6.940   0.047
 9185SOL     OW28453   5.127   1.712   4.537
 9185SOL    HW128454   5.141   1.722   4.438
 9185SOL    HW228455   5.190   1.772   4.586
 9186SOL     OW28456   5.384   0.565   6.142
 9186SOL    HW128457   5.350   0.473   6.163
 9186SOL    HW228458   5.308   0.629   6.139
 9187SOL     OW28459   2.358   6.242   3.229
 9187SOL    HW128460   2.410   6.164   3.193
 9187SOL    HW228461   2.274   6.252   3.177
 9188SOL     OW28462   2.589   5.472   0.725
 9188SOL    HW128463   2.542   5.392   0.764
 9188SOL    HW228464   2.521   5.536   0.689
 9189SOL     OW28465   5.097   4.886   1.890
 9189SOL    HW128466   5.075   4.974   1.933
 9189SOL    HW228467   5.147   4.829   1.955
 9190SOL     OW28468   1.275   6.101   6.835
 9190SOL    HW128469   1.302   6.184   6.883
 9190SOL    HW228470   1.188   6.117   6.787
 9191SOL     OW28471   0.209   1.040   5.653
 9191SOL    HW128472   0.275   1.115   5.649
 9191SOL    HW228473   0.118   1.073   5.627
 9192SOL     OW28474   0.915   3.691   5.413
 9192SOL    HW128475   0.834   3.751   5.418
 9192SOL    HW228476   0.893   3.603   5.456
 9193SOL     OW28477   3.036   3.918   0.496
 9193SOL    HW128478   2.956   3.946   0.443
 9193SOL    HW228479   3.021   3.825   0.530
 9194SOL     OW28480   3.129   1.000   4.145
 9194SOL    HW128481   3.186   0.918   4.146
 9194SOL    HW228482   3.187   1.081   4.137
 9195SOL     OW28483   1.519   1.126   4.061
 9195SOL    HW128484   1.588   1.194   4.087
 9195SOL    HW228485   1.477   1.154   3.975
 9196SOL     OW28486   5.199   1.174   5.995
 9196SOL    HW128487   5.265   1.227   6.048
 9196SOL    HW228488   5.243   1.093   5.956
 9197SOL     OW28489   2.341   3.548   0.709
 9197SOL    HW128490   2.247   3.567   0.679
 9197SOL    HW228491   2.382   3.480   0.648
 9198SOL     OW28492   1.058   4.625   4.724
 9198SOL    HW128493   1.030   4.693   4.656
 9198SOL    HW228494   0.979   4.571   4.753
 9199SOL     OW28495   5.850   4.637   5.000
 9199SOL    HW128496   5.767   4.637   4.945
 9199SOL    HW228497   5.930   4.632   4.940
 9200SOL     OW28498   2.857   6.647   0.176
 9200SOL    HW128499   2.921   6.576   0.147
 9200SOL    HW228500   2.830   6.632   0.271
 9201SOL     OW28501   2.044   4.319   0.602
 9201SOL    HW128502   2.042   4.265   0.686
 9201SOL    HW228503   1.978   4.393   0.609
 9202SOL     OW28504   2.369   0.598   3.452
 9202SOL    HW128505   2.452   0.547   3.429
 9202SOL    HW228506   2.326   0.632   3.368
 9203SOL     OW28507   6.838   6.528   0.877
 9203SOL    HW128508   6.853   6.471   0.796
 9203SOL    HW228509   6.816   6.621   0.848
 9204SOL     OW28510   6.012   0.690   5.370
 9204SOL    HW128511   5.969   0.615   5.319
 9204SOL    HW228512   6.007   0.774   5.315
 9205SOL     OW28513   6.927   5.497   2.215
 9205SOL    HW128514   6.911   5.493   2.313
 9205SOL    HW228515   6.865   5.432   2.169
 9206SOL     OW28516   3.847   6.880   0.142
 9206SOL    HW128517   3.819   6.970   0.177
 9206SOL    HW228518   3.943   6.864   0.164
 9207SOL     OW28519   5.666   5.843   5.821
 9207SOL    HW128520   5.735   5.808   5.758
 9207SOL    HW228521   5.611   5.912   5.775
 9208SOL     OW28522   1.124   3.770   2.458
 9208SOL    HW128523   1.096   3.830   2.533
 9208SOL    HW228524   1.141   3.678   2.493
 9209SOL     OW28525   2.215   6.153   6.694
 9209SOL    HW128526   2.288   6.138   6.760
 9209SOL    HW228527   2.251   6.201   6.614
 9210SOL     OW28528   6.401   0.627   3.996
 9210SOL    HW128529   6.302   0.632   4.002
 9210SOL    HW228530   6.430   0.644   3.902
 9211SOL     OW28531   0.378   1.522   2.913
 9211SOL    HW128532   0.340   1.429   2.911
 9211SOL    HW228533   0.411   1.546   2.822
 9212SOL     OW28534   3.533   5.176   4.463
 9212SOL    HW128535   3.502   5.084   4.438
 9212SOL    HW228536   3.455   5.230   4.494
 9213SOL     OW28537   5.998   3.877   6.875
 9213SOL    HW128538   6.081   3.925   6.902
 9213SOL    HW228539   5.919   3.935   6.893
 9214SOL     OW28540   0.309   5.250   0.396
 9214SOL    HW128541   0.363   5.166   0.401
 9214SOL    HW228542   0.262   5.263   0.483
 9215SOL     OW28543   1.407   1.266   0.864
 9215SOL    HW128544   1.448   1.258   0.773
 9215SOL    HW228545   1.308   1.278   0.855
 9216SOL     OW28546   2.029   0.292   3.794
 9216SOL    HW128547   1.984   0.326   3.711
 9216SOL    HW228548   2.000   0.198   3.811
 9217SOL     OW28549   0.375   2.174   0.479
 9217SOL    HW128550   0.453   2.234   0.463
 9217SOL    HW228551   0.291   2.227   0.480
 9218SOL     OW28552   2.399   1.021   0.579
 9218SOL    HW128553   2.384   0.924   0.562
 9218SOL    HW228554   2.423   1.067   0.494
 9219SOL     OW28555   5.920   1.835   0.539
 9219SOL    HW128556   5.897   1.737   0.541
 9219SOL    HW228557   5.994   1.853   0.604
 9220SOL     OW28558   3.036   6.483   0.585
 9220SOL    HW128559   3.099   6.426   0.637
 9220SOL    HW228560   2.987   6.544   0.647
 9221SOL     OW28561   2.679   4.685   4.840
 9221SOL    HW128562   2.736   4.651   4.916
 9221SOL    HW228563   2.683   4.620   4.765
 9222SOL     OW28564   2.940   2.088   6.835
 9222SOL    HW128565   2.878   2.033   6.778
 9222SOL    HW228566   3.032   2.049   6.832
 9223SOL     OW28567   2.796   3.178   5.233
 9223SOL    HW128568   2.715   3.122   5.219
 9223SOL    HW228569   2.829   3.212   5.145
 9224SOL     OW28570   2.208   4.611   5.241
 9224SOL    HW128571   2.152   4.567   5.172
 9224SOL    HW228572   2.263   4.683   5.199
 9225SOL     OW28573   1.621   6.114   6.958
 9225SOL    HW128574   1.563   6.190   6.927
 9225SOL    HW228575   1.565   6.046   7.004
 9226SOL     OW28576   4.563   6.077   0.970
 9226SOL    HW128577   4.520   6.028   0.894
 9226SOL    HW228578   4.510   6.158   0.993
 9227SOL     OW28579   1.235   6.658   1.419
 9227SOL    HW128580   1.229   6.594   1.343
 9227SOL    HW228581   1.151   6.653   1.474
 9228SOL     OW28582   0.784   6.577   6.253
 9228SOL    HW128583   0.763   6.588   6.156
 9228SOL    HW228584   0.708   6.531   6.298
 9229SOL     OW28585   1.104   6.193   5.262
 9229SOL    HW128586   1.011   6.167   5.289
 9229SOL    HW228587   1.158   6.210   5.344
 9230SOL     OW28588   5.008   1.692   3.519
 9230SOL    HW128589   4.939   1.709   3.450
 9230SOL    HW228590   4.967   1.650   3.599
 9231SOL     OW28591   2.088   3.530   3.539
 9231SOL    HW128592   2.102   3.627   3.521
 9231SOL    HW228593   2.052   3.486   3.457
 9232SOL     OW28594   4.413   5.507   1.359
 9232SOL    HW128595   4.378   5.600   1.354
 9232SOL    HW228596   4.417   5.478   1.455
 9233SOL     OW28597   5.567   4.770   6.840
 9233SOL    HW128598   5.632   4.840   6.809
 9233SOL    HW228599   5.500   4.812   6.900
 9234SOL     OW28600   1.556   6.238   4.127
 9234SOL    HW128601   1.488   6.216   4.197
 9234SOL    HW228602   1.588   6.153   4.084
 9235SOL     OW28603   0.928   2.463   3.151
 9235SOL    HW128604   0.960   2.556   3.132
 9235SOL    HW228605   0.996   2.416   3.207
 9236SOL     OW28606   3.213   2.676   6.558
 9236SOL    HW128607   3.148   2.612   6.601
 9236SOL    HW228608   3.178   2.704   6.469
 9237SOL     OW28609   1.616   3.584   3.143
 9237SOL    HW128610   1.586   3.567   3.237
 9237SOL    HW228611   1.677   3.511   3.114
 9238SOL     OW28612   4.313   3.586   6.811
 9238SOL    HW128613   4.399   3.612   6.854
 9238SOL    HW228614   4.325   3.500   6.761
 9239SOL     OW28615   2.307   2.924   6.483
 9239SOL    HW128616   2.396   2.939   6.525
 9239SOL    HW228617   2.316   2.924   6.384
 9240SOL     OW28618   4.855   0.738   2.663
 9240SOL    HW128619   4.915   0.813   2.688
 9240SOL    HW228620   4.802   0.762   2.582
 9241SOL     OW28621   0.543   5.444   5.970
 9241SOL    HW128622   0.511   5.412   6.059
 9241SOL    HW228623   0.484   5.407   5.898
 9242SOL     OW28624   5.331   6.341   2.028
 9242SOL    HW128625   5.357   6.343   1.932
 9242SOL    HW228626   5.395   6.396   2.082
 9243SOL     OW28627   5.789   0.124   4.360
 9243SOL    HW128628   5.848   0.044   4.366
 9243SOL    HW228629   5.753   0.133   4.267
 9244SOL     OW28630   3.855   6.211   0.124
 9244SOL    HW128631   3.796   6.133   0.149
 9244SOL    HW228632   3.821   6.252   0.039
 9245SOL     OW28633   0.444   6.786   1.895
 9245SOL    HW128634   0.400   6.822   1.978
 9245SOL    HW228635   0.438   6.686   1.895
 9246SOL     OW28636   7.018   5.110   3.818
 9246SOL    HW128637   6.959   5.190   3.804
 9246SOL    HW228638   6.963   5.031   3.843
 9247SOL     OW28639   1.304   0.354   3.281
 9247SOL    HW128640   1.315   0.378   3.184
 9247SOL    HW228641   1.218   0.305   3.293
 9248SOL     OW28642   4.140   1.783   6.378
 9248SOL    HW128643   4.085   1.699   6.384
 9248SOL    HW228644   4.135   1.832   6.465
 9249SOL     OW28645   3.959   6.347   3.829
 9249SOL    HW128646   4.039   6.355   3.888
 9249SOL    HW228647   3.878   6.382   3.878
 9250SOL     OW28648   4.995   3.953   2.999
 9250SOL    HW128649   5.034   3.953   2.907
 9250SOL    HW228650   5.064   3.984   3.065
 9251SOL     OW28651   3.828   1.799   2.007
 9251SOL    HW128652   3.769   1.816   2.086
 9251SOL    HW228653   3.789   1.726   1.951
 9252SOL     OW28654   1.851   6.687   4.290
 9252SOL    HW128655   1.784   6.679   4.364
 9252SOL    HW228656   1.881   6.596   4.263
 9253SOL     OW28657   1.163   6.822   6.293
 9253SOL    HW128658   1.203   6.909   6.266
 9253SOL    HW228659   1.158   6.761   6.214
 9254SOL     OW28660   5.114   2.538   1.217
 9254SOL    HW128661   5.204   2.567   1.183
 9254SOL    HW228662   5.125   2.456   1.273
 9255SOL     OW28663   0.172   5.357   0.606
 9255SOL    HW128664   0.119   5.438   0.579
 9255SOL    HW228665   0.192   5.361   0.704
 9256SOL     OW28666   4.060   5.328   2.866
 9256SOL    HW128667   4.133   5.310   2.800
 9256SOL    HW228668   3.993   5.390   2.824
 9257SOL     OW28669   0.487   3.374   1.020
 9257SOL    HW128670   0.388   3.371   1.032
 9257SOL    HW228671   0.523   3.457   1.061
 9258SOL     OW28672   3.485   2.955   4.593
 9258SOL    HW128673   3.418   2.969   4.665
 9258SOL    HW228674   3.438   2.945   4.505
 9259SOL     OW28675   1.564   2.399   0.519
 9259SOL    HW128676   1.478   2.354   0.493
 9259SOL    HW228677   1.550   2.498   0.522
 9260SOL     OW28678   6.848   3.582   0.156
 9260SOL    HW128679   6.920   3.628   0.103
 9260SOL    HW228680   6.821   3.640   0.233
 9261SOL     OW28681   2.910   6.828   5.850
 9261SOL    HW128682   2.908   6.744   5.905
 9261SOL    HW228683   2.918   6.805   5.753
 9262SOL     OW28684   5.859   7.015   6.085
 9262SOL    HW128685   5.786   0.032   6.138
 9262SOL    HW228686   5.945   0.037   6.104
 9263SOL     OW28687   5.954   4.234   2.261
 9263SOL    HW128688   5.894   4.162   2.297
 9263SOL    HW228689   5.950   4.313   2.322
 9264SOL     OW28690   5.706   2.702   0.164
 9264SOL    HW128691   5.625   2.690   0.108
 9264SOL    HW228692   5.684   2.764   0.240
 9265SOL     OW28693   1.617   2.468   5.356
 9265SOL    HW128694   1.532   2.511   5.387
 9265SOL    HW228695   1.611   2.452   5.257
 9266SOL     OW28696   2.825   6.258   2.350
 9266SOL    HW128697   2.777   6.212   2.425
 9266SOL    HW228698   2.800   6.216   2.263
 9267SOL     OW28699   3.000   4.760   5.985
 9267SOL    HW128700   2.984   4.733   6.080
 9267SOL    HW228701   3.015   4.858   5.980
 9268SOL     OW28702   1.396   1.063   3.157
 9268SOL    HW128703   1.481   1.112   3.140
 9268SOL    HW228704   1.390   0.984   3.096
 9269SOL     OW28705   4.204   1.136   5.279
 9269SOL    HW128706   4.301   1.155   5.263
 9269SOL    HW228707   4.178   1.172   5.369
 9270SOL     OW28708   1.586   0.685   5.557
 9270SOL    HW128709   1.569   0.627   5.477
 9270SOL    HW228710   1.647   0.637   5.620
 9271SOL     OW28711   0.363   5.136   5.901
 9271SOL    HW128712   0.443   5.098   5.946
 9271SOL    HW228713   0.307   5.184   5.968
 9272SOL     OW28714   2.247   5.392   6.733
 9272SOL    HW128715   2.205   5.455   6.797
 9272SOL    HW228716   2.275   5.309   6.781
 9273SOL     OW28717   3.764   6.253   5.940
 9273SOL    HW128718   3.798   6.164   5.910
 9273SOL    HW228719   3.664   6.255   5.934
 9274SOL     OW28720   5.252   2.239   2.282
 9274SOL    HW128721   5.287   2.224   2.190
 9274SOL    HW228722   5.165   2.191   2.293
 9275SOL     OW28723   0.128   0.331   5.961
 9275SOL    HW128724   0.047   0.273   5.974
 9275SOL    HW228725   0.135   0.396   6.037
 9276SOL     OW28726   4.444   6.499   3.938
 9276SOL    HW128727   4.454   6.446   4.022
 9276SOL    HW228728   4.505   6.577   3.940
 9277SOL     OW28729   4.714   2.564   0.194
 9277SOL    HW128730   4.723   2.473   0.234
 9277SOL    HW228731   4.618   2.586   0.179
 9278SOL     OW28732   1.313   2.397   1.299
 9278SOL    HW128733   1.397   2.383   1.247
 9278SOL    HW228734   1.321   2.350   1.387
 9279SOL     OW28735   2.262   6.400   0.441
 9279SOL    HW128736   2.307   6.454   0.370
 9279SOL    HW228737   2.331   6.370   0.508
 9280SOL     OW28738   1.403   0.369   2.752
 9280SOL    HW128739   1.498   0.370   2.782
 9280SOL    HW228740   1.348   0.313   2.815
 9281SOL     OW28741   2.051   2.365   0.394
 9281SOL    HW128742   2.097   2.420   0.463
 9281SOL    HW228743   1.959   2.341   0.426
 9282SOL     OW28744   3.985   1.268   6.734
 9282SOL    HW128745   3.945   1.221   6.813
 9282SOL    HW228746   3.977   1.209   6.653
 9283SOL     OW28747   5.210   2.395   3.091
 9283SOL    HW128748   5.181   2.334   3.017
 9283SOL    HW228749   5.236   2.339   3.170
 9284SOL     OW28750   3.902   3.979   2.046
 9284SOL    HW128751   3.931   3.891   2.010
 9284SOL    HW228752   3.904   4.047   1.973
 9285SOL     OW28753   6.622   2.978   6.264
 9285SOL    HW128754   6.710   2.999   6.308
 9285SOL    HW228755   6.548   2.999   6.328
 9286SOL     OW28756   5.664   5.152   4.401
 9286SOL    HW128757   5.677   5.196   4.490
 9286SOL    HW228758   5.566   5.148   4.379
 9287SOL     OW28759   2.708   6.910   2.687
 9287SOL    HW128760   2.620   6.886   2.727
 9287SOL    HW228761   2.753   6.980   2.744
 9288SOL     OW28762   4.666   2.201   6.206
 9288SOL    HW128763   4.649   2.198   6.305
 9288SOL    HW228764   4.579   2.210   6.158
 9289SOL     OW28765   5.525   4.120   2.601
 9289SOL    HW128766   5.550   4.217   2.591
 9289SOL    HW228767   5.570   4.083   2.682
 9290SOL     OW28768   4.658   2.101   3.757
 9290SOL    HW128769   4.654   2.067   3.663
 9290SOL    HW228770   4.745   2.148   3.771
 9291SOL     OW28771   0.934   2.138   5.063
 9291SOL    HW128772   0.966   2.216   5.117
 9291SOL    HW228773   0.879   2.077   5.120
 9292SOL     OW28774   0.306   3.786   0.142
 9292SOL    HW128775   0.347   3.865   0.189
 9292SOL    HW228776   0.368   3.708   0.147
 9293SOL     OW28777   6.113   3.968   6.049
 9293SOL    HW128778   6.159   4.013   6.126
 9293SOL    HW228779   6.138   3.872   6.046
 9294SOL     OW28780   5.503   5.812   6.453
 9294SOL    HW128781   5.573   5.862   6.403
 9294SOL    HW228782   5.486   5.856   6.541
 9295SOL     OW28783   4.726   2.852   3.292
 9295SOL    HW128784   4.760   2.847   3.198
 9295SOL    HW228785   4.636   2.809   3.297
 9296SOL     OW28786   6.349   0.197   5.171
 9296SOL    HW128787   6.393   0.274   5.217
 9296SOL    HW228788   6.283   0.230   5.104
 9297SOL     OW28789   0.903   0.400   1.794
 9297SOL    HW128790   0.868   0.476   1.848
 9297SOL    HW228791   0.965   0.345   1.849
 9298SOL     OW28792   0.786   6.983   5.003
 9298SOL    HW128793   0.716   6.969   4.932
 9298SOL    HW228794   0.871   7.015   4.959
 9299SOL     OW28795   1.944   2.890   4.225
 9299SOL    HW128796   1.890   2.809   4.246
 9299SOL    HW228797   2.031   2.863   4.183
 9300SOL     OW28798   5.963   4.745   3.511
 9300SOL    HW128799   5.987   4.670   3.450
 9300SOL    HW228800   6.047   4.787   3.546
 9301SOL     OW28801   6.386   4.701   1.116
 9301SOL    HW128802   6.446   4.681   1.194
 9301SOL    HW228803   6.341   4.789   1.131
 9302SOL     OW28804   1.615   1.979   2.335
 9302SOL    HW128805   1.579   2.060   2.381
 9302SOL    HW228806   1.597   1.898   2.391
 9303SOL     OW28807   4.829   4.012   0.440
 9303SOL    HW128808   4.772   4.092   0.457
 9303SOL    HW228809   4.899   4.034   0.372
 9304SOL     OW28810   4.624   3.806   0.771
 9304SOL    HW128811   4.554   3.739   0.797
 9304SOL    HW228812   4.621   3.884   0.833
 9305SOL     OW28813   4.902   3.738   2.026
 9305SOL    HW128814   4.829   3.760   1.962
 9305SOL    HW228815   4.980   3.799   2.010
 9306SOL     OW28816   6.892   5.730   4.100
 9306SOL    HW128817   6.820   5.745   4.168
 9306SOL    HW228818   6.866   5.771   4.013
 9307SOL     OW28819   2.060   0.934   5.699
 9307SOL    HW128820   2.104   0.950   5.788
 9307SOL    HW228821   2.083   0.842   5.667
 9308SOL     OW28822   6.744   2.473   0.191
 9308SOL    HW128823   6.731   2.374   0.201
 9308SOL    HW228824   6.667   2.521   0.233
 9309SOL     OW28825   5.183   3.010   6.302
 9309SOL    HW128826   5.174   2.937   6.235
 9309SOL    HW228827   5.116   2.997   6.375
 9310SOL     OW28828   3.618   6.987   1.482
 9310SOL    HW128829   3.587   6.903   1.437
 9310SOL    HW228830   3.705   7.015   1.443
 9311SOL     OW28831   6.958   3.594   1.798
 9311SOL    HW128832   6.985   3.505   1.836
 9311SOL    HW228833   6.943   3.585   1.699
 9312SOL     OW28834   1.858   3.970   4.861
 9312SOL    HW128835   1.954   3.998   4.860
 9312SOL    HW228836   1.811   4.010   4.783
 9313SOL     OW28837   6.314   6.725   2.412
 9313SOL    HW128838   6.316   6.761   2.318
 9313SOL    HW228839   6.310   6.625   2.408
 9314SOL     OW28840   6.710   4.130   0.286
 9314SOL    HW128841   6.786   4.100   0.344
 9314SOL    HW228842   6.624   4.123   0.338
 9315SOL     OW28843   0.263   6.387   6.281
 9315SOL    HW128844   0.311   6.474   6.267
 9315SOL    HW228845   0.170   6.405   6.314
 9316SOL     OW28846   3.273   5.278   4.499
 9316SOL    HW128847   3.228   5.368   4.502
 9316SOL    HW228848   3.226   5.216   4.562
 9317SOL     OW28849   4.527   4.120   5.579
 9317SOL    HW128850   4.455   4.053   5.592
 9317SOL    HW228851   4.568   4.141   5.668
 9318SOL     OW28852   6.650   6.570   6.232
 9318SOL    HW128853   6.625   6.666   6.242
 9318SOL    HW228854   6.577   6.512   6.269
 9319SOL     OW28855   6.286   3.686   4.632
 9319SOL    HW128856   6.191   3.699   4.660
 9319SOL    HW228857   6.289   3.631   4.548
 9320SOL     OW28858   4.287   3.037   5.927
 9320SOL    HW128859   4.264   3.003   5.836
 9320SOL    HW228860   4.233   2.989   5.996
 9321SOL     OW28861   6.046   6.192   4.339
 9321SOL    HW128862   6.060   6.170   4.242
 9321SOL    HW228863   6.132   6.221   4.380
 9322SOL     OW28864   1.122   5.889   0.638
 9322SOL    HW128865   1.184   5.940   0.579
 9322SOL    HW228866   1.175   5.829   0.699
 9323SOL     OW28867   0.812   1.214   6.636
 9323SOL    HW128868   0.866   1.146   6.686
 9323SOL    HW228869   0.779   1.173   6.551
 9324SOL     OW28870   1.558   5.303   6.837
 9324SOL    HW128871   1.476   5.248   6.822
 9324SOL    HW228872   1.557   5.382   6.776
 9325SOL     OW28873   0.441   2.723   6.751
 9325SOL    HW128874   0.468   2.694   6.843
 9325SOL    HW228875   0.428   2.643   6.693
 9326SOL     OW28876   2.319   5.836   1.698
 9326SOL    HW128877   2.251   5.801   1.635
 9326SOL    HW228878   2.278   5.845   1.789
 9327SOL     OW28879   2.615   1.627   3.549
 9327SOL    HW128880   2.681   1.552   3.542
 9327SOL    HW228881   2.660   1.713   3.524
 9328SOL     OW28882   2.790   0.900   2.461
 9328SOL    HW128883   2.859   0.862   2.523
 9328SOL    HW228884   2.719   0.945   2.516
 9329SOL     OW28885   0.748   3.808   1.775
 9329SOL    HW128886   0.672   3.782   1.835
 9329SOL    HW228887   0.765   3.734   1.710
 9330SOL     OW28888   4.908   6.122   6.796
 9330SOL    HW128889   4.990   6.178   6.782
 9330SOL    HW228890   4.831   6.162   6.747
 9331SOL     OW28891   0.665   1.849   0.239
 9331SOL    HW128892   0.591   1.795   0.280
 9331SOL    HW228893   0.731   1.787   0.196
 9332SOL     OW28894   3.686   4.022   5.261
 9332SOL    HW128895   3.640   3.944   5.218
 9332SOL    HW228896   3.752   3.989   5.328
 9333SOL     OW28897   4.975   6.099   0.839
 9333SOL    HW128898   4.899   6.155   0.809
 9333SOL    HW228899   4.945   6.037   0.911
 9334SOL     OW28900   2.416   6.646   4.184
 9334SOL    HW128901   2.475   6.566   4.170
 9334SOL    HW228902   2.432   6.712   4.109
 9335SOL     OW28903   0.365   1.814   1.967
 9335SOL    HW128904   0.368   1.717   1.990
 9335SOL    HW228905   0.453   1.857   1.988
 9336SOL     OW28906   2.996   0.179   5.101
 9336SOL    HW128907   3.090   0.167   5.070
 9336SOL    HW228908   2.981   0.127   5.185
 9337SOL     OW28909   4.793   6.977   2.788
 9337SOL    HW128910   4.709   7.016   2.750
 9337SOL    HW228911   4.853   0.026   2.818
 9338SOL     OW28912   2.737   6.999   2.136
 9338SOL    HW128913   2.834   6.974   2.141
 9338SOL    HW228914   2.684   6.936   2.192
 9339SOL     OW28915   3.720   5.758   1.624
 9339SOL    HW128916   3.747   5.755   1.528
 9339SOL    HW228917   3.700   5.665   1.656
 9340SOL     OW28918   6.546   2.722   0.620
 9340SOL    HW128919   6.523   2.629   0.592
 9340SOL    HW228920   6.644   2.727   0.642
 9341SOL     OW28921   0.729   4.209   5.865
 9341SOL    HW128922   0.650   4.190   5.807
 9341SOL    HW228923   0.700   4.263   5.944
 9342SOL     OW28924   1.888   0.600   0.104
 9342SOL    HW128925   1.857   0.677   0.160
 9342SOL    HW228926   1.813   0.535   0.093
 9343SOL     OW28927   5.807   6.245   3.593
 9343SOL    HW128928   5.895   6.278   3.559
 9343SOL    HW228929   5.733   6.281   3.536
 9344SOL     OW28930   5.269   6.713   0.572
 9344SOL    HW128931   5.211   6.654   0.516
 9344SOL    HW228932   5.351   6.737   0.520
 9345SOL     OW28933   0.454   2.652   0.699
 9345SOL    HW128934   0.498   2.623   0.614
 9345SOL    HW228935   0.517   2.640   0.775
 9346SOL     OW28936   5.869   0.905   0.432
 9346SOL    HW128937   5.929   0.851   0.491
 9346SOL    HW228938   5.787   0.852   0.411
 9347SOL     OW28939   1.960   6.565   2.056
 9347SOL    HW128940   2.019   6.629   2.007
 9347SOL    HW228941   1.984   6.564   2.153
 9348SOL     OW28942   2.918   5.190   0.560
 9348SOL    HW128943   2.900   5.255   0.486
 9348SOL    HW228944   2.883   5.226   0.646
 9349SOL     OW28945   1.151   6.290   2.422
 9349SOL    HW128946   1.228   6.248   2.470
 9349SOL    HW228947   1.065   6.256   2.461
 9350SOL     OW28948   0.148   3.298   5.688
 9350SOL    HW128949   0.229   3.249   5.718
 9350SOL    HW228950   0.079   3.296   5.761
 9351SOL     OW28951   3.010   6.636   6.457
 9351SOL    HW128952   3.062   6.718   6.481
 9351SOL    HW228953   3.072   6.557   6.453
 9352SOL     OW28954   2.960   4.738   6.300
 9352SOL    HW128955   2.861   4.754   6.299
 9352SOL    HW228956   2.982   4.668   6.367
 9353SOL     OW28957   5.950   0.661   0.987
 9353SOL    HW128958   5.943   0.756   1.017
 9353SOL    HW228959   5.864   0.614   1.004
 9354SOL     OW28960   1.180   0.939   6.278
 9354SOL    HW128961   1.273   0.913   6.249
 9354SOL    HW228962   1.170   1.038   6.270
 9355SOL     OW28963   1.145   1.643   4.978
 9355SOL    HW128964   1.142   1.592   4.892
 9355SOL    HW228965   1.100   1.732   4.966
 9356SOL     OW28966   3.879   0.207   3.739
 9356SOL    HW128967   3.846   0.275   3.804
 9356SOL    HW228968   3.888   0.118   3.785
 9357SOL     OW28969   1.825   2.297   0.088
 9357SOL    HW128970   1.744   2.256   0.130
 9357SOL    HW228971   1.891   2.322   0.159
 9358SOL     OW28972   0.741   2.057   1.029
 9358SOL    HW128973   0.770   1.964   1.053
 9358SOL    HW228974   0.786   2.085   0.945
 9359SOL     OW28975   1.057   0.755   5.272
 9359SOL    HW128976   0.979   0.799   5.228
 9359SOL    HW228977   1.077   0.668   5.227
 9360SOL     OW28978   0.149   0.635   5.746
 9360SOL    HW128979   0.057   0.617   5.782
 9360SOL    HW228980   0.167   0.573   5.670
 9361SOL     OW28981   2.148   5.621   4.624
 9361SOL    HW128982   2.235   5.581   4.595
 9361SOL    HW228983   2.073   5.579   4.573
 9362SOL     OW28984   1.584   0.532   2.604
 9362SOL    HW128985   1.510   0.465   2.612
 9362SOL    HW228986   1.565   0.610   2.663
 9363SOL     OW28987   2.026   2.693   2.329
 9363SOL    HW128988   1.987   2.756   2.397
 9363SOL    HW228989   2.126   2.692   2.339
 9364SOL     OW28990   0.231   1.969   6.769
 9364SOL    HW128991   0.175   1.908   6.713
 9364SOL    HW228992   0.328   1.949   6.753
 9365SOL     OW28993   2.310   1.050   5.602
 9365SOL    HW128994   2.382   0.983   5.619
 9365SOL    HW228995   2.237   1.038   5.670
 9366SOL     OW28996   3.338   6.921   2.191
 9366SOL    HW128997   3.244   6.907   2.161
 9366SOL    HW228998   3.400   6.866   2.136
 9367SOL     OW28999   6.909   0.291   1.500
 9367SOL    HW129000   6.858   0.274   1.584
 9367SOL    HW229001   6.962   0.209   1.476
 9368SOL     OW29002   2.323   0.449   3.127
 9368SOL    HW129003   2.308   0.534   3.176
 9368SOL    HW229004   2.416   0.446   3.091
 9369SOL     OW29005   3.939   5.063   1.117
 9369SOL    HW129006   3.858   5.050   1.060
 9369SOL    HW229007   4.005   5.119   1.068
 9370SOL     OW29008   4.530   2.529   5.217
 9370SOL    HW129009   4.461   2.600   5.233
 9370SOL    HW229010   4.559   2.531   5.121
 9371SOL     OW29011   4.113   4.704   0.848
 9371SOL    HW129012   4.149   4.623   0.802
 9371SOL    HW229013   4.017   4.689   0.871
 9372SOL     OW29014   4.427   6.766   1.303
 9372SOL    HW129015   4.461   6.765   1.209
 9372SOL    HW229016   4.502   6.783   1.366
 9373SOL     OW29017   0.233   2.494   1.619
 9373SOL    HW129018   0.252   2.456   1.529
 9373SOL    HW229019   0.138   2.524   1.624
 9374SOL     OW29020   6.878   5.125   6.276
 9374SOL    HW129021   6.939   5.184   6.329
 9374SOL    HW229022   6.896   5.030   6.299
 9375SOL     OW29023   1.805   1.210   6.800
 9375SOL    HW129024   1.774   1.194   6.707
 9375SOL    HW229025   1.894   1.166   6.814
 9376SOL     OW29026   3.215   3.550   0.192
 9376SOL    HW129027   3.156   3.628   0.213
 9376SOL    HW229028   3.241   3.504   0.277
 9377SOL     OW29029   1.043   0.241   3.373
 9377SOL    HW129030   1.083   0.150   3.361
 9377SOL    HW229031   1.006   0.248   3.466
 9378SOL     OW29032   3.965   1.534   5.227
 9378SOL    HW129033   3.972   1.464   5.156
 9378SOL    HW229034   3.957   1.491   5.317
 9379SOL     OW29035   4.132   0.044   4.662
 9379SOL    HW129036   4.082   0.130   4.658
 9379SOL    HW229037   4.194   0.045   4.740
 9380SOL     OW29038   5.102   6.184   1.087
 9380SOL    HW129039   5.091   6.190   0.988
 9380SOL    HW229040   5.121   6.089   1.112
 9381SOL     OW29041   5.252   0.796   4.734
 9381SOL    HW129042   5.249   0.696   4.736
 9381SOL    HW229043   5.333   0.827   4.784
 9382SOL     OW29044   3.142   5.538   6.516
 9382SOL    HW129045   3.223   5.511   6.466
 9382SOL    HW229046   3.078   5.462   6.521
 9383SOL     OW29047   6.346   3.944   1.435
 9383SOL    HW129048   6.248   3.947   1.420
 9383SOL    HW229049   6.392   4.004   1.370
 9384SOL     OW29050   3.716   6.875   0.807
 9384SOL    HW129051   3.766   6.846   0.888
 9384SOL    HW229052   3.652   6.947   0.831
 9385SOL     OW29053   4.303   2.268   3.985
 9385SOL    HW129054   4.376   2.298   4.046
 9385SOL    HW229055   4.321   2.299   3.892
 9386SOL     OW29056   5.670   7.024   1.019
 9386SOL    HW129057   5.718   6.958   0.962
 9386SOL    HW229058   5.631   6.976   1.098
 9387SOL     OW29059   2.398   1.903   6.693
 9387SOL    HW129060   2.326   1.905   6.763
 9387SOL    HW229061   2.476   1.957   6.724
 9388SOL     OW29062   2.556   6.709   4.537
 9388SOL    HW129063   2.573   6.797   4.582
 9388SOL    HW229064   2.461   6.707   4.505
 9389SOL     OW29065   2.189   3.934   2.234
 9389SOL    HW129066   2.153   3.951   2.326
 9389SOL    HW229067   2.202   3.835   2.222
 9390SOL     OW29068   5.918   5.063   3.728
 9390SOL    HW129069   5.853   4.990   3.709
 9390SOL    HW229070   5.882   5.122   3.800
 9391SOL     OW29071   0.709   4.764   3.976
 9391SOL    HW129072   0.739   4.820   3.899
 9391SOL    HW229073   0.766   4.783   4.056
 9392SOL     OW29074   3.861   4.906   2.572
 9392SOL    HW129075   3.802   4.859   2.637
 9392SOL    HW229076   3.810   4.981   2.528
 9393SOL     OW29077   1.799   5.124   6.884
 9393SOL    HW129078   1.711   5.159   6.851
 9393SOL    HW229079   1.835   5.185   6.954
 9394SOL     OW29080   4.481   0.418   6.932
 9394SOL    HW129081   4.464   0.406   0.005
 9394SOL    HW229082   4.534   0.501   6.917
 9395SOL     OW29083   0.996   1.550   1.606
 9395SOL    HW129084   1.079   1.604   1.617
 9395SOL    HW229085   1.011   1.477   1.540
 9396SOL     OW29086   1.063   0.752   6.408
 9396SOL    HW129087   1.113   0.825   6.362
 9396SOL    HW229088   0.998   0.711   6.345
 9397SOL     OW29089   3.230   1.620   5.124
 9397SOL    HW129090   3.313   1.565   5.118
 9397SOL    HW229091   3.235   1.681   5.203
 9398SOL     OW29092   6.817   2.117   6.702
 9398SOL    HW129093   6.741   2.107   6.766
 9398SOL    HW229094   6.832   2.030   6.654
 9399SOL     OW29095   1.325   2.398   4.403
 9399SOL    HW129096   1.389   2.372   4.330
 9399SOL    HW229097   1.375   2.411   4.488
 9400SOL     OW29098   6.147   0.996   1.143
 9400SOL    HW129099   6.172   0.967   1.235
 9400SOL    HW229100   6.057   0.960   1.120
 9401SOL     OW29101   0.168   2.203   3.086
 9401SOL    HW129102   0.096   2.194   3.155
 9401SOL    HW229103   0.148   2.142   3.009
 9402SOL     OW29104   3.388   6.289   5.561
 9402SOL    HW129105   3.410   6.292   5.464
 9402SOL    HW229106   3.420   6.204   5.601
 9403SOL     OW29107   5.458   1.983   1.198
 9403SOL    HW129108   5.519   1.921   1.149
 9403SOL    HW229109   5.440   1.948   1.289
 9404SOL     OW29110   2.450   2.347   0.862
 9404SOL    HW129111   2.368   2.358   0.805
 9404SOL    HW229112   2.531   2.352   0.805
 9405SOL     OW29113   6.057   5.795   5.076
 9405SOL    HW129114   6.101   5.736   5.143
 9405SOL    HW229115   6.126   5.855   5.034
 9406SOL     OW29116   1.634   1.089   1.215
 9406SOL    HW129117   1.694   1.168   1.199
 9406SOL    HW229118   1.682   1.006   1.187
 9407SOL     OW29119   1.535   4.692   4.552
 9407SOL    HW129120   1.440   4.661   4.540
 9407SOL    HW229121   1.588   4.621   4.597
 9408SOL     OW29122   5.791   4.812   3.699
 9408SOL    HW129123   5.835   4.777   3.616
 9408SOL    HW229124   5.692   4.813   3.687
 9409SOL     OW29125   5.822   5.527   1.456
 9409SOL    HW129126   5.916   5.504   1.430
 9409SOL    HW229127   5.808   5.625   1.450
 9410SOL     OW29128   4.500   0.068   0.508
 9410SOL    HW129129   4.486   0.153   0.457
 9410SOL    HW229130   4.584   0.024   0.476
 9411SOL     OW29131   3.106   3.492   3.878
 9411SOL    HW129132   3.035   3.559   3.899
 9411SOL    HW229133   3.109   3.477   3.779
 9412SOL     OW29134   4.132   6.808   1.557
 9412SOL    HW129135   4.100   6.901   1.575
 9412SOL    HW229136   4.217   6.791   1.607
 9413SOL     OW29137   4.087   4.946   3.539
 9413SOL    HW129138   4.138   4.865   3.511
 9413SOL    HW229139   3.989   4.928   3.532
 9414SOL     OW29140   1.986   0.883   2.253
 9414SOL    HW129141   1.940   0.812   2.199
 9414SOL    HW229142   1.918   0.949   2.285
 9415SOL     OW29143   4.978   0.436   0.831
 9415SOL    HW129144   5.070   0.405   0.810
 9415SOL    HW229145   4.960   0.522   0.784
 9416SOL     OW29146   6.488   4.872   5.468
 9416SOL    HW129147   6.472   4.852   5.371
 9416SOL    HW229148   6.426   4.817   5.524
 9417SOL     OW29149   3.903   6.211   3.061
 9417SOL    HW129150   3.873   6.132   3.114
 9417SOL    HW229151   3.964   6.268   3.116
 9418SOL     OW29152   2.885   2.100   4.670
 9418SOL    HW129153   2.915   2.139   4.758
 9418SOL    HW229154   2.896   2.168   4.598
 9419SOL     OW29155   2.418   2.281   6.208
 9419SOL    HW129156   2.413   2.306   6.112
 9419SOL    HW229157   2.419   2.364   6.264
 9420SOL     OW29158   5.658   3.156   5.865
 9420SOL    HW129159   5.674   3.061   5.839
 9420SOL    HW229160   5.630   3.209   5.785
 9421SOL     OW29161   3.801   6.662   0.409
 9421SOL    HW129162   3.879   6.615   0.368
 9421SOL    HW229163   3.791   6.632   0.504
 9422SOL     OW29164   2.076   6.264   5.943
 9422SOL    HW129165   2.142   6.326   5.900
 9422SOL    HW229166   2.091   6.171   5.908
 9423SOL     OW29167   4.554   5.092   0.607
 9423SOL    HW129168   4.640   5.043   0.591
 9423SOL    HW229169   4.481   5.048   0.555
 9424SOL     OW29170   6.140   6.963   3.425
 9424SOL    HW129171   6.219   6.902   3.434
 9424SOL    HW229172   6.058   6.917   3.461
 9425SOL     OW29173   6.714   5.756   1.198
 9425SOL    HW129174   6.735   5.667   1.158
 9425SOL    HW229175   6.680   5.743   1.291
 9426SOL     OW29176   4.103   2.103   6.366
 9426SOL    HW129177   4.135   2.030   6.425
 9426SOL    HW229178   4.119   2.191   6.410
 9427SOL     OW29179   3.802   5.534   2.306
 9427SOL    HW129180   3.759   5.480   2.377
 9427SOL    HW229181   3.875   5.481   2.263
 9428SOL     OW29182   0.378   6.272   4.895
 9428SOL    HW129183   0.298   6.241   4.844
 9428SOL    HW229184   0.461   6.242   4.848
 9429SOL     OW29185   3.011   2.236   4.114
 9429SOL    HW129186   3.106   2.267   4.115
 9429SOL    HW229187   3.004   2.149   4.162
 9430SOL     OW29188   1.429   6.818   4.002
 9430SOL    HW129189   1.374   6.750   4.051
 9430SOL    HW229190   1.441   6.790   3.907
 9431SOL     OW29191   1.317   4.983   4.744
 9431SOL    HW129192   1.260   5.004   4.824
 9431SOL    HW229193   1.258   4.963   4.666
 9432SOL     OW29194   6.836   1.324   3.179
 9432SOL    HW129195   6.766   1.395   3.178
 9432SOL    HW229196   6.926   1.366   3.195
 9433SOL     OW29197   3.850   5.383   1.816
 9433SOL    HW129198   3.773   5.355   1.873
 9433SOL    HW229199   3.889   5.468   1.851
 9434SOL     OW29200   4.932   5.763   5.433
 9434SOL    HW129201   4.881   5.677   5.429
 9434SOL    HW229202   4.881   5.830   5.487
 9435SOL     OW29203   6.475   3.964   6.526
 9435SOL    HW129204   6.565   3.970   6.482
 9435SOL    HW229205   6.419   3.897   6.478
 9436SOL     OW29206   2.909   1.929   2.595
 9436SOL    HW129207   3.004   1.935   2.564
 9436SOL    HW229208   2.870   2.022   2.600
 9437SOL     OW29209   4.914   1.352   3.913
 9437SOL    HW129210   4.854   1.280   3.949
 9437SOL    HW229211   4.956   1.402   3.989
 9438SOL     OW29212   5.467   0.541   2.832
 9438SOL    HW129213   5.430   0.632   2.853
 9438SOL    HW229214   5.474   0.488   2.917
 9439SOL     OW29215   1.974   4.714   1.194
 9439SOL    HW129216   1.905   4.698   1.264
 9439SOL    HW229217   2.058   4.745   1.236
 9440SOL     OW29218   2.023   5.543   5.134
 9440SOL    HW129219   2.010   5.492   5.048
 9440SOL    HW229220   2.086   5.493   5.193
 9441SOL     OW29221   6.705   6.243   4.003
 9441SOL    HW129222   6.800   6.272   4.011
 9441SOL    HW229223   6.698   6.144   4.018
 9442SOL     OW29224   6.455   2.515   0.982
 9442SOL    HW129225   6.415   2.588   0.927
 9442SOL    HW229226   6.523   2.553   1.044
 9443SOL     OW29227   1.764   4.626   1.392
 9443SOL    HW129228   1.802   4.538   1.364
 9443SOL    HW229229   1.672   4.612   1.430
 9444SOL     OW29230   2.156   5.749   6.038
 9444SOL    HW129231   2.137   5.651   6.046
 9444SOL    HW229232   2.071   5.798   6.018
 9445SOL     OW29233   0.838   0.698   4.174
 9445SOL    HW129234   0.858   0.736   4.264
 9445SOL    HW229235   0.764   0.631   4.182
 9446SOL     OW29236   5.472   5.238   3.993
 9446SOL    HW129237   5.506   5.298   3.920
 9446SOL    HW229238   5.373   5.248   4.001
 9447SOL     OW29239   5.724   5.205   2.018
 9447SOL    HW129240   5.711   5.109   1.994
 9447SOL    HW229241   5.640   5.256   2.002
 9448SOL     OW29242   4.654   2.519   6.125
 9448SOL    HW129243   4.705   2.442   6.163
 9448SOL    HW229244   4.569   2.487   6.084
 9449SOL     OW29245   4.743   6.870   3.059
 9449SOL    HW129246   4.730   6.896   2.964
 9449SOL    HW229247   4.734   6.951   3.117
 9450SOL     OW29248   0.732   0.380   2.248
 9450SOL    HW129249   0.733   0.325   2.164
 9450SOL    HW229250   0.689   0.469   2.229
 9451SOL     OW29251   3.884   5.647   0.485
 9451SOL    HW129252   3.829   5.613   0.561
 9451SOL    HW229253   3.843   5.618   0.398
 9452SOL     OW29254   6.160   3.112   6.319
 9452SOL    HW129255   6.250   3.154   6.325
 9452SOL    HW229256   6.117   3.137   6.232
 9453SOL     OW29257   6.855   4.753   2.408
 9453SOL    HW129258   6.839   4.790   2.317
 9453SOL    HW229259   6.849   4.653   2.405
 9454SOL     OW29260   5.168   5.426   0.354
 9454SOL    HW129261   5.195   5.484   0.431
 9454SOL    HW229262   5.230   5.348   0.347
 9455SOL     OW29263   4.750   0.675   1.486
 9455SOL    HW129264   4.816   0.750   1.479
 9455SOL    HW229265   4.746   0.626   1.399
 9456SOL     OW29266   6.684   2.896   2.151
 9456SOL    HW129267   6.668   2.829   2.078
 9456SOL    HW229268   6.707   2.848   2.236
 9457SOL     OW29269   6.659   6.464   4.392
 9457SOL    HW129270   6.671   6.393   4.461
 9457SOL    HW229271   6.597   6.534   4.427
 9458SOL     OW29272   0.149   4.190   0.121
 9458SOL    HW129273   0.188   4.280   0.140
 9458SOL    HW229274   0.050   4.193   0.135
 9459SOL     OW29275   5.090   4.517   5.184
 9459SOL    HW129276   4.993   4.510   5.208
 9459SOL    HW229277   5.109   4.609   5.149
 9460SOL     OW29278   1.946   2.875   3.082
 9460SOL    HW129279   1.901   2.793   3.115
 9460SOL    HW229280   2.033   2.850   3.039
 9461SOL     OW29281   1.657   1.754   1.378
 9461SOL    HW129282   1.616   1.698   1.306
 9461SOL    HW229283   1.712   1.826   1.337
 9462SOL     OW29284   0.004   1.174   5.525
 9462SOL    HW129285   0.081   1.237   5.521
 9462SOL    HW229286   0.011   1.108   5.450
 9463SOL     OW29287   6.743   5.485   0.534
 9463SOL    HW129288   6.654   5.459   0.573
 9463SOL    HW229289   6.812   5.417   0.560
 9464SOL     OW29290   1.295   0.432   2.230
 9464SOL    HW129291   1.382   0.480   2.247
 9464SOL    HW229292   1.307   0.365   2.157
 9465SOL     OW29293   0.290   6.035   7.007
 9465SOL    HW129294   0.228   5.996   0.050
 9465SOL    HW229295   0.384   6.031   0.017
 9466SOL     OW29296   4.116   4.242   6.020
 9466SOL    HW129297   4.094   4.335   5.992
 9466SOL    HW229298   4.063   4.219   6.102
 9467SOL     OW29299   1.499   3.785   1.354
 9467SOL    HW129300   1.510   3.874   1.398
 9467SOL    HW229301   1.477   3.716   1.423
 9468SOL     OW29302   6.483   1.560   1.295
 9468SOL    HW129303   6.537   1.486   1.336
 9468SOL    HW229304   6.434   1.609   1.367
 9469SOL     OW29305   6.293   6.593   1.808
 9469SOL    HW129306   6.356   6.543   1.749
 9469SOL    HW229307   6.234   6.528   1.856
 9470SOL     OW29308   3.850   3.497   1.092
 9470SOL    HW129309   3.837   3.405   1.130
 9470SOL    HW229310   3.864   3.490   0.993
 9471SOL     OW29311   6.353   3.234   4.348
 9471SOL    HW129312   6.428   3.167   4.349
 9471SOL    HW229313   6.325   3.251   4.253
 9472SOL     OW29314   2.646   4.106   6.063
 9472SOL    HW129315   2.552   4.096   6.097
 9472SOL    HW229316   2.693   4.018   6.070
 9473SOL     OW29317   3.005   2.996   1.722
 9473SOL    HW129318   3.035   3.029   1.633
 9473SOL    HW229319   2.959   2.907   1.711
 9474SOL     OW29320   6.475   4.301   0.757
 9474SOL    HW129321   6.410   4.368   0.721
 9474SOL    HW229322   6.457   4.212   0.715
 9475SOL     OW29323   6.047   3.356   6.844
 9475SOL    HW129324   6.058   3.350   6.943
 9475SOL    HW229325   6.017   3.448   6.819
 9476SOL     OW29326   3.725   4.021   0.894
 9476SOL    HW129327   3.717   3.928   0.858
 9476SOL    HW229328   3.820   4.052   0.885
 9477SOL     OW29329   1.538   5.990   0.553
 9477SOL    HW129330   1.551   5.896   0.585
 9477SOL    HW229331   1.440   6.007   0.539
 9478SOL     OW29332   6.858   3.222   5.795
 9478SOL    HW129333   6.801   3.235   5.876
 9478SOL    HW229334   6.842   3.131   5.757
 9479SOL     OW29335   4.664   1.184   1.882
 9479SOL    HW129336   4.701   1.249   1.948
 9479SOL    HW229337   4.565   1.179   1.892
 9480SOL     OW29338   5.282   0.634   0.651
 9480SOL    HW129339   5.340   0.563   0.691
 9480SOL    HW229340   5.197   0.592   0.616
 9481SOL     OW29341   4.495   0.065   3.651
 9481SOL    HW129342   4.445   0.150   3.662
 9481SOL    HW229343   4.433   7.013   3.660
 9482SOL     OW29344   6.305   4.354   5.574
 9482SOL    HW129345   6.295   4.258   5.597
 9482SOL    HW229346   6.344   4.404   5.652
 9483SOL     OW29347   6.316   5.211   6.542
 9483SOL    HW129348   6.380   5.272   6.495
 9483SOL    HW229349   6.316   5.122   6.498
 9484SOL     OW29350   1.654   5.526   4.094
 9484SOL    HW129351   1.610   5.440   4.122
 9484SOL    HW229352   1.595   5.603   4.119
 9485SOL     OW29353   0.550   1.225   5.212
 9485SOL    HW129354   0.638   1.245   5.168
 9485SOL    HW229355   0.540   1.126   5.223
 9486SOL     OW29356   6.881   5.715   6.584
 9486SOL    HW129357   6.795   5.753   6.618
 9486SOL    HW229358   6.910   5.641   6.646
 9487SOL     OW29359   3.206   3.060   3.375
 9487SOL    HW129360   3.261   3.121   3.318
 9487SOL    HW229361   3.173   2.984   3.319
 9488SOL     OW29362   1.076   0.934   2.519
 9488SOL    HW129363   1.030   0.988   2.448
 9488SOL    HW229364   1.135   0.866   2.476
 9489SOL     OW29365   6.806   4.260   6.604
 9489SOL    HW129366   6.852   4.209   6.677
 9489SOL    HW229367   6.870   4.327   6.566
 9490SOL     OW29368   5.717   3.550   5.239
 9490SOL    HW129369   5.804   3.537   5.192
 9490SOL    HW229370   5.665   3.622   5.194
 9491SOL     OW29371   4.911   6.874   1.958
 9491SOL    HW129372   4.854   6.833   1.886
 9491SOL    HW229373   4.982   6.930   1.916
 9492SOL     OW29374   4.868   3.353   3.765
 9492SOL    HW129375   4.935   3.332   3.837
 9492SOL    HW229376   4.871   3.450   3.744
 9493SOL     OW29377   3.091   6.296   2.272
 9493SOL    HW129378   3.088   6.322   2.176
 9493SOL    HW229379   3.000   6.266   2.301
 9494SOL     OW29380   5.009   2.361   2.587
 9494SOL    HW129381   4.951   2.324   2.660
 9494SOL    HW229382   5.101   2.376   2.621
 9495SOL     OW29383   5.119   3.365   1.175
 9495SOL    HW129384   5.085   3.457   1.156
 9495SOL    HW229385   5.042   3.301   1.174
 9496SOL     OW29386   6.255   3.317   1.273
 9496SOL    HW129387   6.241   3.366   1.187
 9496SOL    HW229388   6.169   3.274   1.300
 9497SOL     OW29389   4.803   4.046   4.957
 9497SOL    HW129390   4.854   4.022   4.874
 9497SOL    HW229391   4.751   4.130   4.941
 9498SOL     OW29392   0.876   6.213   5.905
 9498SOL    HW129393   0.846   6.120   5.883
 9498SOL    HW229394   0.972   6.224   5.879
 9499SOL     OW29395   5.615   6.653   3.762
 9499SOL    HW129396   5.537   6.711   3.786
 9499SOL    HW229397   5.613   6.633   3.664
 9500SOL     OW29398   3.066   1.985   0.643
 9500SOL    HW129399   2.970   1.972   0.666
 9500SOL    HW229400   3.102   2.065   0.691
 9501SOL     OW29401   1.477   3.525   5.327
 9501SOL    HW129402   1.526   3.606   5.295
 9501SOL    HW229403   1.540   3.466   5.378
 9502SOL     OW29404   5.957   4.327   3.674
 9502SOL    HW129405   5.974   4.388   3.597
 9502SOL    HW229406   5.899   4.373   3.741
 9503SOL     OW29407   6.310   1.131   0.066
 9503SOL    HW129408   6.297   1.207   0.129
 9503SOL    HW229409   6.231   1.123   0.005
 9504SOL     OW29410   6.602   5.135   2.883
 9504SOL    HW129411   6.616   5.037   2.899
 9504SOL    HW229412   6.658   5.188   2.947
 9505SOL     OW29413   4.675   3.205   0.025
 9505SOL    HW129414   4.619   3.227   0.105
 9505SOL    HW229415   4.708   3.289   7.007
 9506SOL     OW29416   3.630   1.492   1.629
 9506SOL    HW129417   3.580   1.416   1.587
 9506SOL    HW229418   3.614   1.576   1.576
 9507SOL     OW29419   6.626   5.946   1.833
 9507SOL    HW129420   6.693   5.872   1.836
 9507SOL    HW229421   6.665   6.025   1.785
 9508SOL     OW29422   5.292   1.431   2.272
 9508SOL    HW129423   5.194   1.446   2.273
 9508SOL    HW229424   5.331   1.461   2.360
 9509SOL     OW29425   6.073   1.528   3.931
 9509SOL    HW129426   6.046   1.435   3.909
 9509SOL    HW229427   6.046   1.549   4.025
 9510SOL     OW29428   1.540   3.746   2.051
 9510SOL    HW129429   1.533   3.823   2.115
 9510SOL    HW229430   1.545   3.781   1.958
 9511SOL     OW29431   0.781   1.777   0.742
 9511SOL    HW129432   0.758   1.841   0.669
 9511SOL    HW229433   0.757   1.684   0.714
 9512SOL     OW29434   6.057   2.851   1.476
 9512SOL    HW129435   6.078   2.790   1.553
 9512SOL    HW229436   6.132   2.848   1.410
 9513SOL     OW29437   4.849   3.989   4.696
 9513SOL    HW129438   4.850   4.089   4.694
 9513SOL    HW229439   4.834   3.954   4.604
 9514SOL     OW29440   3.709   3.433   1.363
 9514SOL    HW129441   3.666   3.389   1.285
 9514SOL    HW229442   3.670   3.525   1.376
 9515SOL     OW29443   6.947   6.397   2.959
 9515SOL    HW129444   6.857   6.383   2.916
 9515SOL    HW229445   7.018   6.394   2.888
 9516SOL     OW29446   0.702   3.369   6.681
 9516SOL    HW129447   0.733   3.462   6.658
 9516SOL    HW229448   0.773   3.324   6.735
 9517SOL     OW29449   1.071   6.565   2.012
 9517SOL    HW129450   1.044   6.494   2.076
 9517SOL    HW229451   1.168   6.557   1.991
 9518SOL     OW29452   0.226   0.484   1.426
 9518SOL    HW129453   0.131   0.506   1.445
 9518SOL    HW229454   0.233   0.390   1.393
 9519SOL     OW29455   1.882   2.840   5.970
 9519SOL    HW129456   1.907   2.821   5.875
 9519SOL    HW229457   1.783   2.843   5.978
 9520SOL     OW29458   4.401   6.976   2.064
 9520SOL    HW129459   4.360   0.035   2.028
 9520SOL    HW229460   4.328   6.913   2.091
 9521SOL     OW29461   5.375   5.010   3.322
 9521SOL    HW129462   5.420   5.099   3.323
 9521SOL    HW229463   5.404   4.959   3.242
 9522SOL     OW29464   3.424   5.189   5.890
 9522SOL    HW129465   3.368   5.222   5.814
 9522SOL    HW229466   3.368   5.180   5.972
 9523SOL     OW29467   1.606   0.098   5.042
 9523SOL    HW129468   1.517   0.058   5.061
 9523SOL    HW229469   1.619   0.180   5.098
 9524SOL     OW29470   6.247   3.209   0.382
 9524SOL    HW129471   6.344   3.191   0.366
 9524SOL    HW229472   6.237   3.270   0.460
 9525SOL     OW29473   3.807   0.154   4.259
 9525SOL    HW129474   3.812   0.074   4.318
 9525SOL    HW229475   3.897   0.171   4.218
 9526SOL     OW29476   4.544   5.336   0.387
 9526SOL    HW129477   4.450   5.369   0.382
 9526SOL    HW229478   4.544   5.236   0.399
 9527SOL     OW29479   6.980   1.431   0.407
 9527SOL    HW129480   6.993   1.480   0.321
 9527SOL    HW229481   0.027   1.363   0.418
 9528SOL     OW29482   5.802   1.194   1.436
 9528SOL    HW129483   5.827   1.103   1.402
 9528SOL    HW229484   5.703   1.202   1.441
 9529SOL     OW29485   1.930   2.761   5.721
 9529SOL    HW129486   1.932   2.838   5.657
 9529SOL    HW229487   2.006   2.700   5.701
 9530SOL     OW29488   2.158   1.194   3.782
 9530SOL    HW129489   2.208   1.263   3.833
 9530SOL    HW229490   2.150   1.221   3.686
 9531SOL     OW29491   2.670   6.289   3.847
 9531SOL    HW129492   2.579   6.262   3.879
 9531SOL    HW229493   2.661   6.342   3.763
 9532SOL     OW29494   3.442   1.311   1.540
 9532SOL    HW129495   3.490   1.229   1.510
 9532SOL    HW229496   3.409   1.299   1.633
 9533SOL     OW29497   0.336   1.806   4.211
 9533SOL    HW129498   0.315   1.712   4.240
 9533SOL    HW229499   0.254   1.862   4.221
 9534SOL     OW29500   5.184   1.119   4.217
 9534SOL    HW129501   5.091   1.127   4.252
 9534SOL    HW229502   5.203   1.194   4.153
 9535SOL     OW29503   2.752   1.638   4.637
 9535SOL    HW129504   2.794   1.718   4.679
 9535SOL    HW229505   2.667   1.665   4.591
 9536SOL     OW29506   2.160   5.603   6.902
 9536SOL    HW129507   2.239   5.565   6.949
 9536SOL    HW229508   2.190   5.670   6.834
 9537SOL     OW29509   2.042   0.054   0.422
 9537SOL    HW129510   1.970   0.003   0.469
 9537SOL    HW229511   2.131   0.023   0.454
 9538SOL     OW29512   5.739   4.126   2.806
 9538SOL    HW129513   5.832   4.091   2.814
 9538SOL    HW229514   5.739   4.226   2.816
 9539SOL     OW29515   0.787   3.545   7.016
 9539SOL    HW129516   0.796   3.459   0.041
 9539SOL    HW229517   0.870   3.600   0.004
 9540SOL     OW29518   5.761   3.106   5.236
 9540SOL    HW129519   5.786   3.191   5.282
 9540SOL    HW229520   5.662   3.106   5.219
 9541SOL     OW29521   6.337   2.057   3.585
 9541SOL    HW129522   6.355   2.145   3.539
 9541SOL    HW229523   6.240   2.037   3.580
 9542SOL     OW29524   4.918   3.647   4.499
 9542SOL    HW129525   4.843   3.581   4.497
 9542SOL    HW229526   4.980   3.625   4.574
 9543SOL     OW29527   4.381   1.894   0.542
 9543SOL    HW129528   4.289   1.854   0.551
 9543SOL    HW229529   4.384   1.952   0.461
 9544SOL     OW29530   5.190   0.129   1.433
 9544SOL    HW129531   5.156   0.201   1.373
 9544SOL    HW229532   5.114   0.094   1.489
 9545SOL     OW29533   1.430   6.528   4.661
 9545SOL    HW129534   1.342   6.503   4.619
 9545SOL    HW229535   1.481   6.445   4.682
 9546SOL     OW29536   2.922   3.841   1.858
 9546SOL    HW129537   2.924   3.766   1.924
 9546SOL    HW229538   2.965   3.922   1.897
 9547SOL     OW29539   5.360   6.308   2.446
 9547SOL    HW129540   5.403   6.236   2.391
 9547SOL    HW229541   5.397   6.397   2.420
 9548SOL     OW29542   6.168   6.479   2.085
 9548SOL    HW129543   6.110   6.409   2.125
 9548SOL    HW229544   6.257   6.480   2.131
 9549SOL     OW29545   1.997   5.874   6.970
 9549SOL    HW129546   1.985   5.919   0.034
 9549SOL    HW229547   2.047   5.788   6.983
 9550SOL     OW29548   1.708   0.227   0.470
 9550SOL    HW129549   1.666   0.189   0.387
 9550SOL    HW229550   1.720   0.326   0.459
 9551SOL     OW29551   1.380   5.604   4.604
 9551SOL    HW129552   1.325   5.553   4.670
 9551SOL    HW229553   1.321   5.634   4.529
 9552SOL     OW29554   6.780   5.267   3.001
 9552SOL    HW129555   6.768   5.367   3.005
 9552SOL    HW229556   6.859   5.245   2.944
 9553SOL     OW29557   5.992   4.440   6.712
 9553SOL    HW129558   5.982   4.403   6.619
 9553SOL    HW229559   5.933   4.390   6.775
 9554SOL     OW29560   1.750   2.451   1.772
 9554SOL    HW129561   1.706   2.396   1.702
 9554SOL    HW229562   1.786   2.391   1.844
 9555SOL     OW29563   0.067   2.390   6.676
 9555SOL    HW129564   0.005   2.401   6.599
 9555SOL    HW229565   0.063   2.470   6.735
 9556SOL     OW29566   6.196   0.008   1.234
 9556SOL    HW129567   6.210   7.012   1.331
 9556SOL    HW229568   6.099   0.011   1.214
 9557SOL     OW29569   5.368   2.016   1.850
 9557SOL    HW129570   5.463   2.006   1.818
 9557SOL    HW229571   5.363   2.089   1.918
 9558SOL     OW29572   6.886   3.867   1.448
 9558SOL    HW129573   6.871   3.965   1.460
 9558SOL    HW229574   6.810   3.817   1.488
 9559SOL     OW29575   0.994   4.740   3.446
 9559SOL    HW129576   1.045   4.822   3.420
 9559SOL    HW229577   0.899   4.749   3.416
 9560SOL     OW29578   3.776   1.886   5.902
 9560SOL    HW129579   3.696   1.895   5.842
 9560SOL    HW229580   3.779   1.794   5.940
 9561SOL     OW29581   3.461   4.976   6.936
 9561SOL    HW129582   3.473   4.948   0.007
 9561SOL    HW229583   3.368   5.011   6.924
 9562SOL     OW29584   6.734   5.524   3.888
 9562SOL    HW129585   6.757   5.486   3.977
 9562SOL    HW229586   6.776   5.468   3.816
 9563SOL     OW29587   0.604   0.607   6.141
 9563SOL    HW129588   0.569   0.513   6.142
 9563SOL    HW229589   0.530   0.670   6.165
 9564SOL     OW29590   0.549   0.369   5.842
 9564SOL    HW129591   0.626   0.336   5.896
 9564SOL    HW229592   0.465   0.322   5.870
 9565SOL     OW29593   2.773   5.252   5.218
 9565SOL    HW129594   2.849   5.189   5.230
 9565SOL    HW229595   2.744   5.288   5.307
 9566SOL     OW29596   2.413   5.697   5.167
 9566SOL    HW129597   2.321   5.735   5.158
 9566SOL    HW229598   2.475   5.769   5.199
 9567SOL     OW29599   6.252   5.357   4.132
 9567SOL    HW129600   6.199   5.399   4.059
 9567SOL    HW229601   6.270   5.425   4.203
 9568SOL     OW29602   6.121   3.318   5.329
 9568SOL    HW129603   6.031   3.275   5.318
 9568SOL    HW229604   6.186   3.276   5.265
 9569SOL     OW29605   5.177   0.035   1.127
 9569SOL    HW129606   5.221   6.984   1.079
 9569SOL    HW229607   5.248   0.094   1.168
 9570SOL     OW29608   0.477   2.914   6.507
 9570SOL    HW129609   0.496   2.966   6.590
 9570SOL    HW229610   0.441   2.975   6.437
 9571SOL     OW29611   3.615   1.728   0.413
 9571SOL    HW129612   3.591   1.759   0.321
 9571SOL    HW229613   3.598   1.801   0.478
 9572SOL     OW29614   0.662   3.422   0.819
 9572SOL    HW129615   0.601   3.399   0.894
 9572SOL    HW229616   0.656   3.520   0.799
 9573SOL     OW29617   4.758   1.968   2.041
 9573SOL    HW129618   4.666   2.007   2.050
 9573SOL    HW229619   4.765   1.887   2.099
 9574SOL     OW29620   1.633   1.522   3.962
 9574SOL    HW129621   1.597   1.581   4.035
 9574SOL    HW229622   1.687   1.578   3.899
 9575SOL     OW29623   3.581   1.732   2.751
 9575SOL    HW129624   3.493   1.775   2.731
 9575SOL    HW229625   3.571   1.674   2.832
 9576SOL     OW29626   4.088   3.246   5.988
 9576SOL    HW129627   4.166   3.187   5.969
 9576SOL    HW229628   4.066   3.241   6.085
 9577SOL     OW29629   0.574   5.264   3.487
 9577SOL    HW129630   0.624   5.329   3.431
 9577SOL    HW229631   0.571   5.175   3.441
 9578SOL     OW29632   6.602   4.614   0.854
 9578SOL    HW129633   6.615   4.572   0.944
 9578SOL    HW229634   6.504   4.614   0.831
 9579SOL     OW29635   1.410   4.840   2.879
 9579SOL    HW129636   1.400   4.896   2.796
 9579SOL    HW229637   1.441   4.748   2.854
 9580SOL     OW29638   3.881   4.154   5.098
 9580SOL    HW129639   3.809   4.111   5.151
 9580SOL    HW229640   3.877   4.122   5.003
 9581SOL     OW29641   0.913   0.059   6.580
 9581SOL    HW129642   0.898   0.150   6.543
 9581SOL    HW229643   0.917   7.018   6.505
 9582SOL     OW29644   4.214   5.897   3.619
 9582SOL    HW129645   4.253   5.831   3.555
 9582SOL    HW229646   4.220   5.989   3.579
 9583SOL     OW29647   1.117   4.742   2.846
 9583SOL    HW129648   1.193   4.806   2.851
 9583SOL    HW229649   1.151   4.652   2.820
 9584SOL     OW29650   5.338   4.252   6.747
 9584SOL    HW129651   5.343   4.330   6.686
 9584SOL    HW229652   5.430   4.225   6.776
 9585SOL     OW29653   6.250   0.843   2.677
 9585SOL    HW129654   6.168   0.857   2.622
 9585SOL    HW229655   6.232   0.777   2.749
 9586SOL     OW29656   4.498   4.580   2.479
 9586SOL    HW129657   4.467   4.626   2.396
 9586SOL    HW229658   4.492   4.481   2.466
 9587SOL     OW29659   4.540   6.330   1.592
 9587SOL    HW129660   4.479   6.275   1.534
 9587SOL    HW229661   4.526   6.304   1.688
 9588SOL     OW29662   6.316   1.303   3.709
 9588SOL    HW129663   6.303   1.383   3.767
 9588SOL    HW229664   6.238   1.292   3.648
 9589SOL     OW29665   4.202   1.953   5.081
 9589SOL    HW129666   4.145   1.940   5.162
 9589SOL    HW229667   4.165   2.028   5.026
 9590SOL     OW29668   0.390   4.857   4.472
 9590SOL    HW129669   0.484   4.828   4.489
 9590SOL    HW229670   0.327   4.788   4.507
 9591SOL     OW29671   6.832   4.476   2.308
 9591SOL    HW129672   6.926   4.452   2.332
 9591SOL    HW229673   6.832   4.524   2.220
 9592SOL     OW29674   4.253   5.420   0.766
 9592SOL    HW129675   4.202   5.502   0.740
 9592SOL    HW229676   4.212   5.340   0.722
 9593SOL     OW29677   2.203   2.453   3.639
 9593SOL    HW129678   2.252   2.404   3.566
 9593SOL    HW229679   2.132   2.511   3.598
 9594SOL     OW29680   5.697   0.038   0.565
 9594SOL    HW129681   5.677   0.056   0.469
 9594SOL    HW229682   5.794   0.055   0.583
 9595SOL     OW29683   2.279   4.876   5.432
 9595SOL    HW129684   2.220   4.956   5.430
 9595SOL    HW229685   2.244   4.807   5.368
 9596SOL     OW29686   5.510   4.969   2.211
 9596SOL    HW129687   5.527   5.064   2.237
 9596SOL    HW229688   5.429   4.936   2.259
 9597SOL     OW29689   1.633   4.154   1.921
 9597SOL    HW129690   1.563   4.217   1.887
 9597SOL    HW229691   1.640   4.164   2.021
 9598SOL     OW29692   0.720   6.307   5.196
 9598SOL    HW129693   0.738   6.273   5.104
 9598SOL    HW229694   0.748   6.403   5.202
 9599SOL     OW29695   3.705   1.942   5.575
 9599SOL    HW129696   3.648   1.870   5.536
 9599SOL    HW229697   3.648   2.008   5.624
 9600SOL     OW29698   1.501   5.716   0.027
 9600SOL    HW129699   1.497   5.649   0.101
 9600SOL    HW229700   1.588   5.708   7.004
 9601SOL     OW29701   1.422   6.799   4.671
 9601SOL    HW129702   1.408   6.831   4.577
 9601SOL    HW229703   1.416   6.699   4.674
 9602SOL     OW29704   0.975   5.616   6.069
 9602SOL    HW129705   0.991   5.697   6.126
 9602SOL    HW229706   0.899   5.634   6.007
 9603SOL     OW29707   1.409   5.240   2.166
 9603SOL    HW129708   1.364   5.321   2.128
 9603SOL    HW229709   1.361   5.212   2.250
 9604SOL     OW29710   6.605   0.683   6.145
 9604SOL    HW129711   6.540   0.652   6.075
 9604SOL    HW229712   6.690   0.711   6.101
 9605SOL     OW29713   3.558   4.298   0.815
 9605SOL    HW129714   3.486   4.368   0.811
 9605SOL    HW229715   3.518   4.212   0.847
 9606SOL     OW29716   6.734   1.742   4.769
 9606SOL    HW129717   6.765   1.812   4.833
 9606SOL    HW229718   6.669   1.783   4.704
 9607SOL     OW29719   7.016   3.359   3.328
 9607SOL    HW129720   0.084   3.396   3.327
 9607SOL    HW229721   7.014   3.273   3.276
 9608SOL     OW29722   5.416   1.004   1.300
 9608SOL    HW129723   5.429   0.908   1.325
 9608SOL    HW229724   5.469   1.024   1.217
 9609SOL     OW29725   1.129   1.997   4.248
 9609SOL    HW129726   1.192   1.947   4.188
 9609SOL    HW229727   1.151   1.977   4.344
 9610SOL     OW29728   4.880   1.112   6.086
 9610SOL    HW129729   4.830   1.164   6.017
 9610SOL    HW229730   4.974   1.098   6.056
 9611SOL     OW29731   4.830   5.638   1.654
 9611SOL    HW129732   4.891   5.600   1.585
 9611SOL    HW229733   4.737   5.642   1.617
 9612SOL     OW29734   4.851   3.872   3.729
 9612SOL    HW129735   4.846   3.889   3.828
 9612SOL    HW229736   4.895   3.949   3.684
 9613SOL     OW29737   5.344   0.644   5.092
 9613SOL    HW129738   5.294   0.724   5.059
 9613SOL    HW229739   5.338   0.640   5.192
 9614SOL     OW29740   3.353   2.619   7.003
 9614SOL    HW129741   3.303   2.678   0.041
 9614SOL    HW229742   3.403   2.550   0.030
 9615SOL     OW29743   6.287   6.420   3.672
 9615SOL    HW129744   6.262   6.489   3.741
 9615SOL    HW229745   6.349   6.354   3.713
 9616SOL     OW29746   0.165   2.195   1.224
 9616SOL    HW129747   0.209   2.257   1.158
 9616SOL    HW229748   0.073   2.228   1.244
 9617SOL     OW29749   0.773   3.872   3.764
 9617SOL    HW129750   0.827   3.794   3.797
 9617SOL    HW229751   0.820   3.916   3.688
 9618SOL     OW29752   5.354   4.064   2.174
 9618SOL    HW129753   5.385   3.993   2.111
 9618SOL    HW229754   5.345   4.150   2.125
 9619SOL     OW29755   1.243   0.683   1.127
 9619SOL    HW129756   1.281   0.773   1.104
 9619SOL    HW229757   1.188   0.690   1.210
 9620SOL     OW29758   3.809   1.107   6.145
 9620SOL    HW129759   3.722   1.142   6.180
 9620SOL    HW229760   3.883   1.167   6.175
 9621SOL     OW29761   6.523   1.178   0.650
 9621SOL    HW129762   6.610   1.130   0.640
 9621SOL    HW229763   6.451   1.112   0.674
 9622SOL     OW29764   6.714   6.607   4.852
 9622SOL    HW129765   6.656   6.526   4.865
 9622SOL    HW229766   6.658   6.689   4.861
 9623SOL     OW29767   2.385   5.848   6.285
 9623SOL    HW129768   2.432   5.926   6.244
 9623SOL    HW229769   2.286   5.867   6.288
 9624SOL     OW29770   4.094   4.831   6.664
 9624SOL    HW129771   4.133   4.739   6.663
 9624SOL    HW229772   4.054   4.849   6.754
 9625SOL     OW29773   5.550   4.686   5.951
 9625SOL    HW129774   5.495   4.627   5.892
 9625SOL    HW229775   5.506   4.693   6.041
 9626SOL     OW29776   2.577   2.653   6.563
 9626SOL    HW129777   2.631   2.675   6.482
 9626SOL    HW229778   2.590   2.557   6.587
 9627SOL     OW29779   6.595   5.996   0.309
 9627SOL    HW129780   6.539   5.960   0.384
 9627SOL    HW229781   6.559   5.963   0.222
 9628SOL     OW29782   6.035   1.568   5.490
 9628SOL    HW129783   6.031   1.468   5.495
 9628SOL    HW229784   6.111   1.600   5.546
 9629SOL     OW29785   0.827   5.614   3.978
 9629SOL    HW129786   0.752   5.627   4.044
 9629SOL    HW229787   0.811   5.672   3.898
 9630SOL     OW29788   6.296   0.251   5.984
 9630SOL    HW129789   6.248   0.175   5.939
 9630SOL    HW229790   6.342   0.306   5.915
 9631SOL     OW29791   4.437   6.125   0.386
 9631SOL    HW129792   4.489   6.097   0.467
 9631SOL    HW229793   4.498   6.127   0.307
 9632SOL     OW29794   2.722   5.925   2.490
 9632SOL    HW129795   2.730   6.018   2.525
 9632SOL    HW229796   2.813   5.888   2.472
 9633SOL     OW29797   3.305   3.045   5.395
 9633SOL    HW129798   3.339   3.003   5.479
 9633SOL    HW229799   3.339   2.993   5.316
 9634SOL     OW29800   6.338   4.813   3.250
 9634SOL    HW129801   6.320   4.732   3.306
 9634SOL    HW229802   6.262   4.827   3.186
 9635SOL     OW29803   0.615   5.368   4.296
 9635SOL    HW129804   0.527   5.321   4.291
 9635SOL    HW229805   0.607   5.458   4.256
 9636SOL     OW29806   5.232   3.955   3.869
 9636SOL    HW129807   5.201   3.870   3.912
 9636SOL    HW229808   5.194   3.962   3.776
 9637SOL     OW29809   3.341   2.886   6.700
 9637SOL    HW129810   3.292   2.807   6.664
 9637SOL    HW229811   3.340   2.960   6.632
 9638SOL     OW29812   0.620   4.341   6.185
 9638SOL    HW129813   0.554   4.266   6.187
 9638SOL    HW229814   0.612   4.396   6.268
 9639SOL     OW29815   5.416   3.073   1.761
 9639SOL    HW129816   5.453   2.981   1.773
 9639SOL    HW229817   5.378   3.082   1.669
 9640SOL     OW29818   3.552   0.160   3.367
 9640SOL    HW129819   3.571   0.202   3.456
 9640SOL    HW229820   3.541   0.061   3.378
 9641SOL     OW29821   1.062   2.356   4.662
 9641SOL    HW129822   0.984   2.408   4.628
 9641SOL    HW229823   1.092   2.290   4.593
 9642SOL     OW29824   0.659   2.561   4.834
 9642SOL    HW129825   0.638   2.639   4.893
 9642SOL    HW229826   0.752   2.529   4.853
 9643SOL     OW29827   6.338   5.184   4.369
 9643SOL    HW129828   6.416   5.152   4.424
 9643SOL    HW229829   6.371   5.231   4.288
 9644SOL     OW29830   0.711   4.780   3.372
 9644SOL    HW129831   0.646   4.714   3.335
 9644SOL    HW229832   0.685   4.872   3.344
 9645SOL     OW29833   0.631   4.877   0.291
 9645SOL    HW129834   0.634   4.778   0.272
 9645SOL    HW229835   0.673   4.926   0.215
 9646SOL     OW29836   2.864   5.062   0.841
 9646SOL    HW129837   2.920   4.980   0.827
 9646SOL    HW229838   2.774   5.048   0.799
 9647SOL     OW29839   5.461   0.072   2.908
 9647SOL    HW129840   5.377   0.123   2.887
 9647SOL    HW229841   5.449   0.022   2.993
 9648SOL     OW29842   3.663   2.259   0.903
 9648SOL    HW129843   3.735   2.199   0.938
 9648SOL    HW229844   3.640   2.327   0.972
 9649SOL     OW29845   0.062   5.891   0.662
 9649SOL    HW129846   0.017   5.830   0.727
 9649SOL    HW229847   0.130   5.840   0.609
 9650SOL     OW29848   6.955   5.558   5.092
 9650SOL    HW129849   6.969   5.572   5.190
 9650SOL    HW229850   6.857   5.544   5.075
 9651SOL     OW29851   3.616   1.270   6.868
 9651SOL    HW129852   3.673   1.271   6.950
 9651SOL    HW229853   3.631   1.354   6.817
 9652SOL     OW29854   0.177   3.641   0.346
 9652SOL    HW129855   0.221   3.669   0.260
 9652SOL    HW229856   0.234   3.572   0.391
 9653SOL     OW29857   5.612   3.781   5.114
 9653SOL    HW129858   5.710   3.796   5.101
 9653SOL    HW229859   5.572   3.747   5.029
 9654SOL     OW29860   4.154   3.601   4.867
 9654SOL    HW129861   4.226   3.645   4.920
 9654SOL    HW229862   4.150   3.642   4.776
 9655SOL     OW29863   4.832   0.219   0.889
 9655SOL    HW129864   4.885   0.302   0.877
 9655SOL    HW229865   4.757   0.217   0.823
 9656SOL     OW29866   5.278   4.705   5.815
 9656SOL    HW129867   5.278   4.800   5.782
 9656SOL    HW229868   5.263   4.643   5.738
 9657SOL     OW29869   5.204   5.293   2.520
 9657SOL    HW129870   5.208   5.222   2.590
 9657SOL    HW229871   5.237   5.256   2.433
 9658SOL     OW29872   5.468   0.997   2.834
 9658SOL    HW129873   5.413   1.059   2.777
 9658SOL    HW229874   5.479   1.037   2.925
 9659SOL     OW29875   3.872   3.175   0.734
 9659SOL    HW129876   3.857   3.166   0.833
 9659SOL    HW229877   3.790   3.145   0.685
 9660SOL     OW29878   2.505   6.917   1.786
 9660SOL    HW129879   2.483   6.925   1.688
 9660SOL    HW229880   2.566   6.840   1.800
 9661SOL     OW29881   3.936   3.886   2.451
 9661SOL    HW129882   4.024   3.840   2.442
 9661SOL    HW229883   3.894   3.862   2.539
 9662SOL     OW29884   3.962   0.722   4.646
 9662SOL    HW129885   3.968   0.649   4.713
 9662SOL    HW229886   3.870   0.762   4.647
 9663SOL     OW29887   1.210   5.937   2.536
 9663SOL    HW129888   1.256   6.026   2.543
 9663SOL    HW229889   1.218   5.889   2.623
 9664SOL     OW29890   2.122   4.372   3.118
 9664SOL    HW129891   2.076   4.427   3.188
 9664SOL    HW229892   2.184   4.431   3.066
 9665SOL     OW29893   6.347   3.740   6.452
 9665SOL    HW129894   6.310   3.666   6.507
 9665SOL    HW229895   6.372   3.706   6.361
 9666SOL     OW29896   5.290   4.345   0.769
 9666SOL    HW129897   5.208   4.386   0.729
 9666SOL    HW229898   5.330   4.409   0.835
 9667SOL     OW29899   6.108   6.287   6.985
 9667SOL    HW129900   6.100   6.383   7.011
 9667SOL    HW229901   6.021   6.257   6.944
 9668SOL     OW29902   2.315   0.317   0.484
 9668SOL    HW129903   2.365   0.398   0.453
 9668SOL    HW229904   2.241   0.297   0.419
 9669SOL     OW29905   3.338   7.003   0.181
 9669SOL    HW129906   3.342   6.926   0.116
 9669SOL    HW229907   3.260   0.036   0.159
 9670SOL     OW29908   0.877   6.955   2.534
 9670SOL    HW129909   0.785   6.993   2.525
 9670SOL    HW229910   0.932   6.980   2.455
 9671SOL     OW29911   0.825   5.968   6.181
 9671SOL    HW129912   0.840   5.936   6.274
 9671SOL    HW229913   0.804   6.065   6.182
 9672SOL     OW29914   0.545   4.756   5.389
 9672SOL    HW129915   0.527   4.788   5.295
 9672SOL    HW229916   0.549   4.657   5.390
 9673SOL     OW29917   2.358   2.900   5.872
 9673SOL    HW129918   2.452   2.871   5.855
 9673SOL    HW229919   2.358   2.993   5.909
 9674SOL     OW29920   1.645   0.178   3.627
 9674SOL    HW129921   1.674   0.236   3.703
 9674SOL    HW229922   1.614   0.235   3.551
 9675SOL     OW29923   6.457   3.980   6.040
 9675SOL    HW129924   6.426   3.975   5.945
 9675SOL    HW229925   6.397   4.041   6.092
 9676SOL     OW29926   0.829   2.856   6.310
 9676SOL    HW129927   0.789   2.821   6.395
 9676SOL    HW229928   0.775   2.824   6.232
 9677SOL     OW29929   0.466   5.032   2.815
 9677SOL    HW129930   0.428   4.951   2.771
 9677SOL    HW229931   0.452   5.027   2.914
 9678SOL     OW29932   5.000   3.416   6.392
 9678SOL    HW129933   4.918   3.361   6.375
 9678SOL    HW229934   4.981   3.481   6.466
 9679SOL     OW29935   1.703   1.094   4.728
 9679SOL    HW129936   1.750   1.180   4.748
 9679SOL    HW229937   1.656   1.101   4.640
 9680SOL     OW29938   4.539   7.001   2.306
 9680SOL    HW129939   4.477   6.986   2.229
 9680SOL    HW229940   4.633   7.011   2.272
 9681SOL     OW29941   0.339   2.648   1.334
 9681SOL    HW129942   0.320   2.704   1.415
 9681SOL    HW229943   0.333   2.551   1.358
 9682SOL     OW29944   3.930   6.153   4.969
 9682SOL    HW129945   3.834   6.152   4.998
 9682SOL    HW229946   3.974   6.068   4.998
 9683SOL     OW29947   3.210   5.808   3.703
 9683SOL    HW129948   3.271   5.745   3.655
 9683SOL    HW229949   3.150   5.853   3.637
 9684SOL     OW29950   1.121   2.615   6.376
 9684SOL    HW129951   1.171   2.565   6.305
 9684SOL    HW229952   1.173   2.696   6.402
 9685SOL     OW29953   3.736   4.611   1.649
 9685SOL    HW129954   3.656   4.618   1.708
 9685SOL    HW229955   3.706   4.603   1.554
 9686SOL     OW29956   0.675   1.595   5.903
 9686SOL    HW129957   0.698   1.687   5.872
 9686SOL    HW229958   0.759   1.547   5.929
 9687SOL     OW29959   5.611   0.655   3.980
 9687SOL    HW129960   5.614   0.581   3.912
 9687SOL    HW229961   5.568   0.621   4.063
 9688SOL     OW29962   0.390   5.150   2.309
 9688SOL    HW129963   0.427   5.243   2.318
 9688SOL    HW229964   0.449   5.097   2.249
 9689SOL     OW29965   1.697   5.393   1.217
 9689SOL    HW129966   1.796   5.408   1.223
 9689SOL    HW229967   1.651   5.448   1.287
 9690SOL     OW29968   6.360   4.863   4.442
 9690SOL    HW129969   6.423   4.881   4.517
 9690SOL    HW229970   6.367   4.766   4.415
 9691SOL     OW29971   3.710   3.728   2.259
 9691SOL    HW129972   3.787   3.791   2.248
 9691SOL    HW229973   3.670   3.740   2.349
 9692SOL     OW29974   5.978   5.066   0.555
 9692SOL    HW129975   5.918   5.051   0.634
 9692SOL    HW229976   6.056   5.004   0.561
 9693SOL     OW29977   4.340   3.391   6.604
 9693SOL    HW129978   4.351   3.293   6.624
 9693SOL    HW229979   4.398   3.416   6.527
 9694SOL     OW29980   2.901   6.170   0.923
 9694SOL    HW129981   2.995   6.198   0.946
 9694SOL    HW229982   2.885   6.183   0.825
 9695SOL     OW29983   2.033   2.798   3.392
 9695SOL    HW129984   2.008   2.891   3.418
 9695SOL    HW229985   1.997   2.734   3.460
 9696SOL     OW29986   5.002   4.126   3.341
 9696SOL    HW129987   4.985   4.104   3.437
 9696SOL    HW229988   4.920   4.107   3.287
 9697SOL     OW29989   6.279   0.052   2.276
 9697SOL    HW129990   6.249   0.071   2.369
 9697SOL    HW229991   6.378   0.040   2.275
 9698SOL     OW29992   6.902   2.736   1.152
 9698SOL    HW129993   6.959   2.750   1.233
 9698SOL    HW229994   6.901   2.819   1.097
 9699SOL     OW29995   1.661   6.697   2.194
 9699SOL    HW129996   1.602   6.727   2.269
 9699SOL    HW229997   1.606   6.688   2.111
 9700SOL     OW29998   6.066   0.544   5.748
 9700SOL    HW129999   6.084   0.449   5.722
 9700SOL    HW230000   6.127   0.604   5.697
 9701SOL     OW30001   5.958   3.871   6.597
 9701SOL    HW130002   5.998   3.881   6.688
 9701SOL    HW230003   5.876   3.813   6.603
 9702SOL     OW30004   2.879   3.560   1.988
 9702SOL    HW130005   2.973   3.535   1.963
 9702SOL    HW230006   2.844   3.495   2.056
 9703SOL     OW30007   0.107   4.537   2.542
 9703SOL    HW130008   0.130   4.488   2.457
 9703SOL    HW230009   0.102   4.635   2.523
 9704SOL     OW30010   0.590   5.013   2.187
 9704SOL    HW130011   0.530   4.952   2.135
 9704SOL    HW230012   0.684   4.983   2.179
 9705SOL     OW30013   6.954   4.003   5.724
 9705SOL    HW130014   0.007   3.999   5.661
 9705SOL    HW230015   6.872   3.971   5.676
 9706SOL     OW30016   0.428   6.640   2.297
 9706SOL    HW130017   0.454   6.722   2.247
 9706SOL    HW230018   0.505   6.576   2.299
 9707SOL     OW30019   1.260   4.745   2.144
 9707SOL    HW130020   1.243   4.689   2.225
 9707SOL    HW230021   1.358   4.749   2.126
 9708SOL     OW30022   2.570   1.046   1.688
 9708SOL    HW130023   2.533   0.960   1.722
 9708SOL    HW230024   2.625   1.089   1.760
 9709SOL     OW30025   4.309   1.448   2.019
 9709SOL    HW130026   4.374   1.378   2.047
 9709SOL    HW230027   4.217   1.423   2.048
 9710SOL     OW30028   5.046   4.474   4.393
 9710SOL    HW130029   4.981   4.511   4.459
 9710SOL    HW230030   5.114   4.544   4.370
 9711SOL     OW30031   2.846   6.996   6.990
 9711SOL    HW130032   2.830   6.906   6.949
 9711SOL    HW230033   2.870   0.036   6.918
 9712SOL     OW30034   4.650   7.015   5.563
 9712SOL    HW130035   4.609   6.930   5.596
 9712SOL    HW230036   4.628   0.002   5.466
 9713SOL     OW30037   1.101   0.664   2.992
 9713SOL    HW130038   1.049   0.626   3.068
 9713SOL    HW230039   1.063   0.754   2.967
 9714SOL     OW30040   2.365   2.616   3.827
 9714SOL    HW130041   2.301   2.682   3.865
 9714SOL    HW230042   2.321   2.567   3.752
 9715SOL     OW30043   6.892   1.636   6.437
 9715SOL    HW130044   6.950   1.556   6.423
 9715SOL    HW230045   6.804   1.608   6.476
 9716SOL     OW30046   1.832   6.284   0.311
 9716SOL    HW130047   1.914   6.234   0.341
 9716SOL    HW230048   1.754   6.256   0.366
 9717SOL     OW30049   4.482   2.072   5.998
 9717SOL    HW130050   4.578   2.045   6.005
 9717SOL    HW230051   4.424   1.992   6.015
 9718SOL     OW30052   2.898   2.127   6.402
 9718SOL    HW130053   2.872   2.038   6.367
 9718SOL    HW230054   2.830   2.159   6.468
 9719SOL     OW30055   3.863   6.979   5.434
 9719SOL    HW130056   3.915   6.955   5.516
 9719SOL    HW230057   3.765   6.974   5.454
 9720SOL     OW30058   2.137   2.479   1.984
 9720SOL    HW130059   2.154   2.405   2.049
 9720SOL    HW230060   2.215   2.541   1.983
 9721SOL     OW30061   0.612   2.079   1.554
 9721SOL    HW130062   0.673   2.140   1.503
 9721SOL    HW230063   0.606   1.991   1.507
 9722SOL     OW30064   3.453   2.920   5.609
 9722SOL    HW130065   3.504   2.841   5.642
 9722SOL    HW230066   3.358   2.914   5.639
 9723SOL     OW30067   5.587   1.119   5.414
 9723SOL    HW130068   5.491   1.094   5.404
 9723SOL    HW230069   5.638   1.093   5.332
 9724SOL     OW30070   1.644   4.943   1.428
 9724SOL    HW130071   1.722   4.901   1.475
 9724SOL    HW230072   1.574   4.874   1.413
 9725SOL     OW30073   5.632   5.421   4.119
 9725SOL    HW130074   5.560   5.362   4.085
 9725SOL    HW230075   5.709   5.365   4.150
 9726SOL     OW30076   0.032   6.871   3.486
 9726SOL    HW130077   0.096   6.884   3.562
 9726SOL    HW230078   7.017   6.779   3.491
 9727SOL     OW30079   6.430   3.106   1.332
 9727SOL    HW130080   6.496   3.147   1.394
 9727SOL    HW230081   6.356   3.170   1.314
 9728SOL     OW30082   5.569   1.644   5.234
 9728SOL    HW130083   5.560   1.695   5.319
 9728SOL    HW230084   5.528   1.697   5.159
 9729SOL     OW30085   0.167   3.830   2.259
 9729SOL    HW130086   0.093   3.843   2.324
 9729SOL    HW230087   0.138   3.767   2.187
 9730SOL     OW30088   1.022   5.756   3.504
 9730SOL    HW130089   1.042   5.854   3.506
 9730SOL    HW230090   0.930   5.740   3.539
 9731SOL     OW30091   6.312   1.618   1.482
 9731SOL    HW130092   6.255   1.538   1.460
 9731SOL    HW230093   6.341   1.613   1.578
 9732SOL     OW30094   6.863   2.490   3.225
 9732SOL    HW130095   6.798   2.455   3.158
 9732SOL    HW230096   6.948   2.516   3.179
 9733SOL     OW30097   5.402   5.630   0.215
 9733SOL    HW130098   5.326   5.652   0.276
 9733SOL    HW230099   5.487   5.667   0.253
 9734SOL     OW30100   4.068   3.741   0.083
 9734SOL    HW130101   4.162   3.708   0.093
 9734SOL    HW230102   4.021   3.736   0.171
 9735SOL     OW30103   1.196   1.776   0.311
 9735SOL    HW130104   1.128   1.847   0.328
 9735SOL    HW230105   1.233   1.786   0.219
 9736SOL     OW30106   5.265   2.590   6.310
 9736SOL    HW130107   5.196   2.656   6.338
 9736SOL    HW230108   5.280   2.523   6.384
 9737SOL     OW30109   5.210   3.322   5.281
 9737SOL    HW130110   5.221   3.245   5.343
 9737SOL    HW230111   5.299   3.355   5.252
 9738SOL     OW30112   2.509   6.215   1.417
 9738SOL    HW130113   2.524   6.284   1.488
 9738SOL    HW230114   2.597   6.180   1.385
 9739SOL     OW30115   5.678   6.522   0.716
 9739SOL    HW130116   5.623   6.512   0.799
 9739SOL    HW230117   5.751   6.454   0.716
 9740SOL     OW30118   6.566   0.791   1.003
 9740SOL    HW130119   6.662   0.818   1.009
 9740SOL    HW230120   6.551   0.742   0.916
 9741SOL     OW30121   2.388   2.672   2.946
 9741SOL    HW130122   2.438   2.621   2.875
 9741SOL    HW230123   2.421   2.645   3.036
 9742SOL     OW30124   4.119   0.365   0.088
 9742SOL    HW130125   4.183   0.327   0.021
 9742SOL    HW230126   4.170   0.405   0.165
 9743SOL     OW30127   6.339   3.551   4.391
 9743SOL    HW130128   6.269   3.487   4.360
 9743SOL    HW230129   6.430   3.512   4.375
 9744SOL     OW30130   1.527   2.682   2.132
 9744SOL    HW130131   1.600   2.685   2.064
 9744SOL    HW230132   1.463   2.757   2.116
 9745SOL     OW30133   1.305   6.665   5.923
 9745SOL    HW130134   1.219   6.612   5.923
 9745SOL    HW230135   1.284   6.761   5.906
 9746SOL     OW30136   3.447   6.183   5.914
 9746SOL    HW130137   3.391   6.245   5.859
 9746SOL    HW230138   3.470   6.227   6.000
 9747SOL     OW30139   4.216   1.688   3.464
 9747SOL    HW130140   4.295   1.657   3.411
 9747SOL    HW230141   4.216   1.787   3.470
 9748SOL     OW30142   0.628   2.363   2.342
 9748SOL    HW130143   0.702   2.338   2.279
 9748SOL    HW230144   0.637   2.459   2.368
 9749SOL     OW30145   6.745   0.237   1.754
 9749SOL    HW130146   6.657   0.192   1.736
 9749SOL    HW230147   6.766   0.231   1.852
 9750SOL     OW30148   5.733   1.883   4.583
 9750SOL    HW130149   5.828   1.876   4.554
 9750SOL    HW230150   5.728   1.887   4.683
 9751SOL     OW30151   2.778   5.456   0.937
 9751SOL    HW130152   2.860   5.507   0.911
 9751SOL    HW230153   2.709   5.464   0.865
 9752SOL     OW30154   4.217   3.826   0.979
 9752SOL    HW130155   4.149   3.756   1.003
 9752SOL    HW230156   4.209   3.903   1.042
 9753SOL     OW30157   6.263   6.702   3.117
 9753SOL    HW130158   6.300   6.718   3.209
 9753SOL    HW230159   6.256   6.603   3.101
 9754SOL     OW30160   3.211   0.554   1.964
 9754SOL    HW130161   3.131   0.513   2.006
 9754SOL    HW230162   3.183   0.631   1.906
 9755SOL     OW30163   2.954   4.178   1.049
 9755SOL    HW130164   3.041   4.169   1.000
 9755SOL    HW230165   2.896   4.100   1.027
 9756SOL     OW30166   4.727   6.838   6.939
 9756SOL    HW130167   4.718   6.848   6.840
 9756SOL    HW230168   4.637   6.841   6.982
 9757SOL     OW30169   5.092   4.084   4.255
 9757SOL    HW130170   5.053   4.134   4.332
 9757SOL    HW230171   5.164   4.139   4.212
 9758SOL     OW30172   3.560   1.028   1.827
 9758SOL    HW130173   3.567   0.967   1.749
 9758SOL    HW230174   3.584   0.979   1.911
 9759SOL     OW30175   6.473   1.819   0.955
 9759SOL    HW130176   6.487   1.914   0.929
 9759SOL    HW230177   6.471   1.762   0.872
 9760SOL     OW30178   4.572   0.964   6.658
 9760SOL    HW130179   4.496   0.919   6.705
 9760SOL    HW230180   4.657   0.913   6.675
 9761SOL     OW30181   1.060   2.148   2.120
 9761SOL    HW130182   1.103   2.084   2.184
 9761SOL    HW230183   1.093   2.130   2.027
 9762SOL     OW30184   3.862   0.758   5.726
 9762SOL    HW130185   3.805   0.678   5.706
 9762SOL    HW230186   3.912   0.744   5.811
 9763SOL     OW30187   5.634   1.832   1.047
 9763SOL    HW130188   5.627   1.744   1.095
 9763SOL    HW230189   5.729   1.860   1.041
 9764SOL     OW30190   0.513   2.308   3.382
 9764SOL    HW130191   0.584   2.307   3.312
 9764SOL    HW230192   0.538   2.372   3.454
 9765SOL     OW30193   6.067   2.279   0.941
 9765SOL    HW130194   6.147   2.311   0.891
 9765SOL    HW230195   6.094   2.254   1.034
 9766SOL     OW30196   0.297   2.488   2.802
 9766SOL    HW130197   0.284   2.559   2.733
 9766SOL    HW230198   0.220   2.424   2.798
 9767SOL     OW30199   3.608   1.644   4.522
 9767SOL    HW130200   3.626   1.693   4.437
 9767SOL    HW230201   3.571   1.554   4.500
 9768SOL     OW30202   4.881   2.492   6.547
 9768SOL    HW130203   4.906   2.396   6.534
 9768SOL    HW230204   4.917   2.547   6.471
 9769SOL     OW30205   3.815   0.788   5.330
 9769SOL    HW130206   3.726   0.823   5.359
 9769SOL    HW230207   3.821   0.790   5.231
 9770SOL     OW30208   2.269   3.277   5.546
 9770SOL    HW130209   2.342   3.345   5.553
 9770SOL    HW230210   2.249   3.240   5.636
 9771SOL     OW30211   3.522   0.985   2.116
 9771SOL    HW130212   3.451   1.050   2.090
 9771SOL    HW230213   3.481   0.908   2.166
 9772SOL     OW30214   0.310   0.612   1.909
 9772SOL    HW130215   0.260   0.653   1.985
 9772SOL    HW230216   0.256   0.619   1.825
 9773SOL     OW30217   4.521   6.302   1.864
 9773SOL    HW130218   4.600   6.345   1.906
 9773SOL    HW230219   4.449   6.289   1.932
 9774SOL     OW30220   1.430   5.271   4.902
 9774SOL    HW130221   1.481   5.213   4.966
 9774SOL    HW230222   1.417   5.222   4.816
 9775SOL     OW30223   1.395   1.014   3.603
 9775SOL    HW130224   1.368   1.062   3.687
 9775SOL    HW230225   1.495   1.008   3.599
 9776SOL     OW30226   1.360   6.070   1.648
 9776SOL    HW130227   1.273   6.092   1.693
 9776SOL    HW230228   1.406   5.998   1.699
 9777SOL     OW30229   4.483   1.971   5.084
 9777SOL    HW130230   4.389   1.951   5.059
 9777SOL    HW230231   4.488   1.995   5.182
 9778SOL     OW30232   1.395   3.649   2.998
 9778SOL    HW130233   1.473   3.624   3.056
 9778SOL    HW230234   1.420   3.636   2.902
 9779SOL     OW30235   2.187   1.091   2.556
 9779SOL    HW130236   2.160   1.068   2.650
 9779SOL    HW230237   2.129   1.164   2.522
 9780SOL     OW30238   1.470   1.720   0.950
 9780SOL    HW130239   1.524   1.749   0.870
 9780SOL    HW230240   1.373   1.736   0.932
 9781SOL     OW30241   1.642   1.006   2.518
 9781SOL    HW130242   1.677   1.013   2.424
 9781SOL    HW230243   1.552   1.049   2.523
 9782SOL     OW30244   6.957   2.536   0.050
 9782SOL    HW130245   0.014   2.487   0.080
 9782SOL    HW230246   6.880   2.512   0.108
 9783SOL     OW30247   4.833   1.200   2.464
 9783SOL    HW130248   4.750   1.251   2.441
 9783SOL    HW230249   4.867   1.152   2.383
 9784SOL     OW30250   2.264   1.229   0.380
 9784SOL    HW130251   2.250   1.237   0.479
 9784SOL    HW230252   2.197   1.166   0.342
 9785SOL     OW30253   1.488   3.449   4.524
 9785SOL    HW130254   1.407   3.404   4.561
 9785SOL    HW230255   1.532   3.504   4.596
 9786SOL     OW30256   2.813   4.397   7.002
 9786SOL    HW130257   2.851   4.472   0.030
 9786SOL    HW230258   2.720   4.419   6.974
 9787SOL     OW30259   2.596   3.033   0.838
 9787SOL    HW130260   2.533   3.108   0.858
 9787SOL    HW230261   2.637   3.047   0.748
 9788SOL     OW30262   2.273   0.083   2.598
 9788SOL    HW130263   2.359   0.115   2.639
 9788SOL    HW230264   2.196   0.119   2.651
 9789SOL     OW30265   4.726   1.805   0.187
 9789SOL    HW130266   4.726   1.882   0.250
 9789SOL    HW230267   4.662   1.822   0.112
 9790SOL     OW30268   4.606   5.956   5.024
 9790SOL    HW130269   4.650   5.994   5.105
 9790SOL    HW230270   4.546   5.880   5.051
 9791SOL     OW30271   0.020   1.125   1.358
 9791SOL    HW130272   0.025   1.025   1.362
 9791SOL    HW230273   7.012   1.153   1.268
 9792SOL     OW30274   3.484   3.556   0.617
 9792SOL    HW130275   3.548   3.500   0.668
 9792SOL    HW230276   3.403   3.575   0.674
 9793SOL     OW30277   6.098   1.113   1.815
 9793SOL    HW130278   6.100   1.062   1.902
 9793SOL    HW230279   6.025   1.181   1.818
 9794SOL     OW30280   4.217   5.931   4.860
 9794SOL    HW130281   4.227   6.030   4.856
 9794SOL    HW230282   4.300   5.888   4.824
 9795SOL     OW30283   1.824   3.991   2.914
 9795SOL    HW130284   1.899   4.026   2.971
 9795SOL    HW230285   1.757   3.945   2.973
 9796SOL     OW30286   3.825   3.570   4.963
 9796SOL    HW130287   3.905   3.510   4.957
 9796SOL    HW230288   3.827   3.635   4.887
 9797SOL     OW30289   3.495   5.529   6.980
 9797SOL    HW130290   3.590   5.528   6.949
 9797SOL    HW230291   3.459   5.435   6.978
 9798SOL     OW30292   0.411   4.115   6.536
 9798SOL    HW130293   0.472   4.138   6.612
 9798SOL    HW230294   0.319   4.147   6.557
 9799SOL     OW30295   3.617   6.549   6.294
 9799SOL    HW130296   3.696   6.605   6.268
 9799SOL    HW230297   3.534   6.587   6.253
 9800SOL     OW30298   6.973   4.272   4.683
 9800SOL    HW130299   6.977   4.225   4.771
 9800SOL    HW230300   0.040   4.276   4.643
 9801SOL     OW30301   3.978   0.085   0.988
 9801SOL    HW130302   4.055   0.051   1.042
 9801SOL    HW230303   4.008   0.102   0.895
 9802SOL     OW30304   4.007   3.001   0.193
 9802SOL    HW130305   4.053   3.064   0.255
 9802SOL    HW230306   3.968   2.925   0.246
 9803SOL     OW30307   2.662   3.702   0.519
 9803SOL    HW130308   2.735   3.634   0.509
 9803SOL    HW230309   2.679   3.756   0.602
 9804SOL     OW30310   1.089   4.166   2.646
 9804SOL    HW130311   1.150   4.179   2.569
 9804SOL    HW230312   0.997   4.193   2.621
 9805SOL     OW30313   6.924   5.056   4.997
 9805SOL    HW130314   6.987   5.079   4.923
 9805SOL    HW230315   6.959   4.977   5.047
 9806SOL     OW30316   3.432   0.775   6.724
 9806SOL    HW130317   3.395   0.857   6.679
 9806SOL    HW230318   3.463   0.800   6.816
 9807SOL     OW30319   3.724   3.449   4.462
 9807SOL    HW130320   3.719   3.351   4.482
 9807SOL    HW230321   3.787   3.493   4.526
 9808SOL     OW30322   2.475   5.970   2.631
 9808SOL    HW130323   2.556   5.934   2.584
 9808SOL    HW230324   2.463   6.067   2.606
 9809SOL     OW30325   6.301   3.437   1.547
 9809SOL    HW130326   6.247   3.419   1.465
 9809SOL    HW230327   6.245   3.419   1.628
 9810SOL     OW30328   4.240   2.830   1.016
 9810SOL    HW130329   4.241   2.919   0.971
 9810SOL    HW230330   4.326   2.816   1.064
 9811SOL     OW30331   5.403   3.782   4.087
 9811SOL    HW130332   5.402   3.700   4.029
 9811SOL    HW230333   5.332   3.774   4.157
 9812SOL     OW30334   3.295   5.143   6.623
 9812SOL    HW130335   3.296   5.241   6.644
 9812SOL    HW230336   3.275   5.092   6.707
 9813SOL     OW30337   4.573   0.774   2.123
 9813SOL    HW130338   4.632   0.718   2.064
 9813SOL    HW230339   4.491   0.799   2.072
 9814SOL     OW30340   6.511   1.371   6.162
 9814SOL    HW130341   6.585   1.422   6.117
 9814SOL    HW230342   6.544   1.331   6.247
 9815SOL     OW30343   5.768   2.437   4.618
 9815SOL    HW130344   5.857   2.400   4.644
 9815SOL    HW230345   5.777   2.484   4.530
 9816SOL     OW30346   3.330   0.323   0.370
 9816SOL    HW130347   3.356   0.286   0.459
 9816SOL    HW230348   3.396   0.292   0.301
 9817SOL     OW30349   6.298   0.286   1.258
 9817SOL    HW130350   6.313   0.192   1.226
 9817SOL    HW230351   6.233   0.285   1.334
 9818SOL     OW30352   3.769   2.425   5.428
 9818SOL    HW130353   3.773   2.525   5.434
 9818SOL    HW230354   3.785   2.386   5.518
 9819SOL     OW30355   2.604   0.825   1.836
 9819SOL    HW130356   2.506   0.806   1.829
 9819SOL    HW230357   2.631   0.822   1.932
 9820SOL     OW30358   3.757   2.636   0.185
 9820SOL    HW130359   3.849   2.616   0.152
 9820SOL    HW230360   3.713   2.702   0.124
 9821SOL     OW30361   0.522   6.227   6.816
 9821SOL    HW130362   0.477   6.138   6.807
 9821SOL    HW230363   0.621   6.215   6.811
 9822SOL     OW30364   0.364   0.784   2.469
 9822SOL    HW130365   0.393   0.727   2.545
 9822SOL    HW230366   0.315   0.728   2.402
 9823SOL     OW30367   3.475   6.780   1.985
 9823SOL    HW130368   3.397   6.763   1.925
 9823SOL    HW230369   3.551   6.817   1.931
 9824SOL     OW30370   2.245   3.914   5.348
 9824SOL    HW130371   2.282   3.835   5.397
 9824SOL    HW230372   2.302   3.933   5.268
 9825SOL     OW30373   3.928   4.804   5.230
 9825SOL    HW130374   3.876   4.724   5.261
 9825SOL    HW230375   3.921   4.876   5.299
 9826SOL     OW30376   5.501   6.680   5.429
 9826SOL    HW130377   5.441   6.715   5.356
 9826SOL    HW230378   5.462   6.596   5.465
 9827SOL     OW30379   0.768   5.368   4.760
 9827SOL    HW130380   0.723   5.326   4.682
 9827SOL    HW230381   0.834   5.436   4.729
 9828SOL     OW30382   2.337   1.515   6.863
 9828SOL    HW130383   2.334   1.571   6.780
 9828SOL    HW230384   2.302   1.423   6.843
 9829SOL     OW30385   2.780   4.001   1.675
 9829SOL    HW130386   2.823   4.087   1.704
 9829SOL    HW230387   2.819   3.925   1.727
 9830SOL     OW30388   6.102   1.573   1.138
 9830SOL    HW130389   6.192   1.557   1.095
 9830SOL    HW230390   6.068   1.487   1.175
 9831SOL     OW30391   6.106   6.444   1.211
 9831SOL    HW130392   6.057   6.497   1.141
 9831SOL    HW230393   6.109   6.348   1.184
 9832SOL     OW30394   3.018   3.647   0.562
 9832SOL    HW130395   2.953   3.576   0.535
 9832SOL    HW230396   3.111   3.612   0.554
 9833SOL     OW30397   4.920   4.516   6.776
 9833SOL    HW130398   5.011   4.553   6.793
 9833SOL    HW230399   4.885   4.473   6.859
 9834SOL     OW30400   1.957   2.568   3.545
 9834SOL    HW130401   1.931   2.506   3.471
 9834SOL    HW230402   1.877   2.585   3.603
 9835SOL     OW30403   5.206   1.811   4.269
 9835SOL    HW130404   5.230   1.906   4.291
 9835SOL    HW230405   5.286   1.764   4.232
 9836SOL     OW30406   5.419   5.276   1.614
 9836SOL    HW130407   5.512   5.309   1.633
 9836SOL    HW230408   5.419   5.229   1.526
 9837SOL     OW30409   2.727   5.766   5.822
 9837SOL    HW130410   2.667   5.686   5.825
 9837SOL    HW230411   2.684   5.838   5.768
 9838SOL     OW30412   6.842   6.298   5.068
 9838SOL    HW130413   6.916   6.351   5.109
 9838SOL    HW230414   6.755   6.323   5.110
 9839SOL     OW30415   5.698   3.362   2.870
 9839SOL    HW130416   5.720   3.266   2.849
 9839SOL    HW230417   5.632   3.396   2.804
 9840SOL     OW30418   5.836   0.116   0.075
 9840SOL    HW130419   5.766   0.115   0.003
 9840SOL    HW230420   5.924   0.145   0.036
 9841SOL     OW30421   2.167   2.978   4.459
 9841SOL    HW130422   2.068   2.972   4.471
 9841SOL    HW230423   2.210   2.990   4.548
 9842SOL     OW30424   3.292   3.287   3.925
 9842SOL    HW130425   3.370   3.325   3.875
 9842SOL    HW230426   3.211   3.343   3.907
 9843SOL     OW30427   6.125   4.765   3.092
 9843SOL    HW130428   6.084   4.825   3.023
 9843SOL    HW230429   6.147   4.676   3.051
 9844SOL     OW30430   4.901   0.159   1.786
 9844SOL    HW130431   4.807   0.136   1.813
 9844SOL    HW230432   4.930   0.241   1.835
 9845SOL     OW30433   1.507   1.632   4.185
 9845SOL    HW130434   1.518   1.700   4.257
 9845SOL    HW230435   1.410   1.605   4.179
 9846SOL     OW30436   3.044   3.192   4.204
 9846SOL    HW130437   3.098   3.136   4.142
 9846SOL    HW230438   2.997   3.134   4.270
 9847SOL     OW30439   2.227   4.410   4.667
 9847SOL    HW130440   2.241   4.359   4.751
 9847SOL    HW230441   2.157   4.364   4.612
 9848SOL     OW30442   6.321   4.022   0.157
 9848SOL    HW130443   6.320   4.102   0.217
 9848SOL    HW230444   6.359   3.943   0.205
 9849SOL     OW30445   6.765   6.045   5.180
 9849SOL    HW130446   6.843   5.985   5.165
 9849SOL    HW230447   6.793   6.140   5.170
 9850SOL     OW30448   4.926   0.705   3.309
 9850SOL    HW130449   5.014   0.681   3.269
 9850SOL    HW230450   4.853   0.652   3.264
 9851SOL     OW30451   5.180   2.542   5.393
 9851SOL    HW130452   5.121   2.579   5.321
 9851SOL    HW230453   5.182   2.606   5.470
 9852SOL     OW30454   5.651   1.676   4.303
 9852SOL    HW130455   5.688   1.654   4.394
 9852SOL    HW230456   5.561   1.634   4.292
 9853SOL     OW30457   0.746   5.329   1.087
 9853SOL    HW130458   0.678   5.285   1.146
 9853SOL    HW230459   0.816   5.372   1.144
 9854SOL     OW30460   3.507   6.780   3.881
 9854SOL    HW130461   3.411   6.774   3.909
 9854SOL    HW230462   3.554   6.849   3.936
 9855SOL     OW30463   1.852   4.534   0.621
 9855SOL    HW130464   1.810   4.499   0.705
 9855SOL    HW230465   1.815   4.625   0.601
 9856SOL     OW30466   3.878   3.238   1.348
 9856SOL    HW130467   3.825   3.321   1.361
 9856SOL    HW230468   3.816   3.161   1.331
 9857SOL     OW30469   6.297   4.589   2.776
 9857SOL    HW130470   6.362   4.665   2.772
 9857SOL    HW230471   6.233   4.604   2.851
 9858SOL     OW30472   3.307   1.690   1.432
 9858SOL    HW130473   3.342   1.608   1.388
 9858SOL    HW230474   3.209   1.679   1.449
 9859SOL     OW30475   0.341   6.472   0.958
 9859SOL    HW130476   0.374   6.427   1.041
 9859SOL    HW230477   0.364   6.416   0.878
 9860SOL     OW30478   0.922   1.050   2.702
 9860SOL    HW130479   0.847   0.984   2.708
 9860SOL    HW230480   0.986   1.021   2.631
 9861SOL     OW30481   2.863   6.667   3.648
 9861SOL    HW130482   2.787   6.676   3.583
 9861SOL    HW230483   2.876   6.571   3.671
 9862SOL     OW30484   0.249   1.913   1.259
 9862SOL    HW130485   0.212   2.004   1.243
 9862SOL    HW230486   0.347   1.912   1.238
 9863SOL     OW30487   3.775   0.244   0.457
 9863SOL    HW130488   3.805   0.337   0.479
 9863SOL    HW230489   3.693   0.222   0.509
 9864SOL     OW30490   4.513   6.132   3.380
 9864SOL    HW130491   4.502   6.220   3.428
 9864SOL    HW230492   4.571   6.145   3.300
 9865SOL     OW30493   2.003   3.166   4.128
 9865SOL    HW130494   2.019   3.198   4.035
 9865SOL    HW230495   2.011   3.066   4.131
 9866SOL     OW30496   3.228   4.926   3.592
 9866SOL    HW130497   3.238   5.023   3.616
 9866SOL    HW230498   3.240   4.914   3.493
 9867SOL     OW30499   3.657   6.822   6.386
 9867SOL    HW130500   3.730   6.796   6.324
 9867SOL    HW230501   3.696   6.854   6.473
 9868SOL     OW30502   1.307   4.977   5.642
 9868SOL    HW130503   1.237   4.981   5.571
 9868SOL    HW230504   1.270   5.015   5.727
 9869SOL     OW30505   1.726   4.269   2.825
 9869SOL    HW130506   1.807   4.221   2.859
 9869SOL    HW230507   1.754   4.350   2.773
 9870SOL     OW30508   3.783   5.469   1.569
 9870SOL    HW130509   3.846   5.433   1.500
 9870SOL    HW230510   3.806   5.430   1.658
 9871SOL     OW30511   1.775   2.542   5.741
 9871SOL    HW130512   1.799   2.505   5.831
 9871SOL    HW230513   1.836   2.618   5.719
 9872SOL     OW30514   1.486   3.881   3.464
 9872SOL    HW130515   1.561   3.829   3.423
 9872SOL    HW230516   1.505   3.894   3.561
 9873SOL     OW30517   1.696   1.684   0.753
 9873SOL    HW130518   1.731   1.723   0.668
 9873SOL    HW230519   1.772   1.654   0.810
 9874SOL     OW30520   1.308   3.682   5.069
 9874SOL    HW130521   1.267   3.720   5.152
 9874SOL    HW230522   1.392   3.732   5.047
 9875SOL     OW30523   1.265   1.317   3.028
 9875SOL    HW130524   1.272   1.236   3.086
 9875SOL    HW230525   1.208   1.297   2.949
 9876SOL     OW30526   6.870   5.846   2.542
 9876SOL    HW130527   6.844   5.787   2.618
 9876SOL    HW230528   6.818   5.820   2.461
 9877SOL     OW30529   4.050   0.315   1.444
 9877SOL    HW130530   4.135   0.344   1.487
 9877SOL    HW230531   3.977   0.379   1.469
 9878SOL     OW30532   0.006   0.842   5.471
 9878SOL    HW130533   0.087   0.804   5.426
 9878SOL    HW230534   6.967   0.768   5.491
 9879SOL     OW30535   5.283   5.427   5.053
 9879SOL    HW130536   5.324   5.395   5.139
 9879SOL    HW230537   5.332   5.387   4.976
 9880SOL     OW30538   1.139   2.135   3.949
 9880SOL    HW130539   1.089   2.109   4.032
 9880SOL    HW230540   1.076   2.175   3.883
 9881SOL     OW30541   0.527   1.405   6.016
 9881SOL    HW130542   0.528   1.334   5.947
 9881SOL    HW230543   0.545   1.494   5.973
 9882SOL     OW30544   2.325   2.294   3.228
 9882SOL    HW130545   2.424   2.304   3.237
 9882SOL    HW230546   2.284   2.382   3.204
 9883SOL     OW30547   3.020   1.365   2.663
 9883SOL    HW130548   3.098   1.304   2.664
 9883SOL    HW230549   2.982   1.370   2.571
 9884SOL     OW30550   3.240   0.400   4.040
 9884SOL    HW130551   3.334   0.413   4.008
 9884SOL    HW230552   3.178   0.454   3.982
 9885SOL     OW30553   6.604   3.473   4.338
 9885SOL    HW130554   6.653   3.542   4.283
 9885SOL    HW230555   6.669   3.403   4.368
 9886SOL     OW30556   0.333   2.845   1.523
 9886SOL    HW130557   0.283   2.891   1.596
 9886SOL    HW230558   0.430   2.840   1.546
 9887SOL     OW30559   4.747   6.545   5.968
 9887SOL    HW130560   4.685   6.523   5.893
 9887SOL    HW230561   4.828   6.591   5.932
 9888SOL     OW30562   6.609   5.029   5.807
 9888SOL    HW130563   6.519   5.062   5.835
 9888SOL    HW230564   6.677   5.100   5.825
 9889SOL     OW30565   0.434   5.799   0.836
 9889SOL    HW130566   0.481   5.739   0.771
 9889SOL    HW230567   0.352   5.754   0.871
 9890SOL     OW30568   0.810   2.724   0.589
 9890SOL    HW130569   0.869   2.671   0.650
 9890SOL    HW230570   0.867   2.772   0.522
 9891SOL     OW30571   5.312   1.269   2.072
 9891SOL    HW130572   5.306   1.322   2.156
 9891SOL    HW230573   5.221   1.245   2.041
 9892SOL     OW30574   0.970   6.978   6.879
 9892SOL    HW130575   1.013   0.024   6.822
 9892SOL    HW230576   1.014   6.976   6.969
 9893SOL     OW30577   2.246   0.843   6.926
 9893SOL    HW130578   2.279   0.801   7.011
 9893SOL    HW230579   2.298   0.807   6.849
 9894SOL     OW30580   2.007   0.914   1.308
 9894SOL    HW130581   1.992   0.844   1.377
 9894SOL    HW230582   2.031   1.000   1.352
 9895SOL     OW30583   4.509   3.010   5.537
 9895SOL    HW130584   4.563   2.987   5.457
 9895SOL    HW230585   4.426   3.058   5.509
 9896SOL     OW30586   6.580   6.560   5.962
 9896SOL    HW130587   6.586   6.524   6.055
 9896SOL    HW230588   6.596   6.487   5.897
 9897SOL     OW30589   5.240   4.836   4.937
 9897SOL    HW130590   5.222   4.739   4.918
 9897SOL    HW230591   5.313   4.843   5.005
 9898SOL     OW30592   2.782   0.110   6.072
 9898SOL    HW130593   2.799   0.057   6.154
 9898SOL    HW230594   2.725   0.056   6.009
 9899SOL     OW30595   0.337   4.382   0.223
 9899SOL    HW130596   0.284   4.456   0.263
 9899SOL    HW230597   0.377   4.412   0.136
 9900SOL     OW30598   2.287   4.249   3.418
 9900SOL    HW130599   2.240   4.168   3.383
 9900SOL    HW230600   2.335   4.294   3.343
 9901SOL     OW30601   2.013   2.953   5.517
 9901SOL    HW130602   1.970   3.040   5.541
 9901SOL    HW230603   2.112   2.961   5.526
 9902SOL     OW30604   2.659   4.567   0.872
 9902SOL    HW130605   2.579   4.568   0.932
 9902SOL    HW230606   2.662   4.481   0.821
 9903SOL     OW30607   5.412   1.317   4.661
 9903SOL    HW130608   5.472   1.254   4.611
 9903SOL    HW230609   5.344   1.265   4.713
 9904SOL     OW30610   6.222   2.069   0.591
 9904SOL    HW130611   6.202   2.074   0.493
 9904SOL    HW230612   6.296   2.133   0.613
 9905SOL     OW30613   4.785   0.275   0.133
 9905SOL    HW130614   4.853   0.241   0.198
 9905SOL    HW230615   4.798   0.374   0.121
 9906SOL     OW30616   2.968   3.333   4.997
 9906SOL    HW130617   2.920   3.408   5.043
 9906SOL    HW230618   3.055   3.367   4.961
 9907SOL     OW30619   1.453   6.526   1.541
 9907SOL    HW130620   1.382   6.588   1.508
 9907SOL    HW230621   1.472   6.456   1.472
 9908SOL     OW30622   5.161   3.939   1.938
 9908SOL    HW130623   5.147   4.038   1.936
 9908SOL    HW230624   5.237   3.914   1.878
 9909SOL     OW30625   2.073   0.460   5.029
 9909SOL    HW130626   2.025   0.465   5.117
 9909SOL    HW230627   2.027   0.519   4.963
 9910SOL     OW30628   6.628   4.572   3.651
 9910SOL    HW130629   6.694   4.632   3.604
 9910SOL    HW230630   6.668   4.481   3.660
 9911SOL     OW30631   2.486   5.838   2.353
 9911SOL    HW130632   2.569   5.868   2.400
 9911SOL    HW230633   2.472   5.740   2.368
 9912SOL     OW30634   4.385   0.844   6.225
 9912SOL    HW130635   4.396   0.766   6.164
 9912SOL    HW230636   4.467   0.901   6.220
 9913SOL     OW30637   5.114   3.546   0.402
 9913SOL    HW130638   5.029   3.503   0.430
 9913SOL    HW230639   5.153   3.597   0.479
 9914SOL     OW30640   6.859   3.978   4.782
 9914SOL    HW130641   6.936   3.914   4.779
 9914SOL    HW230642   6.851   4.024   4.694
 9915SOL     OW30643   4.702   1.662   3.608
 9915SOL    HW130644   4.771   1.641   3.678
 9915SOL    HW230645   4.625   1.598   3.617
 9916SOL     OW30646   1.321   3.108   1.615
 9916SOL    HW130647   1.385   3.141   1.685
 9916SOL    HW230648   1.262   3.182   1.585
 9917SOL     OW30649   6.258   4.510   5.034
 9917SOL    HW130650   6.320   4.531   5.111
 9917SOL    HW230651   6.280   4.420   4.998
 9918SOL     OW30652   4.884   3.149   2.238
 9918SOL    HW130653   4.982   3.143   2.220
 9918SOL    HW230654   4.833   3.138   2.152
 9919SOL     OW30655   5.527   5.653   0.673
 9919SOL    HW130656   5.457   5.657   0.745
 9919SOL    HW230657   5.585   5.734   0.678
 9920SOL     OW30658   5.023   1.365   2.602
 9920SOL    HW130659   4.966   1.314   2.539
 9920SOL    HW230660   5.007   1.334   2.696
 9921SOL     OW30661   4.278   5.077   6.579
 9921SOL    HW130662   4.373   5.044   6.576
 9921SOL    HW230663   4.230   5.035   6.655
 9922SOL     OW30664   0.060   6.054   1.516
 9922SOL    HW130665   0.122   6.109   1.460
 9922SOL    HW230666   0.051   6.096   1.606
 9923SOL     OW30667   6.028   4.655   0.787
 9923SOL    HW130668   5.985   4.567   0.766
 9923SOL    HW230669   5.957   4.724   0.802
 9924SOL     OW30670   1.591   3.704   4.665
 9924SOL    HW130671   1.502   3.690   4.708
 9924SOL    HW230672   1.578   3.721   4.567
 9925SOL     OW30673   5.178   2.466   4.239
 9925SOL    HW130674   5.162   2.507   4.150
 9925SOL    HW230675   5.092   2.460   4.289
 9926SOL     OW30676   3.438   5.076   1.325
 9926SOL    HW130677   3.361   5.139   1.335
 9926SOL    HW230678   3.485   5.095   1.239
 9927SOL     OW30679   5.064   6.978   4.027
 9927SOL    HW130680   5.000   6.912   3.988
 9927SOL    HW230681   5.085   6.952   4.121
 9928SOL     OW30682   4.954   4.452   2.300
 9928SOL    HW130683   4.871   4.507   2.302
 9928SOL    HW230684   5.024   4.494   2.358
 9929SOL     OW30685   0.984   4.395   2.952
 9929SOL    HW130686   1.029   4.471   3.000
 9929SOL    HW230687   1.022   4.386   2.860
 9930SOL     OW30688   5.891   1.154   3.141
 9930SOL    HW130689   5.889   1.204   3.054
 9930SOL    HW230690   5.825   1.079   3.137
 9931SOL     OW30691   1.044   5.672   5.644
 9931SOL    HW130692   1.095   5.592   5.676
 9931SOL    HW230693   1.079   5.700   5.555
 9932SOL     OW30694   0.913   6.127   4.715
 9932SOL    HW130695   0.893   6.053   4.651
 9932SOL    HW230696   0.908   6.215   4.668
 9933SOL     OW30697   6.873   6.749   3.176
 9933SOL    HW130698   6.898   6.845   3.180
 9933SOL    HW230699   6.780   6.740   3.141
 9934SOL     OW30700   0.192   1.754   4.898
 9934SOL    HW130701   0.237   1.747   4.987
 9934SOL    HW230702   0.135   1.674   4.882
 9935SOL     OW30703   2.309   0.381   6.294
 9935SOL    HW130704   2.295   0.411   6.199
 9935SOL    HW230705   2.389   0.320   6.297
 9936SOL     OW30706   1.543   3.676   3.745
 9936SOL    HW130707   1.631   3.723   3.733
 9936SOL    HW230708   1.557   3.577   3.739
 9937SOL     OW30709   6.498   2.161   5.935
 9937SOL    HW130710   6.444   2.182   5.854
 9937SOL    HW230711   6.503   2.241   5.995
 9938SOL     OW30712   6.568   6.568   2.881
 9938SOL    HW130713   6.499   6.573   2.809
 9938SOL    HW230714   6.570   6.476   2.919
 9939SOL     OW30715   3.158   3.461   3.569
 9939SOL    HW130716   3.059   3.449   3.579
 9939SOL    HW230717   3.177   3.522   3.493
 9940SOL     OW30718   0.421   1.298   1.180
 9940SOL    HW130719   0.377   1.304   1.090
 9940SOL    HW230720   0.491   1.227   1.177
 9941SOL     OW30721   2.979   5.636   4.359
 9941SOL    HW130722   2.993   5.726   4.317
 9941SOL    HW230723   3.040   5.627   4.438
 9942SOL     OW30724   2.611   5.410   4.013
 9942SOL    HW130725   2.702   5.426   3.975
 9942SOL    HW230726   2.575   5.324   3.978
 9943SOL     OW30727   0.404   6.972   4.741
 9943SOL    HW130728   0.324   7.020   4.704
 9943SOL    HW230729   0.486   0.002   4.724
 9944SOL     OW30730   1.431   4.573   6.394
 9944SOL    HW130731   1.357   4.521   6.350
 9944SOL    HW230732   1.505   4.587   6.328
 9945SOL     OW30733   0.276   5.623   6.812
 9945SOL    HW130734   0.372   5.653   6.816
 9945SOL    HW230735   0.264   5.542   6.869
 9946SOL     OW30736   5.456   1.080   4.279
 9946SOL    HW130737   5.370   1.112   4.239
 9946SOL    HW230738   5.437   1.005   4.343
 9947SOL     OW30739   6.273   4.565   3.818
 9947SOL    HW130740   6.184   4.606   3.840
 9947SOL    HW230741   6.285   4.562   3.719
 9948SOL     OW30742   5.460   3.866   3.558
 9948SOL    HW130743   5.373   3.912   3.541
 9948SOL    HW230744   5.448   3.767   3.546
 9949SOL     OW30745   6.099   5.244   1.775
 9949SOL    HW130746   6.159   5.306   1.724
 9949SOL    HW230747   6.132   5.235   1.869
 9950SOL     OW30748   3.537   6.420   6.723
 9950SOL    HW130749   3.458   6.472   6.753
 9950SOL    HW230750   3.614   6.439   6.784
 9951SOL     OW30751   6.360   3.182   2.948
 9951SOL    HW130752   6.319   3.216   2.863
 9951SOL    HW230753   6.369   3.082   2.943
 9952SOL     OW30754   0.213   3.846   6.388
 9952SOL    HW130755   0.274   3.788   6.441
 9952SOL    HW230756   0.236   3.840   6.291
 9953SOL     OW30757   5.319   3.273   3.845
 9953SOL    HW130758   5.405   3.293   3.799
 9953SOL    HW230759   5.291   3.179   3.824
 9954SOL     OW30760   4.677   0.226   4.544
 9954SOL    HW130761   4.700   0.131   4.563
 9954SOL    HW230762   4.582   0.232   4.513
 9955SOL     OW30763   0.460   4.863   3.982
 9955SOL    HW130764   0.553   4.826   3.978
 9955SOL    HW230765   0.453   4.928   4.057
 9956SOL     OW30766   1.419   6.309   0.448
 9956SOL    HW130767   1.361   6.358   0.513
 9956SOL    HW230768   1.513   6.305   0.484
 9957SOL     OW30769   5.792   5.377   2.429
 9957SOL    HW130770   5.876   5.422   2.400
 9957SOL    HW230771   5.713   5.430   2.396
 9958SOL     OW30772   3.124   4.396   1.038
 9958SOL    HW130773   3.052   4.326   1.036
 9958SOL    HW230774   3.084   4.484   1.014
 9959SOL     OW30775   3.248   3.927   1.030
 9959SOL    HW130776   3.220   3.917   1.125
 9959SOL    HW230777   3.319   3.996   1.022
 9960SOL     OW30778   0.819   0.774   2.409
 9960SOL    HW130779   0.883   0.844   2.443
 9960SOL    HW230780   0.811   0.701   2.476
 9961SOL     OW30781   2.137   3.647   4.813
 9961SOL    HW130782   2.064   3.583   4.786
 9961SOL    HW230783   2.213   3.596   4.853
 9962SOL     OW30784   5.319   6.036   4.757
 9962SOL    HW130785   5.397   6.044   4.819
 9962SOL    HW230786   5.352   6.029   4.663
 9963SOL     OW30787   3.323   1.935   0.479
 9963SOL    HW130788   3.237   1.964   0.520
 9963SOL    HW230789   3.399   1.964   0.537
 9964SOL     OW30790   5.751   6.683   4.893
 9964SOL    HW130791   5.813   6.745   4.845
 9964SOL    HW230792   5.788   6.590   4.889
 9965SOL     OW30793   5.478   6.514   0.981
 9965SOL    HW130794   5.427   6.449   0.923
 9965SOL    HW230795   5.438   6.515   1.072
 9966SOL     OW30796   6.366   1.072   2.794
 9966SOL    HW130797   6.453   1.059   2.842
 9966SOL    HW230798   6.346   0.992   2.738
 9967SOL     OW30799   1.026   5.632   0.496
 9967SOL    HW130800   0.928   5.626   0.511
 9967SOL    HW230801   1.061   5.718   0.532
 9968SOL     OW30802   3.652   3.733   3.102
 9968SOL    HW130803   3.607   3.669   3.164
 9968SOL    HW230804   3.744   3.754   3.137
 9969SOL     OW30805   1.511   3.039   1.289
 9969SOL    HW130806   1.545   2.984   1.365
 9969SOL    HW230807   1.587   3.091   1.250
 9970SOL     OW30808   6.291   4.811   2.111
 9970SOL    HW130809   6.242   4.724   2.113
 9970SOL    HW230810   6.225   4.886   2.105
 9971SOL     OW30811   2.935   6.505   6.701
 9971SOL    HW130812   2.863   6.437   6.716
 9971SOL    HW230813   2.938   6.530   6.605
 9972SOL     OW30814   6.846   5.142   1.582
 9972SOL    HW130815   6.817   5.209   1.515
 9972SOL    HW230816   6.779   5.068   1.588
 9973SOL     OW30817   5.465   6.358   3.642
 9973SOL    HW130818   5.518   6.438   3.613
 9973SOL    HW230819   5.521   6.302   3.703
 9974SOL     OW30820   2.192   0.717   4.411
 9974SOL    HW130821   2.292   0.716   4.417
 9974SOL    HW230822   2.163   0.701   4.317
 9975SOL     OW30823   0.100   4.307   1.178
 9975SOL    HW130824   0.125   4.292   1.082
 9975SOL    HW230825   0.034   4.237   1.206
 9976SOL     OW30826   3.512   6.596   4.272
 9976SOL    HW130827   3.447   6.546   4.216
 9976SOL    HW230828   3.592   6.539   4.290
 9977SOL     OW30829   6.486   4.953   3.911
 9977SOL    HW130830   6.490   5.032   3.972
 9977SOL    HW230831   6.510   4.982   3.818
 9978SOL     OW30832   6.707   2.788   4.363
 9978SOL    HW130833   6.742   2.881   4.353
 9978SOL    HW230834   6.714   2.760   4.458
 9979SOL     OW30835   0.919   3.881   5.131
 9979SOL    HW130836   0.999   3.855   5.186
 9979SOL    HW230837   0.841   3.823   5.156
 9980SOL     OW30838   2.720   6.122   5.238
 9980SOL    HW130839   2.701   6.115   5.140
 9980SOL    HW230840   2.816   6.145   5.253
 9981SOL     OW30841   3.786   2.170   3.234
 9981SOL    HW130842   3.812   2.224   3.314
 9981SOL    HW230843   3.746   2.083   3.264
 9982SOL     OW30844   6.315   6.899   2.602
 9982SOL    HW130845   6.289   6.857   2.689
 9982SOL    HW230846   6.327   6.828   2.532
 9983SOL     OW30847   6.768   0.512   1.641
 9983SOL    HW130848   6.775   0.430   1.698
 9983SOL    HW230849   6.703   0.495   1.567
 9984SOL     OW30850   3.188   0.778   6.296
 9984SOL    HW130851   3.104   0.787   6.350
 9984SOL    HW230852   3.164   0.770   6.199
 9985SOL     OW30853   1.895   1.350   1.426
 9985SOL    HW130854   1.859   1.315   1.512
 9985SOL    HW230855   1.886   1.279   1.355
 9986SOL     OW30856   5.144   3.953   4.562
 9986SOL    HW130857   5.046   3.935   4.554
 9986SOL    HW230858   5.167   4.037   4.512
 9987SOL     OW30859   0.143   4.031   5.516
 9987SOL    HW130860   0.150   3.937   5.482
 9987SOL    HW230861   0.234   4.065   5.537
 9988SOL     OW30862   6.684   1.017   4.245
 9988SOL    HW130863   6.716   1.000   4.338
 9988SOL    HW230864   6.613   0.950   4.222
 9989SOL     OW30865   2.111   2.434   4.472
 9989SOL    HW130866   2.060   2.382   4.541
 9989SOL    HW230867   2.159   2.510   4.516
 9990SOL     OW30868   0.874   4.888   1.584
 9990SOL    HW130869   0.779   4.908   1.609
 9990SOL    HW230870   0.931   4.890   1.666
 9991SOL     OW30871   3.577   1.988   3.559
 9991SOL    HW130872   3.662   2.002   3.609
 9991SOL    HW230873   3.595   1.997   3.461
 9992SOL     OW30874   5.909   5.387   6.206
 9992SOL    HW130875   5.981   5.431   6.259
 9992SOL    HW230876   5.862   5.320   6.263
 9993SOL     OW30877   1.239   0.722   2.423
 9993SOL    HW130878   1.313   0.693   2.363
 9993SOL    HW230879   1.258   0.691   2.517
 9994SOL     OW30880   6.248   4.065   3.789
 9994SOL    HW130881   6.265   4.119   3.872
 9994SOL    HW230882   6.150   4.044   3.782
 9995SOL     OW30883   5.483   1.720   4.616
 9995SOL    HW130884   5.511   1.628   4.587
 9995SOL    HW230885   5.559   1.784   4.602
 9996SOL     OW30886   3.146   3.131   0.403
 9996SOL    HW130887   3.232   3.179   0.422
 9996SOL    HW230888   3.130   3.063   0.475
 9997SOL     OW30889   2.557   1.069   4.390
 9997SOL    HW130890   2.581   1.029   4.478
 9997SOL    HW230891   2.460   1.094   4.390
 9998SOL     OW30892   6.058   6.107   4.833
 9998SOL    HW130893   5.996   6.072   4.763
 9998SOL    HW230894   6.135   6.044   4.844
 9999SOL     OW30895   0.100   0.956   5.132
 9999SOL    HW130896   0.029   0.892   5.100
 9999SOL    HW230897   0.056   1.038   5.168
10000SOL     OW30898   6.867   4.870   0.535
10000SOL    HW130899   6.783   4.816   0.536
10000SOL    HW230900   6.888   4.896   0.441
10001SOL     OW30901   3.869   0.605   3.888
10001SOL    HW130902   3.813   0.545   3.945
10001SOL    HW230903   3.959   0.565   3.875
10002SOL     OW30904   0.878   1.777   1.375
10002SOL    HW130905   0.907   1.751   1.467
10002SOL    HW230906   0.784   1.812   1.379
10003SOL     OW30907   5.299   4.281   2.015
10003SOL    HW130908   5.204   4.295   2.042
10003SOL    HW230909   5.339   4.368   1.987
10004SOL     OW30910   6.842   3.821   4.056
10004SOL    HW130911   6.902   3.885   4.009
10004SOL    HW230912   6.855   3.729   4.020
10005SOL     OW30913   4.676   0.529   3.522
10005SOL    HW130914   4.686   0.454   3.456
10005SOL    HW230915   4.755   0.528   3.584
10006SOL     OW30916   5.041   2.644   4.030
10006SOL    HW130917   5.092   2.729   4.014
10006SOL    HW230918   4.969   2.636   3.962
10007SOL     OW30919   5.373   5.187   4.449
10007SOL    HW130920   5.345   5.164   4.542
10007SOL    HW230921   5.332   5.122   4.385
10008SOL     OW30922   2.664   6.988   3.988
10008SOL    HW130923   2.655   0.008   4.076
10008SOL    HW230924   2.705   6.898   4.000
10009SOL     OW30925   1.878   4.293   1.574
10009SOL    HW130926   1.855   4.196   1.576
10009SOL    HW230927   1.865   4.328   1.481
10010SOL     OW30928   5.932   0.782   6.179
10010SOL    HW130929   5.924   0.757   6.275
10010SOL    HW230930   5.928   0.699   6.123
10011SOL     OW30931   7.005   6.596   3.793
10011SOL    HW130932   6.959   6.681   3.817
10011SOL    HW230933   0.022   6.605   3.703
10012SOL     OW30934   5.038   0.851   5.230
10012SOL    HW130935   5.076   0.804   5.309
10012SOL    HW230936   5.068   0.805   5.146
10013SOL     OW30937   1.093   0.616   1.356
10013SOL    HW130938   1.136   0.578   1.438
10013SOL    HW230939   1.030   0.549   1.317
10014SOL     OW30940   1.639   4.784   5.944
10014SOL    HW130941   1.578   4.783   5.865
10014SOL    HW230942   1.607   4.850   6.011
10015SOL     OW30943   2.492   6.044   6.116
10015SOL    HW130944   2.468   6.140   6.099
10015SOL    HW230945   2.576   6.022   6.066
10016SOL     OW30946   2.205   1.422   5.353
10016SOL    HW130947   2.294   1.432   5.397
10016SOL    HW230948   2.136   1.399   5.421
10017SOL     OW30949   6.977   2.157   3.240
10017SOL    HW130950   6.979   2.237   3.300
10017SOL    HW230951   6.943   2.078   3.291
10018SOL     OW30952   5.067   6.507   6.615
10018SOL    HW130953   5.023   6.459   6.538
10018SOL    HW230954   5.002   6.573   6.653
10019SOL     OW30955   1.001   0.571   3.257
10019SOL    HW130956   0.967   0.629   3.331
10019SOL    HW230957   1.067   0.505   3.294
10020SOL     OW30958   1.165   3.761   0.179
10020SOL    HW130959   1.081   3.734   0.225
10020SOL    HW230960   1.184   3.857   0.197
10021SOL     OW30961   4.955   3.041   1.156
10021SOL    HW130962   5.038   2.998   1.189
10021SOL    HW230963   4.875   2.997   1.198
10022SOL     OW30964   2.069   0.937   6.329
10022SOL    HW130965   1.992   0.873   6.336
10022SOL    HW230966   2.034   1.031   6.331
10023SOL     OW30967   0.124   3.260   0.363
10023SOL    HW130968   0.182   3.231   0.287
10023SOL    HW230969   0.031   3.276   0.328
10024SOL     OW30970   1.040   3.899   2.685
10024SOL    HW130971   1.054   3.877   2.782
10024SOL    HW230972   1.067   3.993   2.668
10025SOL     OW30973   1.043   1.590   0.750
10025SOL    HW130974   1.106   1.626   0.819
10025SOL    HW230975   1.094   1.571   0.666
10026SOL     OW30976   6.088   0.969   4.615
10026SOL    HW130977   6.176   1.001   4.580
10026SOL    HW230978   6.043   0.914   4.544
10027SOL     OW30979   5.754   3.078   6.146
10027SOL    HW130980   5.666   3.040   6.174
10027SOL    HW230981   5.739   3.153   6.082
10028SOL     OW30982   1.610   1.677   1.867
10028SOL    HW130983   1.517   1.641   1.864
10028SOL    HW230984   1.608   1.777   1.859
10029SOL     OW30985   3.546   1.377   4.423
10029SOL    HW130986   3.612   1.383   4.347
10029SOL    HW230987   3.522   1.281   4.438
10030SOL     OW30988   0.707   1.090   2.149
10030SOL    HW130989   0.656   1.167   2.109
10030SOL    HW230990   0.677   1.005   2.107
10031SOL     OW30991   0.118   5.337   3.100
10031SOL    HW130992   0.207   5.293   3.095
10031SOL    HW230993   0.053   5.288   3.041
10032SOL     OW30994   3.587   2.185   5.393
10032SOL    HW130995   3.596   2.155   5.488
10032SOL    HW230996   3.638   2.270   5.381
10033SOL     OW30997   6.052   2.782   3.465
10033SOL    HW130998   5.999   2.715   3.517
10033SOL    HW230999   6.054   2.869   3.514
10034SOL     OW31000   3.816   6.522   5.955
10034SOL    HW131001   3.830   6.426   5.931
10034SOL    HW231002   3.791   6.574   5.874
10035SOL     OW31003   0.391   6.774   4.071
10035SOL    HW131004   0.365   6.677   4.067
10035SOL    HW231005   0.487   6.784   4.046
10036SOL     OW31006   6.276   0.682   0.514
10036SOL    HW131007   6.352   0.715   0.457
10036SOL    HW231008   6.275   0.732   0.600
10037SOL     OW31009   0.193   6.626   1.124
10037SOL    HW131010   0.222   6.721   1.110
10037SOL    HW231011   0.243   6.566   1.062
10038SOL     OW31012   6.030   7.024   0.913
10038SOL    HW131013   6.085   0.081   0.926
10038SOL    HW231014   5.988   6.998   1.000
10039SOL     OW31015   4.079   1.044   2.937
10039SOL    HW131016   4.094   1.131   2.890
10039SOL    HW231017   4.069   1.060   3.035
10040SOL     OW31018   0.761   2.016   0.462
10040SOL    HW131019   0.739   1.984   0.370
10040SOL    HW231020   0.681   2.005   0.522
10041SOL     OW31021   1.337   6.614   0.257
10041SOL    HW131022   1.412   6.651   0.311
10041SOL    HW231023   1.254   6.608   0.313
10042SOL     OW31024   6.523   1.864   3.587
10042SOL    HW131025   6.556   1.814   3.667
10042SOL    HW231026   6.445   1.922   3.613
10043SOL     OW31027   2.450   2.680   5.684
10043SOL    HW131028   2.416   2.713   5.596
10043SOL    HW231029   2.376   2.683   5.752
10044SOL     OW31030   4.076   0.730   0.141
10044SOL    HW131031   4.027   0.671   0.078
10044SOL    HW231032   4.097   0.817   0.096
10045SOL     OW31033   2.509   0.396   1.312
10045SOL    HW131034   2.507   0.401   1.212
10045SOL    HW231035   2.415   0.389   1.346
10046SOL     OW31036   0.745   6.018   6.745
10046SOL    HW131037   0.796   5.988   6.665
10046SOL    HW231038   0.784   6.104   6.779
10047SOL     OW31039   1.721   3.729   0.924
10047SOL    HW131040   1.683   3.725   1.016
10047SOL    HW231041   1.659   3.781   0.864
10048SOL     OW31042   6.313   3.570   0.906
10048SOL    HW131043   6.254   3.542   0.982
10048SOL    HW231044   6.378   3.497   0.887
10049SOL     OW31045   6.592   1.863   4.567
10049SOL    HW131046   6.668   1.924   4.544
10049SOL    HW231047   6.512   1.917   4.590
10050SOL     OW31048   0.155   2.184   6.042
10050SOL    HW131049   0.157   2.154   5.947
10050SOL    HW231050   0.242   2.229   6.064
10051SOL     OW31051   1.714   0.422   3.236
10051SOL    HW131052   1.750   0.511   3.264
10051SOL    HW231053   1.763   0.349   3.284
10052SOL     OW31054   1.119   0.182   4.131
10052SOL    HW131055   1.074   0.119   4.068
10052SOL    HW231056   1.214   0.153   4.146
10053SOL     OW31057   5.936   5.679   2.432
10053SOL    HW131058   6.016   5.710   2.484
10053SOL    HW231059   5.853   5.699   2.484
10054SOL     OW31060   5.194   3.982   3.579
10054SOL    HW131061   5.098   3.957   3.591
10054SOL    HW231062   5.201   4.080   3.561
10055SOL     OW31063   1.653   1.845   6.893
10055SOL    HW131064   1.565   1.857   6.848
10055SOL    HW231065   1.682   1.749   6.884
10056SOL     OW31066   5.137   2.713   4.544
10056SOL    HW131067   5.198   2.651   4.495
10056SOL    HW231068   5.105   2.669   4.627
10057SOL     OW31069   5.864   4.177   4.878
10057SOL    HW131070   5.835   4.239   4.951
10057SOL    HW231071   5.878   4.228   4.793
10058SOL     OW31072   6.416   3.839   3.874
10058SOL    HW131073   6.375   3.921   3.834
10058SOL    HW231074   6.514   3.855   3.886
10059SOL     OW31075   5.438   6.067   5.717
10059SOL    HW131076   5.358   6.109   5.759
10059SOL    HW231077   5.411   6.022   5.632
10060SOL     OW31078   2.915   1.747   1.877
10060SOL    HW131079   3.001   1.699   1.893
10060SOL    HW231080   2.858   1.742   1.959
10061SOL     OW31081   4.236   6.804   3.369
10061SOL    HW131082   4.210   6.841   3.459
10061SOL    HW231083   4.161   6.749   3.333
10062SOL     OW31084   6.756   0.322   4.761
10062SOL    HW131085   6.749   0.336   4.859
10062SOL    HW231086   6.848   0.345   4.730
10063SOL     OW31087   3.920   2.210   3.465
10063SOL    HW131088   4.019   2.202   3.480
10063SOL    HW231089   3.873   2.204   3.553
10064SOL     OW31090   2.227   6.412   2.767
10064SOL    HW131091   2.205   6.320   2.735
10064SOL    HW231092   2.299   6.407   2.837
10065SOL     OW31093   6.405   1.908   1.527
10065SOL    HW131094   6.497   1.903   1.565
10065SOL    HW231095   6.368   1.816   1.514
10066SOL     OW31096   6.254   4.179   3.537
10066SOL    HW131097   6.272   4.141   3.628
10066SOL    HW231098   6.282   4.112   3.467
10067SOL     OW31099   5.458   3.391   5.166
10067SOL    HW131100   5.469   3.296   5.196
10067SOL    HW231101   5.549   3.432   5.154
10068SOL     OW31102   2.121   3.395   2.861
10068SOL    HW131103   2.110   3.324   2.791
10068SOL    HW231104   2.118   3.352   2.952
10069SOL     OW31105   3.085   5.370   1.777
10069SOL    HW131106   2.993   5.405   1.756
10069SOL    HW231107   3.098   5.367   1.876
10070SOL     OW31108   5.036   0.650   6.981
10070SOL    HW131109   4.984   0.730   7.010
10070SOL    HW231110   4.987   0.604   6.907
10071SOL     OW31111   5.293   0.915   5.097
10071SOL    HW131112   5.246   0.936   5.183
10071SOL    HW231113   5.365   0.983   5.081
10072SOL     OW31114   5.684   3.246   2.206
10072SOL    HW131115   5.682   3.157   2.162
10072SOL    HW231116   5.593   3.289   2.199
10073SOL     OW31117   5.740   5.603   5.214
10073SOL    HW131118   5.734   5.605   5.114
10073SOL    HW231119   5.654   5.568   5.252
10074SOL     OW31120   1.740   4.439   0.853
10074SOL    HW131121   1.640   4.449   0.848
10074SOL    HW231122   1.770   4.462   0.946
10075SOL     OW31123   0.797   3.257   1.423
10075SOL    HW131124   0.859   3.181   1.405
10075SOL    HW231125   0.753   3.286   1.337
10076SOL     OW31126   6.042   4.772   3.849
10076SOL    HW131127   5.970   4.788   3.782
10076SOL    HW231128   6.060   4.857   3.900
10077SOL     OW31129   4.093   3.715   6.838
10077SOL    HW131130   4.062   3.716   6.933
10077SOL    HW231131   4.169   3.650   6.829
10078SOL     OW31132   5.894   6.039   3.884
10078SOL    HW131133   5.820   6.005   3.826
10078SOL    HW231134   5.960   6.090   3.828
10079SOL     OW31135   5.992   5.089   3.248
10079SOL    HW131136   6.002   5.177   3.200
10079SOL    HW231137   6.013   5.102   3.345
10080SOL     OW31138   5.247   2.652   5.051
10080SOL    HW131139   5.171   2.706   5.015
10080SOL    HW231140   5.272   2.582   4.985
10081SOL     OW31141   1.406   5.016   0.792
10081SOL    HW131142   1.480   5.044   0.853
10081SOL    HW231143   1.329   5.079   0.803
10082SOL     OW31144   0.377   4.349   1.730
10082SOL    HW131145   0.365   4.267   1.784
10082SOL    HW231146   0.298   4.410   1.742
10083SOL     OW31147   3.236   6.148   2.678
10083SOL    HW131148   3.321   6.200   2.686
10083SOL    HW231149   3.196   6.136   2.769
10084SOL     OW31150   1.729   3.145   4.709
10084SOL    HW131151   1.729   3.193   4.622
10084SOL    HW231152   1.789   3.065   4.703
10085SOL     OW31153   3.627   6.864   1.751
10085SOL    HW131154   3.601   6.903   1.662
10085SOL    HW231155   3.717   6.899   1.777
10086SOL     OW31156   2.590   0.952   3.328
10086SOL    HW131157   2.622   0.869   3.374
10086SOL    HW231158   2.491   0.962   3.342
10087SOL     OW31159   1.630   5.719   6.200
10087SOL    HW131160   1.642   5.745   6.296
10087SOL    HW231161   1.540   5.675   6.189
10088SOL     OW31162   5.950   1.614   0.868
10088SOL    HW131163   5.930   1.705   0.905
10088SOL    HW231164   5.924   1.544   0.935
10089SOL     OW31165   3.557   6.682   2.934
10089SOL    HW131166   3.497   6.606   2.911
10089SOL    HW231167   3.510   6.745   2.995
10090SOL     OW31168   3.395   6.161   2.221
10090SOL    HW131169   3.402   6.105   2.139
10090SOL    HW231170   3.438   6.114   2.298
10091SOL     OW31171   5.202   6.144   2.843
10091SOL    HW131172   5.143   6.143   2.923
10091SOL    HW231173   5.290   6.185   2.867
10092SOL     OW31174   6.818   1.532   2.658
10092SOL    HW131175   6.817   1.551   2.560
10092SOL    HW231176   6.797   1.436   2.674
10093SOL     OW31177   4.533   4.111   6.324
10093SOL    HW131178   4.562   4.190   6.378
10093SOL    HW231179   4.458   4.138   6.264
10094SOL     OW31180   4.116   2.683   0.307
10094SOL    HW131181   4.082   2.618   0.239
10094SOL    HW231182   4.108   2.643   0.398
10095SOL     OW31183   4.336   2.703   5.316
10095SOL    HW131184   4.251   2.683   5.267
10095SOL    HW231185   4.319   2.697   5.414
10096SOL     OW31186   6.748   4.848   1.626
10096SOL    HW131187   6.826   4.816   1.680
10096SOL    HW231188   6.677   4.778   1.627
10097SOL     OW31189   0.817   1.068   1.431
10097SOL    HW131190   0.737   1.061   1.490
10097SOL    HW231191   0.852   0.976   1.413
10098SOL     OW31192   3.869   5.071   0.602
10098SOL    HW131193   3.909   5.113   0.520
10098SOL    HW231194   3.940   5.026   0.655
10099SOL     OW31195   6.975   6.327   3.397
10099SOL    HW131196   6.947   6.404   3.340
10099SOL    HW231197   0.016   6.359   3.465
10100SOL     OW31198   5.233   5.514   4.100
10100SOL    HW131199   5.255   5.431   4.049
10100SOL    HW231200   5.277   5.510   4.190
10101SOL     OW31201   7.006   2.014   6.479
10101SOL    HW131202   6.973   2.071   6.403
10101SOL    HW231203   0.066   1.969   6.452
10102SOL     OW31204   0.343   5.143   3.090
10102SOL    HW131205   0.433   5.182   3.110
10102SOL    HW231206   0.308   5.096   3.171
10103SOL     OW31207   0.142   0.742   6.826
10103SOL    HW131208   0.223   0.798   6.842
10103SOL    HW231209   0.064   0.782   6.875
10104SOL     OW31210   2.520   1.463   4.405
10104SOL    HW131211   2.463   1.522   4.349
10104SOL    HW231212   2.462   1.413   4.470
10105SOL     OW31213   3.525   1.563   4.060
10105SOL    HW131214   3.466   1.628   4.011
10105SOL    HW231215   3.476   1.524   4.137
10106SOL     OW31216   7.009   3.687   1.059
10106SOL    HW131217   6.990   3.775   1.014
10106SOL    HW231218   0.074   3.691   1.103
10107SOL     OW31219   4.841   5.556   5.872
10107SOL    HW131220   4.811   5.489   5.804
10107SOL    HW231221   4.937   5.540   5.894
10108SOL     OW31222   3.240   1.804   4.947
10108SOL    HW131223   3.239   1.743   5.026
10108SOL    HW231224   3.152   1.850   4.939
10109SOL     OW31225   1.266   2.897   0.759
10109SOL    HW131226   1.229   2.958   0.830
10109SOL    HW231227   1.237   2.931   0.669
10110SOL     OW31228   6.149   6.458   1.487
10110SOL    HW131229   6.072   6.401   1.514
10110SOL    HW231230   6.161   6.454   1.387
10111SOL     OW31231   6.122   2.371   2.026
10111SOL    HW131232   6.175   2.321   1.957
10111SOL    HW231233   6.165   2.360   2.115
10112SOL     OW31234   0.236   2.807   3.483
10112SOL    HW131235   0.272   2.900   3.479
10112SOL    HW231236   0.269   2.755   3.404
10113SOL     OW31237   6.967   6.925   6.338
10113SOL    HW131238   6.998   6.886   6.251
10113SOL    HW231239   6.898   6.865   6.379
10114SOL     OW31240   6.388   4.313   1.012
10114SOL    HW131241   6.303   4.352   1.048
10114SOL    HW231242   6.387   4.318   0.912
10115SOL     OW31243   3.249   1.748   6.713
10115SOL    HW131244   3.283   1.807   6.640
10115SOL    HW231245   3.319   1.740   6.784
10116SOL     OW31246   0.891   6.651   6.486
10116SOL    HW131247   0.971   6.591   6.481
10116SOL    HW231248   0.838   6.643   6.401
10117SOL     OW31249   0.776   4.293   1.209
10117SOL    HW131250   0.742   4.320   1.299
10117SOL    HW231251   0.787   4.375   1.152
10118SOL     OW31252   3.594   5.217   3.947
10118SOL    HW131253   3.564   5.125   3.975
10118SOL    HW231254   3.651   5.209   3.866
10119SOL     OW31255   5.694   5.885   6.966
10119SOL    HW131256   5.701   5.792   7.003
10119SOL    HW231257   5.777   5.909   6.916
10120SOL     OW31258   2.557   2.549   2.783
10120SOL    HW131259   2.563   2.526   2.685
10120SOL    HW231260   2.632   2.611   2.806
10121SOL     OW31261   6.583   5.739   1.440
10121SOL    HW131262   6.650   5.789   1.495
10121SOL    HW231263   6.497   5.789   1.439
10122SOL     OW31264   1.993   7.004   3.306
10122SOL    HW131265   2.074   6.969   3.353
10122SOL    HW231266   1.912   6.951   3.334
10123SOL     OW31267   6.346   6.613   6.560
10123SOL    HW131268   6.265   6.622   6.503
10123SOL    HW231269   6.384   6.703   6.579
10124SOL     OW31270   0.538   5.032   3.323
10124SOL    HW131271   0.577   5.069   3.239
10124SOL    HW231272   0.438   5.027   3.314
10125SOL     OW31273   2.003   2.613   4.002
10125SOL    HW131274   2.032   2.523   3.970
10125SOL    HW231275   1.951   2.602   4.087
10126SOL     OW31276   7.010   5.961   4.445
10126SOL    HW131277   0.028   5.905   4.374
10126SOL    HW231278   0.008   6.057   4.429
10127SOL     OW31279   2.604   1.122   4.924
10127SOL    HW131280   2.650   1.132   5.011
10127SOL    HW231281   2.636   1.038   4.879
10128SOL     OW31282   2.748   1.196   0.614
10128SOL    HW131283   2.778   1.101   0.616
10128SOL    HW231284   2.826   1.257   0.628
10129SOL     OW31285   6.453   1.555   5.808
10129SOL    HW131286   6.528   1.494   5.784
10129SOL    HW231287   6.490   1.641   5.844
10130SOL     OW31288   1.201   2.851   3.290
10130SOL    HW131289   1.174   2.844   3.386
10130SOL    HW231290   1.285   2.799   3.275
10131SOL     OW31291   2.781   1.109   5.146
10131SOL    HW131292   2.689   1.109   5.187
10131SOL    HW231293   2.841   1.167   5.201
10132SOL     OW31294   6.055   0.390   1.968
10132SOL    HW131295   5.995   0.376   1.889
10132SOL    HW231296   6.005   0.370   2.052
10133SOL     OW31297   4.580   5.697   1.572
10133SOL    HW131298   4.572   5.774   1.508
10133SOL    HW231299   4.530   5.719   1.656
10134SOL     OW31300   6.452   1.604   3.005
10134SOL    HW131301   6.365   1.638   3.040
10134SOL    HW231302   6.435   1.529   2.941
10135SOL     OW31303   6.591   6.763   3.072
10135SOL    HW131304   6.582   6.679   3.019
10135SOL    HW231305   6.551   6.750   3.163
10136SOL     OW31306   5.092   0.615   2.970
10136SOL    HW131307   5.117   0.551   2.897
10136SOL    HW231308   5.090   0.708   2.934
10137SOL     OW31309   5.879   5.980   2.617
10137SOL    HW131310   5.971   5.977   2.655
10137SOL    HW231311   5.883   5.957   2.520
10138SOL     OW31312   0.000   1.957   2.016
10138SOL    HW131313   6.959   1.883   2.003
10138SOL    HW231314   0.077   1.923   2.070
10139SOL     OW31315   4.513   2.849   0.813
10139SOL    HW131316   4.590   2.901   0.776
10139SOL    HW231317   4.504   2.867   0.911
10140SOL     OW31318   6.111   6.211   3.757
10140SOL    HW131319   6.138   6.244   3.667
10140SOL    HW231320   6.097   6.288   3.819
10141SOL     OW31321   0.856   1.978   4.434
10141SOL    HW131322   0.864   2.030   4.348
10141SOL    HW231323   0.858   2.041   4.511
10142SOL     OW31324   4.495   6.589   1.680
10142SOL    HW131325   4.487   6.565   1.777
10142SOL    HW231326   4.498   6.506   1.625
10143SOL     OW31327   6.891   3.314   0.155
10143SOL    HW131328   6.892   3.412   0.176
10143SOL    HW231329   6.927   3.300   0.062
10144SOL     OW31330   4.877   0.278   2.261
10144SOL    HW131331   4.812   0.316   2.194
10144SOL    HW231332   4.905   0.350   2.324
10145SOL     OW31333   6.371   0.356   5.468
10145SOL    HW131334   6.366   0.272   5.521
10145SOL    HW231335   6.293   0.415   5.490
10146SOL     OW31336   1.556   1.673   5.496
10146SOL    HW131337   1.546   1.713   5.405
10146SOL    HW231338   1.466   1.656   5.536
10147SOL     OW31339   3.239   4.626   0.657
10147SOL    HW131340   3.289   4.705   0.622
10147SOL    HW231341   3.150   4.621   0.610
10148SOL     OW31342   6.844   5.762   6.957
10148SOL    HW131343   6.923   5.703   6.973
10148SOL    HW231344   6.777   5.715   6.900
10149SOL     OW31345   3.718   2.990   4.276
10149SOL    HW131346   3.662   3.067   4.248
10149SOL    HW231347   3.732   2.929   4.198
10150SOL     OW31348   6.453   4.091   6.768
10150SOL    HW131349   6.529   4.156   6.770
10150SOL    HW231350   6.451   4.045   6.679
10151SOL     OW31351   0.332   0.187   0.231
10151SOL    HW131352   0.298   0.281   0.234
10151SOL    HW231353   0.431   0.188   0.216
10152SOL     OW31354   3.646   6.339   4.011
10152SOL    HW131355   3.605   6.333   4.101
10152SOL    HW231356   3.588   6.292   3.944
10153SOL     OW31357   4.643   4.390   1.030
10153SOL    HW131358   4.682   4.375   0.939
10153SOL    HW231359   4.557   4.440   1.021
10154SOL     OW31360   5.061   4.921   6.082
10154SOL    HW131361   5.127   4.982   6.038
10154SOL    HW231362   5.099   4.829   6.087
10155SOL     OW31363   4.812   2.452   5.036
10155SOL    HW131364   4.767   2.379   4.984
10155SOL    HW231365   4.909   2.428   5.049
10156SOL     OW31366   3.210   2.067   6.834
10156SOL    HW131367   3.306   2.094   6.838
10156SOL    HW231368   3.189   2.005   6.909
10157SOL     OW31369   6.836   5.738   2.094
10157SOL    HW131370   6.914   5.801   2.095
10157SOL    HW231371   6.865   5.651   2.134
10158SOL     OW31372   0.054   4.728   6.209
10158SOL    HW131373   7.002   4.679   6.169
10158SOL    HW231374   0.074   4.810   6.156
10159SOL     OW31375   4.005   3.158   1.572
10159SOL    HW131376   4.067   3.234   1.591
10159SOL    HW231377   3.950   3.179   1.492
10160SOL     OW31378   0.249   4.213   2.165
10160SOL    HW131379   0.177   4.183   2.103
10160SOL    HW231380   0.313   4.138   2.182
10161SOL     OW31381   6.460   2.473   0.527
10161SOL    HW131382   6.525   2.403   0.554
10161SOL    HW231383   6.448   2.472   0.428
10162SOL     OW31384   2.142   2.091   1.859
10162SOL    HW131385   2.064   2.117   1.801
10162SOL    HW231386   2.193   2.018   1.815
10163SOL     OW31387   3.690   5.085   4.977
10163SOL    HW131388   3.682   5.030   4.894
10163SOL    HW231389   3.786   5.108   4.992
10164SOL     OW31390   0.613   1.230   3.711
10164SOL    HW131391   0.670   1.215   3.791
10164SOL    HW231392   0.670   1.231   3.629
10165SOL     OW31393   2.035   3.171   3.382
10165SOL    HW131394   2.116   3.143   3.330
10165SOL    HW231395   2.011   3.265   3.357
10166SOL     OW31396   3.155   6.129   3.277
10166SOL    HW131397   3.127   6.177   3.360
10166SOL    HW231398   3.111   6.171   3.198
10167SOL     OW31399   3.767   1.271   0.299
10167SOL    HW131400   3.760   1.175   0.325
10167SOL    HW231401   3.808   1.324   0.373
10168SOL     OW31402   0.559   0.936   7.016
10168SOL    HW131403   0.552   0.863   0.058
10168SOL    HW231404   0.502   0.914   6.936
10169SOL     OW31405   4.526   5.107   2.814
10169SOL    HW131406   4.453   5.128   2.880
10169SOL    HW231407   4.513   5.014   2.780
10170SOL     OW31408   4.631   6.481   6.963
10170SOL    HW131409   4.688   6.526   0.007
10170SOL    HW231410   4.550   6.537   6.946
10171SOL     OW31411   1.483   4.396   3.255
10171SOL    HW131412   1.434   4.433   3.176
10171SOL    HW231413   1.517   4.304   3.233
10172SOL     OW31414   0.788   0.683   3.116
10172SOL    HW131415   0.867   0.653   3.170
10172SOL    HW231416   0.812   0.767   3.066
10173SOL     OW31417   4.286   2.338   4.449
10173SOL    HW131418   4.191   2.326   4.422
10173SOL    HW231419   4.320   2.425   4.413
10174SOL     OW31420   4.492   5.294   1.225
10174SOL    HW131421   4.580   5.263   1.262
10174SOL    HW231422   4.469   5.383   1.264
10175SOL     OW31423   6.646   6.632   4.154
10175SOL    HW131424   6.695   6.627   4.242
10175SOL    HW231425   6.554   6.668   4.169
10176SOL     OW31426   0.069   1.392   5.123
10176SOL    HW131427   0.163   1.380   5.154
10176SOL    HW231428   0.068   1.434   5.033
10177SOL     OW31429   3.138   1.093   4.892
10177SOL    HW131430   3.076   1.170   4.907
10177SOL    HW231431   3.154   1.081   4.794
10178SOL     OW31432   6.212   1.654   2.115
10178SOL    HW131433   6.307   1.630   2.096
10178SOL    HW231434   6.175   1.709   2.041
10179SOL     OW31435   6.888   6.061   1.018
10179SOL    HW131436   6.838   6.064   1.104
10179SOL    HW231437   6.891   5.966   0.985
10180SOL     OW31438   1.600   0.232   6.130
10180SOL    HW131439   1.548   0.274   6.205
10180SOL    HW231440   1.698   0.235   6.152
10181SOL     OW31441   0.543   3.802   1.935
10181SOL    HW131442   0.534   3.900   1.953
10181SOL    HW231443   0.575   3.756   2.017
10182SOL     OW31444   2.584   6.784   6.256
10182SOL    HW131445   2.549   6.815   6.167
10182SOL    HW231446   2.666   6.729   6.243
10183SOL     OW31447   3.826   5.825   6.228
10183SOL    HW131448   3.794   5.907   6.275
10183SOL    HW231449   3.748   5.773   6.193
10184SOL     OW31450   4.736   2.803   3.973
10184SOL    HW131451   4.730   2.864   4.052
10184SOL    HW231452   4.807   2.836   3.911
10185SOL     OW31453   3.029   4.709   1.704
10185SOL    HW131454   2.988   4.640   1.764
10185SOL    HW231455   3.128   4.709   1.716
10186SOL     OW31456   3.632   2.863   1.977
10186SOL    HW131457   3.684   2.780   1.959
10186SOL    HW231458   3.655   2.932   1.908
10187SOL     OW31459   1.267   3.625   5.507
10187SOL    HW131460   1.232   3.616   5.414
10187SOL    HW231461   1.359   3.586   5.512
10188SOL     OW31462   2.463   6.693   6.762
10188SOL    HW131463   2.489   6.631   6.836
10188SOL    HW231464   2.367   6.719   6.772
10189SOL     OW31465   2.193   1.739   5.377
10189SOL    HW131466   2.268   1.786   5.423
10189SOL    HW231467   2.205   1.640   5.386
10190SOL     OW31468   2.871   3.882   0.977
10190SOL    HW131469   2.772   3.871   0.982
10190SOL    HW231470   2.895   3.930   0.892
10191SOL     OW31471   6.221   0.678   0.173
10191SOL    HW131472   6.285   0.729   0.115
10191SOL    HW231473   6.128   0.688   0.138
10192SOL     OW31474   2.939   0.800   4.188
10192SOL    HW131475   3.007   0.868   4.161
10192SOL    HW231476   2.848   0.832   4.162
10193SOL     OW31477   3.611   3.667   3.485
10193SOL    HW131478   3.564   3.672   3.396
10193SOL    HW231479   3.697   3.617   3.474
10194SOL     OW31480   3.155   5.856   2.976
10194SOL    HW131481   3.144   5.816   3.067
10194SOL    HW231482   3.249   5.890   2.966
10195SOL     OW31483   5.077   0.114   2.189
10195SOL    HW131484   5.074   0.086   2.093
10195SOL    HW231485   4.991   0.159   2.213
10196SOL     OW31486   4.864   4.696   4.162
10196SOL    HW131487   4.826   4.717   4.072
10196SOL    HW231488   4.839   4.603   4.188
10197SOL     OW31489   5.616   1.763   2.715
10197SOL    HW131490   5.577   1.706   2.642
10197SOL    HW231491   5.706   1.727   2.741
10198SOL     OW31492   3.756   1.253   1.858
10198SOL    HW131493   3.710   1.165   1.846
10198SOL    HW231494   3.789   1.285   1.770
10199SOL     OW31495   0.993   1.902   0.018
10199SOL    HW131496   0.982   1.993   0.057
10199SOL    HW231497   1.090   1.886   7.022
10200SOL     OW31498   4.898   6.782   3.907
10200SOL    HW131499   4.956   6.724   3.850
10200SOL    HW231500   4.806   6.786   3.867
10201SOL     OW31501   0.640   5.440   3.244
10201SOL    HW131502   0.634   5.522   3.187
10201SOL    HW231503   0.736   5.419   3.262
10202SOL     OW31504   1.309   2.445   3.452
10202SOL    HW131505   1.355   2.360   3.476
10202SOL    HW231506   1.297   2.501   3.534
10203SOL     OW31507   5.980   2.565   1.282
10203SOL    HW131508   5.886   2.540   1.306
10203SOL    HW231509   6.001   2.654   1.322
10204SOL     OW31510   1.694   6.082   4.427
10204SOL    HW131511   1.653   6.029   4.352
10204SOL    HW231512   1.674   6.179   4.414
10205SOL     OW31513   3.838   6.618   0.702
10205SOL    HW131514   3.788   6.702   0.722
10205SOL    HW231515   3.936   6.634   0.712
10206SOL     OW31516   5.948   5.958   6.838
10206SOL    HW131517   5.953   5.964   6.739
10206SOL    HW231518   6.005   5.883   6.871
10207SOL     OW31519   3.513   1.548   2.099
10207SOL    HW131520   3.432   1.554   2.157
10207SOL    HW231521   3.562   1.462   2.117
10208SOL     OW31522   0.337   1.986   6.370
10208SOL    HW131523   0.428   1.956   6.398
10208SOL    HW231524   0.308   2.063   6.426
10209SOL     OW31525   3.680   6.493   6.939
10209SOL    HW131526   3.764   6.537   6.972
10209SOL    HW231527   3.623   6.467   7.017
10210SOL     OW31528   4.460   6.383   6.485
10210SOL    HW131529   4.389   6.453   6.475
10210SOL    HW231530   4.489   6.379   6.580
10211SOL     OW31531   3.849   5.151   4.614
10211SOL    HW131532   3.822   5.246   4.632
10211SOL    HW231533   3.908   5.119   4.689
10212SOL     OW31534   6.829   6.086   5.647
10212SOL    HW131535   6.829   6.050   5.740
10212SOL    HW231536   6.877   6.174   5.646
10213SOL     OW31537   3.881   7.001   4.444
10213SOL    HW131538   3.964   7.008   4.498
10213SOL    HW231539   3.880   6.914   4.395
10214SOL     OW31540   6.868   0.609   0.479
10214SOL    HW131541   6.771   0.603   0.502
10214SOL    HW231542   6.915   0.525   0.507
10215SOL     OW31543   4.963   2.690   0.315
10215SOL    HW131544   4.879   2.655   0.274
10215SOL    HW231545   5.031   2.617   0.320
10216SOL     OW31546   5.287   0.533   2.252
10216SOL    HW131547   5.284   0.631   2.272
10216SOL    HW231548   5.381   0.506   2.232
10217SOL     OW31549   2.793   1.710   6.500
10217SOL    HW131550   2.740   1.658   6.567
10217SOL    HW231551   2.885   1.670   6.492
10218SOL     OW31552   3.745   0.741   6.401
10218SOL    HW131553   3.776   0.678   6.331
10218SOL    HW231554   3.741   0.694   6.489
10219SOL     OW31555   0.273   5.361   1.134
10219SOL    HW131556   0.218   5.291   1.179
10219SOL    HW231557   0.337   5.401   1.200
10220SOL     OW31558   4.204   2.836   6.371
10220SOL    HW131559   4.105   2.831   6.375
10220SOL    HW231560   4.238   2.769   6.304
10221SOL     OW31561   2.377   6.977   4.670
10221SOL    HW131562   2.352   6.902   4.732
10221SOL    HW231563   2.476   6.979   4.659
10222SOL     OW31564   2.507   5.023   5.382
10222SOL    HW131565   2.607   5.014   5.386
10222SOL    HW231566   2.465   4.940   5.419
10223SOL     OW31567   2.157   5.481   6.075
10223SOL    HW131568   2.094   5.422   6.126
10223SOL    HW231569   2.249   5.443   6.080
10224SOL     OW31570   3.758   5.972   5.468
10224SOL    HW131571   3.844   6.000   5.510
10224SOL    HW231572   3.719   5.895   5.519
10225SOL     OW31573   5.092   7.022   4.942
10225SOL    HW131574   5.056   6.943   4.992
10225SOL    HW231575   5.157   0.047   5.000
10226SOL     OW31576   6.531   2.375   6.346
10226SOL    HW131577   6.544   2.472   6.369
10226SOL    HW231578   6.615   2.324   6.368
10227SOL     OW31579   4.450   4.613   5.440
10227SOL    HW131580   4.429   4.609   5.538
10227SOL    HW231581   4.547   4.630   5.426
10228SOL     OW31582   1.302   2.664   1.382
10228SOL    HW131583   1.276   2.575   1.344
10228SOL    HW231584   1.396   2.660   1.415
10229SOL     OW31585   3.075   0.752   1.832
10229SOL    HW131586   2.985   0.716   1.804
10229SOL    HW231587   3.069   0.851   1.843
10230SOL     OW31588   5.501   0.381   3.073
10230SOL    HW131589   5.569   0.320   3.034
10230SOL    HW231590   5.462   0.339   3.156
10231SOL     OW31591   5.289   6.794   4.736
10231SOL    HW131592   5.292   6.716   4.798
10231SOL    HW231593   5.197   6.802   4.697
10232SOL     OW31594   4.150   2.282   2.987
10232SOL    HW131595   4.191   2.289   3.078
10232SOL    HW231596   4.204   2.336   2.922
10233SOL     OW31597   5.416   6.375   5.492
10233SOL    HW131598   5.508   6.335   5.504
10233SOL    HW231599   5.368   6.374   5.579
10234SOL     OW31600   4.037   4.383   0.868
10234SOL    HW131601   4.095   4.432   0.933
10234SOL    HW231602   4.064   4.406   0.775
10235SOL     OW31603   4.909   0.311   6.896
10235SOL    HW131604   4.860   0.233   6.857
10235SOL    HW231605   4.882   0.322   6.992
10236SOL     OW31606   1.380   4.329   1.519
10236SOL    HW131607   1.436   4.382   1.455
10236SOL    HW231608   1.287   4.319   1.482
10237SOL     OW31609   5.953   2.448   2.656
10237SOL    HW131610   6.039   2.493   2.631
10237SOL    HW231611   5.877   2.509   2.635
10238SOL     OW31612   5.450   5.223   5.883
10238SOL    HW131613   5.530   5.166   5.864
10238SOL    HW231614   5.478   5.300   5.941
10239SOL     OW31615   5.536   4.031   4.060
10239SOL    HW131616   5.475   3.955   4.084
10239SOL    HW231617   5.578   4.013   3.971
10240SOL     OW31618   4.771   3.982   2.542
10240SOL    HW131619   4.777   4.071   2.588
10240SOL    HW231620   4.825   3.985   2.458
10241SOL     OW31621   1.328   2.506   2.188
10241SOL    HW131622   1.348   2.459   2.274
10241SOL    HW231623   1.397   2.577   2.172
10242SOL     OW31624   0.876   5.162   6.805
10242SOL    HW131625   0.809   5.109   6.856
10242SOL    HW231626   0.902   5.112   6.722
10243SOL     OW31627   0.111   5.611   3.956
10243SOL    HW131628   0.117   5.711   3.951
10243SOL    HW231629   0.128   5.581   4.050
10244SOL     OW31630   3.094   5.862   0.183
10244SOL    HW131631   3.101   5.952   0.225
10244SOL    HW231632   3.175   5.808   0.205
10245SOL     OW31633   3.690   3.714   1.133
10245SOL    HW131634   3.693   3.745   1.038
10245SOL    HW231635   3.747   3.633   1.143
10246SOL     OW31636   2.986   3.905   4.534
10246SOL    HW131637   3.078   3.936   4.558
10246SOL    HW231638   2.931   3.983   4.504
10247SOL     OW31639   1.174   5.376   6.413
10247SOL    HW131640   1.225   5.462   6.419
10247SOL    HW231641   1.076   5.394   6.413
10248SOL     OW31642   6.083   7.019   3.847
10248SOL    HW131643   6.157   6.961   3.811
10248SOL    HW231644   6.093   0.004   3.945
10249SOL     OW31645   4.729   1.205   5.897
10249SOL    HW131646   4.650   1.246   5.943
10249SOL    HW231647   4.712   1.202   5.798
10250SOL     OW31648   4.117   5.644   0.683
10250SOL    HW131649   4.037   5.614   0.631
10250SOL    HW231650   4.088   5.707   0.755
10251SOL     OW31651   3.791   4.501   1.380
10251SOL    HW131652   3.871   4.544   1.422
10251SOL    HW231653   3.807   4.490   1.282
10252SOL     OW31654   0.145   4.580   0.285
10252SOL    HW131655   0.063   4.583   0.229
10252SOL    HW231656   0.124   4.613   0.378
10253SOL     OW31657   5.555   4.377   0.117
10253SOL    HW131658   5.603   4.381   0.029
10253SOL    HW231659   5.593   4.302   0.172
10254SOL     OW31660   3.204   2.423   5.904
10254SOL    HW131661   3.222   2.335   5.947
10254SOL    HW231662   3.203   2.412   5.805
10255SOL     OW31663   3.056   4.933   3.951
10255SOL    HW131664   2.988   4.867   3.983
10255SOL    HW231665   3.009   5.012   3.912
10256SOL     OW31666   5.452   5.343   0.248
10256SOL    HW131667   5.425   5.435   0.219
10256SOL    HW231668   5.510   5.348   0.329
10257SOL     OW31669   1.693   4.134   4.707
10257SOL    HW131670   1.766   4.192   4.743
10257SOL    HW231671   1.611   4.146   4.764
10258SOL     OW31672   4.673   0.925   2.465
10258SOL    HW131673   4.627   0.836   2.464
10258SOL    HW231674   4.635   0.980   2.540
10259SOL     OW31675   5.868   3.498   3.878
10259SOL    HW131676   5.906   3.576   3.927
10259SOL    HW231677   5.776   3.478   3.913
10260SOL     OW31678   6.724   6.001   2.857
10260SOL    HW131679   6.813   5.963   2.835
10260SOL    HW231680   6.688   5.958   2.939
10261SOL     OW31681   2.241   0.030   2.078
10261SOL    HW131682   2.333   0.008   2.048
10261SOL    HW231683   2.242   0.056   2.174
10262SOL     OW31684   6.745   6.407   3.744
10262SOL    HW131685   6.844   6.414   3.747
10262SOL    HW231686   6.707   6.417   3.836
10263SOL     OW31687   6.854   3.342   5.303
10263SOL    HW131688   6.778   3.308   5.248
10263SOL    HW231689   6.884   3.271   5.366
10264SOL     OW31690   0.457   0.582   0.584
10264SOL    HW131691   0.531   0.558   0.521
10264SOL    HW231692   0.442   0.507   0.649
10265SOL     OW31693   5.348   2.574   4.421
10265SOL    HW131694   5.295   2.517   4.358
10265SOL    HW231695   5.431   2.606   4.376
10266SOL     OW31696   3.259   3.759   6.974
10266SOL    HW131697   3.266   3.786   6.878
10266SOL    HW231698   3.224   3.665   6.980
10267SOL     OW31699   6.948   0.682   6.209
10267SOL    HW131700   6.971   0.763   6.155
10267SOL    HW231701   6.948   0.706   6.306
10268SOL     OW31702   6.906   4.876   0.258
10268SOL    HW131703   6.880   4.803   0.195
10268SOL    HW231704   6.977   4.932   0.216
10269SOL     OW31705   4.451   1.662   5.830
10269SOL    HW131706   4.478   1.667   5.926
10269SOL    HW231707   4.377   1.728   5.813
10270SOL     OW31708   3.620   6.076   3.058
10270SOL    HW131709   3.648   6.171   3.065
10270SOL    HW231710   3.684   6.018   3.109
10271SOL     OW31711   1.411   4.547   1.290
10271SOL    HW131712   1.464   4.627   1.261
10271SOL    HW231713   1.356   4.514   1.213
10272SOL     OW31714   2.024   3.481   4.097
10272SOL    HW131715   2.035   3.383   4.111
10272SOL    HW231716   1.959   3.497   4.022
10273SOL     OW31717   4.331   6.782   3.745
10273SOL    HW131718   4.233   6.797   3.730
10273SOL    HW231719   4.361   6.702   3.692
10274SOL     OW31720   1.790   4.314   6.953
10274SOL    HW131721   1.794   4.404   6.997
10274SOL    HW231722   1.822   4.323   6.858
10275SOL     OW31723   0.205   5.663   1.850
10275SOL    HW131724   0.249   5.605   1.918
10275SOL    HW231725   0.229   5.632   1.758
10276SOL     OW31726   2.347   6.801   0.332
10276SOL    HW131727   2.399   6.719   0.307
10276SOL    HW231728   2.306   6.841   0.250
10277SOL     OW31729   6.583   5.630   2.139
10277SOL    HW131730   6.561   5.581   2.054
10277SOL    HW231731   6.672   5.674   2.130
10278SOL     OW31732   6.572   0.961   5.074
10278SOL    HW131733   6.575   0.864   5.051
10278SOL    HW231734   6.549   0.972   5.171
10279SOL     OW31735   3.891   6.141   4.062
10279SOL    HW131736   3.922   6.099   3.977
10279SOL    HW231737   3.803   6.186   4.046
10280SOL     OW31738   2.670   2.608   0.088
10280SOL    HW131739   2.728   2.674   0.039
10280SOL    HW231740   2.589   2.588   0.033
10281SOL     OW31741   4.301   0.896   4.532
10281SOL    HW131742   4.282   0.987   4.570
10281SOL    HW231743   4.400   0.886   4.519
10282SOL     OW31744   1.697   3.079   4.263
10282SOL    HW131745   1.788   3.062   4.225
10282SOL    HW231746   1.704   3.150   4.334
10283SOL     OW31747   1.590   5.456   6.576
10283SOL    HW131748   1.622   5.368   6.540
10283SOL    HW231749   1.524   5.496   6.512
10284SOL     OW31750   5.170   3.253   0.130
10284SOL    HW131751   5.082   3.238   0.176
10284SOL    HW231752   5.218   3.166   0.120
10285SOL     OW31753   4.825   1.500   0.817
10285SOL    HW131754   4.790   1.420   0.768
10285SOL    HW231755   4.856   1.568   0.750
10286SOL     OW31756   3.599   0.043   3.882
10286SOL    HW131757   3.558   0.088   3.803
10286SOL    HW231758   3.560   0.079   3.966
10287SOL     OW31759   1.865   3.731   2.397
10287SOL    HW131760   1.831   3.721   2.303
10287SOL    HW231761   1.919   3.815   2.404
10288SOL     OW31762   4.465   6.374   4.178
10288SOL    HW131763   4.553   6.408   4.214
10288SOL    HW231764   4.449   6.281   4.212
10289SOL     OW31765   2.534   1.585   2.114
10289SOL    HW131766   2.558   1.558   2.207
10289SOL    HW231767   2.456   1.647   2.116
10290SOL     OW31768   3.265   2.937   3.802
10290SOL    HW131769   3.207   3.017   3.787
10290SOL    HW231770   3.271   2.884   3.717
10291SOL     OW31771   4.019   6.837   3.808
10291SOL    HW131772   4.028   6.772   3.884
10291SOL    HW231773   3.957   6.910   3.835
10292SOL     OW31774   6.560   3.036   4.376
10292SOL    HW131775   6.574   2.997   4.467
10292SOL    HW231776   6.479   2.995   4.334
10293SOL     OW31777   1.631   4.560   3.418
10293SOL    HW131778   1.585   4.493   3.359
10293SOL    HW231779   1.638   4.647   3.370
10294SOL     OW31780   6.088   0.822   2.988
10294SOL    HW131781   6.158   0.769   2.940
10294SOL    HW231782   6.000   0.810   2.943
10295SOL     OW31783   1.651   3.855   3.052
10295SOL    HW131784   1.638   3.767   3.098
10295SOL    HW231785   1.578   3.867   2.984
10296SOL     OW31786   6.699   3.741   1.577
10296SOL    HW131787   6.677   3.694   1.663
10296SOL    HW231788   6.617   3.745   1.519
10297SOL     OW31789   3.519   4.750   5.862
10297SOL    HW131790   3.615   4.724   5.864
10297SOL    HW231791   3.500   4.816   5.934
10298SOL     OW31792   5.949   3.454   2.904
10298SOL    HW131793   5.960   3.553   2.911
10298SOL    HW231794   5.853   3.431   2.887
10299SOL     OW31795   3.998   5.379   2.488
10299SOL    HW131796   3.899   5.363   2.492
10299SOL    HW231797   4.021   5.428   2.404
10300SOL     OW31798   0.106   5.808   2.219
10300SOL    HW131799   0.064   5.890   2.180
10300SOL    HW231800   0.205   5.815   2.215
10301SOL     OW31801   4.380   0.876   1.930
10301SOL    HW131802   4.379   0.975   1.945
10301SOL    HW231803   4.435   0.856   1.848
10302SOL     OW31804   0.426   4.062   3.269
10302SOL    HW131805   0.488   4.090   3.342
10302SOL    HW231806   0.470   3.992   3.213
10303SOL     OW31807   4.949   3.773   1.311
10303SOL    HW131808   5.020   3.779   1.380
10303SOL    HW231809   4.980   3.716   1.235
10304SOL     OW31810   5.770   5.922   4.103
10304SOL    HW131811   5.816   5.957   4.021
10304SOL    HW231812   5.741   5.828   4.088
10305SOL     OW31813   2.074   5.212   1.403
10305SOL    HW131814   2.042   5.125   1.366
10305SOL    HW231815   2.172   5.208   1.419
10306SOL     OW31816   4.711   3.965   6.974
10306SOL    HW131817   4.708   3.974   6.874
10306SOL    HW231818   4.617   3.958   7.009
10307SOL     OW31819   3.358   2.166   6.140
10307SOL    HW131820   3.270   2.148   6.095
10307SOL    HW231821   3.395   2.081   6.177
10308SOL     OW31822   2.857   5.128   3.969
10308SOL    HW131823   2.777   5.078   4.004
10308SOL    HW231824   2.827   5.216   3.933
10309SOL     OW31825   0.158   6.417   3.541
10309SOL    HW131826   0.223   6.371   3.480
10309SOL    HW231827   0.208   6.475   3.606
10310SOL     OW31828   3.085   3.920   4.042
10310SOL    HW131829   3.009   3.883   4.095
10310SOL    HW231830   3.169   3.913   4.095
10311SOL     OW31831   1.081   6.837   0.856
10311SOL    HW131832   1.117   6.811   0.946
10311SOL    HW231833   0.982   6.822   0.854
10312SOL     OW31834   2.762   4.521   0.431
10312SOL    HW131835   2.766   4.582   0.351
10312SOL    HW231836   2.680   4.463   0.424
10313SOL     OW31837   6.764   5.785   3.859
10313SOL    HW131838   6.741   5.829   3.772
10313SOL    HW231839   6.775   5.687   3.844
10314SOL     OW31840   6.787   5.267   5.066
10314SOL    HW131841   6.698   5.255   5.023
10314SOL    HW231842   6.851   5.199   5.031
10315SOL     OW31843   4.191   6.132   5.445
10315SOL    HW131844   4.181   6.162   5.540
10315SOL    HW231845   4.100   6.118   5.405
10316SOL     OW31846   6.951   2.600   3.917
10316SOL    HW131847   7.005   2.521   3.890
10316SOL    HW231848   6.893   2.629   3.841
10317SOL     OW31849   6.155   4.355   6.000
10317SOL    HW131850   6.206   4.274   6.031
10317SOL    HW231851   6.185   4.435   6.052
10318SOL     OW31852   4.882   4.932   2.492
10318SOL    HW131853   4.873   4.985   2.577
10318SOL    HW231854   4.893   4.835   2.515
10319SOL     OW31855   5.401   6.812   3.786
10319SOL    HW131856   5.465   6.874   3.741
10319SOL    HW231857   5.380   6.847   3.877
10320SOL     OW31858   3.239   6.748   1.825
10320SOL    HW131859   3.163   6.762   1.762
10320SOL    HW231860   3.232   6.658   1.867
10321SOL     OW31861   4.571   6.145   4.847
10321SOL    HW131862   4.588   6.106   4.756
10321SOL    HW231863   4.607   6.083   4.917
10322SOL     OW31864   6.900   1.394   6.269
10322SOL    HW131865   6.986   1.441   6.250
10322SOL    HW231866   6.918   1.310   6.320
10323SOL     OW31867   0.433   2.163   5.103
10323SOL    HW131868   0.346   2.211   5.094
10323SOL    HW231869   0.455   2.117   5.017
10324SOL     OW31870   3.169   3.429   4.794
10324SOL    HW131871   3.228   3.378   4.731
10324SOL    HW231872   3.200   3.524   4.800
10325SOL     OW31873   0.747   2.887   3.775
10325SOL    HW131874   0.821   2.843   3.825
10325SOL    HW231875   0.710   2.963   3.829
10326SOL     OW31876   6.173   1.282   1.165
10326SOL    HW131877   6.197   1.186   1.153
10326SOL    HW231878   6.235   1.339   1.112
10327SOL     OW31879   5.761   2.142   3.819
10327SOL    HW131880   5.731   2.165   3.726
10327SOL    HW231881   5.690   2.089   3.865
10328SOL     OW31882   6.697   3.649   1.855
10328SOL    HW131883   6.656   3.575   1.908
10328SOL    HW231884   6.791   3.625   1.831
10329SOL     OW31885   2.727   5.481   2.889
10329SOL    HW131886   2.738   5.577   2.864
10329SOL    HW231887   2.812   5.432   2.872
10330SOL     OW31888   3.799   3.163   1.010
10330SOL    HW131889   3.855   3.081   1.024
10330SOL    HW231890   3.707   3.147   1.046
10331SOL     OW31891   5.282   1.825   4.742
10331SOL    HW131892   5.232   1.760   4.800
10331SOL    HW231893   5.364   1.781   4.706
10332SOL     OW31894   1.536   2.861   6.754
10332SOL    HW131895   1.440   2.876   6.776
10332SOL    HW231896   1.547   2.775   6.705
10333SOL     OW31897   0.452   4.476   5.406
10333SOL    HW131898   0.362   4.517   5.420
10333SOL    HW231899   0.488   4.442   5.493
10334SOL     OW31900   1.034   4.806   5.769
10334SOL    HW131901   1.015   4.790   5.866
10334SOL    HW231902   1.063   4.721   5.726
10335SOL     OW31903   2.809   5.064   2.561
10335SOL    HW131904   2.885   5.061   2.626
10335SOL    HW231905   2.725   5.090   2.610
10336SOL     OW31906   4.311   7.014   3.229
10336SOL    HW131907   4.292   0.081   3.262
10336SOL    HW231908   4.261   6.948   3.284
10337SOL     OW31909   1.571   3.528   6.107
10337SOL    HW131910   1.516   3.444   6.107
10337SOL    HW231911   1.512   3.605   6.081
10338SOL     OW31912   2.195   3.902   2.724
10338SOL    HW131913   2.104   3.873   2.752
10338SOL    HW231914   2.239   3.829   2.672
10339SOL     OW31915   3.417   6.103   6.507
10339SOL    HW131916   3.477   6.177   6.477
10339SOL    HW231917   3.382   6.124   6.599
10340SOL     OW31918   2.125   5.963   1.038
10340SOL    HW131919   2.037   5.922   1.014
10340SOL    HW231920   2.117   6.062   1.040
10341SOL     OW31921   6.769   3.229   1.544
10341SOL    HW131922   6.673   3.217   1.571
10341SOL    HW231923   6.796   3.154   1.484
10342SOL     OW31924   3.439   5.353   3.731
10342SOL    HW131925   3.425   5.354   3.830
10342SOL    HW231926   3.531   5.317   3.711
10343SOL     OW31927   2.723   2.327   4.932
10343SOL    HW131928   2.646   2.263   4.938
10343SOL    HW231929   2.714   2.382   4.849
10344SOL     OW31930   5.286   4.098   1.115
10344SOL    HW131931   5.251   4.027   1.054
10344SOL    HW231932   5.241   4.185   1.093
10345SOL     OW31933   2.994   1.732   6.782
10345SOL    HW131934   3.093   1.739   6.772
10345SOL    HW231935   2.969   1.752   6.877
10346SOL     OW31936   6.629   5.437   0.065
10346SOL    HW131937   6.660   5.400   7.002
10346SOL    HW231938   6.594   5.363   0.122
10347SOL     OW31939   3.920   6.995   2.456
10347SOL    HW131940   3.883   0.062   2.445
10347SOL    HW231941   3.988   6.995   2.530
10348SOL     OW31942   0.016   3.452   4.526
10348SOL    HW131943   6.998   3.474   4.614
10348SOL    HW231944   7.013   3.519   4.457
10349SOL     OW31945   5.987   1.939   0.286
10349SOL    HW131946   5.967   1.895   0.374
10349SOL    HW231947   5.927   1.900   0.216
10350SOL     OW31948   2.030   5.148   4.521
10350SOL    HW131949   2.004   5.194   4.436
10350SOL    HW231950   2.057   5.054   4.502
10351SOL     OW31951   3.737   5.596   4.893
10351SOL    HW131952   3.656   5.541   4.913
10351SOL    HW231953   3.771   5.637   4.978
10352SOL     OW31954   0.592   1.430   1.623
10352SOL    HW131955   0.671   1.371   1.639
10352SOL    HW231956   0.605   1.517   1.672
10353SOL     OW31957   5.589   2.807   3.338
10353SOL    HW131958   5.494   2.792   3.308
10353SOL    HW231959   5.651   2.763   3.274
10354SOL     OW31960   0.048   2.962   1.710
10354SOL    HW131961   0.020   2.895   1.640
10354SOL    HW231962   0.125   2.927   1.761
10355SOL     OW31963   6.534   1.834   0.562
10355SOL    HW131964   6.512   1.751   0.614
10355SOL    HW231965   6.508   1.821   0.466
10356SOL     OW31966   6.183   2.651   6.564
10356SOL    HW131967   6.117   2.600   6.620
10356SOL    HW231968   6.135   2.694   6.488
10357SOL     OW31969   0.272   6.731   6.519
10357SOL    HW131970   0.197   6.684   6.566
10357SOL    HW231971   0.309   6.803   6.578
10358SOL     OW31972   0.482   3.797   4.310
10358SOL    HW131973   0.539   3.879   4.308
10358SOL    HW231974   0.495   3.747   4.395
10359SOL     OW31975   1.225   2.764   2.114
10359SOL    HW131976   1.197   2.760   2.210
10359SOL    HW231977   1.222   2.672   2.074
10360SOL     OW31978   6.176   4.645   0.423
10360SOL    HW131979   6.142   4.729   0.464
10360SOL    HW231980   6.099   4.587   0.396
10361SOL     OW31981   5.708   2.150   3.535
10361SOL    HW131982   5.684   2.229   3.479
10361SOL    HW231983   5.683   2.066   3.487
10362SOL     OW31984   0.205   6.903   2.070
10362SOL    HW131985   0.178   6.818   2.026
10362SOL    HW231986   0.142   6.976   2.043
10363SOL     OW31987   5.807   5.026   6.173
10363SOL    HW131988   5.820   4.948   6.112
10363SOL    HW231989   5.866   5.016   6.253
10364SOL     OW31990   6.161   5.625   0.831
10364SOL    HW131991   6.133   5.559   0.900
10364SOL    HW231992   6.081   5.675   0.798
10365SOL     OW31993   6.297   6.005   6.382
10365SOL    HW131994   6.262   6.093   6.415
10365SOL    HW231995   6.276   5.934   6.450
10366SOL     OW31996   2.733   0.291   3.271
10366SOL    HW131997   2.682   0.211   3.243
10366SOL    HW231998   2.768   0.278   3.364
10367SOL     OW31999   4.222   5.857   2.137
10367SOL    HW132000   4.170   5.928   2.184
10367SOL    HW232001   4.302   5.832   2.192
10368SOL     OW32002   1.317   5.363   1.876
10368SOL    HW132003   1.377   5.286   1.896
10368SOL    HW232004   1.342   5.403   1.788
10369SOL     OW32005   2.518   0.846   5.416
10369SOL    HW132006   2.477   0.815   5.502
10369SOL    HW232007   2.458   0.914   5.373
10370SOL     OW32008   1.808   2.038   6.785
10370SOL    HW132009   1.869   2.087   6.847
10370SOL    HW232010   1.762   1.964   6.834
10371SOL     OW32011   4.168   5.757   3.164
10371SOL    HW132012   4.187   5.679   3.106
10371SOL    HW232013   4.085   5.740   3.218
10372SOL     OW32014   1.062   6.389   1.741
10372SOL    HW132015   0.966   6.402   1.716
10372SOL    HW232016   1.112   6.475   1.726
10373SOL     OW32017   6.706   0.445   5.772
10373SOL    HW132018   6.682   0.542   5.773
10373SOL    HW232019   6.805   0.436   5.765
10374SOL     OW32020   2.181   4.940   2.286
10374SOL    HW132021   2.184   4.866   2.353
10374SOL    HW232022   2.242   5.014   2.315
10375SOL     OW32023   2.755   5.820   6.533
10375SOL    HW132024   2.842   5.809   6.581
10375SOL    HW232025   2.757   5.771   6.446
10376SOL     OW32026   1.842   4.640   3.953
10376SOL    HW132027   1.759   4.599   3.916
10376SOL    HW232028   1.922   4.600   3.907
10377SOL     OW32029   2.934   0.997   3.819
10377SOL    HW132030   2.984   0.939   3.755
10377SOL    HW232031   2.996   1.032   3.889
10378SOL     OW32032   6.896   6.854   5.414
10378SOL    HW132033   6.993   6.847   5.392
10378SOL    HW232034   6.872   6.787   5.484
10379SOL     OW32035   1.256   5.319   3.274
10379SOL    HW132036   1.245   5.301   3.372
10379SOL    HW232037   1.175   5.365   3.239
10380SOL     OW32038   2.903   1.377   4.246
10380SOL    HW132039   2.826   1.313   4.248
10380SOL    HW232040   2.871   1.469   4.268
10381SOL     OW32041   2.677   6.956   3.323
10381SOL    HW132042   2.614   7.001   3.387
10381SOL    HW232043   2.625   6.900   3.259
10382SOL     OW32044   4.011   5.719   2.693
10382SOL    HW132045   4.029   5.756   2.602
10382SOL    HW232046   4.004   5.793   2.759
10383SOL     OW32047   0.449   6.871   6.962
10383SOL    HW132048   0.433   6.773   6.949
10383SOL    HW232049   0.539   6.895   6.926
10384SOL     OW32050   5.200   5.451   1.640
10384SOL    HW132051   5.122   5.395   1.610
10384SOL    HW232052   5.285   5.399   1.627
10385SOL     OW32053   4.062   4.251   6.499
10385SOL    HW132054   4.033   4.275   6.592
10385SOL    HW232055   4.146   4.196   6.504
10386SOL     OW32056   0.307   0.320   2.155
10386SOL    HW132057   0.275   0.285   2.067
10386SOL    HW232058   0.379   0.388   2.139
10387SOL     OW32059   5.782   1.623   2.077
10387SOL    HW132060   5.726   1.674   2.011
10387SOL    HW232061   5.724   1.561   2.130
10388SOL     OW32062   0.983   0.067   4.546
10388SOL    HW132063   1.055   0.129   4.516
10388SOL    HW232064   0.970   0.074   4.645
10389SOL     OW32065   0.420   3.744   0.987
10389SOL    HW132066   0.380   3.704   0.905
10389SOL    HW232067   0.389   3.838   0.997
10390SOL     OW32068   2.117   1.898   2.392
10390SOL    HW132069   2.195   1.961   2.390
10390SOL    HW232070   2.062   1.910   2.309
10391SOL     OW32071   6.446   6.964   2.969
10391SOL    HW132072   6.374   6.931   2.908
10391SOL    HW232073   6.500   6.887   3.002
10392SOL     OW32074   6.291   3.344   3.662
10392SOL    HW132075   6.278   3.433   3.705
10392SOL    HW232076   6.382   3.340   3.620
10393SOL     OW32077   1.649   2.270   1.589
10393SOL    HW132078   1.673   2.301   1.497
10393SOL    HW232079   1.561   2.223   1.586
10394SOL     OW32080   3.022   5.895   3.526
10394SOL    HW132081   3.057   5.873   3.435
10394SOL    HW232082   2.923   5.906   3.522
10395SOL     OW32083   0.336   1.309   1.576
10395SOL    HW132084   0.426   1.341   1.607
10395SOL    HW232085   0.266   1.337   1.642
10396SOL     OW32086   3.442   2.017   5.220
10396SOL    HW132087   3.504   2.070   5.278
10396SOL    HW232088   3.483   2.006   5.129
10397SOL     OW32089   5.220   1.913   3.827
10397SOL    HW132090   5.136   1.907   3.772
10397SOL    HW232091   5.255   1.821   3.845
10398SOL     OW32092   4.827   2.998   2.487
10398SOL    HW132093   4.857   3.052   2.409
10398SOL    HW232094   4.752   2.938   2.460
10399SOL     OW32095   1.010   3.534   2.033
10399SOL    HW132096   1.043   3.443   2.059
10399SOL    HW232097   1.010   3.542   1.933
10400SOL     OW32098   2.295   6.331   7.007
10400SOL    HW132099   2.228   6.396   6.973
10400SOL    HW232100   2.249   6.245   0.006
10401SOL     OW32101   6.537   1.027   5.371
10401SOL    HW132102   6.455   1.083   5.377
10401SOL    HW232103   6.618   1.086   5.366
10402SOL     OW32104   6.654   4.641   5.297
10402SOL    HW132105   6.695   4.625   5.387
10402SOL    HW232106   6.661   4.738   5.273
10403SOL     OW32107   3.494   0.369   1.292
10403SOL    HW132108   3.517   0.275   1.264
10403SOL    HW232109   3.412   0.368   1.348
10404SOL     OW32110   0.508   5.550   5.613
10404SOL    HW132111   0.513   5.518   5.519
10404SOL    HW232112   0.599   5.581   5.643
10405SOL     OW32113   0.443   1.164   0.060
10405SOL    HW132114   0.484   1.082   0.021
10405SOL    HW232115   0.353   1.142   0.099
10406SOL     OW32116   1.435   5.472   1.064
10406SOL    HW132117   1.360   5.418   1.024
10406SOL    HW232118   1.519   5.419   1.061
10407SOL     OW32119   2.234   5.715   0.203
10407SOL    HW132120   2.146   5.704   0.249
10407SOL    HW232121   2.266   5.627   0.169
10408SOL     OW32122   4.456   0.384   0.197
10408SOL    HW132123   4.374   0.436   0.218
10408SOL    HW232124   4.537   0.437   0.222
10409SOL     OW32125   6.494   4.087   0.457
10409SOL    HW132126   6.456   4.069   0.548
10409SOL    HW232127   6.502   4.001   0.406
10410SOL     OW32128   4.265   6.619   1.000
10410SOL    HW132129   4.267   6.543   1.065
10410SOL    HW232130   4.358   6.651   0.983
10411SOL     OW32131   1.543   5.322   4.201
10411SOL    HW132132   1.592   5.237   4.183
10411SOL    HW232133   1.502   5.318   4.292
10412SOL     OW32134   5.254   0.537   1.512
10412SOL    HW132135   5.209   0.490   1.437
10412SOL    HW232136   5.189   0.553   1.586
10413SOL     OW32137   5.843   3.466   1.854
10413SOL    HW132138   5.798   3.382   1.823
10413SOL    HW232139   5.859   3.461   1.952
10414SOL     OW32140   5.654   3.443   4.091
10414SOL    HW132141   5.592   3.391   4.150
10414SOL    HW232142   5.645   3.541   4.110
10415SOL     OW32143   0.880   0.540   0.002
10415SOL    HW132144   0.882   0.490   0.089
10415SOL    HW232145   0.791   0.585   7.017
10416SOL     OW32146   5.393   3.245   3.502
10416SOL    HW132147   5.434   3.283   3.419
10416SOL    HW232148   5.433   3.154   3.520
10417SOL     OW32149   1.585   3.898   2.518
10417SOL    HW132150   1.537   3.965   2.575
10417SOL    HW232151   1.661   3.858   2.570
10418SOL     OW32152   1.801   5.901   6.091
10418SOL    HW132153   1.840   5.852   6.013
10418SOL    HW232154   1.733   5.843   6.136
10419SOL     OW32155   1.663   0.538   6.454
10419SOL    HW132156   1.750   0.496   6.479
10419SOL    HW232157   1.593   0.512   6.520
10420SOL     OW32158   0.686   2.627   2.396
10420SOL    HW132159   0.645   2.701   2.342
10420SOL    HW232160   0.784   2.623   2.378
10421SOL     OW32161   0.937   1.770   2.681
10421SOL    HW132162   0.865   1.832   2.652
10421SOL    HW232163   0.940   1.767   2.781
10422SOL     OW32164   5.586   2.230   0.375
10422SOL    HW132165   5.636   2.208   0.291
10422SOL    HW232166   5.647   2.280   0.437
10423SOL     OW32167   4.666   5.832   3.074
10423SOL    HW132168   4.603   5.756   3.092
10423SOL    HW232169   4.706   5.863   3.160
10424SOL     OW32170   4.115   1.474   6.638
10424SOL    HW132171   4.167   1.441   6.560
10424SOL    HW232172   4.067   1.398   6.681
10425SOL     OW32173   1.914   6.421   1.818
10425SOL    HW132174   1.941   6.461   1.905
10425SOL    HW232175   1.837   6.472   1.780
10426SOL     OW32176   6.610   3.959   6.274
10426SOL    HW132177   6.653   3.870   6.263
10426SOL    HW232178   6.547   3.975   6.198
10427SOL     OW32179   5.130   1.174   1.660
10427SOL    HW132180   5.187   1.160   1.578
10427SOL    HW232181   5.064   1.247   1.643
10428SOL     OW32182   4.555   2.209   3.281
10428SOL    HW132183   4.465   2.168   3.264
10428SOL    HW232184   4.610   2.205   3.198
10429SOL     OW32185   5.310   5.524   2.576
10429SOL    HW132186   5.272   5.433   2.559
10429SOL    HW232187   5.240   5.582   2.617
10430SOL     OW32188   4.147   6.339   3.128
10430SOL    HW132189   4.179   6.373   3.217
10430SOL    HW232190   4.200   6.259   3.103
10431SOL     OW32191   2.817   1.579   5.751
10431SOL    HW132192   2.852   1.583   5.657
10431SOL    HW232193   2.718   1.585   5.750
10432SOL     OW32194   4.363   0.164   4.559
10432SOL    HW132195   4.342   0.245   4.505
10432SOL    HW232196   4.283   0.103   4.560
10433SOL     OW32197   2.742   6.043   1.353
10433SOL    HW132198   2.774   5.971   1.292
10433SOL    HW232199   2.695   6.002   1.431
10434SOL     OW32200   3.391   2.398   5.397
10434SOL    HW132201   3.442   2.313   5.406
10434SOL    HW232202   3.325   2.390   5.321
10435SOL     OW32203   5.602   5.385   6.047
10435SOL    HW132204   5.631   5.481   6.043
10435SOL    HW232205   5.682   5.326   6.038
10436SOL     OW32206   0.196   1.340   2.572
10436SOL    HW132207   0.257   1.360   2.649
10436SOL    HW232208   0.133   1.267   2.598
10437SOL     OW32209   1.073   3.470   6.798
10437SOL    HW132210   1.170   3.449   6.798
10437SOL    HW232211   1.060   3.566   6.773
10438SOL     OW32212   3.252   0.050   5.926
10438SOL    HW132213   3.161   0.087   5.947
10438SOL    HW232214   3.279   7.012   5.999
10439SOL     OW32215   3.333   0.421   5.480
10439SOL    HW132216   3.288   0.361   5.546
10439SOL    HW232217   3.430   0.398   5.475
10440SOL     OW32218   1.050   5.562   0.957
10440SOL    HW132219   1.019   5.602   1.043
10440SOL    HW232220   0.977   5.568   0.889
10441SOL     OW32221   4.158   6.881   1.048
10441SOL    HW132222   4.098   6.872   1.128
10441SOL    HW232223   4.190   6.790   1.020
10442SOL     OW32224   4.059   6.229   6.062
10442SOL    HW132225   4.049   6.208   6.159
10442SOL    HW232226   3.968   6.234   6.019
10443SOL     OW32227   6.305   2.656   4.954
10443SOL    HW132228   6.361   2.736   4.975
10443SOL    HW232229   6.349   2.601   4.884
10444SOL     OW32230   4.215   5.164   5.150
10444SOL    HW132231   4.238   5.224   5.227
10444SOL    HW232232   4.263   5.077   5.161
10445SOL     OW32233   6.419   6.272   2.080
10445SOL    HW132234   6.408   6.256   1.982
10445SOL    HW232235   6.450   6.188   2.125
10446SOL     OW32236   1.037   6.502   5.788
10446SOL    HW132237   1.035   6.515   5.688
10446SOL    HW232238   1.023   6.406   5.809
10447SOL     OW32239   5.220   1.982   6.945
10447SOL    HW132240   5.287   1.973   6.871
10447SOL    HW232241   5.144   2.040   6.914
10448SOL     OW32242   3.598   3.776   2.490
10448SOL    HW132243   3.602   3.848   2.559
10448SOL    HW232244   3.645   3.694   2.524
10449SOL     OW32245   1.602   5.158   4.602
10449SOL    HW132246   1.669   5.211   4.655
10449SOL    HW232247   1.635   5.147   4.508
10450SOL     OW32248   0.333   3.616   0.767
10450SOL    HW132249   0.329   3.627   0.667
10450SOL    HW232250   0.253   3.566   0.798
10451SOL     OW32251   2.375   4.317   2.195
10451SOL    HW132252   2.453   4.320   2.133
10451SOL    HW232253   2.305   4.257   2.156
10452SOL     OW32254   2.300   3.007   6.212
10452SOL    HW132255   2.330   3.103   6.218
10452SOL    HW232256   2.203   3.005   6.188
10453SOL     OW32257   5.461   0.924   1.782
10453SOL    HW132258   5.538   0.900   1.840
10453SOL    HW232259   5.459   0.864   1.702
10454SOL     OW32260   4.467   4.874   2.682
10454SOL    HW132261   4.375   4.864   2.642
10454SOL    HW232262   4.527   4.804   2.643
10455SOL     OW32263   1.250   4.898   3.103
10455SOL    HW132264   1.298   4.928   3.185
10455SOL    HW232265   1.315   4.888   3.028
10456SOL     OW32266   3.588   6.735   1.359
10456SOL    HW132267   3.654   6.703   1.290
10456SOL    HW232268   3.617   6.705   1.449
10457SOL     OW32269   3.666   3.194   4.498
10457SOL    HW132270   3.571   3.165   4.493
10457SOL    HW232271   3.726   3.114   4.499
10458SOL     OW32272   6.478   5.977   2.106
10458SOL    HW132273   6.540   5.988   2.184
10458SOL    HW232274   6.531   5.961   2.023
10459SOL     OW32275   6.999   5.371   1.332
10459SOL    HW132276   0.045   5.373   1.402
10459SOL    HW232277   7.018   5.298   1.267
10460SOL     OW32278   1.099   4.059   1.578
10460SOL    HW132279   1.129   4.007   1.498
10460SOL    HW232280   1.029   4.006   1.626
10461SOL     OW32281   3.361   6.970   6.575
10461SOL    HW132282   3.421   6.975   6.655
10461SOL    HW232283   3.317   0.034   6.560
10462SOL     OW32284   5.256   6.480   1.487
10462SOL    HW132285   5.337   6.509   1.538
10462SOL    HW232286   5.175   6.488   1.545
10463SOL     OW32287   4.102   3.173   0.466
10463SOL    HW132288   4.005   3.153   0.485
10463SOL    HW232289   4.131   3.251   0.520
10464SOL     OW32290   5.983   6.342   2.329
10464SOL    HW132291   5.941   6.390   2.405
10464SOL    HW232292   5.912   6.303   2.270
10465SOL     OW32293   0.347   4.941   4.847
10465SOL    HW132294   0.311   4.894   4.928
10465SOL    HW232295   0.405   5.017   4.875
10466SOL     OW32296   4.516   6.000   5.767
10466SOL    HW132297   4.484   6.030   5.857
10466SOL    HW232298   4.614   5.984   5.770
10467SOL     OW32299   3.963   1.433   4.348
10467SOL    HW132300   3.901   1.444   4.426
10467SOL    HW232301   4.024   1.356   4.365
10468SOL     OW32302   3.003   4.803   3.209
10468SOL    HW132303   2.975   4.817   3.304
10468SOL    HW232304   3.100   4.828   3.199
10469SOL     OW32305   1.292   4.735   5.943
10469SOL    HW132306   1.338   4.809   5.991
10469SOL    HW232307   1.331   4.725   5.852
10470SOL     OW32308   2.658   1.915   4.705
10470SOL    HW132309   2.722   1.979   4.748
10470SOL    HW232310   2.642   1.943   4.610
10471SOL     OW32311   4.979   3.998   7.021
10471SOL    HW132312   4.880   3.997   7.007
10471SOL    HW232313   5.019   4.075   6.971
10472SOL     OW32314   4.110   1.372   3.852
10472SOL    HW132315   4.018   1.351   3.820
10472SOL    HW232316   4.105   1.427   3.936
10473SOL     OW32317   5.259   4.881   6.396
10473SOL    HW132318   5.273   4.871   6.495
10473SOL    HW232319   5.172   4.929   6.379
10474SOL     OW32320   4.724   0.960   4.179
10474SOL    HW132321   4.794   0.938   4.247
10474SOL    HW232322   4.650   0.894   4.185
10475SOL     OW32323   3.743   6.515   1.518
10475SOL    HW132324   3.706   6.526   1.610
10475SOL    HW232325   3.843   6.509   1.523
10476SOL     OW32326   0.686   4.718   6.445
10476SOL    HW132327   0.736   4.764   6.519
10476SOL    HW232328   0.722   4.750   6.357
10477SOL     OW32329   4.823   4.474   5.269
10477SOL    HW132330   4.766   4.455   5.188
10477SOL    HW232331   4.779   4.544   5.325
10478SOL     OW32332   0.824   6.633   2.832
10478SOL    HW132333   0.776   6.590   2.755
10478SOL    HW232334   0.847   6.727   2.810
10479SOL     OW32335   0.751   4.174   2.321
10479SOL    HW132336   0.766   4.226   2.405
10479SOL    HW232337   0.805   4.090   2.323
10480SOL     OW32338   4.776   1.076   0.088
10480SOL    HW132339   4.720   1.099   0.008
10480SOL    HW232340   4.795   1.159   0.141
10481SOL     OW32341   3.146   1.812   4.081
10481SOL    HW132342   3.093   1.731   4.109
10481SOL    HW232343   3.239   1.784   4.058
10482SOL     OW32344   0.818   6.507   6.762
10482SOL    HW132345   0.738   6.561   6.738
10482SOL    HW232346   0.901   6.560   6.745
10483SOL     OW32347   1.045   6.100   1.078
10483SOL    HW132348   1.140   6.078   1.055
10483SOL    HW232349   0.985   6.060   1.009
10484SOL     OW32350   6.944   1.698   1.952
10484SOL    HW132351   6.933   1.686   1.853
10484SOL    HW232352   7.002   1.625   1.988
10485SOL     OW32353   3.578   3.982   4.187
10485SOL    HW132354   3.663   4.023   4.221
10485SOL    HW232355   3.583   3.972   4.088
10486SOL     OW32356   6.222   4.753   5.563
10486SOL    HW132357   6.200   4.655   5.559
10486SOL    HW232358   6.222   4.791   5.471
10487SOL     OW32359   5.273   4.023   2.748
10487SOL    HW132360   5.253   4.071   2.663
10487SOL    HW232361   5.225   3.936   2.749
10488SOL     OW32362   0.375   2.267   5.779
10488SOL    HW132363   0.338   2.360   5.782
10488SOL    HW232364   0.467   2.266   5.818
10489SOL     OW32365   5.934   4.975   2.991
10489SOL    HW132366   5.980   5.007   3.074
10489SOL    HW232367   5.983   5.008   2.911
10490SOL     OW32368   4.881   6.385   6.396
10490SOL    HW132369   4.941   6.309   6.370
10490SOL    HW232370   4.814   6.353   6.463
10491SOL     OW32371   2.345   1.903   5.544
10491SOL    HW132372   2.437   1.893   5.507
10491SOL    HW232373   2.301   1.984   5.503
10492SOL     OW32374   3.080   6.291   0.061
10492SOL    HW132375   3.109   6.386   0.072
10492SOL    HW232376   3.161   6.234   0.041
10493SOL     OW32377   3.537   6.124   0.567
10493SOL    HW132378   3.600   6.074   0.627
10493SOL    HW232379   3.443   6.109   0.597
10494SOL     OW32380   0.061   5.382   3.361
10494SOL    HW132381   0.072   5.383   3.262
10494SOL    HW232382   0.142   5.342   3.403
10495SOL     OW32383   6.185   6.083   0.173
10495SOL    HW132384   6.167   6.124   0.084
10495SOL    HW232385   6.272   6.119   0.209
10496SOL     OW32386   0.949   4.060   6.011
10496SOL    HW132387   0.869   4.084   5.956
10496SOL    HW232388   0.921   4.050   6.106
10497SOL     OW32389   4.215   6.406   6.755
10497SOL    HW132390   4.162   6.434   6.835
10497SOL    HW232391   4.313   6.414   6.774
10498SOL     OW32392   3.107   3.793   0.199
10498SOL    HW132393   3.104   3.877   0.253
10498SOL    HW232394   3.156   3.810   0.113
10499SOL     OW32395   4.300   4.785   3.463
10499SOL    HW132396   4.342   4.722   3.528
10499SOL    HW232397   4.304   4.746   3.371
10500SOL     OW32398   1.633   3.233   5.415
10500SOL    HW132399   1.711   3.287   5.447
10500SOL    HW232400   1.619   3.250   5.318
10501SOL     OW32401   3.826   4.915   3.416
10501SOL    HW132402   3.817   5.008   3.380
10501SOL    HW232403   3.805   4.849   3.343
10502SOL     OW32404   2.916   3.755   2.350
10502SOL    HW132405   2.875   3.670   2.314
10502SOL    HW232406   2.979   3.793   2.282
10503SOL     OW32407   6.849   0.370   0.877
10503SOL    HW132408   6.765   0.319   0.896
10503SOL    HW232409   6.920   0.344   0.942
10504SOL     OW32410   1.282   2.793   6.190
10504SOL    HW132411   1.211   2.826   6.253
10504SOL    HW232412   1.372   2.804   6.232
10505SOL     OW32413   5.662   6.471   1.637
10505SOL    HW132414   5.684   6.430   1.549
10505SOL    HW232415   5.614   6.558   1.622
10506SOL     OW32416   0.926   5.183   5.307
10506SOL    HW132417   0.978   5.100   5.329
10506SOL    HW232418   0.834   5.175   5.347
10507SOL     OW32419   1.803   6.129   5.909
10507SOL    HW132420   1.820   6.056   5.976
10507SOL    HW232421   1.875   6.198   5.917
10508SOL     OW32422   2.022   6.427   1.303
10508SOL    HW132423   2.045   6.510   1.253
10508SOL    HW232424   2.094   6.408   1.370
10509SOL     OW32425   5.067   3.543   1.903
10509SOL    HW132426   5.016   3.609   1.958
10509SOL    HW232427   5.008   3.509   1.829
10510SOL     OW32428   5.713   6.281   2.140
10510SOL    HW132429   5.656   6.228   2.203
10510SOL    HW232430   5.757   6.220   2.075
10511SOL     OW32431   4.231   1.794   0.876
10511SOL    HW132432   4.247   1.723   0.945
10511SOL    HW232433   4.312   1.852   0.869
10512SOL     OW32434   3.772   0.495   4.999
10512SOL    HW132435   3.776   0.594   4.990
10512SOL    HW232436   3.746   0.470   5.092
10513SOL     OW32437   3.673   3.779   0.790
10513SOL    HW132438   3.574   3.793   0.790
10513SOL    HW232439   3.699   3.728   0.707
10514SOL     OW32440   1.599   5.090   2.068
10514SOL    HW132441   1.517   5.139   2.096
10514SOL    HW232442   1.619   5.018   2.134
10515SOL     OW32443   2.151   3.741   5.094
10515SOL    HW132444   2.157   3.700   5.003
10515SOL    HW232445   2.102   3.828   5.089
10516SOL     OW32446   5.686   2.245   1.712
10516SOL    HW132447   5.725   2.326   1.668
10516SOL    HW232448   5.588   2.260   1.726
10517SOL     OW32449   6.969   2.223   2.084
10517SOL    HW132450   0.029   2.275   2.093
10517SOL    HW232451   6.990   2.126   2.070
10518SOL     OW32452   0.797   6.050   2.700
10518SOL    HW132453   0.708   6.044   2.745
10518SOL    HW232454   0.867   6.008   2.758
10519SOL     OW32455   2.120   7.023   0.723
10519SOL    HW132456   2.083   6.930   0.721
10519SOL    HW232457   2.194   0.006   0.657
10520SOL     OW32458   3.289   2.698   5.933
10520SOL    HW132459   3.252   2.605   5.942
10520SOL    HW232460   3.215   2.764   5.941
10521SOL     OW32461   6.089   2.012   2.606
10521SOL    HW132462   6.057   1.961   2.526
10521SOL    HW232463   6.038   1.982   2.687
10522SOL     OW32464   5.074   1.551   3.057
10522SOL    HW132465   5.068   1.627   3.122
10522SOL    HW232466   5.062   1.585   2.964
10523SOL     OW32467   0.571   3.588   1.679
10523SOL    HW132468   0.493   3.549   1.727
10523SOL    HW232469   0.539   3.651   1.608
10524SOL     OW32470   6.012   6.886   4.803
10524SOL    HW132471   5.927   6.893   4.752
10524SOL    HW232472   6.034   6.975   4.844
10525SOL     OW32473   4.948   1.920   3.229
10525SOL    HW132474   4.865   1.868   3.215
10525SOL    HW232475   5.005   1.917   3.147
10526SOL     OW32476   1.562   5.999   5.869
10526SOL    HW132477   1.571   5.902   5.849
10526SOL    HW232478   1.652   6.039   5.887
10527SOL     OW32479   0.497   6.252   6.008
10527SOL    HW132480   0.557   6.311   5.954
10527SOL    HW232481   0.402   6.279   5.995
10528SOL     OW32482   2.481   6.571   5.005
10528SOL    HW132483   2.529   6.487   5.030
10528SOL    HW232484   2.399   6.581   5.061
10529SOL     OW32485   6.922   5.017   6.921
10529SOL    HW132486   6.835   4.993   6.877
10529SOL    HW232487   6.904   5.076   7.000
10530SOL     OW32488   5.916   0.293   1.253
10530SOL    HW132489   5.960   0.271   1.166
10530SOL    HW232490   5.983   0.285   1.327
10531SOL     OW32491   3.218   1.339   6.301
10531SOL    HW132492   3.192   1.340   6.205
10531SOL    HW232493   3.284   1.412   6.318
10532SOL     OW32494   4.463   5.473   5.900
10532SOL    HW132495   4.411   5.466   5.815
10532SOL    HW232496   4.529   5.397   5.905
10533SOL     OW32497   4.639   6.640   3.518
10533SOL    HW132498   4.600   6.721   3.474
10533SOL    HW232499   4.683   6.583   3.449
10534SOL     OW32500   0.622   6.499   4.269
10534SOL    HW132501   0.527   6.529   4.278
10534SOL    HW232502   0.681   6.560   4.321
10535SOL     OW32503   4.074   1.664   2.126
10535SOL    HW132504   3.994   1.712   2.091
10535SOL    HW232505   4.115   1.718   2.200
10536SOL     OW32506   6.168   3.790   4.150
10536SOL    HW132507   6.235   3.757   4.084
10536SOL    HW232508   6.076   3.762   4.122
10537SOL     OW32509   3.543   1.276   2.697
10537SOL    HW132510   3.616   1.316   2.642
10537SOL    HW232511   3.556   1.177   2.703
10538SOL     OW32512   6.368   3.062   3.529
10538SOL    HW132513   6.330   3.139   3.478
10538SOL    HW232514   6.358   3.078   3.627
10539SOL     OW32515   6.627   0.102   2.050
10539SOL    HW132516   6.580   0.075   2.134
10539SOL    HW232517   6.723   0.122   2.070
10540SOL     OW32518   1.785   2.852   6.426
10540SOL    HW132519   1.821   2.941   6.400
10540SOL    HW232520   1.825   2.824   6.513
10541SOL     OW32521   3.927   2.496   6.256
10541SOL    HW132522   3.855   2.533   6.314
10541SOL    HW232523   3.975   2.571   6.210
10542SOL     OW32524   3.858   6.714   2.357
10542SOL    HW132525   3.761   6.689   2.362
10542SOL    HW232526   3.871   6.807   2.394
10543SOL     OW32527   1.067   2.642   4.117
10543SOL    HW132528   0.975   2.678   4.102
10543SOL    HW232529   1.069   2.592   4.204
10544SOL     OW32530   2.733   2.236   2.261
10544SOL    HW132531   2.788   2.277   2.187
10544SOL    HW232532   2.686   2.155   2.227
10545SOL     OW32533   1.086   3.266   1.550
10545SOL    HW132534   1.068   3.352   1.503
10545SOL    HW232535   1.072   3.190   1.487
10546SOL     OW32536   1.858   0.020   4.965
10546SOL    HW132537   1.767   0.055   4.986
10546SOL    HW232538   1.860   6.946   4.979
10547SOL     OW32539   3.462   5.545   6.489
10547SOL    HW132540   3.428   5.638   6.505
10547SOL    HW232541   3.458   5.493   6.573
10548SOL     OW32542   1.595   5.092   2.935
10548SOL    HW132543   1.530   5.145   2.990
10548SOL    HW232544   1.599   4.998   2.970
10549SOL     OW32545   6.991   1.163   2.643
10549SOL    HW132546   7.012   1.129   2.735
10549SOL    HW232547   6.906   1.216   2.646
10550SOL     OW32548   6.752   5.176   2.298
10550SOL    HW132549   6.706   5.264   2.313
10550SOL    HW232550   6.760   5.127   2.384
10551SOL     OW32551   4.903   0.069   4.283
10551SOL    HW132552   4.949   0.114   4.207
10551SOL    HW232553   4.889   0.135   4.357
10552SOL     OW32554   2.953   0.223   3.444
10552SOL    HW132555   3.047   0.193   3.461
10552SOL    HW232556   2.913   0.167   3.372
10553SOL     OW32557   5.393   5.569   1.405
10553SOL    HW132558   5.471   5.587   1.345
10553SOL    HW232559   5.348   5.485   1.377
10554SOL     OW32560   5.776   5.904   0.941
10554SOL    HW132561   5.790   5.955   1.026
10554SOL    HW232562   5.818   5.954   0.866
10555SOL     OW32563   3.298   3.287   2.005
10555SOL    HW132564   3.274   3.199   2.046
10555SOL    HW232565   3.358   3.273   1.927
10556SOL     OW32566   2.502   2.251   1.868
10556SOL    HW132567   2.561   2.182   1.909
10556SOL    HW232568   2.424   2.268   1.929
10557SOL     OW32569   0.782   4.308   2.592
10557SOL    HW132570   0.724   4.255   2.655
10557SOL    HW232571   0.771   4.406   2.613
10558SOL     OW32572   5.105   5.034   4.774
10558SOL    HW132573   5.148   4.978   4.845
10558SOL    HW232574   5.029   5.085   4.814
10559SOL     OW32575   3.418   5.991   1.304
10559SOL    HW132576   3.515   6.010   1.320
10559SOL    HW232577   3.369   5.987   1.391
10560SOL     OW32578   5.755   0.256   3.941
10560SOL    HW132579   5.843   0.277   3.983
10560SOL    HW232580   5.730   0.162   3.961
10561SOL     OW32581   1.083   5.819   5.394
10561SOL    HW132582   1.145   5.870   5.334
10561SOL    HW232583   1.051   5.878   5.468
10562SOL     OW32584   3.256   0.984   2.870
10562SOL    HW132585   3.174   0.965   2.924
10562SOL    HW232586   3.301   0.898   2.845
10563SOL     OW32587   1.570   5.613   1.935
10563SOL    HW132588   1.474   5.585   1.943
10563SOL    HW232589   1.605   5.587   1.845
10564SOL     OW32590   5.270   5.102   2.991
10564SOL    HW132591   5.218   5.148   3.062
10564SOL    HW232592   5.335   5.038   3.033
10565SOL     OW32593   6.703   1.382   4.670
10565SOL    HW132594   6.794   1.377   4.711
10565SOL    HW232595   6.708   1.433   4.584
10566SOL     OW32596   3.970   1.822   0.214
10566SOL    HW132597   3.944   1.744   0.272
10566SOL    HW232598   3.930   1.811   0.124
10567SOL     OW32599   3.062   1.634   6.483
10567SOL    HW132600   3.104   1.683   6.559
10567SOL    HW232601   3.134   1.602   6.420
10568SOL     OW32602   5.930   2.078   6.552
10568SOL    HW132603   5.878   2.157   6.583
10568SOL    HW232604   6.028   2.100   6.552
10569SOL     OW32605   3.998   0.621   1.320
10569SOL    HW132606   3.979   0.587   1.228
10569SOL    HW232607   3.937   0.698   1.340
10570SOL     OW32608   1.333   4.020   3.290
10570SOL    HW132609   1.394   4.083   3.242
10570SOL    HW232610   1.383   3.973   3.362
10571SOL     OW32611   0.440   3.990   5.142
10571SOL    HW132612   0.425   4.076   5.190
10571SOL    HW232613   0.365   3.973   5.079
10572SOL     OW32614   0.327   5.374   0.868
10572SOL    HW132615   0.415   5.405   0.904
10572SOL    HW232616   0.272   5.336   0.942
10573SOL     OW32617   5.972   2.409   3.266
10573SOL    HW132618   5.914   2.446   3.338
10573SOL    HW232619   6.054   2.369   3.307
10574SOL     OW32620   4.999   2.182   2.348
10574SOL    HW132621   4.904   2.154   2.360
10574SOL    HW232622   5.023   2.252   2.415
10575SOL     OW32623   5.285   0.463   2.604
10575SOL    HW132624   5.316   0.481   2.697
10575SOL    HW232625   5.227   0.538   2.572
10576SOL     OW32626   1.357   2.878   5.552
10576SOL    HW132627   1.448   2.915   5.568
10576SOL    HW232628   1.292   2.922   5.614
10577SOL     OW32629   4.349   4.337   6.734
10577SOL    HW132630   4.358   4.284   6.649
10577SOL    HW232631   4.436   4.336   6.783
10578SOL     OW32632   1.189   3.350   2.222
10578SOL    HW132633   1.105   3.309   2.256
10578SOL    HW232634   1.261   3.340   2.290
10579SOL     OW32635   0.003   3.370   6.932
10579SOL    HW132636   0.040   3.278   6.918
10579SOL    HW232637   0.074   3.438   6.913
10580SOL     OW32638   5.180   6.735   6.081
10580SOL    HW132639   5.193   6.804   6.009
10580SOL    HW232640   5.112   6.769   6.146
10581SOL     OW32641   4.263   0.835   2.340
10581SOL    HW132642   4.346   0.783   2.361
10581SOL    HW232643   4.194   0.773   2.303
10582SOL     OW32644   6.864   3.315   0.416
10582SOL    HW132645   6.872   3.226   0.460
10582SOL    HW232646   6.856   3.302   0.317
10583SOL     OW32647   4.050   1.999   6.061
10583SOL    HW132648   4.077   2.010   6.157
10583SOL    HW232649   4.032   1.902   6.043
10584SOL     OW32650   6.049   0.454   3.864
10584SOL    HW132651   6.103   0.386   3.914
10584SOL    HW232652   6.041   0.538   3.918
10585SOL     OW32653   1.496   1.186   4.913
10585SOL    HW132654   1.426   1.144   4.971
10585SOL    HW232655   1.501   1.138   4.826
10586SOL     OW32656   4.834   3.767   6.196
10586SOL    HW132657   4.806   3.795   6.104
10586SOL    HW232658   4.880   3.678   6.191
10587SOL     OW32659   2.385   5.115   5.607
10587SOL    HW132660   2.449   5.089   5.679
10587SOL    HW232661   2.424   5.091   5.518
10588SOL     OW32662   1.079   4.269   4.508
10588SOL    HW132663   1.121   4.205   4.444
10588SOL    HW232664   0.985   4.241   4.526
10589SOL     OW32665   5.623   0.687   3.530
10589SOL    HW132666   5.552   0.670   3.599
10589SOL    HW232667   5.591   0.656   3.441
10590SOL     OW32668   0.186   6.352   2.115
10590SOL    HW132669   0.165   6.414   2.190
10590SOL    HW232670   0.271   6.303   2.135
10591SOL     OW32671   6.393   4.389   2.430
10591SOL    HW132672   6.331   4.466   2.445
10591SOL    HW232673   6.383   4.357   2.336
10592SOL     OW32674   6.400   3.605   4.943
10592SOL    HW132675   6.458   3.679   4.909
10592SOL    HW232676   6.437   3.517   4.915
10593SOL     OW32677   3.975   5.875   3.453
10593SOL    HW132678   3.986   5.973   3.433
10593SOL    HW232679   4.024   5.852   3.537
10594SOL     OW32680   4.088   5.961   3.920
10594SOL    HW132681   4.101   5.929   3.826
10594SOL    HW232682   4.117   5.890   3.984
10595SOL     OW32683   5.643   5.403   0.469
10595SOL    HW132684   5.632   5.393   0.568
10595SOL    HW232685   5.641   5.500   0.445
10596SOL     OW32686   5.971   3.923   0.335
10596SOL    HW132687   5.969   3.830   0.372
10596SOL    HW232688   5.965   3.920   0.235
10597SOL     OW32689   0.999   6.730   5.357
10597SOL    HW132690   0.900   6.736   5.344
10597SOL    HW232691   1.044   6.722   5.268
10598SOL     OW32692   3.197   1.935   0.955
10598SOL    HW132693   3.207   2.014   0.893
10598SOL    HW232694   3.237   1.958   1.044
10599SOL     OW32695   0.571   2.020   0.642
10599SOL    HW132696   0.493   1.996   0.585
10599SOL    HW232697   0.544   2.091   0.707
10600SOL     OW32698   4.810   1.323   2.074
10600SOL    HW132699   4.858   1.392   2.129
10600SOL    HW232700   4.877   1.264   2.029
10601SOL     OW32701   2.141   2.039   5.203
10601SOL    HW132702   2.146   1.943   5.173
10601SOL    HW232703   2.184   2.048   5.293
10602SOL     OW32704   6.851   6.699   1.439
10602SOL    HW132705   6.828   6.746   1.354
10602SOL    HW232706   6.896   6.763   1.501
10603SOL     OW32707   5.741   0.563   2.455
10603SOL    HW132708   5.653   0.515   2.453
10603SOL    HW232709   5.760   0.596   2.547
10604SOL     OW32710   5.470   2.317   5.152
10604SOL    HW132711   5.383   2.274   5.129
10604SOL    HW232712   5.458   2.378   5.230
10605SOL     OW32713   4.397   1.962   1.160
10605SOL    HW132714   4.468   2.025   1.191
10605SOL    HW232715   4.376   1.897   1.233
10606SOL     OW32716   5.641   1.299   0.876
10606SOL    HW132717   5.558   1.353   0.878
10606SOL    HW232718   5.712   1.344   0.930
10607SOL     OW32719   2.282   4.903   1.012
10607SOL    HW132720   2.316   4.983   0.963
10607SOL    HW232721   2.227   4.932   1.090
10608SOL     OW32722   5.187   4.406   2.721
10608SOL    HW132723   5.139   4.368   2.800
10608SOL    HW232724   5.134   4.389   2.638
10609SOL     OW32725   5.770   6.647   6.687
10609SOL    HW132726   5.792   6.674   6.781
10609SOL    HW232727   5.671   6.638   6.677
10610SOL     OW32728   0.461   1.802   3.223
10610SOL    HW132729   0.496   1.788   3.316
10610SOL    HW232730   0.489   1.892   3.191
10611SOL     OW32731   4.046   5.373   6.111
10611SOL    HW132732   4.028   5.276   6.129
10611SOL    HW232733   4.138   5.395   6.140
10612SOL     OW32734   5.322   2.469   3.422
10612SOL    HW132735   5.289   2.393   3.366
10612SOL    HW232736   5.302   2.556   3.376
10613SOL     OW32737   5.540   4.962   5.796
10613SOL    HW132738   5.597   4.885   5.768
10613SOL    HW232739   5.514   4.952   5.892
10614SOL     OW32740   4.259   2.226   6.916
10614SOL    HW132741   4.288   2.152   6.976
10614SOL    HW232742   4.317   2.227   6.834
10615SOL     OW32743   3.316   2.150   5.685
10615SOL    HW132744   3.278   2.233   5.645
10615SOL    HW232745   3.244   2.082   5.696
10616SOL     OW32746   1.179   5.561   0.265
10616SOL    HW132747   1.091   5.588   0.304
10616SOL    HW232748   1.195   5.613   0.181
10617SOL     OW32749   2.408   3.329   0.055
10617SOL    HW132750   2.423   3.416   0.101
10617SOL    HW232751   2.310   3.319   0.036
10618SOL     OW32752   0.130   4.795   4.258
10618SOL    HW132753   0.199   4.823   4.324
10618SOL    HW232754   0.069   4.872   4.240
10619SOL     OW32755   1.054   2.450   0.900
10619SOL    HW132756   0.993   2.528   0.887
10619SOL    HW232757   1.148   2.483   0.908
10620SOL     OW32758   4.016   0.768   5.516
10620SOL    HW132759   3.956   0.796   5.441
10620SOL    HW232760   3.964   0.768   5.601
10621SOL     OW32761   0.782   5.005   4.730
10621SOL    HW132762   0.695   5.031   4.689
10621SOL    HW232763   0.815   4.920   4.687
10622SOL     OW32764   3.862   1.889   6.357
10622SOL    HW132765   3.962   1.883   6.356
10622SOL    HW232766   3.834   1.982   6.331
10623SOL     OW32767   5.162   4.495   5.662
10623SOL    HW132768   5.068   4.499   5.629
10623SOL    HW232769   5.225   4.500   5.585
10624SOL     OW32770   0.360   1.247   5.741
10624SOL    HW132771   0.433   1.313   5.722
10624SOL    HW232772   0.288   1.291   5.796
10625SOL     OW32773   5.601   5.624   6.780
10625SOL    HW132774   5.583   5.533   6.743
10625SOL    HW232775   5.574   5.694   6.714
10626SOL     OW32776   5.536   3.976   1.953
10626SOL    HW132777   5.541   3.912   2.029
10626SOL    HW232778   5.457   3.954   1.895
10627SOL     OW32779   5.268   4.774   5.407
10627SOL    HW132780   5.225   4.855   5.447
10627SOL    HW232781   5.229   4.692   5.450
10628SOL     OW32782   2.801   5.913   1.592
10628SOL    HW132783   2.802   6.011   1.612
10628SOL    HW232784   2.892   5.875   1.609
10629SOL     OW32785   4.252   5.812   4.394
10629SOL    HW132786   4.271   5.896   4.444
10629SOL    HW232787   4.326   5.746   4.410
10630SOL     OW32788   4.291   0.619   1.390
10630SOL    HW132789   4.334   0.542   1.343
10630SOL    HW232790   4.192   0.614   1.376
10631SOL     OW32791   3.907   6.417   2.316
10631SOL    HW132792   3.829   6.379   2.265
10631SOL    HW232793   3.881   6.505   2.354
10632SOL     OW32794   5.701   0.439   4.909
10632SOL    HW132795   5.781   0.499   4.902
10632SOL    HW232796   5.726   0.346   4.879
10633SOL     OW32797   3.119   3.133   0.127
10633SOL    HW132798   3.041   3.189   0.098
10633SOL    HW232799   3.142   3.156   0.222
10634SOL     OW32800   0.690   4.204   0.246
10634SOL    HW132801   0.597   4.232   0.224
10634SOL    HW232802   0.688   4.144   0.326
10635SOL     OW32803   2.982   4.227   6.860
10635SOL    HW132804   3.016   4.287   6.788
10635SOL    HW232805   2.936   4.282   6.930
10636SOL     OW32806   6.813   2.543   0.781
10636SOL    HW132807   6.823   2.625   0.725
10636SOL    HW232808   6.762   2.565   0.864
10637SOL     OW32809   1.700   0.401   5.628
10637SOL    HW132810   1.747   0.337   5.688
10637SOL    HW232811   1.762   0.477   5.606
10638SOL     OW32812   5.946   4.937   6.614
10638SOL    HW132813   5.917   4.850   6.574
10638SOL    HW232814   5.986   4.920   6.705
10639SOL     OW32815   6.635   5.628   6.835
10639SOL    HW132816   6.577   5.675   6.768
10639SOL    HW232817   6.577   5.576   6.898
10640SOL     OW32818   3.979   5.981   4.722
10640SOL    HW132819   3.991   6.074   4.686
10640SOL    HW232820   4.069   5.942   4.743
10641SOL     OW32821   1.010   1.391   4.012
10641SOL    HW132822   1.095   1.442   4.028
10641SOL    HW232823   1.029   1.293   4.021
10642SOL     OW32824   0.179   1.880   6.191
10642SOL    HW132825   0.109   1.951   6.189
10642SOL    HW232826   0.256   1.912   6.247
10643SOL     OW32827   3.017   5.110   5.019
10643SOL    HW132828   2.999   5.181   4.951
10643SOL    HW232829   3.031   5.022   4.972
10644SOL     OW32830   1.391   3.316   3.382
10644SOL    HW132831   1.311   3.283   3.433
10644SOL    HW232832   1.361   3.378   3.309
10645SOL     OW32833   1.895   3.472   3.707
10645SOL    HW132834   1.809   3.440   3.669
10645SOL    HW232835   1.963   3.479   3.634
10646SOL     OW32836   5.379   1.508   3.372
10646SOL    HW132837   5.342   1.601   3.375
10646SOL    HW232838   5.479   1.512   3.377
10647SOL     OW32839   4.462   5.503   4.831
10647SOL    HW132840   4.405   5.456   4.763
10647SOL    HW232841   4.480   5.442   4.908
10648SOL     OW32842   4.808   3.474   5.717
10648SOL    HW132843   4.743   3.540   5.678
10648SOL    HW232844   4.897   3.484   5.672
10649SOL     OW32845   5.772   3.126   3.393
10649SOL    HW132846   5.811   3.213   3.363
10649SOL    HW232847   5.810   3.051   3.339
10650SOL     OW32848   1.010   0.253   3.093
10650SOL    HW132849   1.094   0.267   3.040
10650SOL    HW232850   1.016   0.304   3.179
10651SOL     OW32851   2.129   5.894   5.454
10651SOL    HW132852   2.127   5.860   5.360
10651SOL    HW232853   2.182   5.831   5.511
10652SOL     OW32854   2.914   0.412   6.967
10652SOL    HW132855   2.947   0.384   0.032
10652SOL    HW232856   2.895   0.510   6.967
10653SOL     OW32857   5.696   6.204   4.623
10653SOL    HW132858   5.762   6.276   4.603
10653SOL    HW232859   5.744   6.116   4.630
10654SOL     OW32860   6.770   1.467   4.234
10654SOL    HW132861   6.682   1.497   4.271
10654SOL    HW232862   6.756   1.384   4.179
10655SOL     OW32863   6.469   5.271   0.235
10655SOL    HW132864   6.432   5.179   0.249
10655SOL    HW232865   6.402   5.339   0.265
10656SOL     OW32866   5.973   0.558   6.036
10656SOL    HW132867   6.000   0.571   5.941
10656SOL    HW232868   6.040   0.501   6.083
10657SOL     OW32869   4.312   6.958   5.679
10657SOL    HW132870   4.395   6.912   5.645
10657SOL    HW232871   4.231   6.909   5.647
10658SOL     OW32872   1.334   1.302   5.233
10658SOL    HW132873   1.371   1.368   5.168
10658SOL    HW232874   1.332   1.212   5.190
10659SOL     OW32875   0.720   5.589   6.422
10659SOL    HW132876   0.707   5.538   6.506
10659SOL    HW232877   0.634   5.593   6.371
10660SOL     OW32878   6.085   2.410   6.364
10660SOL    HW132879   6.089   2.426   6.463
10660SOL    HW232880   6.157   2.345   6.338
10661SOL     OW32881   3.338   5.590   5.612
10661SOL    HW132882   3.428   5.579   5.569
10661SOL    HW232883   3.318   5.687   5.622
10662SOL     OW32884   3.280   2.178   0.727
10662SOL    HW132885   3.269   2.252   0.794
10662SOL    HW232886   3.295   2.218   0.636
10663SOL     OW32887   6.788   3.051   3.966
10663SOL    HW132888   6.786   2.971   4.026
10663SOL    HW232889   6.880   3.060   3.927
10664SOL     OW32890   1.089   6.366   4.766
10664SOL    HW132891   1.109   6.298   4.837
10664SOL    HW232892   1.019   6.429   4.799
10665SOL     OW32893   3.870   3.431   0.819
10665SOL    HW132894   3.888   3.341   0.777
10665SOL    HW232895   3.772   3.449   0.818
10666SOL     OW32896   4.849   3.540   1.452
10666SOL    HW132897   4.879   3.629   1.417
10666SOL    HW232898   4.881   3.467   1.392
10667SOL     OW32899   5.826   2.587   4.398
10667SOL    HW132900   5.914   2.629   4.375
10667SOL    HW232901   5.756   2.659   4.402
10668SOL     OW32902   3.300   3.711   5.812
10668SOL    HW132903   3.268   3.778   5.879
10668SOL    HW232904   3.230   3.698   5.742
10669SOL     OW32905   6.478   3.174   1.922
10669SOL    HW132906   6.555   3.236   1.935
10669SOL    HW232907   6.396   3.227   1.900
10670SOL     OW32908   4.504   4.563   4.322
10670SOL    HW132909   4.460   4.652   4.313
10670SOL    HW232910   4.569   4.551   4.247
10671SOL     OW32911   2.172   3.068   4.844
10671SOL    HW132912   2.147   3.151   4.793
10671SOL    HW232913   2.163   3.085   4.942
10672SOL     OW32914   6.289   4.965   1.176
10672SOL    HW132915   6.300   5.047   1.233
10672SOL    HW232916   6.237   4.988   1.094
10673SOL     OW32917   2.757   1.208   1.805
10673SOL    HW132918   2.775   1.259   1.889
10673SOL    HW232919   2.762   1.270   1.726
10674SOL     OW32920   3.970   3.388   4.712
10674SOL    HW132921   4.050   3.343   4.753
10674SOL    HW232922   3.888   3.336   4.735
10675SOL     OW32923   3.263   6.683   5.731
10675SOL    HW132924   3.320   6.752   5.687
10675SOL    HW232925   3.217   6.628   5.661
10676SOL     OW32926   1.366   1.580   4.531
10676SOL    HW132927   1.352   1.504   4.595
10676SOL    HW232928   1.411   1.655   4.580
10677SOL     OW32929   0.146   1.571   6.831
10677SOL    HW132930   0.132   1.619   6.744
10677SOL    HW232931   0.244   1.562   6.848
10678SOL     OW32932   3.493   4.942   2.462
10678SOL    HW132933   3.409   4.954   2.409
10678SOL    HW232934   3.568   4.916   2.402
10679SOL     OW32935   5.304   4.057   0.443
10679SOL    HW132936   5.326   4.072   0.347
10679SOL    HW232937   5.234   3.985   0.450
10680SOL     OW32938   4.788   1.175   4.987
10680SOL    HW132939   4.792   1.274   4.980
10680SOL    HW232940   4.855   1.134   4.926
10681SOL     OW32941   2.662   3.399   5.332
10681SOL    HW132942   2.577   3.396   5.384
10681SOL    HW232943   2.691   3.306   5.310
10682SOL     OW32944   4.851   3.305   6.155
10682SOL    HW132945   4.822   3.311   6.059
10682SOL    HW232946   4.946   3.275   6.159
10683SOL     OW32947   1.661   0.825   3.349
10683SOL    HW132948   1.575   0.776   3.334
10683SOL    HW232949   1.691   0.867   3.263
10684SOL     OW32950   4.655   4.164   1.253
10684SOL    HW132951   4.615   4.194   1.340
10684SOL    HW232952   4.668   4.243   1.193
10685SOL     OW32953   0.610   0.104   2.787
10685SOL    HW132954   0.622   0.031   2.855
10685SOL    HW232955   0.699   0.136   2.756
10686SOL     OW32956   2.994   1.249   6.486
10686SOL    HW132957   3.004   1.299   6.571
10686SOL    HW232958   3.028   1.304   6.410
10687SOL     OW32959   0.420   2.633   3.276
10687SOL    HW132960   0.452   2.601   3.365
10687SOL    HW232961   0.358   2.566   3.236
10688SOL     OW32962   5.060   1.082   3.831
10688SOL    HW132963   5.021   1.172   3.811
10688SOL    HW232964   5.122   1.089   3.909
10689SOL     OW32965   1.457   1.503   2.965
10689SOL    HW132966   1.410   1.417   2.986
10689SOL    HW232967   1.534   1.515   3.027
10690SOL     OW32968   0.707   6.715   4.404
10690SOL    HW132969   0.789   6.771   4.395
10690SOL    HW232970   0.641   6.763   4.462
10691SOL     OW32971   3.194   6.679   1.251
10691SOL    HW132972   3.186   6.746   1.177
10691SOL    HW232973   3.284   6.635   1.247
10692SOL     OW32974   2.884   2.319   4.493
10692SOL    HW132975   2.824   2.372   4.553
10692SOL    HW232976   2.863   2.342   4.398
10693SOL     OW32977   1.355   4.357   0.217
10693SOL    HW132978   1.422   4.305   0.166
10693SOL    HW232979   1.348   4.450   0.179
10694SOL     OW32980   5.495   1.843   5.513
10694SOL    HW132981   5.469   1.834   5.609
10694SOL    HW232982   5.451   1.924   5.474
10695SOL     OW32983   4.820   4.645   1.114
10695SOL    HW132984   4.909   4.608   1.089
10695SOL    HW232985   4.752   4.572   1.114
10696SOL     OW32986   6.426   4.589   4.351
10696SOL    HW132987   6.367   4.513   4.324
10696SOL    HW232988   6.519   4.572   4.320
10697SOL     OW32989   2.680   5.082   4.488
10697SOL    HW132990   2.674   4.990   4.451
10697SOL    HW232991   2.624   5.088   4.572
10698SOL     OW32992   3.908   4.608   6.929
10698SOL    HW132993   3.908   4.699   6.970
10698SOL    HW232994   3.874   4.613   6.835
10699SOL     OW32995   3.737   3.957   1.254
10699SOL    HW132996   3.706   3.926   1.344
10699SOL    HW232997   3.729   3.882   1.189
10700SOL     OW32998   4.962   0.443   1.090
10700SOL    HW132999   4.961   0.456   0.991
10700SOL    HW233000   4.900   0.368   1.114
10701SOL     OW33001   3.192   6.393   6.164
10701SOL    HW133002   3.232   6.304   6.140
10701SOL    HW233003   3.229   6.464   6.105
10702SOL     OW33004   5.332   2.724   2.414
10702SOL    HW133005   5.268   2.653   2.386
10702SOL    HW233006   5.281   2.801   2.454
10703SOL     OW33007   0.718   1.737   5.495
10703SOL    HW133008   0.693   1.651   5.539
10703SOL    HW233009   0.669   1.744   5.408
10704SOL     OW33010   5.490   6.864   1.768
10704SOL    HW133011   5.424   6.846   1.840
10704SOL    HW233012   5.474   6.956   1.730
10705SOL     OW33013   4.827   3.312   1.294
10705SOL    HW133014   4.900   3.246   1.313
10705SOL    HW233015   4.751   3.296   1.357
10706SOL     OW33016   3.263   1.183   2.102
10706SOL    HW133017   3.221   1.118   2.039
10706SOL    HW233018   3.248   1.276   2.069
10707SOL     OW33019   4.335   6.585   3.175
10707SOL    HW133020   4.305   6.513   3.237
10707SOL    HW233021   4.317   6.674   3.217
10708SOL     OW33022   4.172   0.683   1.050
10708SOL    HW133023   4.225   0.601   1.027
10708SOL    HW233024   4.221   0.735   1.121
10709SOL     OW33025   5.787   4.536   2.643
10709SOL    HW133026   5.846   4.503   2.717
10709SOL    HW233027   5.692   4.530   2.672
10710SOL     OW33028   4.469   1.606   3.401
10710SOL    HW133029   4.475   1.539   3.475
10710SOL    HW233030   4.533   1.680   3.419
10711SOL     OW33031   2.672   6.520   3.116
10711SOL    HW133032   2.715   6.462   3.047
10711SOL    HW233033   2.743   6.555   3.178
10712SOL     OW33034   5.631   0.977   3.647
10712SOL    HW133035   5.636   0.897   3.587
10712SOL    HW233036   5.594   1.055   3.596
10713SOL     OW33037   1.401   3.440   1.431
10713SOL    HW133038   1.373   3.449   1.336
10713SOL    HW233039   1.346   3.501   1.488
10714SOL     OW33040   3.221   4.140   5.160
10714SOL    HW133041   3.125   4.147   5.188
10714SOL    HW233042   3.262   4.231   5.158
10715SOL     OW33043   5.712   0.854   1.947
10715SOL    HW133044   5.740   0.838   2.041
10715SOL    HW233045   5.791   0.843   1.886
10716SOL     OW33046   5.206   1.157   3.446
10716SOL    HW133047   5.141   1.094   3.489
10716SOL    HW233048   5.175   1.180   3.354
10717SOL     OW33049   3.632   2.417   0.677
10717SOL    HW133050   3.675   2.385   0.593
10717SOL    HW233051   3.643   2.348   0.748
10718SOL     OW33052   1.684   5.175   6.561
10718SOL    HW133053   1.763   5.126   6.523
10718SOL    HW233054   1.600   5.135   6.525
10719SOL     OW33055   0.295   5.120   5.195
10719SOL    HW133056   0.321   5.104   5.290
10719SOL    HW233057   0.212   5.176   5.192
10720SOL     OW33058   0.163   5.450   2.812
10720SOL    HW133059   0.163   5.483   2.906
10720SOL    HW233060   0.103   5.370   2.805
10721SOL     OW33061   5.053   2.204   5.730
10721SOL    HW133062   5.046   2.120   5.783
10721SOL    HW233063   5.149   2.228   5.716
10722SOL     OW33064   0.573   3.557   4.996
10722SOL    HW133065   0.563   3.529   5.091
10722SOL    HW233066   0.606   3.651   4.991
10723SOL     OW33067   5.665   6.369   0.460
10723SOL    HW133068   5.694   6.366   0.556
10723SOL    HW233069   5.633   6.279   0.432
10724SOL     OW33070   0.401   6.014   6.107
10724SOL    HW133071   0.448   6.096   6.076
10724SOL    HW233072   0.465   5.937   6.108
10725SOL     OW33073   2.198   6.552   5.903
10725SOL    HW133074   2.229   6.647   5.905
10725SOL    HW233075   2.275   6.492   5.882
10726SOL     OW33076   4.083   0.590   4.202
10726SOL    HW133077   4.089   0.680   4.245
10726SOL    HW233078   4.023   0.594   4.122
10727SOL     OW33079   1.995   6.615   6.626
10727SOL    HW133080   2.044   6.662   6.700
10727SOL    HW233081   1.978   6.520   6.654
10728SOL     OW33082   5.147   5.981   1.288
10728SOL    HW133083   5.220   6.048   1.274
10728SOL    HW233084   5.171   5.922   1.365
10729SOL     OW33085   6.480   2.063   0.719
10729SOL    HW133086   6.459   1.982   0.664
10729SOL    HW233087   6.421   2.065   0.799
10730SOL     OW33088   4.831   0.615   3.036
10730SOL    HW133089   4.925   0.613   3.003
10730SOL    HW233090   4.795   0.708   3.029
10731SOL     OW33091   3.524   0.024   0.900
10731SOL    HW133092   3.447   0.036   0.837
10731SOL    HW233093   3.515   0.088   0.976
10732SOL     OW33094   1.015   3.438   6.060
10732SOL    HW133095   1.045   3.534   6.065
10732SOL    HW233096   1.010   3.400   6.152
10733SOL     OW33097   5.650   0.770   0.314
10733SOL    HW133098   5.580   0.700   0.304
10733SOL    HW233099   5.663   0.818   0.227
10734SOL     OW33100   6.209   2.779   1.920
10734SOL    HW133101   6.281   2.800   1.986
10734SOL    HW233102   6.139   2.723   1.963
10735SOL     OW33103   0.437   5.870   2.982
10735SOL    HW133104   0.487   5.944   2.936
10735SOL    HW233105   0.376   5.825   2.917
10736SOL     OW33106   2.149   1.520   4.683
10736SOL    HW133107   2.242   1.558   4.683
10736SOL    HW233108   2.085   1.592   4.710
10737SOL     OW33109   6.636   2.062   6.907
10737SOL    HW133110   6.679   1.973   6.890
10737SOL    HW233111   6.590   2.061   6.996
10738SOL     OW33112   3.994   0.371   3.546
10738SOL    HW133113   3.928   0.328   3.606
10738SOL    HW233114   4.064   0.419   3.600
10739SOL     OW33115   2.399   1.878   2.036
10739SOL    HW133116   2.386   1.976   2.020
10739SOL    HW233117   2.309   1.834   2.045
10740SOL     OW33118   4.754   6.204   3.260
10740SOL    HW133119   4.780   6.169   3.350
10740SOL    HW233120   4.806   6.156   3.189
10741SOL     OW33121   2.576   0.509   3.320
10741SOL    HW133122   2.584   0.576   3.246
10741SOL    HW233123   2.628   0.427   3.297
10742SOL     OW33124   6.464   5.632   0.402
10742SOL    HW133125   6.507   5.619   0.313
10742SOL    HW233126   6.370   5.596   0.399
10743SOL     OW33127   2.709   1.903   5.064
10743SOL    HW133128   2.637   1.840   5.095
10743SOL    HW233129   2.790   1.890   5.120
10744SOL     OW33130   5.957   1.557   0.134
10744SOL    HW133131   5.919   1.536   0.224
10744SOL    HW233132   5.935   1.651   0.110
10745SOL     OW33133   0.460   5.666   6.278
10745SOL    HW133134   0.513   5.708   6.205
10745SOL    HW233135   0.429   5.737   6.341
10746SOL     OW33136   2.017   4.393   5.949
10746SOL    HW133137   1.948   4.463   5.932
10746SOL    HW233138   2.021   4.329   5.872
10747SOL     OW33139   3.330   2.105   4.629
10747SOL    HW133140   3.252   2.111   4.567
10747SOL    HW233141   3.298   2.103   4.724
10748SOL     OW33142   5.572   1.465   2.595
10748SOL    HW133143   5.484   1.423   2.619
10748SOL    HW233144   5.556   1.546   2.539
10749SOL     OW33145   3.214   6.419   0.351
10749SOL    HW133146   3.137   6.411   0.414
10749SOL    HW233147   3.293   6.459   0.399
10750SOL     OW33148   4.146   6.694   5.880
10750SOL    HW133149   4.150   6.594   5.882
10750SOL    HW233150   4.163   6.730   5.972
10751SOL     OW33151   2.459   5.364   3.742
10751SOL    HW133152   2.459   5.277   3.791
10751SOL    HW233153   2.517   5.357   3.662
10752SOL     OW33154   5.046   5.018   4.288
10752SOL    HW133155   5.093   4.948   4.233
10752SOL    HW233156   5.049   4.992   4.384
10753SOL     OW33157   5.836   3.990   4.406
10753SOL    HW133158   5.839   3.912   4.468
10753SOL    HW233159   5.894   3.972   4.327
10754SOL     OW33160   1.447   7.022   2.524
10754SOL    HW133161   1.518   0.013   2.456
10754SOL    HW233162   1.402   0.084   2.547
10755SOL     OW33163   6.062   5.458   1.344
10755SOL    HW133164   6.138   5.450   1.409
10755SOL    HW233165   6.062   5.550   1.304
10756SOL     OW33166   0.473   0.226   4.879
10756SOL    HW133167   0.504   0.208   4.972
10756SOL    HW233168   0.373   0.217   4.875
10757SOL     OW33169   3.048   3.185   1.500
10757SOL    HW133170   3.140   3.209   1.532
10757SOL    HW233171   2.987   3.262   1.511
10758SOL     OW33172   0.298   5.155   3.849
10758SOL    HW133173   0.206   5.163   3.811
10758SOL    HW233174   0.336   5.066   3.822
10759SOL     OW33175   6.792   1.090   6.688
10759SOL    HW133176   6.727   1.081   6.764
10759SOL    HW233177   6.866   1.151   6.714
10760SOL     OW33178   5.853   1.495   4.778
10760SOL    HW133179   5.847   1.589   4.813
10760SOL    HW233180   5.944   1.481   4.739
10761SOL     OW33181   2.909   4.755   5.719
10761SOL    HW133182   2.821   4.718   5.749
10761SOL    HW233183   2.960   4.788   5.798
10762SOL     OW33184   3.289   1.868   6.219
10762SOL    HW133185   3.209   1.871   6.158
10762SOL    HW233186   3.362   1.815   6.176
10763SOL     OW33187   4.663   6.197   3.986
10763SOL    HW133188   4.685   6.209   4.083
10763SOL    HW233189   4.729   6.248   3.931
10764SOL     OW33190   4.197   6.859   5.254
10764SOL    HW133191   4.296   6.851   5.245
10764SOL    HW233192   4.152   6.816   5.175
10765SOL     OW33193   6.626   3.585   7.003
10765SOL    HW133194   6.705   3.593   0.039
10765SOL    HW233195   6.596   3.676   6.976
10766SOL     OW33196   3.353   3.268   1.495
10766SOL    HW133197   3.355   3.339   1.426
10766SOL    HW233198   3.409   3.295   1.573
10767SOL     OW33199   4.548   1.719   2.412
10767SOL    HW133200   4.470   1.742   2.354
10767SOL    HW233201   4.621   1.786   2.399
10768SOL     OW33202   6.199   4.557   6.170
10768SOL    HW133203   6.253   4.641   6.163
10768SOL    HW233204   6.123   4.571   6.235
10769SOL     OW33205   1.928   3.477   5.306
10769SOL    HW133206   2.003   3.414   5.283
10769SOL    HW233207   1.875   3.497   5.224
10770SOL     OW33208   4.392   5.743   3.929
10770SOL    HW133209   4.334   5.726   3.849
10770SOL    HW233210   4.335   5.758   4.009
10771SOL     OW33211   2.279   1.580   4.327
10771SOL    HW133212   2.266   1.592   4.425
10771SOL    HW233213   2.297   1.669   4.284
10772SOL     OW33214   5.384   5.460   3.720
10772SOL    HW133215   5.296   5.413   3.728
10772SOL    HW233216   5.373   5.545   3.670
10773SOL     OW33217   5.736   4.790   3.046
10773SOL    HW133218   5.802   4.727   3.087
10773SOL    HW233219   5.785   4.866   3.003
10774SOL     OW33220   0.315   6.797   3.153
10774SOL    HW133221   0.270   6.725   3.100
10774SOL    HW233222   0.310   6.775   3.250
10775SOL     OW33223   0.227   3.391   1.137
10775SOL    HW133224   0.165   3.377   1.060
10775SOL    HW233225   0.176   3.383   1.223
10776SOL     OW33226   1.194   0.576   5.743
10776SOL    HW133227   1.215   0.666   5.703
10776SOL    HW233228   1.279   0.530   5.767
10777SOL     OW33229   2.331   5.529   1.538
10777SOL    HW133230   2.282   5.519   1.625
10777SOL    HW233231   2.400   5.601   1.546
10778SOL     OW33232   6.092   5.837   2.014
10778SOL    HW133233   6.139   5.884   2.088
10778SOL    HW233234   6.001   5.809   2.046
10779SOL     OW33235   4.895   3.072   3.384
10779SOL    HW133236   4.934   3.060   3.292
10779SOL    HW233237   4.814   3.014   3.394
10780SOL     OW33238   6.919   0.604   2.125
10780SOL    HW133239   7.015   0.602   2.153
10780SOL    HW233240   6.898   0.524   2.068
10781SOL     OW33241   3.386   0.293   4.377
10781SOL    HW133242   3.289   0.316   4.384
10781SOL    HW233243   3.433   0.319   4.462
10782SOL     OW33244   6.391   5.299   3.708
10782SOL    HW133245   6.325   5.226   3.726
10782SOL    HW233246   6.483   5.268   3.731
10783SOL     OW33247   6.779   2.677   2.938
10783SOL    HW133248   6.715   2.673   3.014
10783SOL    HW233249   6.764   2.599   2.878
10784SOL     OW33250   2.436   1.849   4.855
10784SOL    HW133251   2.507   1.906   4.813
10784SOL    HW233252   2.363   1.907   4.890
10785SOL     OW33253   1.144   2.964   5.787
10785SOL    HW133254   1.201   3.027   5.840
10785SOL    HW233255   1.052   2.963   5.826
10786SOL     OW33256   6.634   4.025   4.058
10786SOL    HW133257   6.577   3.984   4.129
10786SOL    HW233258   6.708   3.962   4.033
10787SOL     OW33259   2.375   2.181   6.490
10787SOL    HW133260   2.358   2.200   6.393
10787SOL    HW233261   2.289   2.189   6.541
10788SOL     OW33262   5.734   3.505   6.288
10788SOL    HW133263   5.741   3.462   6.198
10788SOL    HW233264   5.786   3.452   6.354
10789SOL     OW33265   5.062   1.114   0.049
10789SOL    HW133266   5.027   1.201   0.082
10789SOL    HW233267   5.119   1.071   0.119
10790SOL     OW33268   5.857   6.150   2.846
10790SOL    HW133269   5.866   6.103   2.759
10790SOL    HW233270   5.773   6.119   2.892
10791SOL     OW33271   0.902   6.503   2.495
10791SOL    HW133272   0.978   6.569   2.497
10791SOL    HW233273   0.914   6.442   2.416
10792SOL     OW33274   3.765   4.777   6.160
10792SOL    HW133275   3.725   4.800   6.248
10792SOL    HW233276   3.747   4.680   6.139
10793SOL     OW33277   5.944   3.701   4.038
10793SOL    HW133278   5.933   3.751   3.952
10793SOL    HW233279   5.862   3.714   4.094
10794SOL     OW33280   3.199   3.661   4.132
10794SOL    HW133281   3.230   3.723   4.204
10794SOL    HW233282   3.279   3.623   4.085
10795SOL     OW33283   0.004   5.235   2.845
10795SOL    HW133284   6.958   5.232   2.774
10795SOL    HW233285   0.061   5.153   2.837
10796SOL     OW33286   0.970   6.500   5.516
10796SOL    HW133287   1.001   6.576   5.460
10796SOL    HW233288   0.871   6.503   5.525
10797SOL     OW33289   3.927   2.955   6.969
10797SOL    HW133290   3.941   2.974   0.041
10797SOL    HW233291   3.947   3.037   6.916
10798SOL     OW33292   5.899   1.225   1.104
10798SOL    HW133293   5.995   1.244   1.086
10798SOL    HW233294   5.882   1.128   1.094
10799SOL     OW33295   4.921   1.802   1.154
10799SOL    HW133296   4.980   1.782   1.077
10799SOL    HW233297   4.838   1.746   1.149
10800SOL     OW33298   6.800   6.907   1.204
10800SOL    HW133299   6.705   6.895   1.233
10800SOL    HW233300   6.834   6.996   1.236
10801SOL     OW33301   2.264   0.408   1.442
10801SOL    HW133302   2.222   0.319   1.457
10801SOL    HW233303   2.193   0.476   1.423
10802SOL     OW33304   5.637   1.771   3.868
10802SOL    HW133305   5.629   1.740   3.773
10802SOL    HW233306   5.699   1.711   3.918
10803SOL     OW33307   2.561   5.153   5.821
10803SOL    HW133308   2.654   5.129   5.792
10803SOL    HW233309   2.514   5.071   5.853
10804SOL     OW33310   6.662   3.843   4.292
10804SOL    HW133311   6.706   3.874   4.376
10804SOL    HW233312   6.731   3.824   4.223
10805SOL     OW33313   6.560   0.336   6.494
10805SOL    HW133314   6.579   0.376   6.404
10805SOL    HW233315   6.602   0.393   6.565
10806SOL     OW33316   1.567   5.902   0.300
10806SOL    HW133317   1.488   5.886   0.241
10806SOL    HW233318   1.538   5.956   0.379
10807SOL     OW33319   3.443   5.534   4.657
10807SOL    HW133320   3.450   5.445   4.700
10807SOL    HW233321   3.488   5.603   4.714
10808SOL     OW33322   1.332   3.087   6.388
10808SOL    HW133323   1.252   3.055   6.337
10808SOL    HW233324   1.403   3.117   6.324
10809SOL     OW33325   1.449   0.203   4.529
10809SOL    HW133326   1.440   0.302   4.526
10809SOL    HW233327   1.492   0.175   4.615
10810SOL     OW33328   6.177   0.882   4.298
10810SOL    HW133329   6.272   0.854   4.311
10810SOL    HW233330   6.117   0.823   4.352
10811SOL     OW33331   5.554   5.845   5.029
10811SOL    HW133332   5.557   5.939   4.995
10811SOL    HW233333   5.625   5.791   4.984
10812SOL     OW33334   0.389   2.931   0.651
10812SOL    HW133335   0.361   2.846   0.606
10812SOL    HW233336   0.488   2.932   0.663
10813SOL     OW33337   1.364   3.700   6.983
10813SOL    HW133338   1.298   3.708   0.033
10813SOL    HW233339   1.348   3.615   6.934
10814SOL     OW33340   3.077   2.027   1.381
10814SOL    HW133341   3.131   2.022   1.464
10814SOL    HW233342   3.070   1.936   1.339
10815SOL     OW33343   4.877   0.935   4.394
10815SOL    HW133344   4.894   1.025   4.355
10815SOL    HW233345   4.852   0.944   4.490
10816SOL     OW33346   3.319   3.249   5.039
10816SOL    HW133347   3.286   3.326   5.095
10816SOL    HW233348   3.249   3.177   5.039
10817SOL     OW33349   1.268   5.945   4.337
10817SOL    HW133350   1.206   5.985   4.270
10817SOL    HW233351   1.259   5.994   4.424
10818SOL     OW33352   4.258   3.969   0.265
10818SOL    HW133353   4.203   4.039   0.311
10818SOL    HW233354   4.253   3.883   0.317
10819SOL     OW33355   5.871   5.843   5.257
10819SOL    HW133356   5.926   5.835   5.175
10819SOL    HW233357   5.812   5.762   5.267
10820SOL     OW33358   2.386   4.680   6.146
10820SOL    HW133359   2.480   4.709   6.127
10820SOL    HW233360   2.360   4.610   6.079
10821SOL     OW33361   4.359   5.399   3.911
10821SOL    HW133362   4.325   5.318   3.958
10821SOL    HW233363   4.282   5.453   3.876
10822SOL     OW33364   5.842   0.758   2.147
10822SOL    HW133365   5.932   0.720   2.127
10822SOL    HW233366   5.843   0.804   2.235
10823SOL     OW33367   5.461   6.572   2.376
10823SOL    HW133368   5.479   6.543   2.282
10823SOL    HW233369   5.416   6.661   2.374
10824SOL     OW33370   0.942   3.179   2.768
10824SOL    HW133371   1.014   3.225   2.717
10824SOL    HW233372   0.854   3.196   2.724
10825SOL     OW33373   6.972   1.852   0.763
10825SOL    HW133374   0.035   1.897   0.746
10825SOL    HW233375   6.987   1.753   0.774
10826SOL     OW33376   6.392   3.434   2.517
10826SOL    HW133377   6.327   3.417   2.443
10826SOL    HW233378   6.395   3.532   2.537
10827SOL     OW33379   6.851   3.480   4.167
10827SOL    HW133380   6.842   3.381   4.185
10827SOL    HW233381   6.835   3.497   4.070
10828SOL     OW33382   0.076   4.012   5.031
10828SOL    HW133383   0.005   4.080   5.015
10828SOL    HW233384   0.142   4.013   4.956
10829SOL     OW33385   3.825   3.211   5.551
10829SOL    HW133386   3.871   3.123   5.536
10829SOL    HW233387   3.726   3.197   5.548
10830SOL     OW33388   5.451   2.046   3.227
10830SOL    HW133389   5.543   2.076   3.204
10830SOL    HW233390   5.388   2.072   3.153
10831SOL     OW33391   4.110   6.903   3.580
10831SOL    HW133392   4.091   6.861   3.669
10831SOL    HW233393   4.054   6.986   3.570
10832SOL     OW33394   6.698   2.666   6.949
10832SOL    HW133395   6.682   2.596   6.880
10832SOL    HW233396   6.765   2.632   7.016
10833SOL     OW33397   0.566   1.380   6.749
10833SOL    HW133398   0.649   1.347   6.704
10833SOL    HW233399   0.584   1.395   6.846
10834SOL     OW33400   6.428   6.018   1.663
10834SOL    HW133401   6.493   5.971   1.724
10834SOL    HW233402   6.466   6.023   1.571
10835SOL     OW33403   6.831   2.141   5.439
10835SOL    HW133404   6.825   2.068   5.371
10835SOL    HW233405   6.912   2.198   5.420
10836SOL     OW33406   0.209   1.779   3.461
10836SOL    HW133407   0.269   1.858   3.455
10836SOL    HW233408   0.136   1.787   3.392
10837SOL     OW33409   7.002   3.500   3.846
10837SOL    HW133410   7.021   3.438   3.922
10837SOL    HW233411   6.944   3.453   3.779
10838SOL     OW33412   0.547   6.245   2.555
10838SOL    HW133413   0.453   6.271   2.535
10838SOL    HW233414   0.606   6.326   2.549
10839SOL     OW33415   4.724   2.707   0.546
10839SOL    HW133416   4.753   2.764   0.469
10839SOL    HW233417   4.677   2.764   0.614
10840SOL     OW33418   2.641   0.673   2.310
10840SOL    HW133419   2.728   0.624   2.309
10840SOL    HW233420   2.624   0.710   2.401
10841SOL     OW33421   2.301   5.078   5.150
10841SOL    HW133422   2.354   5.077   5.235
10841SOL    HW233423   2.219   5.135   5.163
10842SOL     OW33424   6.539   4.716   1.377
10842SOL    HW133425   6.537   4.723   1.477
10842SOL    HW233426   6.602   4.643   1.350
10843SOL     OW33427   2.372   1.524   1.838
10843SOL    HW133428   2.377   1.493   1.743
10843SOL    HW233429   2.464   1.542   1.872
10844SOL     OW33430   2.051   5.862   4.735
10844SOL    HW133431   2.101   5.780   4.710
10844SOL    HW233432   2.007   5.900   4.654
10845SOL     OW33433   4.609   0.506   4.600
10845SOL    HW133434   4.519   0.529   4.637
10845SOL    HW233435   4.613   0.408   4.581
10846SOL     OW33436   5.872   6.771   5.984
10846SOL    HW133437   5.873   6.861   6.027
10846SOL    HW233438   5.854   6.782   5.886
10847SOL     OW33439   3.087   6.790   0.019
10847SOL    HW133440   3.032   6.768   6.964
10847SOL    HW233441   3.027   6.805   0.098
10848SOL     OW33442   1.965   3.322   1.914
10848SOL    HW133443   1.930   3.408   1.875
10848SOL    HW233444   1.908   3.246   1.882
10849SOL     OW33445   2.023   6.515   3.577
10849SOL    HW133446   1.997   6.446   3.644
10849SOL    HW233447   2.122   6.515   3.567
10850SOL     OW33448   4.735   4.420   0.765
10850SOL    HW133449   4.738   4.390   0.669
10850SOL    HW233450   4.794   4.500   0.776
10851SOL     OW33451   1.434   4.692   0.906
10851SOL    HW133452   1.490   4.730   0.979
10851SOL    HW233453   1.448   4.745   0.823
10852SOL     OW33454   3.018   1.457   2.132
10852SOL    HW133455   3.077   1.452   2.051
10852SOL    HW233456   2.946   1.388   2.125
10853SOL     OW33457   3.543   0.950   6.459
10853SOL    HW133458   3.554   1.048   6.473
10853SOL    HW233459   3.630   0.904   6.478
10854SOL     OW33460   3.099   5.910   5.855
10854SOL    HW133461   3.027   5.871   5.912
10854SOL    HW233462   3.188   5.890   5.896
10855SOL     OW33463   4.017   1.011   6.888
10855SOL    HW133464   3.973   0.925   6.862
10855SOL    HW233465   3.999   1.030   6.985
10856SOL     OW33466   0.806   1.236   0.722
10856SOL    HW133467   0.835   1.237   0.626
10856SOL    HW233468   0.775   1.327   0.749
10857SOL     OW33469   6.750   2.847   1.649
10857SOL    HW133470   6.833   2.807   1.689
10857SOL    HW233471   6.697   2.892   1.721
10858SOL     OW33472   2.386   6.700   2.113
10858SOL    HW133473   2.300   6.669   2.155
10858SOL    HW233474   2.382   6.683   2.014
10859SOL     OW33475   1.354   4.781   3.807
10859SOL    HW133476   1.426   4.768   3.739
10859SOL    HW233477   1.335   4.694   3.853
10860SOL     OW33478   0.402   3.728   3.342
10860SOL    HW133479   0.479   3.673   3.374
10860SOL    HW233480   0.391   3.808   3.400
10861SOL     OW33481   4.244   3.140   5.398
10861SOL    HW133482   4.263   3.151   5.300
10861SOL    HW233483   4.253   3.228   5.444
10862SOL     OW33484   1.243   1.000   5.329
10862SOL    HW133485   1.266   1.069   5.399
10862SOL    HW233486   1.180   0.933   5.368
10863SOL     OW33487   2.358   6.372   3.874
10863SOL    HW133488   2.414   6.405   3.950
10863SOL    HW233489   2.350   6.273   3.879
10864SOL     OW33490   3.567   6.928   3.413
10864SOL    HW133491   3.644   6.867   3.391
10864SOL    HW233492   3.482   6.876   3.410
10865SOL     OW33493   6.623   1.249   6.445
10865SOL    HW133494   6.668   1.160   6.441
10865SOL    HW233495   6.524   1.237   6.439
10866SOL     OW33496   5.712   5.050   6.721
10866SOL    HW133497   5.641   5.099   6.670
10866SOL    HW233498   5.795   5.044   6.665
10867SOL     OW33499   2.651   1.745   6.958
10867SOL    HW133500   2.733   1.773   7.007
10867SOL    HW233501   2.603   1.674   7.009
10868SOL     OW33502   1.534   2.353   3.218
10868SOL    HW133503   1.556   2.380   3.311
10868SOL    HW233504   1.490   2.263   3.219
10869NA      NA33505   6.371   2.054   5.585
10870NA      NA33506   4.294   4.495   5.336
10871NA      NA33507   2.172   3.338   1.785
10872NA      NA33508   4.878   3.671   5.234
10873NA      NA33509   4.139   2.455   5.376
10874NA      NA33510   3.581   4.916   1.815
10875NA      NA33511   6.854   6.208   4.850
10876NA      NA33512   3.650   3.616   5.134
10877NA      NA33513   4.796   6.482   6.190
10878NA      NA33514   2.762   0.588   5.048
10879NA      NA33515   0.608   5.153   2.674
10880NA      NA33516   2.201   0.613   2.434
10881NA      NA33517   3.522   4.408   1.315
10882NA      NA33518   3.912   3.375   2.983
   7.02510   7.02510   7.02510
