Generated by trjconv : CNT in water t= 174.00000
33518
    1C        C    1   2.845   2.770   4.743
    1C        C    2   2.897   2.718   4.863
    1C        C    3   2.842   2.769   4.981
    1C        C    4   2.847   2.773   4.258
    1C        C    5   2.899   2.727   4.381
    1C        C    6   2.840   2.770   4.501
    1C        C    7   3.012   2.642   4.621
    1C        C    8   2.894   2.719   4.621
    1C        C    9   3.078   2.604   4.741
    1C        C   10   3.009   2.632   4.861
    1C        C   11   3.181   2.492   4.974
    1C        C   12   3.060   2.563   4.972
    1C        C   13   2.852   2.776   3.772
    1C        C   14   2.903   2.727   3.894
    1C        C   15   2.849   2.777   4.014
    1C        C   16   3.019   2.649   4.135
    1C        C   17   2.902   2.728   4.136
    1C        C   18   3.082   2.618   4.257
    1C        C   19   3.021   2.655   4.379
    1C        C   20   3.210   2.559   4.499
    1C        C   21   3.078   2.612   4.500
    1C        C   22   3.278   2.532   4.619
    1C        C   23   3.208   2.548   4.741
    1C        C   24   3.408   2.480   4.862
    1C        C   25   3.266   2.494   4.859
    1C        C   26   3.487   2.477   4.977
    1C        C   27   2.850   2.772   3.281
    1C        C   28   2.905   2.728   3.404
    1C        C   29   2.855   2.779   3.526
    1C        C   30   3.016   2.643   3.650
    1C        C   31   2.905   2.731   3.649
    1C        C   32   3.079   2.604   3.770
    1C        C   33   3.016   2.642   3.891
    1C        C   34   3.208   2.552   4.013
    1C        C   35   3.078   2.608   4.013
    1C        C   36   3.278   2.533   4.134
    1C        C   37   3.211   2.561   4.256
    1C        C   38   3.418   2.514   4.380
    1C        C   39   3.279   2.537   4.378
    1C        C   40   3.488   2.502   4.502
    1C        C   41   3.416   2.504   4.623
    1C        C   42   3.630   2.480   4.743
    1C        C   43   3.487   2.487   4.744
    1C        C   44   3.703   2.483   4.864
    1C        C   45   3.626   2.481   4.981
    1C        C   46   2.838   2.759   2.793
    1C        C   47   2.899   2.718   2.914
    1C        C   48   2.845   2.766   3.036
    1C        C   49   3.019   2.645   3.159
    1C        C   50   2.903   2.725   3.158
    1C        C   51   3.081   2.612   3.281
    1C        C   52   3.020   2.647   3.404
    1C        C   53   3.209   2.559   3.526
    1C        C   54   3.077   2.608   3.527
    1C        C   55   3.278   2.536   3.647
    1C        C   56   3.210   2.553   3.770
    1C        C   57   3.415   2.501   3.892
    1C        C   58   3.277   2.529   3.892
    1C        C   59   3.486   2.495   4.014
    1C        C   60   3.416   2.503   4.137
    1C        C   61   3.629   2.498   4.258
    1C        C   62   3.487   2.496   4.258
    1C        C   63   3.702   2.503   4.379
    1C        C   64   3.630   2.496   4.500
    1C        C   65   3.835   2.539   4.622
    1C        C   66   3.701   2.494   4.622
    1C        C   67   3.903   2.560   4.744
    1C        C   68   3.838   2.522   4.864
    1C        C   69   4.050   2.583   4.977
    1C        C   70   3.923   2.523   4.975
    1C        C   71   2.824   2.735   2.307
    1C        C   72   2.881   2.692   2.429
    1C        C   73   2.831   2.746   2.550
    1C        C   74   3.009   2.632   2.670
    1C        C   75   2.892   2.710   2.672
    1C        C   76   3.074   2.602   2.791
    1C        C   77   3.019   2.643   2.915
    1C        C   78   3.207   2.545   3.036
    1C        C   79   3.079   2.607   3.037
    1C        C   80   3.277   2.533   3.157
    1C        C   81   3.212   2.559   3.280
    1C        C   82   3.415   2.504   3.401
    1C        C   83   3.277   2.538   3.404
    1C        C   84   3.485   2.499   3.523
    1C        C   85   3.418   2.512   3.646
    1C        C   86   3.627   2.499   3.768
    1C        C   87   3.485   2.500   3.770
    1C        C   88   3.696   2.498   3.891
    1C        C   89   3.628   2.490   4.014
    1C        C   90   3.835   2.539   4.138
    1C        C   91   3.698   2.502   4.136
    1C        C   92   3.903   2.568   4.259
    1C        C   93   3.836   2.544   4.381
    1C        C   94   4.032   2.628   4.499
    1C        C   95   3.906   2.565   4.503
    1C        C   96   4.090   2.670   4.621
    1C        C   97   4.027   2.629   4.740
    1C        C   98   4.190   2.762   4.863
    1C        C   99   4.096   2.655   4.862
    1C        C  100   4.202   2.843   4.977
    1C        C  101   2.823   2.732   2.068
    1C        C  102   2.991   2.594   2.190
    1C        C  103   2.878   2.682   2.186
    1C        C  104   3.061   2.570   2.312
    1C        C  105   2.997   2.612   2.430
    1C        C  106   3.203   2.542   2.550
    1C        C  107   3.069   2.588   2.549
    1C        C  108   3.272   2.526   2.672
    1C        C  109   3.205   2.548   2.795
    1C        C  110   3.415   2.499   2.912
    1C        C  111   3.276   2.523   2.914
    1C        C  112   3.486   2.494   3.034
    1C        C  113   3.415   2.505   3.156
    1C        C  114   3.626   2.498   3.279
    1C        C  115   3.485   2.496   3.278
    1C        C  116   3.695   2.505   3.402
    1C        C  117   3.627   2.499   3.525
    1C        C  118   3.836   2.538   3.646
    1C        C  119   3.699   2.507   3.646
    1C        C  120   3.897   2.566   3.770
    1C        C  121   3.831   2.540   3.892
    1C        C  122   4.021   2.634   4.010
    1C        C  123   3.895   2.570   4.014
    1C        C  124   4.084   2.671   4.131
    1C        C  125   4.027   2.635   4.255
    1C        C  126   4.194   2.764   4.374
    1C        C  127   4.090   2.669   4.377
    1C        C  128   4.241   2.816   4.497
    1C        C  129   4.195   2.765   4.620
    1C        C  130   4.324   2.933   4.741
    1C        C  131   4.245   2.814   4.743
    1C        C  132   4.348   3.005   4.860
    1C        C  133   4.276   2.961   4.973
    1C        C  134   3.175   2.472   2.079
    1C        C  135   3.040   2.510   2.086
    1C        C  136   3.260   2.485   2.190
    1C        C  137   3.195   2.523   2.310
    1C        C  138   3.407   2.482   2.426
    1C        C  139   3.268   2.507   2.430
    1C        C  140   3.480   2.482   2.547
    1C        C  141   3.409   2.495   2.669
    1C        C  142   3.625   2.490   2.788
    1C        C  143   3.484   2.488   2.789
    1C        C  144   3.697   2.493   2.910
    1C        C  145   3.627   2.490   3.033
    1C        C  146   3.833   2.532   3.155
    1C        C  147   3.696   2.498   3.156
    1C        C  148   3.900   2.557   3.277
    1C        C  149   3.834   2.533   3.399
    1C        C  150   4.026   2.621   3.520
    1C        C  151   3.901   2.554   3.521
    1C        C  152   4.084   2.664   3.642
    1C        C  153   4.022   2.633   3.765
    1C        C  154   4.190   2.761   3.887
    1C        C  155   4.080   2.672   3.887
    1C        C  156   4.244   2.809   4.008
    1C        C  157   4.193   2.760   4.131
    1C        C  158   4.341   2.917   4.252
    1C        C  159   4.246   2.812   4.252
    1C        C  160   4.377   2.981   4.373
    1C        C  161   4.326   2.930   4.494
    1C        C  162   4.424   3.115   4.616
    1C        C  163   4.361   2.989   4.617
    1C        C  164   4.456   3.185   4.735
    1C        C  165   4.423   3.124   4.857
    1C        C  166   4.505   3.323   4.971
    1C        C  167   4.475   3.187   4.971
    1C        C  168   3.476   2.434   2.069
    1C        C  169   3.399   2.462   2.183
    1C        C  170   3.615   2.464   2.305
    1C        C  171   3.473   2.464   2.303
    1C        C  172   3.691   2.488   2.421
    1C        C  173   3.621   2.481   2.544
    1C        C  174   3.829   2.534   2.663
    1C        C  175   3.693   2.498   2.664
    1C        C  176   3.896   2.557   2.786
    1C        C  177   3.833   2.530   2.909
    1C        C  178   4.024   2.621   3.030
    1C        C  179   3.898   2.558   3.032
    1C        C  180   4.083   2.659   3.153
    1C        C  181   4.023   2.626   3.276
    1C        C  182   4.198   2.746   3.394
    1C        C  183   4.087   2.658   3.398
    1C        C  184   4.242   2.802   3.516
    1C        C  185   4.191   2.756   3.640
    1C        C  186   4.331   2.914   3.764
    1C        C  187   4.241   2.805   3.763
    1C        C  188   4.372   2.973   3.885
    1C        C  189   4.332   2.919   4.009
    1C        C  190   4.440   3.104   4.129
    1C        C  191   4.375   2.979   4.130
    1C        C  192   4.467   3.170   4.251
    1C        C  193   4.441   3.107   4.375
    1C        C  194   4.504   3.313   4.490
    1C        C  195   4.459   3.179   4.495
    1C        C  196   4.523   3.385   4.610
    1C        C  197   4.510   3.317   4.733
    1C        C  198   4.554   3.534   4.850
    1C        C  199   4.526   3.393   4.852
    1C        C  200   4.583   3.618   4.962
    1C        C  201   3.615   2.418   2.068
    1C        C  202   3.823   2.511   2.179
    1C        C  203   3.688   2.464   2.182
    1C        C  204   3.898   2.536   2.297
    1C        C  205   3.829   2.519   2.419
    1C        C  206   4.023   2.613   2.538
    1C        C  207   3.896   2.552   2.540
    1C        C  208   4.078   2.658   2.660
    1C        C  209   4.023   2.618   2.784
    1C        C  210   4.194   2.743   2.905
    1C        C  211   4.084   2.654   2.907
    1C        C  212   4.249   2.790   3.027
    1C        C  213   4.194   2.747   3.150
    1C        C  214   4.329   2.911   3.271
    1C        C  215   4.244   2.798   3.272
    1C        C  216   4.364   2.972   3.393
    1C        C  217   4.327   2.915   3.516
    1C        C  218   4.431   3.098   3.639
    1C        C  219   4.364   2.973   3.640
    1C        C  220   4.457   3.166   3.760
    1C        C  221   4.435   3.100   3.883
    1C        C  222   4.496   3.305   4.003
    1C        C  223   4.463   3.167   4.004
    1C        C  224   4.512   3.375   4.124
    1C        C  225   4.498   3.308   4.247
    1C        C  226   4.522   3.522   4.365
    1C        C  227   4.515   3.381   4.367
    1C        C  228   4.523   3.595   4.485
    1C        C  229   4.535   3.526   4.608
    1C        C  230   4.501   3.739   4.726
    1C        C  231   4.539   3.602   4.727
    1C        C  232   4.497   3.814   4.845
    1C        C  233   4.545   3.753   4.962
    1C        C  234   4.020   2.602   2.063
    1C        C  235   3.895   2.543   2.063
    1C        C  236   4.087   2.643   2.179
    1C        C  237   4.023   2.603   2.298
    1C        C  238   4.198   2.735   2.420
    1C        C  239   4.084   2.650   2.417
    1C        C  240   4.249   2.785   2.541
    1C        C  241   4.193   2.740   2.663
    1C        C  242   4.330   2.905   2.783
    1C        C  243   4.246   2.791   2.783
    1C        C  244   4.370   2.963   2.905
    1C        C  245   4.337   2.900   3.027
    1C        C  246   4.427   3.095   3.149
    1C        C  247   4.374   2.964   3.148
    1C        C  248   4.452   3.163   3.270
    1C        C  249   4.427   3.099   3.394
    1C        C  250   4.492   3.301   3.512
    1C        C  251   4.452   3.165   3.517
    1C        C  252   4.505   3.371   3.634
    1C        C  253   4.492   3.303   3.757
    1C        C  254   4.516   3.514   3.878
    1C        C  255   4.504   3.373   3.880
    1C        C  256   4.516   3.586   4.000
    1C        C  257   4.524   3.516   4.123
    1C        C  258   4.494   3.731   4.240
    1C        C  259   4.520   3.592   4.242
    1C        C  260   4.470   3.799   4.361
    1C        C  261   4.492   3.733   4.484
    1C        C  262   4.422   3.936   4.604
    1C        C  263   4.477   3.806   4.604
    1C        C  264   4.394   4.005   4.725
    1C        C  265   4.430   3.939   4.844
    1C        C  266   4.312   4.122   4.955
    1C        C  267   4.393   4.009   4.960
    1C        C  268   4.261   2.775   2.061
    1C        C  269   4.197   2.732   2.178
    1C        C  270   4.345   2.889   2.294
    1C        C  271   4.253   2.781   2.298
    1C        C  272   4.377   2.954   2.415
    1C        C  273   4.336   2.897   2.538
    1C        C  274   4.445   3.080   2.661
    1C        C  275   4.373   2.959   2.659
    1C        C  276   4.473   3.147   2.782
    1C        C  277   4.442   3.085   2.905
    1C        C  278   4.504   3.291   3.023
    1C        C  279   4.460   3.157   3.026
    1C        C  280   4.515   3.362   3.144
    1C        C  281   4.494   3.298   3.268
    1C        C  282   4.516   3.510   3.387
    1C        C  283   4.510   3.368   3.389
    1C        C  284   4.512   3.581   3.509
    1C        C  285   4.512   3.512   3.632
    1C        C  286   4.487   3.722   3.753
    1C        C  287   4.511   3.582   3.754
    1C        C  288   4.470   3.790   3.876
    1C        C  289   4.494   3.725   3.999
    1C        C  290   4.430   3.932   4.118
    1C        C  291   4.481   3.801   4.118
    1C        C  292   4.398   3.998   4.239
    1C        C  293   4.423   3.933   4.362
    1C        C  294   4.326   4.125   4.478
    1C        C  295   4.396   4.002   4.482
    1C        C  296   4.283   4.185   4.599
    1C        C  297   4.327   4.130   4.722
    1C        C  298   4.197   4.311   4.837
    1C        C  299   4.280   4.194   4.839
    1C        C  300   4.165   4.395   4.948
    1C        C  301   4.338   2.891   2.062
    1C        C  302   4.474   3.068   2.175
    1C        C  303   4.397   2.947   2.175
    1C        C  304   4.481   3.143   2.296
    1C        C  305   4.444   3.078   2.416
    1C        C  306   4.505   3.281   2.538
    1C        C  307   4.474   3.144   2.538
    1C        C  308   4.514   3.356   2.658
    1C        C  309   4.503   3.285   2.780
    1C        C  310   4.517   3.501   2.899
    1C        C  311   4.509   3.360   2.899
    1C        C  312   4.510   3.573   3.020
    1C        C  313   4.513   3.504   3.143
    1C        C  314   4.487   3.717   3.262
    1C        C  315   4.507   3.578   3.263
    1C        C  316   4.472   3.787   3.384
    1C        C  317   4.487   3.720   3.508
    1C        C  318   4.426   3.922   3.628
    1C        C  319   4.471   3.789   3.630
    1C        C  320   4.394   3.985   3.750
    1C        C  321   4.419   3.922   3.874
    1C        C  322   4.315   4.108   3.990
    1C        C  323   4.393   3.990   3.995
    1C        C  324   4.278   4.171   4.111
    1C        C  325   4.325   4.119   4.234
    1C        C  326   4.187   4.281   4.354
    1C        C  327   4.286   4.180   4.355
    1C        C  328   4.133   4.334   4.474
    1C        C  329   4.187   4.289   4.596
    1C        C  330   4.024   4.434   4.712
    1C        C  331   4.140   4.352   4.713
    1C        C  332   3.964   4.484   4.830
    1C        C  333   4.048   4.472   4.942
    1C        C  334   4.557   3.268   2.059
    1C        C  335   4.540   3.129   2.063
    1C        C  336   4.540   3.349   2.172
    1C        C  337   4.517   3.280   2.294
    1C        C  338   4.519   3.493   2.409
    1C        C  339   4.516   3.351   2.416
    1C        C  340   4.519   3.566   2.530
    1C        C  341   4.519   3.497   2.654
    1C        C  342   4.488   3.707   2.773
    1C        C  343   4.516   3.569   2.775
    1C        C  344   4.476   3.780   2.894
    1C        C  345   4.494   3.713   3.017
    1C        C  346   4.421   3.915   3.136
    1C        C  347   4.471   3.783   3.138
    1C        C  348   4.393   3.982   3.257
    1C        C  349   4.423   3.919   3.380
    1C        C  350   4.317   4.100   3.500
    1C        C  351   4.392   3.980   3.504
    1C        C  352   4.277   4.160   3.622
    1C        C  353   4.317   4.104   3.745
    1C        C  354   4.177   4.265   3.865
    1C        C  355   4.272   4.160   3.866
    1C        C  356   4.121   4.311   3.986
    1C        C  357   4.172   4.265   4.109
    1C        C  358   4.008   4.395   4.231
    1C        C  359   4.125   4.316   4.232
    1C        C  360   3.951   4.442   4.351
    1C        C  361   4.016   4.412   4.473
    1C        C  362   3.828   4.517   4.590
    1C        C  363   3.960   4.467   4.590
    1C        C  364   3.762   4.553   4.710
    1C        C  365   3.835   4.541   4.830
    1C        C  366   3.630   4.586   4.948
    1C        C  367   3.768   4.568   4.950
    1C        C  368   4.514   3.563   2.051
    1C        C  369   4.523   3.489   2.170
    1C        C  370   4.503   3.706   2.286
    1C        C  371   4.518   3.566   2.289
    1C        C  372   4.483   3.776   2.407
    1C        C  373   4.499   3.706   2.528
    1C        C  374   4.422   3.905   2.648
    1C        C  375   4.479   3.776   2.649
    1C        C  376   4.393   3.974   2.767
    1C        C  377   4.426   3.912   2.890
    1C        C  378   4.322   4.097   3.010
    1C        C  379   4.394   3.976   3.011
    1C        C  380   4.276   4.157   3.130
    1C        C  381   4.313   4.099   3.253
    1C        C  382   4.172   4.251   3.375
    1C        C  383   4.273   4.153   3.377
    1C        C  384   4.119   4.299   3.497
    1C        C  385   4.175   4.259   3.620
    1C        C  386   4.005   4.386   3.742
    1C        C  387   4.123   4.308   3.742
    1C        C  388   3.942   4.423   3.863
    1C        C  389   4.003   4.389   3.985
    1C        C  390   3.817   4.485   4.107
    1C        C  391   3.946   4.428   4.108
    1C        C  392   3.751   4.517   4.228
    1C        C  393   3.823   4.502   4.349
    1C        C  394   3.616   4.554   4.474
    1C        C  395   3.755   4.527   4.470
    1C        C  396   3.544   4.567   4.594
    1C        C  397   3.622   4.570   4.712
    1C        C  398   3.411   4.552   4.839
    1C        C  399   3.550   4.575   4.833
    1C        C  400   3.342   4.514   4.954
    1C        C  401   4.510   3.702   2.052
    1C        C  402   4.452   3.916   2.166
    1C        C  403   4.494   3.781   2.166
    1C        C  404   4.414   3.979   2.286
    1C        C  405   4.438   3.909   2.407
    1C        C  406   4.332   4.098   2.524
    1C        C  407   4.403   3.976   2.527
    1C        C  408   4.281   4.152   2.644
    1C        C  409   4.319   4.094   2.767
    1C        C  410   4.171   4.248   2.885
    1C        C  411   4.273   4.150   2.888
    1C        C  412   4.117   4.293   3.008
    1C        C  413   4.171   4.252   3.131
    1C        C  414   3.999   4.377   3.254
    1C        C  415   4.116   4.298   3.253
    1C        C  416   3.937   4.407   3.378
    1C        C  417   4.002   4.377   3.500
    1C        C  418   3.813   4.479   3.619
    1C        C  419   3.942   4.420   3.620
    1C        C  420   3.747   4.509   3.740
    1C        C  421   3.812   4.479   3.862
    1C        C  422   3.610   4.539   3.985
    1C        C  423   3.748   4.506   3.985
    1C        C  424   3.541   4.548   4.107
    1C        C  425   3.612   4.543   4.229
    1C        C  426   3.403   4.545   4.354
    1C        C  427   3.544   4.551   4.352
    1C        C  428   3.333   4.540   4.476
    1C        C  429   3.403   4.554   4.598
    1C        C  430   3.195   4.515   4.721
    1C        C  431   3.334   4.547   4.721
    1C        C  432   3.123   4.490   4.841
    1C        C  433   3.205   4.492   4.954
    1C        C  434   4.382   4.119   2.049
    1C        C  435   4.446   3.995   2.050
    1C        C  436   4.304   4.161   2.162
    1C        C  437   4.336   4.098   2.285
    1C        C  438   4.183   4.252   2.399
    1C        C  439   4.287   4.157   2.403
    1C        C  440   4.125   4.296   2.520
    1C        C  441   4.173   4.243   2.643
    1C        C  442   4.004   4.377   2.764
    1C        C  443   4.115   4.290   2.762
    1C        C  444   3.945   4.413   2.887
    1C        C  445   4.001   4.374   3.010
    1C        C  446   3.813   4.474   3.127
    1C        C  447   3.941   4.415   3.131
    1C        C  448   3.746   4.496   3.250
    1C        C  449   3.813   4.473   3.372
    1C        C  450   3.610   4.527   3.496
    1C        C  451   3.749   4.503   3.495
    1C        C  452   3.539   4.538   3.618
    1C        C  453   3.609   4.540   3.740
    1C        C  454   3.399   4.550   3.864
    1C        C  455   3.540   4.550   3.863
    1C        C  456   3.330   4.537   3.987
    1C        C  457   3.400   4.540   4.110
    1C        C  458   3.194   4.501   4.233
    1C        C  459   3.331   4.535   4.233
    1C        C  460   3.127   4.484   4.356
    1C        C  461   3.195   4.506   4.478
    1C        C  462   2.996   4.435   4.601
    1C        C  463   3.126   4.492   4.600
    1C        C  464   2.929   4.402   4.721
    1C        C  465   2.989   4.439   4.844
    1C        C  466   2.802   4.339   4.959
    1C        C  467   2.907   4.432   4.961
    1C        C  468   4.124   4.284   2.041
    1C        C  469   4.191   4.249   2.159
    1C        C  470   4.008   4.371   2.278
    1C        C  471   4.132   4.302   2.277
    1C        C  472   3.941   4.402   2.398
    1C        C  473   4.006   4.371   2.520
    1C        C  474   3.809   4.456   2.641
    1C        C  475   3.940   4.404   2.641
    1C        C  476   3.743   4.484   2.763
    1C        C  477   3.813   4.466   2.885
    1C        C  478   3.606   4.519   3.007
    1C        C  479   3.745   4.492   3.005
    1C        C  480   3.536   4.530   3.130
    1C        C  481   3.607   4.523   3.252
    1C        C  482   3.397   4.534   3.374
    1C        C  483   3.538   4.534   3.375
    1C        C  484   3.328   4.525   3.497
    1C        C  485   3.398   4.535   3.620
    1C        C  486   3.191   4.500   3.743
    1C        C  487   3.328   4.532   3.743
    1C        C  488   3.125   4.478   3.867
    1C        C  489   3.194   4.501   3.988
    1C        C  490   3.003   4.410   4.114
    1C        C  491   3.129   4.474   4.110
    1C        C  492   2.940   4.378   4.237
    1C        C  493   3.001   4.420   4.357
    1C        C  494   2.827   4.304   4.482
    1C        C  495   2.938   4.391   4.480
    1C        C  496   2.771   4.260   4.604
    1C        C  497   2.817   4.315   4.726
    1C        C  498   2.668   4.161   4.844
    1C        C  499   2.753   4.273   4.845
    1C        C  500   2.595   4.118   4.956
    1C        C  501   4.003   4.352   2.043
    1C        C  502   3.815   4.463   2.156
    1C        C  503   3.945   4.409   2.157
    1C        C  504   3.741   4.479   2.275
    1C        C  505   3.810   4.455   2.396
    1C        C  506   3.604   4.503   2.518
    1C        C  507   3.744   4.480   2.518
    1C        C  508   3.533   4.510   2.640
    1C        C  509   3.605   4.511   2.762
    1C        C  510   3.395   4.521   2.885
    1C        C  511   3.536   4.522   2.885
    1C        C  512   3.325   4.518   3.008
    1C        C  513   3.395   4.533   3.130
    1C        C  514   3.190   4.489   3.255
    1C        C  515   3.325   4.531   3.252
    1C        C  516   3.124   4.466   3.378
    1C        C  517   3.190   4.495   3.499
    1C        C  518   2.996   4.413   3.623
    1C        C  519   3.123   4.476   3.622
    1C        C  520   2.939   4.374   3.746
    1C        C  521   3.002   4.409   3.868
    1C        C  522   2.839   4.277   3.995
    1C        C  523   2.948   4.368   3.992
    1C        C  524   2.787   4.229   4.117
    1C        C  525   2.834   4.286   4.238
    1C        C  526   2.700   4.128   4.365
    1C        C  527   2.783   4.242   4.363
    1C        C  528   2.656   4.074   4.488
    1C        C  529   2.687   4.146   4.606
    1C        C  530   2.588   3.956   4.732
    1C        C  531   2.642   4.088   4.726
    1C        C  532   2.541   3.900   4.854
    1C        C  533   2.529   3.995   4.961
    1C        C  534   3.620   4.553   2.040
    1C        C  535   3.756   4.516   2.041
    1C        C  536   3.535   4.539   2.154
    1C        C  537   3.604   4.518   2.277
    1C        C  538   3.390   4.513   2.397
    1C        C  539   3.531   4.517   2.398
    1C        C  540   3.321   4.507   2.520
    1C        C  541   3.392   4.506   2.642
    1C        C  542   3.183   4.481   2.765
    1C        C  543   3.322   4.506   2.764
    1C        C  544   3.119   4.460   2.889
    1C        C  545   3.188   4.483   3.010
    1C        C  546   2.997   4.398   3.133
    1C        C  547   3.124   4.461   3.133
    1C        C  548   2.941   4.360   3.257
    1C        C  549   2.998   4.401   3.379
    1C        C  550   2.830   4.277   3.506
    1C        C  551   2.936   4.370   3.502
    1C        C  552   2.783   4.226   3.629
    1C        C  553   2.836   4.279   3.749
    1C        C  554   2.701   4.117   3.875
    1C        C  555   2.790   4.227   3.873
    1C        C  556   2.661   4.059   3.998
    1C        C  557   2.702   4.117   4.120
    1C        C  558   2.600   3.937   4.246
    1C        C  559   2.663   4.063   4.245
    1C        C  560   2.574   3.874   4.370
    1C        C  561   2.590   3.950   4.488
    1C        C  562   2.529   3.750   4.615
    1C        C  563   2.561   3.888   4.611
    1C        C  564   2.516   3.680   4.736
    1C        C  565   2.520   3.759   4.854
    1C        C  566   2.526   3.545   4.979
    1C        C  567   2.524   3.684   4.973
    1C        C  568   3.327   4.472   2.038
    1C        C  569   3.396   4.512   2.154
    1C        C  570   3.182   4.475   2.277
    1C        C  571   3.320   4.509   2.274
    1C        C  572   3.114   4.456   2.400
    1C        C  573   3.182   4.480   2.521
    1C        C  574   2.987   4.398   2.645
    1C        C  575   3.114   4.460   2.643
    1C        C  576   2.930   4.360   2.768
    1C        C  577   2.994   4.395   2.890
    1C        C  578   2.823   4.271   3.014
    1C        C  579   2.934   4.360   3.013
    1C        C  580   2.783   4.217   3.138
    1C        C  581   2.834   4.268   3.260
    1C        C  582   2.698   4.110   3.383
    1C        C  583   2.782   4.224   3.384
    1C        C  584   2.660   4.055   3.508
    1C        C  585   2.696   4.115   3.631
    1C        C  586   2.597   3.931   3.754
    1C        C  587   2.657   4.059   3.754
    1C        C  588   2.573   3.868   3.878
    1C        C  589   2.597   3.934   4.001
    1C        C  590   2.534   3.734   4.127
    1C        C  591   2.569   3.871   4.124
    1C        C  592   2.517   3.668   4.251
    1C        C  593   2.534   3.738   4.372
    1C        C  594   2.506   3.532   4.499
    1C        C  595   2.519   3.673   4.497
    1C        C  596   2.518   3.462   4.621
    1C        C  597   2.519   3.537   4.740
    1C        C  598   2.522   3.326   4.863
    1C        C  599   2.525   3.467   4.863
    1C        C  600   2.530   3.248   4.980
    1C        C  601   3.193   4.436   2.042
    1C        C  602   2.981   4.387   2.157
    1C        C  603   3.115   4.436   2.158
    1C        C  604   2.926   4.353   2.284
    1C        C  605   2.989   4.391   2.405
    1C        C  606   2.813   4.270   2.528
    1C        C  607   2.923   4.358   2.525
    1C        C  608   2.767   4.217   2.651
    1C        C  609   2.823   4.268   2.770
    1C        C  610   2.687   4.106   2.894
    1C        C  611   2.773   4.219   2.893
    1C        C  612   2.651   4.049   3.018
    1C        C  613   2.696   4.107   3.138
    1C        C  614   2.591   3.926   3.266
    1C        C  615   2.655   4.052   3.262
    1C        C  616   2.562   3.865   3.390
    1C        C  617   2.594   3.930   3.511
    1C        C  618   2.529   3.728   3.638
    1C        C  619   2.567   3.864   3.633
    1C        C  620   2.516   3.663   3.763
    1C        C  621   2.528   3.734   3.884
    1C        C  622   2.504   3.523   4.010
    1C        C  623   2.517   3.663   4.006
    1C        C  624   2.503   3.455   4.134
    1C        C  625   2.504   3.528   4.255
    1C        C  626   2.530   3.320   4.381
    1C        C  627   2.507   3.459   4.378
    1C        C  628   2.549   3.250   4.503
    1C        C  629   2.535   3.322   4.623
    1C        C  630   2.597   3.119   4.746
    1C        C  631   2.546   3.252   4.746
    1C        C  632   2.621   3.050   4.868
    1C        C  633   2.566   3.113   4.984
    1C        C  634   2.777   4.300   2.053
    1C        C  635   2.885   4.389   2.051
    1C        C  636   2.744   4.230   2.169
    1C        C  637   2.808   4.273   2.287
    1C        C  638   2.674   4.106   2.406
    1C        C  639   2.759   4.219   2.408
    1C        C  640   2.638   4.047   2.529
    1C        C  641   2.682   4.104   2.650
    1C        C  642   2.587   3.917   2.777
    1C        C  643   2.648   4.044   2.773
    1C        C  644   2.560   3.855   2.902
    1C        C  645   2.585   3.924   3.023
    1C        C  646   2.525   3.721   3.147
    1C        C  647   2.567   3.856   3.146
    1C        C  648   2.513   3.655   3.271
    1C        C  649   2.525   3.728   3.391
    1C        C  650   2.508   3.520   3.517
    1C        C  651   2.515   3.661   3.515
    1C        C  652   2.511   3.453   3.641
    1C        C  653   2.504   3.522   3.764
    1C        C  654   2.526   3.313   3.890
    1C        C  655   2.504   3.453   3.887
    1C        C  656   2.544   3.247   4.013
    1C        C  657   2.529   3.316   4.136
    1C        C  658   2.598   3.118   4.257
    1C        C  659   2.547   3.250   4.260
    1C        C  660   2.632   3.057   4.380
    1C        C  661   2.597   3.117   4.503
    1C        C  662   2.711   2.938   4.626
    1C        C  663   2.628   3.053   4.625
    1C        C  664   2.751   2.876   4.747
    1C        C  665   2.697   2.928   4.868
    1C        C  666   2.745   2.868   4.985
    1C        C  667   2.670   4.025   2.052
    1C        C  668   2.677   4.105   2.166
    1C        C  669   2.584   3.909   2.291
    1C        C  670   2.636   4.042   2.286
    1C        C  671   2.556   3.845   2.413
    1C        C  672   2.580   3.918   2.532
    1C        C  673   2.515   3.718   2.659
    1C        C  674   2.554   3.854   2.655
    1C        C  675   2.508   3.649   2.782
    1C        C  676   2.525   3.719   2.904
    1C        C  677   2.505   3.510   3.027
    1C        C  678   2.506   3.651   3.026
    1C        C  679   2.508   3.442   3.151
    1C        C  680   2.504   3.514   3.273
    1C        C  681   2.529   3.306   3.400
    1C        C  682   2.510   3.446   3.396
    1C        C  683   2.543   3.240   3.524
    1C        C  684   2.529   3.312   3.645
    1C        C  685   2.596   3.113   3.773
    1C        C  686   2.546   3.245   3.768
    1C        C  687   2.631   3.050   3.895
    1C        C  688   2.598   3.117   4.015
    1C        C  689   2.705   2.932   4.140
    1C        C  690   2.628   3.050   4.137
    1C        C  691   2.753   2.878   4.262
    1C        C  692   2.712   2.941   4.382
    1C        C  693   2.753   2.882   4.504
    1C        C  694   2.625   3.892   2.055
    1C        C  695   2.528   3.701   2.174
    1C        C  696   2.577   3.833   2.172
    1C        C  697   2.501   3.636   2.297
    1C        C  698   2.514   3.710   2.416
    1C        C  699   2.483   3.503   2.541
    1C        C  700   2.501   3.644   2.540
    1C        C  701   2.497   3.434   2.664
    1C        C  702   2.495   3.508   2.784
    1C        C  703   2.518   3.297   2.910
    1C        C  704   2.499   3.437   2.906
    1C        C  705   2.535   3.230   3.033
    1C        C  706   2.531   3.302   3.154
    1C        C  707   2.596   3.104   3.279
    1C        C  708   2.547   3.237   3.278
    1C        C  709   2.627   3.045   3.404
    1C        C  710   2.596   3.109   3.526
    1C        C  711   2.715   2.939   3.649
    1C        C  712   2.629   3.051   3.650
    1C        C  713   2.758   2.881   3.771
    1C        C  714   2.714   2.936   3.894
    1C        C  715   2.754   2.882   4.018
    1C        C  716   2.445   3.499   2.059
    1C        C  717   2.491   3.631   2.058
    1C        C  718   2.463   3.421   2.178
    1C        C  719   2.480   3.496   2.297
    1C        C  720   2.513   3.291   2.422
    1C        C  721   2.483   3.429   2.422
    1C        C  722   2.539   3.225   2.545
    1C        C  723   2.525   3.296   2.666
    1C        C  724   2.585   3.094   2.789
    1C        C  725   2.538   3.227   2.789
    1C        C  726   2.616   3.033   2.912
    1C        C  727   2.586   3.098   3.034
    1C        C  728   2.704   2.923   3.159
    1C        C  729   2.623   3.039   3.157
    1C        C  730   2.751   2.872   3.282
    1C        C  731   2.710   2.931   3.404
    1C        C  732   2.758   2.882   3.527
    1C        C  733   2.484   3.197   2.070
    1C        C  734   2.488   3.280   2.183
    1C        C  735   2.569   3.080   2.305
    1C        C  736   2.521   3.214   2.304
    1C        C  737   2.608   3.019   2.426
    1C        C  738   2.583   3.090   2.545
    1C        C  739   2.696   2.912   2.669
    1C        C  740   2.615   3.028   2.668
    1C        C  741   2.740   2.860   2.793
    1C        C  742   2.696   2.916   2.915
    1C        C  743   2.747   2.867   3.037
    1C        C  744   2.542   3.070   2.073
    1C        C  745   2.681   2.896   2.185
    1C        C  746   2.595   3.008   2.186
    1C        C  747   2.728   2.841   2.306
    1C        C  748   2.685   2.901   2.427
    1C        C  749   2.735   2.849   2.548
    1C        C  750   2.735   2.840   2.068
    1C        C  751   3.660   2.304   1.985
    1C        O  752   3.702   2.200   2.042
    1C        O  753   3.644   2.299   1.846
    1C        C  754   4.632   3.049   1.979
    1C        O  755   4.643   3.063   1.855
    1C        O  756   4.718   2.948   2.024
    1C        C  757   4.461   4.218   1.973
    1C        O  758   4.567   4.268   2.019
    1C        O  759   4.451   4.239   1.835
    1C        C  760   3.588   4.635   1.921
    1C        O  761   3.587   4.760   1.927
    1C        O  762   3.575   4.580   1.793
    1C        C  763   2.844   4.517   1.988
    1C        O  764   2.791   4.518   1.874
    1C        O  765   2.826   4.641   2.050
    1C        C  766   2.350   3.465   1.951
    1C        O  767   2.392   3.443   1.834
    1C        O  768   2.212   3.481   1.959
    1C        C  769   4.707   3.602   5.041
    1C        O  770   4.692   3.552   5.156
    1C        O  771   4.832   3.577   4.985
    1C        C  772   4.264   4.454   5.041
    1C        O  773   4.253   4.427   5.163
    1C        O  774   4.395   4.491   5.008
    1C        C  775   4.149   2.516   5.064
    1C        O  776   4.203   2.409   5.025
    1C        O  777   4.172   2.556   5.196
    1C        C  778   2.888   4.556   5.039
    1C        O  779   2.803   4.641   5.000
    1C        O  780   2.944   4.570   5.167
    1C        C  781   2.481   3.037   5.077
    1C        O  782   2.374   2.984   5.037
    1C        O  783   2.501   3.028   5.215
    1C        C  784   2.405   4.002   5.041
    1C        O  785   2.295   4.013   4.980
    1C        O  786   2.401   4.009   5.181
    1C        C  787   2.954   2.411   2.018
    1C        O  788   2.908   2.424   1.901
    1C        O  789   2.875   2.317   2.083
    1C        C  790   3.178   2.376   5.067
    1C        O  791   3.085   2.294   5.049
    1C        O  792   3.200   2.394   5.204
    1C        H  793   4.274   3.023   5.060
    1C        H  794   4.167   2.815   5.074
    1C        H  795   4.508   3.128   5.053
    1C        H  796   4.545   3.362   5.062
    1C        H  797   4.576   3.808   5.048
    1C        H  798   4.448   3.995   5.050
    1C        H  799   4.278   4.165   5.047
    1C        H  800   4.036   4.552   5.012
    1C        H  801   3.823   4.598   5.036
    1C        H  802   3.583   4.589   5.044
    1C        H  803   3.402   4.482   5.037
    1C        H  804   3.164   4.477   5.052
    1C        H  805   3.889   2.471   5.062
    1C        H  806   3.672   2.490   5.077
    1C        H  807   2.998   2.547   5.058
    1C        H  808   3.443   2.424   5.059
    1C        H  809   2.859   2.712   5.070
    1C        H  810   2.716   2.904   5.082
    1C        H  811   2.520   3.290   5.078
    1C        H  812   2.509   3.500   5.075
    1C        H  813   2.508   3.738   5.064
    1C        H  814   2.585   4.180   5.043
    1C        H  815   2.784   4.299   5.056
    1C        H  816   2.713   2.895   1.980
    1C        H  817   2.888   2.732   1.983
    1C        H  818   3.202   2.400   2.004
    1C        H  819   3.426   2.453   1.977
    1C        H  820   3.888   2.468   1.986
    1C        H  821   4.085   2.571   1.983
    1C        H  822   4.265   2.711   1.975
    1C        H  823   4.339   2.948   1.971
    1C        H  824   4.634   3.306   1.995
    1C        H  825   4.482   3.517   1.960
    1C        H  826   4.519   3.750   1.956
    1C        H  827   3.820   4.568   1.973
    1C        H  828   3.937   4.338   1.959
    1C        H  829   4.161   4.257   1.945
    1C        H  830   4.517   3.972   1.973
    1C        H  831   2.617   3.842   1.961
    1C        H  832   2.678   4.070   1.955
    1C        H  833   2.696   4.313   1.983
    1C        H  834   3.372   4.471   1.941
    1C        H  835   3.144   4.450   1.948
    1C        H  836   2.537   3.017   1.980
    1C        H  837   2.398   3.200   2.006
    1C        H  838   2.476   3.685   1.967
    2V3OU   H29  839   2.802   3.554   1.729
    2V3OU   C27  840   2.777   3.508   1.829
    2V3OU   H27  841   2.715   3.571   1.896
    2V3OU   H28  842   2.732   3.407   1.810
    2V3OU   O11  843   2.903   3.482   1.892
    2V3OU   C15  844   2.921   3.395   1.997
    2V3OU   C13  845   3.052   3.373   2.045
    2V3OU   C14  846   3.076   3.266   2.132
    2V3OU   C16  847   2.973   3.183   2.175
    2V3OU    H6  848   2.989   3.104   2.249
    2V3OU   C12  849   3.209   3.226   2.184
    2V3OU    O2  850   3.225   3.126   2.257
    2V3OU   C10  851   3.323   3.307   2.138
    2V3OU    C8  852   3.455   3.272   2.162
    2V3OU   O10  853   3.484   3.152   2.219
    2V3OU   H26  854   3.403   3.104   2.242
    2V3OU    C6  855   3.564   3.351   2.116
    2V3OU    C5  856   3.534   3.471   2.052
    2V3OU    C4  857   3.700   3.290   2.110
    2V3OU    H4  858   3.720   3.230   2.203
    2V3OU    H5  859   3.712   3.223   2.020
    2V3OU    C2  860   3.815   3.392   2.106
    2V3OU    O6  861   3.802   3.471   2.224
    2V3OU   H21  862   3.779   3.560   2.193
    2V3OU    C3  863   3.781   3.490   1.994
    2V3OU    H2  864   3.858   3.570   1.983
    2V3OU    H3  865   3.784   3.435   1.896
    2V3OU   C25  866   3.949   3.322   2.082
    2V3OU    O7  867   3.997   3.299   1.971
    2V3OU   C26  868   4.031   3.291   2.206
    2V3OU   H22  869   4.073   3.385   2.250
    2V3OU   H23  870   4.117   3.223   2.180
    2V3OU    O8  871   3.963   3.218   2.306
    2V3OU   H24  872   3.920   3.279   2.368
    2V3OU    C1  873   3.648   3.561   2.013
    2V3OU    H1  874   3.625   3.618   1.918
    2V3OU    O3  875   3.657   3.655   2.121
    2V3OU   C19  876   3.619   3.793   2.121
    2V3OU    H9  877   3.524   3.812   2.064
    2V3OU    O4  878   3.717   3.852   2.039
    2V3OU   C20  879   3.846   3.872   2.097
    2V3OU   H10  880   3.889   3.768   2.110
    2V3OU   C24  881   3.611   3.859   2.259
    2V3OU   H16  882   3.546   3.791   2.319
    2V3OU   H17  883   3.560   3.958   2.252
    2V3OU   C23  884   3.747   3.876   2.327
    2V3OU   H15  885   3.786   3.772   2.353
    2V3OU    N1  886   3.735   3.953   2.449
    2V3OU   H19  887   3.798   3.917   2.517
    2V3OU   H20  888   3.641   3.942   2.483
    2V3OU   C21  889   3.850   3.945   2.232
    2V3OU   H11  890   3.951   3.925   2.279
    2V3OU    O5  891   3.828   4.085   2.234
    2V3OU   H18  892   3.780   4.093   2.319
    2V3OU   C22  893   3.914   3.946   1.983
    2V3OU   H12  894   3.862   4.043   1.963
    2V3OU   H13  895   3.906   3.886   1.888
    2V3OU   H14  896   4.023   3.959   2.005
    2V3OU   C11  897   3.159   3.474   2.036
    2V3OU    O1  898   3.132   3.588   1.990
    2V3OU    C9  899   3.295   3.426   2.066
    2V3OU    C7  900   3.399   3.507   2.022
    2V3OU    O9  901   3.385   3.612   1.933
    2V3OU   H25  902   3.289   3.625   1.927
    2V3OU   C17  903   2.817   3.313   2.045
    2V3OU    H7  904   2.713   3.342   2.032
    2V3OU   C18  905   2.843   3.209   2.132
    2V3OU    H8  906   2.766   3.159   2.193
    3SOL     OW  907   2.625   4.269   0.887
    3SOL    HW1  908   2.658   4.192   0.942
    3SOL    HW2  909   2.581   4.337   0.946
    4SOL     OW  910   6.200   5.629   1.788
    4SOL    HW1  911   6.119   5.664   1.741
    4SOL    HW2  912   6.185   5.533   1.814
    5SOL     OW  913   3.327   1.372   3.057
    5SOL    HW1  914   3.291   1.463   3.073
    5SOL    HW2  915   3.256   1.314   3.017
    6SOL     OW  916   4.984   1.538   1.725
    6SOL    HW1  917   5.010   1.475   1.652
    6SOL    HW2  918   4.967   1.629   1.687
    7SOL     OW  919   6.125   3.436   2.455
    7SOL    HW1  920   6.069   3.438   2.372
    7SOL    HW2  921   6.212   3.481   2.438
    8SOL     OW  922   2.790   6.958   5.628
    8SOL    HW1  923   2.712   6.997   5.579
    8SOL    HW2  924   2.756   6.897   5.700
    9SOL     OW  925   6.987   5.056   5.863
    9SOL    HW1  926   6.946   4.965   5.863
    9SOL    HW2  927   6.955   5.106   5.782
   10SOL     OW  928   1.148   4.629   5.700
   10SOL    HW1  929   1.214   4.589   5.762
   10SOL    HW2  930   1.068   4.569   5.692
   11SOL     OW  931   2.965   0.415   0.103
   11SOL    HW1  932   2.987   0.384   0.011
   11SOL    HW2  933   3.025   0.492   0.127
   12SOL     OW  934   4.201   6.376   3.964
   12SOL    HW1  935   4.231   6.401   4.056
   12SOL    HW2  936   4.108   6.410   3.948
   13SOL     OW  937   3.104   5.629   4.270
   13SOL    HW1  938   3.203   5.627   4.260
   13SOL    HW2  939   3.078   5.587   4.357
   14SOL     OW  940   4.764   5.499   6.311
   14SOL    HW1  941   4.760   5.534   6.404
   14SOL    HW2  942   4.726   5.406   6.308
   15SOL     OW  943   0.773   4.946   0.607
   15SOL    HW1  944   0.866   4.911   0.614
   15SOL    HW2  945   0.734   4.955   0.699
   16SOL     OW  946   5.617   3.071   5.642
   16SOL    HW1  947   5.524   3.104   5.654
   16SOL    HW2  948   5.617   2.992   5.580
   17SOL     OW  949   5.321   5.969   5.169
   17SOL    HW1  950   5.315   6.068   5.161
   17SOL    HW2  951   5.377   5.945   5.249
   18SOL     OW  952   3.022   1.200   6.611
   18SOL    HW1  953   3.067   1.113   6.589
   18SOL    HW2  954   2.944   1.182   6.671
   19SOL     OW  955   0.099   0.168   3.129
   19SOL    HW1  956   0.108   0.213   3.040
   19SOL    HW2  957   0.158   0.214   3.196
   20SOL     OW  958   4.604   1.621   4.431
   20SOL    HW1  959   4.607   1.623   4.531
   20SOL    HW2  960   4.608   1.714   4.396
   21SOL     OW  961   3.242   2.092   2.187
   21SOL    HW1  962   3.189   2.089   2.102
   21SOL    HW2  963   3.338   2.075   2.166
   22SOL     OW  964   2.462   7.007   0.410
   22SOL    HW1  965   2.378   6.984   0.362
   22SOL    HW2  966   2.485   6.934   0.475
   23SOL     OW  967   4.631   6.737   3.349
   23SOL    HW1  968   4.549   6.680   3.356
   23SOL    HW2  969   4.686   6.727   3.432
   24SOL     OW  970   5.182   0.988   3.086
   24SOL    HW1  971   5.147   1.055   3.020
   24SOL    HW2  972   5.258   1.029   3.137
   25SOL     OW  973   3.702   6.493   5.983
   25SOL    HW1  974   3.618   6.443   6.001
   25SOL    HW2  975   3.727   6.547   6.063
   26SOL     OW  976   6.148   0.686   0.380
   26SOL    HW1  977   6.217   0.755   0.354
   26SOL    HW2  978   6.143   0.616   0.310
   27SOL     OW  979   0.289   1.332   1.647
   27SOL    HW1  980   0.373   1.358   1.696
   27SOL    HW2  981   0.220   1.403   1.659
   28SOL     OW  982   3.800   1.210   0.319
   28SOL    HW1  983   3.770   1.301   0.288
   28SOL    HW2  984   3.728   1.169   0.374
   29SOL     OW  985   5.746   2.931   1.889
   29SOL    HW1  986   5.698   2.894   1.810
   29SOL    HW2  987   5.724   3.028   1.899
   30SOL     OW  988   4.023   0.748   4.932
   30SOL    HW1  989   4.100   0.691   4.959
   30SOL    HW2  990   4.056   0.837   4.899
   31SOL     OW  991   0.845   1.694   6.069
   31SOL    HW1  992   0.828   1.791   6.056
   31SOL    HW2  993   0.907   1.661   5.999
   32SOL     OW  994   6.726   1.248   3.097
   32SOL    HW1  995   6.654   1.182   3.078
   32SOL    HW2  996   6.814   1.209   3.070
   33SOL     OW  997   2.409   3.411   0.182
   33SOL    HW1  998   2.318   3.370   0.169
   33SOL    HW2  999   2.454   3.421   0.093
   34SOL     OW 1000   1.840   1.502   3.863
   34SOL    HW1 1001   1.824   1.600   3.861
   34SOL    HW2 1002   1.795   1.459   3.785
   35SOL     OW 1003   3.461   1.943   0.102
   35SOL    HW1 1004   3.516   1.908   0.026
   35SOL    HW2 1005   3.364   1.943   0.076
   36SOL     OW 1006   0.048   0.981   6.134
   36SOL    HW1 1007   0.117   1.045   6.167
   36SOL    HW2 1008   0.044   0.901   6.194
   37SOL     OW 1009   1.465   0.437   0.501
   37SOL    HW1 1010   1.403   0.392   0.564
   37SOL    HW2 1011   1.555   0.448   0.544
   38SOL     OW 1012   0.253   4.643   2.312
   38SOL    HW1 1013   0.164   4.663   2.271
   38SOL    HW2 1014   0.323   4.637   2.240
   39SOL     OW 1015   6.797   4.973   6.461
   39SOL    HW1 1016   6.780   5.048   6.524
   39SOL    HW2 1017   6.890   4.979   6.425
   40SOL     OW 1018   5.692   2.421   1.239
   40SOL    HW1 1019   5.718   2.330   1.207
   40SOL    HW2 1020   5.607   2.414   1.292
   41SOL     OW 1021   0.652   6.343   4.117
   41SOL    HW1 1022   0.616   6.344   4.024
   41SOL    HW2 1023   0.732   6.403   4.123
   42SOL     OW 1024   2.308   5.392   5.945
   42SOL    HW1 1025   2.272   5.308   5.905
   42SOL    HW2 1026   2.302   5.386   6.045
   43SOL     OW 1027   5.556   6.536   5.527
   43SOL    HW1 1028   5.527   6.607   5.462
   43SOL    HW2 1029   5.476   6.500   5.575
   44SOL     OW 1030   5.625   2.137   6.128
   44SOL    HW1 1031   5.660   2.188   6.206
   44SOL    HW2 1032   5.681   2.155   6.048
   45SOL     OW 1033   3.506   0.083   3.403
   45SOL    HW1 1034   3.538   7.013   3.427
   45SOL    HW2 1035   3.422   0.076   3.348
   46SOL     OW 1036   1.195   3.533   4.178
   46SOL    HW1 1037   1.189   3.438   4.207
   46SOL    HW2 1038   1.109   3.579   4.196
   47SOL     OW 1039   4.968   4.440   2.097
   47SOL    HW1 1040   5.061   4.406   2.084
   47SOL    HW2 1041   4.912   4.369   2.141
   48SOL     OW 1042   0.133   2.939   5.814
   48SOL    HW1 1043   0.109   2.853   5.858
   48SOL    HW2 1044   0.049   2.985   5.784
   49SOL     OW 1045   4.637   4.073   1.741
   49SOL    HW1 1046   4.561   4.123   1.783
   49SOL    HW2 1047   4.607   3.981   1.717
   50SOL     OW 1048   6.491   2.585   5.892
   50SOL    HW1 1049   6.566   2.524   5.865
   50SOL    HW2 1050   6.440   2.613   5.811
   51SOL     OW 1051   2.903   6.191   2.295
   51SOL    HW1 1052   2.955   6.119   2.341
   51SOL    HW2 1053   2.955   6.276   2.297
   52SOL     OW 1054   4.989   2.530   3.442
   52SOL    HW1 1055   4.908   2.485   3.402
   52SOL    HW2 1056   5.068   2.469   3.433
   53SOL     OW 1057   4.074   0.343   4.608
   53SOL    HW1 1058   4.025   0.299   4.533
   53SOL    HW2 1059   4.036   0.434   4.623
   54SOL     OW 1060   3.941   4.730   0.585
   54SOL    HW1 1061   3.987   4.703   0.500
   54SOL    HW2 1062   3.961   4.664   0.657
   55SOL     OW 1063   3.675   1.421   6.338
   55SOL    HW1 1064   3.687   1.515   6.369
   55SOL    HW2 1065   3.670   1.419   6.238
   56SOL     OW 1066   0.451   0.109   1.133
   56SOL    HW1 1067   0.551   0.108   1.125
   56SOL    HW2 1068   0.425   0.132   1.227
   57SOL     OW 1069   5.803   0.583   0.730
   57SOL    HW1 1070   5.772   0.653   0.793
   57SOL    HW2 1071   5.903   0.577   0.734
   58SOL     OW 1072   6.384   6.735   5.436
   58SOL    HW1 1073   6.476   6.714   5.470
   58SOL    HW2 1074   6.388   6.813   5.375
   59SOL     OW 1075   1.775   1.350   6.206
   59SOL    HW1 1076   1.872   1.374   6.212
   59SOL    HW2 1077   1.760   1.259   6.245
   60SOL     OW 1078   5.837   1.039   6.135
   60SOL    HW1 1079   5.842   1.071   6.041
   60SOL    HW2 1080   5.788   0.951   6.138
   61SOL     OW 1081   5.204   1.841   4.949
   61SOL    HW1 1082   5.147   1.775   4.901
   61SOL    HW2 1083   5.299   1.813   4.944
   62SOL     OW 1084   0.036   0.673   3.747
   62SOL    HW1 1085   0.065   0.768   3.754
   62SOL    HW2 1086   0.116   0.613   3.748
   63SOL     OW 1087   6.205   1.491   3.926
   63SOL    HW1 1088   6.130   1.549   3.896
   63SOL    HW2 1089   6.290   1.544   3.928
   64SOL     OW 1090   0.275   4.004   6.450
   64SOL    HW1 1091   0.244   4.027   6.358
   64SOL    HW2 1092   0.345   4.070   6.478
   65SOL     OW 1093   0.360   4.378   5.520
   65SOL    HW1 1094   0.418   4.458   5.533
   65SOL    HW2 1095   0.361   4.352   5.423
   66SOL     OW 1096   3.816   0.815   6.540
   66SOL    HW1 1097   3.721   0.819   6.571
   66SOL    HW2 1098   3.819   0.810   6.440
   67SOL     OW 1099   5.331   4.372   5.451
   67SOL    HW1 1100   5.287   4.461   5.460
   67SOL    HW2 1101   5.361   4.359   5.356
   68SOL     OW 1102   5.655   0.636   6.620
   68SOL    HW1 1103   5.632   0.667   6.713
   68SOL    HW2 1104   5.744   0.672   6.595
   69SOL     OW 1105   0.783   3.388   0.069
   69SOL    HW1 1106   0.831   3.331   0.003
   69SOL    HW2 1107   0.754   3.331   0.147
   70SOL     OW 1108   5.936   4.760   3.490
   70SOL    HW1 1109   5.928   4.682   3.553
   70SOL    HW2 1110   5.997   4.736   3.415
   71SOL     OW 1111   4.153   1.830   2.441
   71SOL    HW1 1112   4.217   1.760   2.475
   71SOL    HW2 1113   4.090   1.788   2.375
   72SOL     OW 1114   2.964   6.035   5.275
   72SOL    HW1 1115   2.948   6.131   5.296
   72SOL    HW2 1116   3.004   6.027   5.183
   73SOL     OW 1117   3.860   1.079   0.822
   73SOL    HW1 1118   3.935   1.013   0.816
   73SOL    HW2 1119   3.807   1.061   0.905
   74SOL     OW 1120   4.537   6.194   5.888
   74SOL    HW1 1121   4.548   6.169   5.984
   74SOL    HW2 1122   4.614   6.158   5.835
   75SOL     OW 1123   4.311   0.539   6.630
   75SOL    HW1 1124   4.280   0.464   6.572
   75SOL    HW2 1125   4.235   0.571   6.686
   76SOL     OW 1126   2.335   2.580   1.688
   76SOL    HW1 1127   2.269   2.505   1.682
   76SOL    HW2 1128   2.360   2.609   1.596
   77SOL     OW 1129   5.751   6.226   4.064
   77SOL    HW1 1130   5.788   6.157   4.125
   77SOL    HW2 1131   5.668   6.192   4.021
   78SOL     OW 1132   5.841   0.825   5.876
   78SOL    HW1 1133   5.926   0.782   5.908
   78SOL    HW2 1134   5.775   0.828   5.950
   79SOL     OW 1135   3.330   6.762   0.466
   79SOL    HW1 1136   3.286   6.691   0.411
   79SOL    HW2 1137   3.260   6.812   0.517
   80SOL     OW 1138   5.387   1.770   4.363
   80SOL    HW1 1139   5.365   1.774   4.460
   80SOL    HW2 1140   5.392   1.863   4.326
   81SOL     OW 1141   1.962   0.331   3.034
   81SOL    HW1 1142   1.901   0.391   2.982
   81SOL    HW2 1143   2.056   0.367   3.028
   82SOL     OW 1144   6.271   5.145   0.666
   82SOL    HW1 1145   6.197   5.186   0.613
   82SOL    HW2 1146   6.296   5.057   0.625
   83SOL     OW 1147   7.013   0.657   0.753
   83SOL    HW1 1148   0.004   0.579   0.815
   83SOL    HW2 1149   0.046   0.641   0.670
   84SOL     OW 1150   5.233   3.407   3.600
   84SOL    HW1 1151   5.211   3.501   3.574
   84SOL    HW2 1152   5.284   3.363   3.527
   85SOL     OW 1153   2.139   2.032   4.995
   85SOL    HW1 1154   2.149   1.933   4.994
   85SOL    HW2 1155   2.052   2.057   4.953
   86SOL     OW 1156   0.366   0.548   5.774
   86SOL    HW1 1157   0.392   0.582   5.865
   86SOL    HW2 1158   0.443   0.499   5.733
   87SOL     OW 1159   5.071   3.531   0.580
   87SOL    HW1 1160   5.092   3.537   0.677
   87SOL    HW2 1161   5.100   3.615   0.534
   88SOL     OW 1162   3.633   1.871   6.155
   88SOL    HW1 1163   3.662   1.886   6.061
   88SOL    HW2 1164   3.587   1.953   6.189
   89SOL     OW 1165   0.879   2.488   5.739
   89SOL    HW1 1166   0.979   2.496   5.732
   89SOL    HW2 1167   0.847   2.538   5.819
   90SOL     OW 1168   4.054   6.080   3.144
   90SOL    HW1 1169   4.107   6.165   3.153
   90SOL    HW2 1170   3.959   6.102   3.121
   91SOL     OW 1171   4.834   4.314   4.998
   91SOL    HW1 1172   4.895   4.385   5.032
   91SOL    HW2 1173   4.757   4.356   4.949
   92SOL     OW 1174   3.067   3.891   0.409
   92SOL    HW1 1175   3.060   3.955   0.486
   92SOL    HW2 1176   3.094   3.941   0.326
   93SOL     OW 1177   2.356   3.668   6.628
   93SOL    HW1 1178   2.333   3.612   6.548
   93SOL    HW2 1179   2.453   3.692   6.624
   94SOL     OW 1180   2.348   6.214   5.961
   94SOL    HW1 1181   2.440   6.218   5.921
   94SOL    HW2 1182   2.299   6.135   5.925
   95SOL     OW 1183   0.907   1.001   3.272
   95SOL    HW1 1184   0.821   0.999   3.221
   95SOL    HW2 1185   0.949   1.091   3.262
   96SOL     OW 1186   4.146   0.264   5.181
   96SOL    HW1 1187   4.133   0.206   5.100
   96SOL    HW2 1188   4.075   0.335   5.183
   97SOL     OW 1189   1.295   3.440   6.146
   97SOL    HW1 1190   1.343   3.522   6.116
   97SOL    HW2 1191   1.263   3.389   6.066
   98SOL     OW 1192   6.236   3.752   0.490
   98SOL    HW1 1193   6.287   3.769   0.574
   98SOL    HW2 1194   6.269   3.814   0.418
   99SOL     OW 1195   4.694   3.563   1.367
   99SOL    HW1 1196   4.704   3.470   1.403
   99SOL    HW2 1197   4.784   3.608   1.366
  100SOL     OW 1198   6.973   0.263   5.494
  100SOL    HW1 1199   6.963   0.179   5.440
  100SOL    HW2 1200   6.886   0.284   5.538
  101SOL     OW 1201   1.874   5.878   2.442
  101SOL    HW1 1202   1.965   5.890   2.482
  101SOL    HW2 1203   1.815   5.953   2.473
  102SOL     OW 1204   4.291   0.041   2.193
  102SOL    HW1 1205   4.309   0.137   2.215
  102SOL    HW2 1206   4.219   0.035   2.125
  103SOL     OW 1207   3.118   1.229   2.197
  103SOL    HW1 1208   3.088   1.180   2.279
  103SOL    HW2 1209   3.185   1.174   2.148
  104SOL     OW 1210   0.305   5.412   2.294
  104SOL    HW1 1211   0.385   5.351   2.288
  104SOL    HW2 1212   0.239   5.387   2.224
  105SOL     OW 1213   6.724   2.964   6.428
  105SOL    HW1 1214   6.672   2.973   6.343
  105SOL    HW2 1215   6.688   2.888   6.482
  106SOL     OW 1216   3.782   6.040   4.582
  106SOL    HW1 1217   3.859   5.983   4.612
  106SOL    HW2 1218   3.764   6.024   4.485
  107SOL     OW 1219   1.804   1.478   1.756
  107SOL    HW1 1220   1.815   1.485   1.855
  107SOL    HW2 1221   1.859   1.402   1.722
  108SOL     OW 1222   3.896   5.116   5.289
  108SOL    HW1 1223   3.924   5.030   5.247
  108SOL    HW2 1224   3.799   5.112   5.313
  109SOL     OW 1225   0.531   0.779   1.600
  109SOL    HW1 1226   0.621   0.774   1.555
  109SOL    HW2 1227   0.486   0.865   1.575
  110SOL     OW 1228   3.694   6.043   5.496
  110SOL    HW1 1229   3.627   6.116   5.486
  110SOL    HW2 1230   3.674   5.990   5.579
  111SOL     OW 1231   3.519   0.668   4.875
  111SOL    HW1 1232   3.617   0.679   4.858
  111SOL    HW2 1233   3.491   0.730   4.949
  112SOL     OW 1234   5.511   6.530   6.279
  112SOL    HW1 1235   5.488   6.613   6.228
  112SOL    HW2 1236   5.445   6.459   6.258
  113SOL     OW 1237   5.734   4.917   3.398
  113SOL    HW1 1238   5.813   4.867   3.432
  113SOL    HW2 1239   5.694   4.971   3.472
  114SOL     OW 1240   0.887   6.933   1.052
  114SOL    HW1 1241   0.942   6.872   0.995
  114SOL    HW2 1242   0.790   6.910   1.042
  115SOL     OW 1243   3.845   1.580   3.126
  115SOL    HW1 1244   3.752   1.603   3.155
  115SOL    HW2 1245   3.890   1.526   3.196
  116SOL     OW 1246   6.030   5.279   1.874
  116SOL    HW1 1247   5.982   5.357   1.913
  116SOL    HW2 1248   6.084   5.234   1.945
  117SOL     OW 1249   1.496   1.393   0.406
  117SOL    HW1 1250   1.406   1.366   0.439
  117SOL    HW2 1251   1.526   1.329   0.335
  118SOL     OW 1252   1.413   1.633   2.981
  118SOL    HW1 1253   1.451   1.633   3.073
  118SOL    HW2 1254   1.361   1.717   2.966
  119SOL     OW 1255   0.948   1.519   6.598
  119SOL    HW1 1256   0.909   1.593   6.543
  119SOL    HW2 1257   1.047   1.519   6.587
  120SOL     OW 1258   6.540   6.678   0.274
  120SOL    HW1 1259   6.531   6.698   0.371
  120SOL    HW2 1260   6.585   6.754   0.228
  121SOL     OW 1261   2.268   3.548   6.404
  121SOL    HW1 1262   2.324   3.493   6.342
  121SOL    HW2 1263   2.183   3.499   6.424
  122SOL     OW 1264   1.703   4.539   6.906
  122SOL    HW1 1265   1.739   4.568   6.818
  122SOL    HW2 1266   1.730   4.605   6.976
  123SOL     OW 1267   0.103   1.505   1.703
  123SOL    HW1 1268   0.160   1.573   1.748
  123SOL    HW2 1269   0.009   1.511   1.738
  124SOL     OW 1270   5.077   3.054   0.776
  124SOL    HW1 1271   5.074   3.106   0.691
  124SOL    HW2 1272   5.087   3.117   0.854
  125SOL     OW 1273   2.843   1.159   2.202
  125SOL    HW1 1274   2.784   1.195   2.129
  125SOL    HW2 1275   2.939   1.174   2.178
  126SOL     OW 1276   2.540   3.711   1.293
  126SOL    HW1 1277   2.566   3.664   1.378
  126SOL    HW2 1278   2.594   3.795   1.284
  127SOL     OW 1279   0.224   5.425   6.001
  127SOL    HW1 1280   0.209   5.371   6.084
  127SOL    HW2 1281   0.154   5.496   5.994
  128SOL     OW 1282   4.636   2.362   1.195
  128SOL    HW1 1283   4.667   2.391   1.104
  128SOL    HW2 1284   4.556   2.303   1.186
  129SOL     OW 1285   3.429   2.858   5.887
  129SOL    HW1 1286   3.354   2.795   5.867
  129SOL    HW2 1287   3.395   2.932   5.946
  130SOL     OW 1288   0.738   0.932   4.049
  130SOL    HW1 1289   0.818   0.876   4.027
  130SOL    HW2 1290   0.762   1.029   4.039
  131SOL     OW 1291   5.055   2.109   3.601
  131SOL    HW1 1292   5.088   2.027   3.647
  131SOL    HW2 1293   5.027   2.177   3.669
  132SOL     OW 1294   2.417   2.625   0.846
  132SOL    HW1 1295   2.345   2.591   0.786
  132SOL    HW2 1296   2.378   2.686   0.915
  133SOL     OW 1297   4.867   6.582   4.194
  133SOL    HW1 1298   4.868   6.682   4.191
  133SOL    HW2 1299   4.948   6.546   4.148
  134SOL     OW 1300   6.185   1.653   2.118
  134SOL    HW1 1301   6.268   1.695   2.156
  134SOL    HW2 1302   6.209   1.568   2.072
  135SOL     OW 1303   5.731   3.794   2.957
  135SOL    HW1 1304   5.814   3.813   2.904
  135SOL    HW2 1305   5.680   3.719   2.914
  136SOL     OW 1306   3.158   3.798   6.454
  136SOL    HW1 1307   3.243   3.762   6.414
  136SOL    HW2 1308   3.177   3.883   6.502
  137SOL     OW 1309   5.231   1.417   4.841
  137SOL    HW1 1310   5.210   1.338   4.784
  137SOL    HW2 1311   5.204   1.399   4.935
  138SOL     OW 1312   0.432   4.905   3.222
  138SOL    HW1 1313   0.470   4.868   3.137
  138SOL    HW2 1314   0.342   4.944   3.204
  139SOL     OW 1315   2.179   6.590   4.966
  139SOL    HW1 1316   2.118   6.631   5.034
  139SOL    HW2 1317   2.271   6.626   4.977
  140SOL     OW 1318   0.722   5.589   3.370
  140SOL    HW1 1319   0.670   5.671   3.346
  140SOL    HW2 1320   0.733   5.531   3.289
  141SOL     OW 1321   6.087   3.280   4.764
  141SOL    HW1 1322   5.992   3.250   4.764
  141SOL    HW2 1323   6.098   3.354   4.697
  142SOL     OW 1324   1.971   4.089   0.753
  142SOL    HW1 1325   2.053   4.050   0.795
  142SOL    HW2 1326   1.892   4.072   0.812
  143SOL     OW 1327   5.473   4.524   1.568
  143SOL    HW1 1328   5.518   4.602   1.525
  143SOL    HW2 1329   5.427   4.469   1.498
  144SOL     OW 1330   1.509   6.138   6.627
  144SOL    HW1 1331   1.607   6.125   6.610
  144SOL    HW2 1332   1.478   6.221   6.582
  145SOL     OW 1333   0.201   5.389   0.224
  145SOL    HW1 1334   0.239   5.319   0.164
  145SOL    HW2 1335   0.266   5.465   0.232
  146SOL     OW 1336   5.123   0.552   6.578
  146SOL    HW1 1337   5.221   0.547   6.596
  146SOL    HW2 1338   5.092   0.467   6.536
  147SOL     OW 1339   5.999   4.094   6.349
  147SOL    HW1 1340   5.941   4.063   6.424
  147SOL    HW2 1341   6.029   4.188   6.367
  148SOL     OW 1342   0.192   5.670   6.490
  148SOL    HW1 1343   0.181   5.571   6.497
  148SOL    HW2 1344   0.250   5.703   6.565
  149SOL     OW 1345   2.952   1.899   4.887
  149SOL    HW1 1346   2.999   1.886   4.799
  149SOL    HW2 1347   2.853   1.892   4.873
  150SOL     OW 1348   6.016   5.525   6.457
  150SOL    HW1 1349   6.021   5.598   6.389
  150SOL    HW2 1350   5.934   5.538   6.513
  151SOL     OW 1351   3.733   2.608   1.050
  151SOL    HW1 1352   3.734   2.613   1.150
  151SOL    HW2 1353   3.649   2.562   1.020
  152SOL     OW 1354   1.418   1.233   3.199
  152SOL    HW1 1355   1.376   1.299   3.137
  152SOL    HW2 1356   1.355   1.213   3.274
  153SOL     OW 1357   3.070   0.446   1.778
  153SOL    HW1 1358   3.084   0.352   1.811
  153SOL    HW2 1359   3.085   0.449   1.680
  154SOL     OW 1360   0.529   1.897   2.978
  154SOL    HW1 1361   0.448   1.850   2.943
  154SOL    HW2 1362   0.501   1.966   3.045
  155SOL     OW 1363   6.310   1.764   3.531
  155SOL    HW1 1364   6.228   1.708   3.540
  155SOL    HW2 1365   6.372   1.722   3.465
  156SOL     OW 1366   0.008   2.192   0.500
  156SOL    HW1 1367   0.003   2.147   0.411
  156SOL    HW2 1368   0.051   2.130   0.566
  157SOL     OW 1369   6.199   3.421   1.460
  157SOL    HW1 1370   6.266   3.433   1.387
  157SOL    HW2 1371   6.225   3.344   1.517
  158SOL     OW 1372   2.403   6.194   2.204
  158SOL    HW1 1373   2.496   6.211   2.239
  158SOL    HW2 1374   2.343   6.173   2.281
  159SOL     OW 1375   4.514   4.550   1.980
  159SOL    HW1 1376   4.544   4.456   1.995
  159SOL    HW2 1377   4.565   4.611   2.041
  160SOL     OW 1378   6.586   5.612   0.422
  160SOL    HW1 1379   6.526   5.602   0.343
  160SOL    HW2 1380   6.646   5.533   0.429
  161SOL     OW 1381   1.995   5.768   4.696
  161SOL    HW1 1382   2.064   5.712   4.650
  161SOL    HW2 1383   1.938   5.711   4.754
  162SOL     OW 1384   4.008   6.968   6.962
  162SOL    HW1 1385   3.924   6.971   6.907
  162SOL    HW2 1386   4.084   6.939   6.904
  163SOL     OW 1387   5.586   6.144   1.034
  163SOL    HW1 1388   5.559   6.130   1.130
  163SOL    HW2 1389   5.681   6.113   1.022
  164SOL     OW 1390   6.437   4.530   0.277
  164SOL    HW1 1391   6.449   4.610   0.336
  164SOL    HW2 1392   6.519   4.519   0.220
  165SOL     OW 1393   5.275   2.667   1.650
  165SOL    HW1 1394   5.191   2.720   1.642
  165SOL    HW2 1395   5.271   2.608   1.731
  166SOL     OW 1396   6.556   5.132   3.877
  166SOL    HW1 1397   6.588   5.037   3.883
  166SOL    HW2 1398   6.472   5.136   3.823
  167SOL     OW 1399   5.717   2.644   6.708
  167SOL    HW1 1400   5.713   2.553   6.749
  167SOL    HW2 1401   5.766   2.706   6.770
  168SOL     OW 1402   2.119   3.381   1.270
  168SOL    HW1 1403   2.124   3.454   1.202
  168SOL    HW2 1404   2.197   3.387   1.332
  169SOL     OW 1405   4.146   0.459   1.627
  169SOL    HW1 1406   4.185   0.421   1.710
  169SOL    HW2 1407   4.138   0.559   1.636
  170SOL     OW 1408   0.914   0.920   3.563
  170SOL    HW1 1409   0.837   0.981   3.579
  170SOL    HW2 1410   0.962   0.948   3.480
  171SOL     OW 1411   3.658   4.756   0.428
  171SOL    HW1 1412   3.743   4.707   0.446
  171SOL    HW2 1413   3.588   4.727   0.493
  172SOL     OW 1414   5.864   1.718   4.190
  172SOL    HW1 1415   5.766   1.731   4.207
  172SOL    HW2 1416   5.889   1.623   4.207
  173SOL     OW 1417   6.874   2.229   4.389
  173SOL    HW1 1418   6.920   2.147   4.422
  173SOL    HW2 1419   6.853   2.218   4.292
  174SOL     OW 1420   3.361   5.554   4.704
  174SOL    HW1 1421   3.436   5.617   4.725
  174SOL    HW2 1422   3.393   5.486   4.638
  175SOL     OW 1423   2.526   0.095   2.229
  175SOL    HW1 1424   2.475   0.170   2.186
  175SOL    HW2 1425   2.471   0.053   2.301
  176SOL     OW 1426   1.384   4.318   1.299
  176SOL    HW1 1427   1.407   4.222   1.313
  176SOL    HW2 1428   1.353   4.358   1.385
  177SOL     OW 1429   5.986   2.964   2.743
  177SOL    HW1 1430   6.060   2.964   2.676
  177SOL    HW2 1431   5.995   2.885   2.803
  178SOL     OW 1432   3.028   2.886   6.179
  178SOL    HW1 1433   3.086   2.858   6.103
  178SOL    HW2 1434   3.006   2.983   6.172
  179SOL     OW 1435   2.602   1.491   6.008
  179SOL    HW1 1436   2.567   1.425   5.942
  179SOL    HW2 1437   2.673   1.448   6.063
  180SOL     OW 1438   1.642   0.110   6.808
  180SOL    HW1 1439   1.734   0.092   6.844
  180SOL    HW2 1440   1.614   0.036   6.748
  181SOL     OW 1441   3.268   1.988   6.030
  181SOL    HW1 1442   3.173   1.954   6.032
  181SOL    HW2 1443   3.270   2.077   5.984
  182SOL     OW 1444   3.557   1.335   3.912
  182SOL    HW1 1445   3.507   1.420   3.896
  182SOL    HW2 1446   3.530   1.296   4.000
  183SOL     OW 1447   3.590   2.081   3.326
  183SOL    HW1 1448   3.621   2.043   3.239
  183SOL    HW2 1449   3.491   2.069   3.335
  184SOL     OW 1450   1.869   6.239   4.266
  184SOL    HW1 1451   1.902   6.309   4.204
  184SOL    HW2 1452   1.812   6.281   4.336
  185SOL     OW 1453   0.324   1.720   6.320
  185SOL    HW1 1454   0.228   1.698   6.303
  185SOL    HW2 1455   0.330   1.809   6.365
  186SOL     OW 1456   5.786   1.243   3.953
  186SOL    HW1 1457   5.861   1.183   3.980
  186SOL    HW2 1458   5.818   1.306   3.882
  187SOL     OW 1459   4.640   0.532   2.987
  187SOL    HW1 1460   4.640   0.446   3.039
  187SOL    HW2 1461   4.565   0.590   3.018
  188SOL     OW 1462   6.957   2.000   2.338
  188SOL    HW1 1463   6.998   1.926   2.284
  188SOL    HW2 1464   6.872   1.968   2.378
  189SOL     OW 1465   2.292   5.182   1.633
  189SOL    HW1 1466   2.392   5.182   1.631
  189SOL    HW2 1467   2.258   5.124   1.559
  190SOL     OW 1468   4.463   1.528   4.196
  190SOL    HW1 1469   4.509   1.558   4.113
  190SOL    HW2 1470   4.500   1.578   4.275
  191SOL     OW 1471   5.414   5.770   6.541
  191SOL    HW1 1472   5.410   5.743   6.445
  191SOL    HW2 1473   5.347   5.718   6.594
  192SOL     OW 1474   0.279   5.697   1.717
  192SOL    HW1 1475   0.362   5.671   1.668
  192SOL    HW2 1476   0.304   5.737   1.806
  193SOL     OW 1477   4.629   3.033   5.541
  193SOL    HW1 1478   4.623   2.933   5.542
  193SOL    HW2 1479   4.599   3.067   5.452
  194SOL     OW 1480   3.999   0.730   2.430
  194SOL    HW1 1481   4.025   0.703   2.523
  194SOL    HW2 1482   3.905   0.701   2.411
  195SOL     OW 1483   1.576   0.020   4.939
  195SOL    HW1 1484   1.602   0.034   4.844
  195SOL    HW2 1485   1.628   0.082   4.998
  196SOL     OW 1486   2.503   1.151   6.492
  196SOL    HW1 1487   2.505   1.243   6.532
  196SOL    HW2 1488   2.564   1.149   6.412
  197SOL     OW 1489   2.495   0.221   0.812
  197SOL    HW1 1490   2.479   0.297   0.749
  197SOL    HW2 1491   2.433   0.146   0.789
  198SOL     OW 1492   4.574   0.798   2.813
  198SOL    HW1 1493   4.603   0.889   2.843
  198SOL    HW2 1494   4.651   0.753   2.767
  199SOL     OW 1495   0.946   2.310   4.198
  199SOL    HW1 1496   0.915   2.279   4.288
  199SOL    HW2 1497   1.028   2.259   4.171
  200SOL     OW 1498   1.381   3.652   0.660
  200SOL    HW1 1499   1.338   3.704   0.734
  200SOL    HW2 1500   1.394   3.711   0.581
  201SOL     OW 1501   0.434   6.446   5.755
  201SOL    HW1 1502   0.348   6.400   5.778
  201SOL    HW2 1503   0.492   6.450   5.837
  202SOL     OW 1504   3.628   1.751   6.627
  202SOL    HW1 1505   3.669   1.705   6.706
  202SOL    HW2 1506   3.592   1.840   6.655
  203SOL     OW 1507   6.148   2.156   5.045
  203SOL    HW1 1508   6.098   2.098   4.981
  203SOL    HW2 1509   6.150   2.112   5.135
  204SOL     OW 1510   0.789   0.083   4.530
  204SOL    HW1 1511   0.796   0.112   4.434
  204SOL    HW2 1512   0.879   0.088   4.573
  205SOL     OW 1513   1.104   2.763   3.035
  205SOL    HW1 1514   1.072   2.807   3.118
  205SOL    HW2 1515   1.131   2.669   3.056
  206SOL     OW 1516   0.604   4.099   1.287
  206SOL    HW1 1517   0.652   4.135   1.207
  206SOL    HW2 1518   0.660   4.112   1.368
  207SOL     OW 1519   5.494   1.029   4.208
  207SOL    HW1 1520   5.526   1.049   4.115
  207SOL    HW2 1521   5.485   1.114   4.260
  208SOL     OW 1522   0.173   4.442   5.994
  208SOL    HW1 1523   0.245   4.383   6.032
  208SOL    HW2 1524   0.163   4.422   5.897
  209SOL     OW 1525   0.325   5.066   3.446
  209SOL    HW1 1526   0.329   5.162   3.418
  209SOL    HW2 1527   0.385   5.012   3.386
  210SOL     OW 1528   4.458   2.102   0.159
  210SOL    HW1 1529   4.405   2.181   0.128
  210SOL    HW2 1530   4.424   2.072   0.248
  211SOL     OW 1531   1.362   6.312   1.696
  211SOL    HW1 1532   1.415   6.228   1.706
  211SOL    HW2 1533   1.273   6.300   1.740
  212SOL     OW 1534   1.611   3.344   2.376
  212SOL    HW1 1535   1.537   3.276   2.376
  212SOL    HW2 1536   1.597   3.407   2.454
  213SOL     OW 1537   2.784   6.513   0.889
  213SOL    HW1 1538   2.726   6.431   0.888
  213SOL    HW2 1539   2.814   6.534   0.796
  214SOL     OW 1540   3.468   5.833   2.930
  214SOL    HW1 1541   3.378   5.851   2.970
  214SOL    HW2 1542   3.457   5.783   2.845
  215SOL     OW 1543   2.859   3.645   0.817
  215SOL    HW1 1544   2.909   3.586   0.880
  215SOL    HW2 1545   2.902   3.640   0.726
  216SOL     OW 1546   0.323   6.063   3.083
  216SOL    HW1 1547   0.284   6.143   3.128
  216SOL    HW2 1548   0.293   5.980   3.130
  217SOL     OW 1549   1.343   2.761   4.643
  217SOL    HW1 1550   1.365   2.841   4.698
  217SOL    HW2 1551   1.417   2.743   4.579
  218SOL     OW 1552   0.894   2.531   4.541
  218SOL    HW1 1553   0.843   2.553   4.458
  218SOL    HW2 1554   0.911   2.614   4.593
  219SOL     OW 1555   4.106   6.916   0.207
  219SOL    HW1 1556   4.084   6.842   0.144
  219SOL    HW2 1557   4.198   6.902   0.244
  220SOL     OW 1558   2.774   6.752   1.446
  220SOL    HW1 1559   2.711   6.690   1.400
  220SOL    HW2 1560   2.732   6.842   1.455
  221SOL     OW 1561   5.616   4.258   0.984
  221SOL    HW1 1562   5.709   4.290   1.001
  221SOL    HW2 1563   5.604   4.241   0.886
  222SOL     OW 1564   1.448   5.164   5.625
  222SOL    HW1 1565   1.382   5.109   5.573
  222SOL    HW2 1566   1.440   5.260   5.598
  223SOL     OW 1567   6.922   3.332   5.797
  223SOL    HW1 1568   6.828   3.361   5.815
  223SOL    HW2 1569   6.985   3.390   5.849
  224SOL     OW 1570   2.995   1.639   6.274
  224SOL    HW1 1571   2.940   1.633   6.357
  224SOL    HW2 1572   2.934   1.644   6.194
  225SOL     OW 1573   4.336   4.174   6.428
  225SOL    HW1 1574   4.236   4.169   6.425
  225SOL    HW2 1575   4.364   4.265   6.458
  226SOL     OW 1576   0.443   1.594   5.812
  226SOL    HW1 1577   0.460   1.532   5.888
  226SOL    HW2 1578   0.523   1.595   5.751
  227SOL     OW 1579   0.923   3.803   2.279
  227SOL    HW1 1580   0.938   3.712   2.239
  227SOL    HW2 1581   1.003   3.829   2.332
  228SOL     OW 1582   2.187   0.117   2.510
  228SOL    HW1 1583   2.162   0.194   2.568
  228SOL    HW2 1584   2.285   0.097   2.522
  229SOL     OW 1585   5.917   5.769   6.309
  229SOL    HW1 1586   5.819   5.759   6.294
  229SOL    HW2 1587   5.934   5.848   6.367
  230SOL     OW 1588   4.079   5.710   4.057
  230SOL    HW1 1589   4.099   5.775   4.131
  230SOL    HW2 1590   4.119   5.743   3.972
  231SOL     OW 1591   6.195   0.887   6.666
  231SOL    HW1 1592   6.232   0.892   6.574
  231SOL    HW2 1593   6.188   0.791   6.694
  232SOL     OW 1594   0.150   3.497   6.826
  232SOL    HW1 1595   0.053   3.478   6.840
  232SOL    HW2 1596   0.168   3.594   6.842
  233SOL     OW 1597   3.662   0.955   2.893
  233SOL    HW1 1598   3.758   0.982   2.896
  233SOL    HW2 1599   3.605   1.034   2.870
  234SOL     OW 1600   5.206   0.952   6.299
  234SOL    HW1 1601   5.222   1.038   6.251
  234SOL    HW2 1602   5.244   0.877   6.246
  235SOL     OW 1603   4.807   2.870   2.284
  235SOL    HW1 1604   4.902   2.872   2.251
  235SOL    HW2 1605   4.747   2.909   2.214
  236SOL     OW 1606   5.340   3.084   6.894
  236SOL    HW1 1607   5.293   2.999   6.919
  236SOL    HW2 1608   5.439   3.070   6.899
  237SOL     OW 1609   0.251   4.390   2.428
  237SOL    HW1 1610   0.172   4.370   2.370
  237SOL    HW2 1611   0.286   4.481   2.407
  238SOL     OW 1612   5.708   1.729   0.296
  238SOL    HW1 1613   5.657   1.700   0.215
  238SOL    HW2 1614   5.805   1.705   0.284
  239SOL     OW 1615   0.647   4.094   6.705
  239SOL    HW1 1616   0.706   4.017   6.685
  239SOL    HW2 1617   0.577   4.067   6.771
  240SOL     OW 1618   0.496   2.743   3.245
  240SOL    HW1 1619   0.402   2.732   3.213
  240SOL    HW2 1620   0.556   2.678   3.197
  241SOL     OW 1621   2.810   2.197   4.892
  241SOL    HW1 1622   2.776   2.228   4.803
  241SOL    HW2 1623   2.896   2.243   4.912
  242SOL     OW 1624   3.508   4.073   4.248
  242SOL    HW1 1625   3.605   4.078   4.269
  242SOL    HW2 1626   3.463   4.159   4.274
  243SOL     OW 1627   4.952   0.830   0.124
  243SOL    HW1 1628   4.959   0.753   0.188
  243SOL    HW2 1629   5.041   0.876   0.117
  244SOL     OW 1630   6.378   3.879   5.715
  244SOL    HW1 1631   6.292   3.832   5.734
  244SOL    HW2 1632   6.454   3.814   5.720
  245SOL     OW 1633   4.643   1.868   4.326
  245SOL    HW1 1634   4.670   1.896   4.234
  245SOL    HW2 1635   4.687   1.928   4.393
  246SOL     OW 1636   4.592   2.123   3.401
  246SOL    HW1 1637   4.641   2.129   3.488
  246SOL    HW2 1638   4.643   2.064   3.338
  247SOL     OW 1639   2.605   1.971   0.691
  247SOL    HW1 1640   2.633   1.899   0.755
  247SOL    HW2 1641   2.654   2.056   0.713
  248SOL     OW 1642   3.530   1.195   2.876
  248SOL    HW1 1643   3.485   1.196   2.965
  248SOL    HW2 1644   3.532   1.287   2.838
  249SOL     OW 1645   5.484   0.030   5.125
  249SOL    HW1 1646   5.519   7.001   5.204
  249SOL    HW2 1647   5.557   0.043   5.058
  250SOL     OW 1648   4.984   3.283   0.293
  250SOL    HW1 1649   5.062   3.340   0.267
  250SOL    HW2 1650   4.923   3.335   0.352
  251SOL     OW 1651   4.584   3.367   5.321
  251SOL    HW1 1652   4.488   3.348   5.298
  251SOL    HW2 1653   4.619   3.439   5.261
  252SOL     OW 1654   6.898   6.494   5.037
  252SOL    HW1 1655   6.912   6.551   4.956
  252SOL    HW2 1656   6.987   6.474   5.078
  253SOL     OW 1657   2.995   5.424   6.105
  253SOL    HW1 1658   2.904   5.384   6.089
  253SOL    HW2 1659   3.062   5.375   6.050
  254SOL     OW 1660   6.413   2.493   4.168
  254SOL    HW1 1661   6.352   2.416   4.183
  254SOL    HW2 1662   6.359   2.574   4.144
  255SOL     OW 1663   1.952   5.062   5.417
  255SOL    HW1 1664   1.941   5.104   5.326
  255SOL    HW2 1665   1.875   5.001   5.435
  256SOL     OW 1666   5.922   4.124   5.646
  256SOL    HW1 1667   5.970   4.210   5.668
  256SOL    HW2 1668   5.836   4.121   5.696
  257SOL     OW 1669   4.846   0.473   3.430
  257SOL    HW1 1670   4.898   0.447   3.349
  257SOL    HW2 1671   4.885   0.557   3.469
  258SOL     OW 1672   2.104   4.941   4.966
  258SOL    HW1 1673   2.170   4.891   5.021
  258SOL    HW2 1674   2.033   4.879   4.934
  259SOL     OW 1675   6.499   1.423   2.986
  259SOL    HW1 1676   6.400   1.434   2.992
  259SOL    HW2 1677   6.530   1.360   3.058
  260SOL     OW 1678   4.124   6.456   2.672
  260SOL    HW1 1679   4.218   6.424   2.684
  260SOL    HW2 1680   4.060   6.392   2.714
  261SOL     OW 1681   6.142   3.404   0.490
  261SOL    HW1 1682   6.092   3.482   0.454
  261SOL    HW2 1683   6.078   3.335   0.524
  262SOL     OW 1684   0.772   3.718   0.184
  262SOL    HW1 1685   0.792   3.627   0.146
  262SOL    HW2 1686   0.770   3.712   0.284
  263SOL     OW 1687   2.373   0.567   5.004
  263SOL    HW1 1688   2.379   0.479   4.957
  263SOL    HW2 1689   2.282   0.607   4.988
  264SOL     OW 1690   6.102   3.240   6.527
  264SOL    HW1 1691   6.191   3.224   6.569
  264SOL    HW2 1692   6.115   3.283   6.437
  265SOL     OW 1693   5.564   6.339   2.798
  265SOL    HW1 1694   5.637   6.405   2.813
  265SOL    HW2 1695   5.530   6.347   2.704
  266SOL     OW 1696   3.624   2.785   5.688
  266SOL    HW1 1697   3.714   2.790   5.731
  266SOL    HW2 1698   3.558   2.833   5.745
  267SOL     OW 1699   0.806   1.522   6.268
  267SOL    HW1 1700   0.809   1.570   6.180
  267SOL    HW2 1701   0.744   1.570   6.330
  268SOL     OW 1702   3.361   1.334   6.291
  268SOL    HW1 1703   3.354   1.268   6.216
  268SOL    HW2 1704   3.326   1.423   6.260
  269SOL     OW 1705   1.622   3.593   1.128
  269SOL    HW1 1706   1.619   3.496   1.152
  269SOL    HW2 1707   1.682   3.607   1.050
  270SOL     OW 1708   1.422   5.921   0.549
  270SOL    HW1 1709   1.495   5.978   0.512
  270SOL    HW2 1710   1.448   5.885   0.638
  271SOL     OW 1711   6.840   1.261   6.491
  271SOL    HW1 1712   6.787   1.250   6.407
  271SOL    HW2 1713   6.778   1.280   6.567
  272SOL     OW 1714   3.738   5.849   3.904
  272SOL    HW1 1715   3.766   5.760   3.940
  272SOL    HW2 1716   3.720   5.841   3.806
  273SOL     OW 1717   2.761   4.703   4.395
  273SOL    HW1 1718   2.732   4.707   4.491
  273SOL    HW2 1719   2.690   4.660   4.340
  274SOL     OW 1720   4.010   1.769   3.026
  274SOL    HW1 1721   3.955   1.823   2.962
  274SOL    HW2 1722   3.953   1.697   3.066
  275SOL     OW 1723   6.719   5.372   3.778
  275SOL    HW1 1724   6.647   5.362   3.847
  275SOL    HW2 1725   6.802   5.326   3.809
  276SOL     OW 1726   6.950   6.338   2.495
  276SOL    HW1 1727   7.004   6.256   2.473
  276SOL    HW2 1728   6.871   6.311   2.551
  277SOL     OW 1729   1.104   3.966   0.561
  277SOL    HW1 1730   1.154   3.896   0.510
  277SOL    HW2 1731   1.109   4.053   0.511
  278SOL     OW 1732   0.371   4.384   1.816
  278SOL    HW1 1733   0.402   4.476   1.841
  278SOL    HW2 1734   0.433   4.346   1.747
  279SOL     OW 1735   5.662   3.151   4.463
  279SOL    HW1 1736   5.595   3.223   4.444
  279SOL    HW2 1737   5.713   3.131   4.379
  280SOL     OW 1738   2.689   6.024   3.372
  280SOL    HW1 1739   2.765   6.023   3.307
  280SOL    HW2 1740   2.668   6.118   3.397
  281SOL     OW 1741   2.525   4.521   1.800
  281SOL    HW1 1742   2.611   4.526   1.850
  281SOL    HW2 1743   2.506   4.426   1.774
  282SOL     OW 1744   3.176   1.310   5.509
  282SOL    HW1 1745   3.134   1.397   5.484
  282SOL    HW2 1746   3.275   1.322   5.521
  283SOL     OW 1747   5.632   2.527   6.446
  283SOL    HW1 1748   5.639   2.559   6.540
  283SOL    HW2 1749   5.715   2.553   6.396
  284SOL     OW 1750   1.426   4.171   3.740
  284SOL    HW1 1751   1.374   4.103   3.791
  284SOL    HW2 1752   1.440   4.252   3.798
  285SOL     OW 1753   5.930   4.964   4.074
  285SOL    HW1 1754   6.018   4.916   4.070
  285SOL    HW2 1755   5.860   4.900   4.106
  286SOL     OW 1756   3.328   4.945   6.266
  286SOL    HW1 1757   3.391   5.001   6.211
  286SOL    HW2 1758   3.370   4.925   6.354
  287SOL     OW 1759   0.829   3.637   1.322
  287SOL    HW1 1760   0.845   3.683   1.234
  287SOL    HW2 1761   0.766   3.560   1.308
  288SOL     OW 1762   3.127   1.403   6.912
  288SOL    HW1 1763   3.097   1.450   6.994
  288SOL    HW2 1764   3.227   1.407   6.906
  289SOL     OW 1765   2.205   4.359   5.912
  289SOL    HW1 1766   2.258   4.295   5.857
  289SOL    HW2 1767   2.134   4.401   5.856
  290SOL     OW 1768   6.365   1.878   4.695
  290SOL    HW1 1769   6.450   1.923   4.722
  290SOL    HW2 1770   6.299   1.885   4.770
  291SOL     OW 1771   1.223   2.338   4.906
  291SOL    HW1 1772   1.221   2.422   4.852
  291SOL    HW2 1773   1.280   2.270   4.860
  292SOL     OW 1774   1.598   2.161   3.359
  292SOL    HW1 1775   1.623   2.067   3.333
  292SOL    HW2 1776   1.503   2.162   3.389
  293SOL     OW 1777   4.078   6.013   2.811
  293SOL    HW1 1778   4.023   5.967   2.882
  293SOL    HW2 1779   4.099   5.948   2.738
  294SOL     OW 1780   0.450   6.161   6.633
  294SOL    HW1 1781   0.547   6.174   6.611
  294SOL    HW2 1782   0.442   6.089   6.702
  295SOL     OW 1783   3.566   0.909   3.692
  295SOL    HW1 1784   3.555   1.009   3.692
  295SOL    HW2 1785   3.571   0.877   3.598
  296SOL     OW 1786   3.696   1.934   3.101
  296SOL    HW1 1787   3.677   1.913   3.005
  296SOL    HW2 1788   3.695   1.849   3.154
  297SOL     OW 1789   2.680   4.850   3.659
  297SOL    HW1 1790   2.696   4.873   3.563
  297SOL    HW2 1791   2.655   4.753   3.666
  298SOL     OW 1792   3.480   5.556   2.061
  298SOL    HW1 1793   3.488   5.654   2.083
  298SOL    HW2 1794   3.402   5.542   2.000
  299SOL     OW 1795   5.822   3.469   6.347
  299SOL    HW1 1796   5.784   3.391   6.298
  299SOL    HW2 1797   5.853   3.441   6.438
  300SOL     OW 1798   6.278   0.935   2.650
  300SOL    HW1 1799   6.200   0.959   2.592
  300SOL    HW2 1800   6.310   0.843   2.627
  301SOL     OW 1801   4.890   3.351   1.433
  301SOL    HW1 1802   4.832   3.286   1.482
  301SOL    HW2 1803   4.971   3.372   1.488
  302SOL     OW 1804   1.342   0.274   3.145
  302SOL    HW1 1805   1.394   0.237   3.068
  302SOL    HW2 1806   1.284   0.349   3.113
  303SOL     OW 1807   6.060   0.571   2.292
  303SOL    HW1 1808   6.086   0.520   2.375
  303SOL    HW2 1809   5.983   0.631   2.313
  304SOL     OW 1810   2.244   0.173   3.429
  304SOL    HW1 1811   2.155   0.182   3.473
  304SOL    HW2 1812   2.312   0.144   3.496
  305SOL     OW 1813   0.204   3.581   0.134
  305SOL    HW1 1814   0.282   3.639   0.110
  305SOL    HW2 1815   0.202   3.501   0.073
  306SOL     OW 1816   1.805   0.443   3.788
  306SOL    HW1 1817   1.895   0.412   3.819
  306SOL    HW2 1818   1.810   0.473   3.693
  307SOL     OW 1819   4.848   6.889   0.680
  307SOL    HW1 1820   4.756   6.915   0.651
  307SOL    HW2 1821   4.850   6.879   0.780
  308SOL     OW 1822   6.586   3.532   4.986
  308SOL    HW1 1823   6.559   3.623   4.953
  308SOL    HW2 1824   6.504   3.483   5.017
  309SOL     OW 1825   4.238   3.852   5.988
  309SOL    HW1 1826   4.280   3.819   6.071
  309SOL    HW2 1827   4.302   3.911   5.938
  310SOL     OW 1828   6.774   6.677   5.802
  310SOL    HW1 1829   6.742   6.611   5.871
  310SOL    HW2 1830   6.806   6.760   5.847
  311SOL     OW 1831   6.631   4.997   1.753
  311SOL    HW1 1832   6.540   5.038   1.747
  311SOL    HW2 1833   6.681   5.012   1.668
  312SOL     OW 1834   4.598   2.246   5.908
  312SOL    HW1 1835   4.622   2.217   5.816
  312SOL    HW2 1836   4.522   2.191   5.943
  313SOL     OW 1837   2.875   4.304   1.659
  313SOL    HW1 1838   2.843   4.361   1.735
  313SOL    HW2 1839   2.975   4.299   1.661
  314SOL     OW 1840   3.328   5.789   0.269
  314SOL    HW1 1841   3.261   5.777   0.196
  314SOL    HW2 1842   3.377   5.703   0.285
  315SOL     OW 1843   1.190   2.583   3.432
  315SOL    HW1 1844   1.149   2.535   3.510
  315SOL    HW2 1845   1.163   2.679   3.433
  316SOL     OW 1846   2.037   2.359   4.340
  316SOL    HW1 1847   2.065   2.265   4.320
  316SOL    HW2 1848   2.091   2.423   4.285
  317SOL     OW 1849   1.023   1.423   0.443
  317SOL    HW1 1850   1.040   1.351   0.509
  317SOL    HW2 1851   0.931   1.413   0.405
  318SOL     OW 1852   1.006   5.059   0.871
  318SOL    HW1 1853   0.914   5.022   0.862
  318SOL    HW2 1854   1.073   4.991   0.841
  319SOL     OW 1855   0.163   0.364   2.362
  319SOL    HW1 1856   0.197   0.270   2.376
  319SOL    HW2 1857   0.143   0.406   2.450
  320SOL     OW 1858   4.957   2.681   6.477
  320SOL    HW1 1859   4.931   2.685   6.574
  320SOL    HW2 1860   4.889   2.629   6.426
  321SOL     OW 1861   2.669   1.287   2.389
  321SOL    HW1 1862   2.740   1.228   2.353
  321SOL    HW2 1863   2.596   1.299   2.321
  322SOL     OW 1864   3.159   3.563   4.447
  322SOL    HW1 1865   3.116   3.652   4.434
  322SOL    HW2 1866   3.090   3.496   4.474
  323SOL     OW 1867   0.469   4.012   6.892
  323SOL    HW1 1868   0.402   4.032   6.963
  323SOL    HW2 1869   0.509   3.922   6.909
  324SOL     OW 1870   1.609   3.036   3.954
  324SOL    HW1 1871   1.625   3.124   3.999
  324SOL    HW2 1872   1.663   3.031   3.870
  325SOL     OW 1873   1.799   3.047   1.364
  325SOL    HW1 1874   1.764   2.964   1.321
  325SOL    HW2 1875   1.898   3.041   1.374
  326SOL     OW 1876   1.537   5.840   6.870
  326SOL    HW1 1877   1.535   5.821   6.969
  326SOL    HW2 1878   1.630   5.829   6.836
  327SOL     OW 1879   1.020   5.444   3.752
  327SOL    HW1 1880   0.999   5.349   3.731
  327SOL    HW2 1881   0.981   5.503   3.681
  328SOL     OW 1882   3.328   4.880   2.810
  328SOL    HW1 1883   3.313   4.847   2.904
  328SOL    HW2 1884   3.425   4.904   2.799
  329SOL     OW 1885   3.713   3.890   4.086
  329SOL    HW1 1886   3.736   3.969   4.143
  329SOL    HW2 1887   3.704   3.918   3.991
  330SOL     OW 1888   3.300   5.971   2.197
  330SOL    HW1 1889   3.245   5.894   2.165
  330SOL    HW2 1890   3.243   6.031   2.253
  331SOL     OW 1891   4.872   4.835   6.663
  331SOL    HW1 1892   4.809   4.884   6.723
  331SOL    HW2 1893   4.875   4.880   6.574
  332SOL     OW 1894   3.246   2.124   4.093
  332SOL    HW1 1895   3.235   2.128   3.994
  332SOL    HW2 1896   3.336   2.161   4.118
  333SOL     OW 1897   3.815   6.995   0.156
  333SOL    HW1 1898   3.902   6.957   0.125
  333SOL    HW2 1899   3.799   0.062   0.111
  334SOL     OW 1900   2.898   6.942   1.018
  334SOL    HW1 1901   2.941   6.903   1.100
  334SOL    HW2 1902   2.969   6.962   0.950
  335SOL     OW 1903   3.138   6.612   3.914
  335SOL    HW1 1904   3.040   6.621   3.930
  335SOL    HW2 1905   3.158   6.520   3.882
  336SOL     OW 1906   2.233   0.746   3.886
  336SOL    HW1 1907   2.318   0.697   3.904
  336SOL    HW2 1908   2.243   0.802   3.804
  337SOL     OW 1909   0.158   3.537   0.895
  337SOL    HW1 1910   0.059   3.523   0.892
  337SOL    HW2 1911   0.179   3.627   0.856
  338SOL     OW 1912   2.763   2.861   1.314
  338SOL    HW1 1913   2.724   2.812   1.236
  338SOL    HW2 1914   2.837   2.806   1.353
  339SOL     OW 1915   3.889   6.872   3.739
  339SOL    HW1 1916   3.858   6.967   3.744
  339SOL    HW2 1917   3.983   6.865   3.772
  340SOL     OW 1918   5.350   4.226   4.781
  340SOL    HW1 1919   5.356   4.278   4.866
  340SOL    HW2 1920   5.439   4.184   4.762
  341SOL     OW 1921   6.370   6.661   3.989
  341SOL    HW1 1922   6.402   6.756   3.991
  341SOL    HW2 1923   6.274   6.658   4.017
  342SOL     OW 1924   5.817   4.235   6.908
  342SOL    HW1 1925   5.801   4.287   6.824
  342SOL    HW2 1926   5.848   4.143   6.886
  343SOL     OW 1927   2.829   5.725   1.408
  343SOL    HW1 1928   2.907   5.667   1.384
  343SOL    HW2 1929   2.744   5.677   1.388
  344SOL     OW 1930   2.111   5.438   1.624
  344SOL    HW1 1931   2.170   5.359   1.637
  344SOL    HW2 1932   2.162   5.522   1.645
  345SOL     OW 1933   6.776   0.775   5.519
  345SOL    HW1 1934   6.826   0.706   5.468
  345SOL    HW2 1935   6.681   0.745   5.531
  346SOL     OW 1936   2.221   0.032   2.055
  346SOL    HW1 1937   2.130   0.004   2.022
  346SOL    HW2 1938   2.210   0.103   2.124
  347SOL     OW 1939   5.037   0.303   6.485
  347SOL    HW1 1940   4.996   0.294   6.395
  347SOL    HW2 1941   5.019   0.220   6.538
  348SOL     OW 1942   4.449   4.837   1.534
  348SOL    HW1 1943   4.422   4.805   1.443
  348SOL    HW2 1944   4.539   4.799   1.557
  349SOL     OW 1945   0.152   4.631   2.029
  349SOL    HW1 1946   0.228   4.594   1.976
  349SOL    HW2 1947   0.123   4.719   1.990
  350SOL     OW 1948   3.790   3.657   1.650
  350SOL    HW1 1949   3.724   3.592   1.686
  350SOL    HW2 1950   3.753   3.750   1.655
  351SOL     OW 1951   2.431   2.662   0.417
  351SOL    HW1 1952   2.488   2.634   0.495
  351SOL    HW2 1953   2.338   2.679   0.449
  352SOL     OW 1954   3.775   0.061   4.767
  352SOL    HW1 1955   3.874   0.057   4.758
  352SOL    HW2 1956   3.742   6.996   4.807
  353SOL     OW 1957   2.804   0.144   0.869
  353SOL    HW1 1958   2.707   0.153   0.845
  353SOL    HW2 1959   2.820   0.053   0.908
  354SOL     OW 1960   4.015   2.596   0.171
  354SOL    HW1 1961   4.052   2.626   0.259
  354SOL    HW2 1962   4.089   2.594   0.103
  355SOL     OW 1963   6.668   3.236   2.548
  355SOL    HW1 1964   6.649   3.149   2.502
  355SOL    HW2 1965   6.676   3.220   2.647
  356SOL     OW 1966   4.100   5.367   4.582
  356SOL    HW1 1967   4.065   5.460   4.574
  356SOL    HW2 1968   4.188   5.361   4.534
  357SOL     OW 1969   6.902   6.764   5.344
  357SOL    HW1 1970   6.965   6.754   5.421
  357SOL    HW2 1971   6.871   6.674   5.313
  358SOL     OW 1972   6.462   0.227   1.205
  358SOL    HW1 1973   6.455   0.325   1.185
  358SOL    HW2 1974   6.377   0.181   1.179
  359SOL     OW 1975   1.646   2.512   2.388
  359SOL    HW1 1976   1.596   2.538   2.470
  359SOL    HW2 1977   1.616   2.420   2.360
  360SOL     OW 1978   2.676   6.154   6.311
  360SOL    HW1 1979   2.715   6.099   6.237
  360SOL    HW2 1980   2.583   6.122   6.331
  361SOL     OW 1981   5.523   5.411   2.910
  361SOL    HW1 1982   5.610   5.411   2.958
  361SOL    HW2 1983   5.502   5.504   2.878
  362SOL     OW 1984   3.515   3.728   0.493
  362SOL    HW1 1985   3.575   3.760   0.419
  362SOL    HW2 1986   3.484   3.635   0.474
  363SOL     OW 1987   3.563   4.967   3.693
  363SOL    HW1 1988   3.544   5.027   3.771
  363SOL    HW2 1989   3.647   4.996   3.648
  364SOL     OW 1990   0.150   5.508   5.013
  364SOL    HW1 1991   0.052   5.514   4.994
  364SOL    HW2 1992   0.190   5.435   4.958
  365SOL     OW 1993   4.360   6.541   2.957
  365SOL    HW1 1994   4.417   6.605   3.008
  365SOL    HW2 1995   4.417   6.486   2.897
  366SOL     OW 1996   5.441   0.940   0.080
  366SOL    HW1 1997   5.538   0.951   0.057
  366SOL    HW2 1998   5.426   0.966   0.175
  367SOL     OW 1999   5.136   2.781   0.959
  367SOL    HW1 2000   5.157   2.796   0.863
  367SOL    HW2 2001   5.063   2.713   0.967
  368SOL     OW 2002   1.498   4.493   5.083
  368SOL    HW1 2003   1.569   4.510   5.014
  368SOL    HW2 2004   1.505   4.399   5.116
  369SOL     OW 2005   6.527   4.387   1.894
  369SOL    HW1 2006   6.567   4.471   1.929
  369SOL    HW2 2007   6.600   4.322   1.873
  370SOL     OW 2008   2.487   1.342   5.208
  370SOL    HW1 2009   2.554   1.273   5.181
  370SOL    HW2 2010   2.461   1.396   5.128
  371SOL     OW 2011   2.104   3.705   6.235
  371SOL    HW1 2012   2.188   3.698   6.288
  371SOL    HW2 2013   2.025   3.685   6.293
  372SOL     OW 2014   0.073   0.384   5.090
  372SOL    HW1 2015   0.091   0.329   5.009
  372SOL    HW2 2016   6.996   0.404   5.096
  373SOL     OW 2017   6.967   6.697   5.594
  373SOL    HW1 2018   6.905   6.630   5.635
  373SOL    HW2 2019   0.040   6.675   5.618
  374SOL     OW 2020   4.230   0.092   2.495
  374SOL    HW1 2021   4.230   0.083   2.396
  374SOL    HW2 2022   4.323   0.082   2.530
  375SOL     OW 2023   6.977   4.610   3.714
  375SOL    HW1 2024   6.896   4.565   3.678
  375SOL    HW2 2025   0.025   4.617   3.641
  376SOL     OW 2026   1.652   3.372   3.668
  376SOL    HW1 2027   1.599   3.290   3.649
  376SOL    HW2 2028   1.589   3.446   3.693
  377SOL     OW 2029   5.991   2.688   2.569
  377SOL    HW1 2030   5.997   2.749   2.490
  377SOL    HW2 2031   5.983   2.593   2.538
  378SOL     OW 2032   3.882   2.813   5.708
  378SOL    HW1 2033   3.905   2.896   5.658
  378SOL    HW2 2034   3.933   2.811   5.794
  379SOL     OW 2035   5.850   3.317   1.715
  379SOL    HW1 2036   5.813   3.253   1.648
  379SOL    HW2 2037   5.922   3.272   1.768
  380SOL     OW 2038   2.236   1.627   2.020
  380SOL    HW1 2039   2.213   1.572   1.939
  380SOL    HW2 2040   2.334   1.621   2.038
  381SOL     OW 2041   1.987   4.709   1.588
  381SOL    HW1 2042   2.077   4.672   1.612
  381SOL    HW2 2043   1.916   4.652   1.628
  382SOL     OW 2044   3.842   5.724   6.904
  382SOL    HW1 2045   3.892   5.760   6.825
  382SOL    HW2 2046   3.890   5.748   6.988
  383SOL     OW 2047   6.500   2.824   6.164
  383SOL    HW1 2048   6.412   2.823   6.117
  383SOL    HW2 2049   6.571   2.787   6.104
  384SOL     OW 2050   1.306   4.168   4.979
  384SOL    HW1 2051   1.385   4.185   5.039
  384SOL    HW2 2052   1.334   4.176   4.884
  385SOL     OW 2053   4.764   6.661   0.170
  385SOL    HW1 2054   4.699   6.671   0.245
  385SOL    HW2 2055   4.750   6.736   0.104
  386SOL     OW 2056   4.173   6.778   5.295
  386SOL    HW1 2057   4.233   6.844   5.341
  386SOL    HW2 2058   4.121   6.726   5.363
  387SOL     OW 2059   0.403   6.698   3.817
  387SOL    HW1 2060   0.380   6.601   3.815
  387SOL    HW2 2061   0.330   6.749   3.862
  388SOL     OW 2062   0.019   2.363   5.027
  388SOL    HW1 2063   7.003   2.363   5.120
  388SOL    HW2 2064   0.118   2.376   5.030
  389SOL     OW 2065   4.291   4.167   1.653
  389SOL    HW1 2066   4.212   4.121   1.694
  389SOL    HW2 2067   4.360   4.184   1.723
  390SOL     OW 2068   3.316   1.167   0.552
  390SOL    HW1 2069   3.414   1.185   0.540
  390SOL    HW2 2070   3.274   1.157   0.462
  391SOL     OW 2071   2.626   4.122   5.694
  391SOL    HW1 2072   2.592   4.215   5.707
  391SOL    HW2 2073   2.705   4.124   5.632
  392SOL     OW 2074   1.318   3.423   2.063
  392SOL    HW1 2075   1.341   3.385   1.973
  392SOL    HW2 2076   1.398   3.469   2.101
  393SOL     OW 2077   1.310   4.260   0.918
  393SOL    HW1 2078   1.255   4.312   0.983
  393SOL    HW2 2079   1.405   4.257   0.949
  394SOL     OW 2080   0.146   3.258   0.022
  394SOL    HW1 2081   0.207   3.287   6.969
  394SOL    HW2 2082   0.053   3.288   0.003
  395SOL     OW 2083   5.434   4.264   2.310
  395SOL    HW1 2084   5.451   4.186   2.371
  395SOL    HW2 2085   5.502   4.264   2.236
  396SOL     OW 2086   2.613   2.015   2.251
  396SOL    HW1 2087   2.696   2.002   2.197
  396SOL    HW2 2088   2.549   2.074   2.201
  397SOL     OW 2089   4.662   1.274   5.624
  397SOL    HW1 2090   4.576   1.322   5.639
  397SOL    HW2 2091   4.656   1.221   5.539
  398SOL     OW 2092   1.179   6.972   4.486
  398SOL    HW1 2093   1.261   6.915   4.480
  398SOL    HW2 2094   1.098   6.915   4.475
  399SOL     OW 2095   6.031   6.234   3.883
  399SOL    HW1 2096   5.957   6.190   3.831
  399SOL    HW2 2097   6.000   6.247   3.977
  400SOL     OW 2098   6.303   0.069   4.778
  400SOL    HW1 2099   6.285   0.157   4.735
  400SOL    HW2 2100   6.309   7.018   4.708
  401SOL     OW 2101   6.460   1.051   5.988
  401SOL    HW1 2102   6.502   1.035   5.899
  401SOL    HW2 2103   6.499   0.989   6.055
  402SOL     OW 2104   6.162   0.542   2.549
  402SOL    HW1 2105   6.131   0.461   2.597
  402SOL    HW2 2106   6.110   0.622   2.581
  403SOL     OW 2107   2.845   0.151   5.986
  403SOL    HW1 2108   2.800   0.062   5.984
  403SOL    HW2 2109   2.795   0.213   6.046
  404SOL     OW 2110   3.722   6.467   5.689
  404SOL    HW1 2111   3.721   6.475   5.789
  404SOL    HW2 2112   3.795   6.403   5.662
  405SOL     OW 2113   1.787   3.793   3.437
  405SOL    HW1 2114   1.851   3.869   3.425
  405SOL    HW2 2115   1.703   3.811   3.385
  406SOL     OW 2116   0.775   5.035   4.984
  406SOL    HW1 2117   0.776   4.951   5.038
  406SOL    HW2 2118   0.854   5.038   4.924
  407SOL     OW 2119   1.466   3.537   3.781
  407SOL    HW1 2120   1.406   3.586   3.718
  407SOL    HW2 2121   1.456   3.576   3.873
  408SOL     OW 2122   3.650   1.846   2.845
  408SOL    HW1 2123   3.704   1.856   2.762
  408SOL    HW2 2124   3.595   1.762   2.840
  409SOL     OW 2125   0.350   3.694   1.811
  409SOL    HW1 2126   0.329   3.677   1.715
  409SOL    HW2 2127   0.278   3.655   1.868
  410SOL     OW 2128   1.799   2.240   1.003
  410SOL    HW1 2129   1.832   2.254   1.096
  410SOL    HW2 2130   1.754   2.323   0.971
  411SOL     OW 2131   0.268   2.242   1.781
  411SOL    HW1 2132   0.351   2.199   1.746
  411SOL    HW2 2133   0.255   2.218   1.877
  412SOL     OW 2134   2.779   4.757   2.996
  412SOL    HW1 2135   2.839   4.779   2.919
  412SOL    HW2 2136   2.707   4.694   2.966
  413SOL     OW 2137   3.473   5.044   2.306
  413SOL    HW1 2138   3.547   4.993   2.262
  413SOL    HW2 2139   3.385   5.010   2.272
  414SOL     OW 2140   2.836   6.862   4.100
  414SOL    HW1 2141   2.878   6.952   4.114
  414SOL    HW2 2142   2.800   6.828   4.186
  415SOL     OW 2143   6.700   1.191   0.039
  415SOL    HW1 2144   6.747   1.130   0.104
  415SOL    HW2 2145   6.704   1.285   0.073
  416SOL     OW 2146   5.234   3.773   5.013
  416SOL    HW1 2147   5.180   3.691   4.994
  416SOL    HW2 2148   5.194   3.851   4.965
  417SOL     OW 2149   2.562   1.970   6.962
  417SOL    HW1 2150   2.599   1.892   6.911
  417SOL    HW2 2151   2.603   1.973   0.033
  418SOL     OW 2152   3.536   6.991   4.471
  418SOL    HW1 2153   3.635   6.979   4.473
  418SOL    HW2 2154   3.510   0.045   4.531
  419SOL     OW 2155   0.287   6.846   1.498
  419SOL    HW1 2156   0.359   6.785   1.465
  419SOL    HW2 2157   0.329   6.926   1.541
  420SOL     OW 2158   5.344   0.828   6.830
  420SOL    HW1 2159   5.391   0.807   6.916
  420SOL    HW2 2160   5.313   0.743   6.788
  421SOL     OW 2161   5.165   4.256   4.579
  421SOL    HW1 2162   5.168   4.158   4.556
  421SOL    HW2 2163   5.235   4.276   4.647
  422SOL     OW 2164   4.631   2.013   1.220
  422SOL    HW1 2165   4.567   1.947   1.182
  422SOL    HW2 2166   4.715   1.965   1.248
  423SOL     OW 2167   3.036   0.980   6.397
  423SOL    HW1 2168   3.032   0.908   6.328
  423SOL    HW2 2169   3.033   1.069   6.351
  424SOL     OW 2170   1.458   4.922   2.971
  424SOL    HW1 2171   1.519   4.876   3.036
  424SOL    HW2 2172   1.414   5.000   3.016
  425SOL     OW 2173   4.747   1.214   4.676
  425SOL    HW1 2174   4.755   1.191   4.579
  425SOL    HW2 2175   4.805   1.153   4.730
  426SOL     OW 2176   2.329   2.316   4.822
  426SOL    HW1 2177   2.372   2.404   4.804
  426SOL    HW2 2178   2.385   2.263   4.885
  427SOL     OW 2179   4.636   1.466   3.497
  427SOL    HW1 2180   4.699   1.391   3.514
  427SOL    HW2 2181   4.662   1.545   3.554
  428SOL     OW 2182   3.076   0.933   4.944
  428SOL    HW1 2183   3.035   0.944   4.854
  428SOL    HW2 2184   3.023   0.866   4.997
  429SOL     OW 2185   0.939   6.017   3.882
  429SOL    HW1 2186   0.880   5.948   3.924
  429SOL    HW2 2187   1.032   5.983   3.875
  430SOL     OW 2188   1.741   0.057   3.690
  430SOL    HW1 2189   1.809   7.021   3.734
  430SOL    HW2 2190   1.686   0.103   3.761
  431SOL     OW 2191   3.311   1.984   1.278
  431SOL    HW1 2192   3.288   2.043   1.355
  431SOL    HW2 2193   3.228   1.961   1.228
  432SOL     OW 2194   4.454   2.019   1.459
  432SOL    HW1 2195   4.376   2.078   1.437
  432SOL    HW2 2196   4.537   2.058   1.421
  433SOL     OW 2197   3.023   6.520   6.608
  433SOL    HW1 2198   3.007   6.590   6.539
  433SOL    HW2 2199   3.021   6.561   6.699
  434SOL     OW 2200   3.467   6.608   3.588
  434SOL    HW1 2201   3.443   6.512   3.572
  434SOL    HW2 2202   3.429   6.637   3.676
  435SOL     OW 2203   3.545   1.696   5.880
  435SOL    HW1 2204   3.631   1.704   5.930
  435SOL    HW2 2205   3.551   1.750   5.796
  436SOL     OW 2206   3.575   6.033   3.436
  436SOL    HW1 2207   3.647   5.971   3.466
  436SOL    HW2 2208   3.564   6.025   3.336
  437SOL     OW 2209   6.905   0.543   4.332
  437SOL    HW1 2210   6.863   0.489   4.259
  437SOL    HW2 2211   6.840   0.611   4.365
  438SOL     OW 2212   0.935   5.137   3.148
  438SOL    HW1 2213   0.867   5.063   3.139
  438SOL    HW2 2214   0.939   5.167   3.243
  439SOL     OW 2215   5.899   0.155   2.531
  439SOL    HW1 2216   5.896   0.167   2.432
  439SOL    HW2 2217   5.972   0.092   2.556
  440SOL     OW 2218   4.168   0.519   0.223
  440SOL    HW1 2219   4.130   0.611   0.211
  440SOL    HW2 2220   4.264   0.518   0.195
  441SOL     OW 2221   6.190   4.865   2.891
  441SOL    HW1 2222   6.124   4.798   2.860
  441SOL    HW2 2223   6.233   4.834   2.976
  442SOL     OW 2224   4.969   4.092   5.556
  442SOL    HW1 2225   5.057   4.134   5.574
  442SOL    HW2 2226   4.911   4.099   5.637
  443SOL     OW 2227   5.174   3.946   3.392
  443SOL    HW1 2228   5.212   3.858   3.422
  443SOL    HW2 2229   5.170   3.948   3.292
  444SOL     OW 2230   4.020   0.947   1.132
  444SOL    HW1 2231   4.008   0.883   1.208
  444SOL    HW2 2232   4.050   1.036   1.167
  445SOL     OW 2233   2.645   5.927   2.998
  445SOL    HW1 2234   2.731   5.876   2.998
  445SOL    HW2 2235   2.573   5.869   3.036
  446SOL     OW 2236   5.480   5.699   2.837
  446SOL    HW1 2237   5.454   5.706   2.741
  446SOL    HW2 2238   5.421   5.759   2.892
  447SOL     OW 2239   5.884   4.448   6.437
  447SOL    HW1 2240   5.978   4.424   6.412
  447SOL    HW2 2241   5.858   4.533   6.390
  448SOL     OW 2242   3.302   1.547   2.444
  448SOL    HW1 2243   3.215   1.519   2.403
  448SOL    HW2 2244   3.358   1.592   2.374
  449SOL     OW 2245   1.740   2.757   3.918
  449SOL    HW1 2246   1.648   2.724   3.895
  449SOL    HW2 2247   1.732   2.843   3.969
  450SOL     OW 2248   0.484   4.817   2.963
  450SOL    HW1 2249   0.429   4.810   2.881
  450SOL    HW2 2250   0.545   4.896   2.956
  451SOL     OW 2251   0.431   2.190   3.552
  451SOL    HW1 2252   0.486   2.264   3.512
  451SOL    HW2 2253   0.477   2.154   3.633
  452SOL     OW 2254   3.914   6.552   3.136
  452SOL    HW1 2255   3.989   6.603   3.095
  452SOL    HW2 2256   3.882   6.482   3.072
  453SOL     OW 2257   4.128   0.170   0.109
  453SOL    HW1 2258   4.210   0.207   0.066
  453SOL    HW2 2259   4.116   0.075   0.080
  454SOL     OW 2260   0.117   4.628   6.378
  454SOL    HW1 2261   0.170   4.547   6.355
  454SOL    HW2 2262   0.149   4.706   6.324
  455SOL     OW 2263   6.851   4.297   5.631
  455SOL    HW1 2264   6.845   4.381   5.685
  455SOL    HW2 2265   6.878   4.221   5.691
  456SOL     OW 2266   2.140   1.098   3.095
  456SOL    HW1 2267   2.134   1.088   2.996
  456SOL    HW2 2268   2.228   1.139   3.119
  457SOL     OW 2269   2.012   5.881   6.214
  457SOL    HW1 2270   2.089   5.856   6.155
  457SOL    HW2 2271   1.941   5.811   6.207
  458SOL     OW 2272   2.311   1.303   3.442
  458SOL    HW1 2273   2.326   1.222   3.386
  458SOL    HW2 2274   2.326   1.385   3.387
  459SOL     OW 2275   2.206   6.914   5.094
  459SOL    HW1 2276   2.292   6.965   5.097
  459SOL    HW2 2277   2.220   6.829   5.043
  460SOL     OW 2278   1.233   1.663   5.280
  460SOL    HW1 2279   1.330   1.663   5.253
  460SOL    HW2 2280   1.183   1.596   5.225
  461SOL     OW 2281   0.183   4.746   5.362
  461SOL    HW1 2282   0.085   4.727   5.369
  461SOL    HW2 2283   0.221   4.754   5.455
  462SOL     OW 2284   3.781   3.561   4.399
  462SOL    HW1 2285   3.789   3.549   4.498
  462SOL    HW2 2286   3.692   3.526   4.369
  463SOL     OW 2287   6.384   6.284   2.401
  463SOL    HW1 2288   6.426   6.308   2.313
  463SOL    HW2 2289   6.413   6.192   2.427
  464SOL     OW 2290   3.210   6.087   6.112
  464SOL    HW1 2291   3.177   6.018   6.175
  464SOL    HW2 2292   3.288   6.051   6.061
  465SOL     OW 2293   1.118   2.073   0.804
  465SOL    HW1 2294   1.156   2.106   0.718
  465SOL    HW2 2295   1.018   2.086   0.803
  466SOL     OW 2296   3.392   6.309   4.857
  466SOL    HW1 2297   3.440   6.268   4.935
  466SOL    HW2 2298   3.322   6.247   4.824
  467SOL     OW 2299   6.965   1.577   2.934
  467SOL    HW1 2300   6.888   1.536   2.885
  467SOL    HW2 2301   6.941   1.668   2.966
  468SOL     OW 2302   4.014   0.691   6.221
  468SOL    HW1 2303   4.083   0.762   6.230
  468SOL    HW2 2304   4.035   0.616   6.284
  469SOL     OW 2305   2.810   4.262   6.110
  469SOL    HW1 2306   2.833   4.315   6.029
  469SOL    HW2 2307   2.828   4.165   6.092
  470SOL     OW 2308   2.436   5.367   3.251
  470SOL    HW1 2309   2.526   5.360   3.208
  470SOL    HW2 2310   2.391   5.277   3.247
  471SOL     OW 2311   2.604   2.359   3.918
  471SOL    HW1 2312   2.673   2.304   3.966
  471SOL    HW2 2313   2.602   2.332   3.821
  472SOL     OW 2314   6.484   4.524   6.013
  472SOL    HW1 2315   6.474   4.431   5.976
  472SOL    HW2 2316   6.518   4.519   6.106
  473SOL     OW 2317   0.029   2.328   2.541
  473SOL    HW1 2318   7.019   2.417   2.574
  473SOL    HW2 2319   6.974   2.263   2.544
  474SOL     OW 2320   6.409   6.313   4.797
  474SOL    HW1 2321   6.398   6.282   4.702
  474SOL    HW2 2322   6.499   6.357   4.807
  475SOL     OW 2323   5.976   1.698   0.214
  475SOL    HW1 2324   6.034   1.628   0.255
  475SOL    HW2 2325   6.006   1.716   0.120
  476SOL     OW 2326   0.742   3.905   1.994
  476SOL    HW1 2327   0.835   3.866   1.995
  476SOL    HW2 2328   0.726   3.953   2.080
  477SOL     OW 2329   2.135   5.919   3.295
  477SOL    HW1 2330   2.218   5.972   3.313
  477SOL    HW2 2331   2.146   5.865   3.212
  478SOL     OW 2332   4.507   5.608   3.016
  478SOL    HW1 2333   4.415   5.611   3.056
  478SOL    HW2 2334   4.509   5.662   2.932
  479SOL     OW 2335   4.119   3.209   3.488
  479SOL    HW1 2336   4.126   3.303   3.454
  479SOL    HW2 2337   4.205   3.184   3.532
  480SOL     OW 2338   1.013   6.711   2.821
  480SOL    HW1 2339   0.946   6.781   2.796
  480SOL    HW2 2340   1.073   6.746   2.893
  481SOL     OW 2341   0.890   6.251   0.140
  481SOL    HW1 2342   0.902   6.294   0.051
  481SOL    HW2 2343   0.862   6.320   0.207
  482SOL     OW 2344   5.297   4.592   2.140
  482SOL    HW1 2345   5.249   4.554   2.220
  482SOL    HW2 2346   5.396   4.577   2.151
  483SOL     OW 2347   5.889   2.471   3.127
  483SOL    HW1 2348   5.885   2.455   3.028
  483SOL    HW2 2349   5.966   2.531   3.148
  484SOL     OW 2350   2.413   4.371   4.306
  484SOL    HW1 2351   2.467   4.425   4.371
  484SOL    HW2 2352   2.333   4.333   4.353
  485SOL     OW 2353   5.542   3.351   2.954
  485SOL    HW1 2354   5.609   3.302   3.010
  485SOL    HW2 2355   5.450   3.334   2.991
  486SOL     OW 2356   6.536   6.384   5.721
  486SOL    HW1 2357   6.438   6.373   5.703
  486SOL    HW2 2358   6.549   6.458   5.787
  487SOL     OW 2359   0.259   6.285   4.092
  487SOL    HW1 2360   0.180   6.297   4.152
  487SOL    HW2 2361   0.342   6.278   4.148
  488SOL     OW 2362   1.938   6.698   3.349
  488SOL    HW1 2363   1.934   6.630   3.276
  488SOL    HW2 2364   1.884   6.779   3.322
  489SOL     OW 2365   6.813   5.686   4.806
  489SOL    HW1 2366   6.763   5.653   4.887
  489SOL    HW2 2367   6.887   5.746   4.835
  490SOL     OW 2368   1.509   4.807   5.971
  490SOL    HW1 2369   1.523   4.758   6.057
  490SOL    HW2 2370   1.463   4.894   5.990
  491SOL     OW 2371   0.570   2.651   0.873
  491SOL    HW1 2372   0.516   2.582   0.825
  491SOL    HW2 2373   0.550   2.742   0.836
  492SOL     OW 2374   1.498   1.502   5.541
  492SOL    HW1 2375   1.399   1.501   5.553
  492SOL    HW2 2376   1.529   1.412   5.509
  493SOL     OW 2377   2.200   6.088   5.124
  493SOL    HW1 2378   2.249   6.001   5.122
  493SOL    HW2 2379   2.266   6.163   5.120
  494SOL     OW 2380   2.410   0.430   5.220
  494SOL    HW1 2381   2.405   0.507   5.283
  494SOL    HW2 2382   2.364   0.455   5.134
  495SOL     OW 2383   4.159   6.034   5.756
  495SOL    HW1 2384   4.191   5.959   5.698
  495SOL    HW2 2385   4.075   6.006   5.803
  496SOL     OW 2386   5.707   2.384   2.685
  496SOL    HW1 2387   5.636   2.356   2.749
  496SOL    HW2 2388   5.750   2.303   2.644
  497SOL     OW 2389   3.314   1.267   6.612
  497SOL    HW1 2390   3.302   1.171   6.637
  497SOL    HW2 2391   3.224   1.311   6.606
  498SOL     OW 2392   0.586   5.702   2.113
  498SOL    HW1 2393   0.542   5.700   2.202
  498SOL    HW2 2394   0.673   5.753   2.119
  499SOL     OW 2395   3.684   5.158   0.075
  499SOL    HW1 2396   3.593   5.150   0.035
  499SOL    HW2 2397   3.694   5.091   0.149
  500SOL     OW 2398   5.664   2.250   6.387
  500SOL    HW1 2399   5.645   2.346   6.403
  500SOL    HW2 2400   5.676   2.203   6.475
  501SOL     OW 2401   0.906   6.605   3.056
  501SOL    HW1 2402   0.970   6.609   2.979
  501SOL    HW2 2403   0.957   6.604   3.142
  502SOL     OW 2404   2.042   4.169   6.861
  502SOL    HW1 2405   2.046   4.204   6.767
  502SOL    HW2 2406   2.079   4.076   6.863
  503SOL     OW 2407   3.470   4.906   6.547
  503SOL    HW1 2408   3.416   4.822   6.538
  503SOL    HW2 2409   3.445   4.953   6.632
  504SOL     OW 2410   6.321   6.201   2.018
  504SOL    HW1 2411   6.391   6.272   2.021
  504SOL    HW2 2412   6.236   6.236   2.057
  505SOL     OW 2413   5.188   6.527   5.428
  505SOL    HW1 2414   5.135   6.547   5.510
  505SOL    HW2 2415   5.192   6.609   5.370
  506SOL     OW 2416   2.913   5.987   3.221
  506SOL    HW1 2417   2.927   5.936   3.137
  506SOL    HW2 2418   2.995   6.041   3.241
  507SOL     OW 2419   4.316   1.264   1.917
  507SOL    HW1 2420   4.312   1.206   1.998
  507SOL    HW2 2421   4.248   1.338   1.925
  508SOL     OW 2422   0.419   4.467   4.714
  508SOL    HW1 2423   0.360   4.520   4.652
  508SOL    HW2 2424   0.478   4.530   4.766
  509SOL     OW 2425   4.206   0.896   6.269
  509SOL    HW1 2426   4.282   0.937   6.220
  509SOL    HW2 2427   4.241   0.834   6.340
  510SOL     OW 2428   6.283   4.717   5.938
  510SOL    HW1 2429   6.194   4.675   5.918
  510SOL    HW2 2430   6.346   4.647   5.971
  511SOL     OW 2431   1.313   1.689   0.601
  511SOL    HW1 2432   1.221   1.668   0.566
  511SOL    HW2 2433   1.314   1.675   0.700
  512SOL     OW 2434   5.374   2.330   0.209
  512SOL    HW1 2435   5.328   2.392   0.146
  512SOL    HW2 2436   5.360   2.360   0.303
  513SOL     OW 2437   5.791   0.565   2.773
  513SOL    HW1 2438   5.864   0.621   2.735
  513SOL    HW2 2439   5.777   0.590   2.869
  514SOL     OW 2440   0.161   6.819   3.917
  514SOL    HW1 2441   0.075   6.853   3.879
  514SOL    HW2 2442   0.154   6.813   4.016
  515SOL     OW 2443   3.431   0.334   6.701
  515SOL    HW1 2444   3.494   0.332   6.622
  515SOL    HW2 2445   3.481   0.367   6.781
  516SOL     OW 2446   2.956   4.788   1.300
  516SOL    HW1 2447   3.009   4.869   1.325
  516SOL    HW2 2448   2.991   4.709   1.351
  517SOL     OW 2449   3.051   5.082   2.401
  517SOL    HW1 2450   3.030   5.083   2.499
  517SOL    HW2 2451   3.096   4.996   2.377
  518SOL     OW 2452   2.198   3.057   3.498
  518SOL    HW1 2453   2.210   3.036   3.401
  518SOL    HW2 2454   2.247   2.990   3.553
  519SOL     OW 2455   6.833   6.535   3.402
  519SOL    HW1 2456   6.877   6.562   3.488
  519SOL    HW2 2457   6.765   6.465   3.420
  520SOL     OW 2458   0.993   3.029   0.014
  520SOL    HW1 2459   0.973   3.030   6.937
  520SOL    HW2 2460   0.979   2.936   0.049
  521SOL     OW 2461   4.986   4.979   4.845
  521SOL    HW1 2462   5.036   5.006   4.927
  521SOL    HW2 2463   5.030   4.899   4.804
  522SOL     OW 2464   4.540   3.670   1.158
  522SOL    HW1 2465   4.593   3.625   1.230
  522SOL    HW2 2466   4.569   3.766   1.152
  523SOL     OW 2467   0.192   6.086   1.438
  523SOL    HW1 2468   0.132   6.012   1.468
  523SOL    HW2 2469   0.223   6.139   1.517
  524SOL     OW 2470   0.459   2.509   2.432
  524SOL    HW1 2471   0.418   2.592   2.471
  524SOL    HW2 2472   0.468   2.519   2.333
  525SOL     OW 2473   1.068   3.470   0.225
  525SOL    HW1 2474   1.091   3.492   0.130
  525SOL    HW2 2475   1.138   3.507   0.286
  526SOL     OW 2476   3.569   0.365   4.950
  526SOL    HW1 2477   3.583   0.425   4.871
  526SOL    HW2 2478   3.493   0.302   4.931
  527SOL     OW 2479   1.251   2.197   6.710
  527SOL    HW1 2480   1.274   2.183   6.613
  527SOL    HW2 2481   1.305   2.273   6.746
  528SOL     OW 2482   0.125   3.553   4.274
  528SOL    HW1 2483   0.214   3.597   4.275
  528SOL    HW2 2484   0.082   3.563   4.364
  529SOL     OW 2485   2.472   6.641   5.529
  529SOL    HW1 2486   2.379   6.680   5.524
  529SOL    HW2 2487   2.467   6.542   5.521
  530SOL     OW 2488   3.772   3.336   1.527
  530SOL    HW1 2489   3.702   3.394   1.569
  530SOL    HW2 2490   3.856   3.341   1.580
  531SOL     OW 2491   2.601   0.798   2.079
  531SOL    HW1 2492   2.631   0.705   2.056
  531SOL    HW2 2493   2.610   0.857   1.999
  532SOL     OW 2494   2.474   2.696   6.986
  532SOL    HW1 2495   2.530   2.721   6.908
  532SOL    HW2 2496   2.516   2.731   0.049
  533SOL     OW 2497   4.148   0.179   3.506
  533SOL    HW1 2498   4.192   0.217   3.587
  533SOL    HW2 2499   4.195   0.212   3.424
  534SOL     OW 2500   0.917   5.440   1.044
  534SOL    HW1 2501   1.014   5.460   1.056
  534SOL    HW2 2502   0.907   5.354   0.994
  535SOL     OW 2503   5.272   3.967   3.096
  535SOL    HW1 2504   5.247   3.932   3.006
  535SOL    HW2 2505   5.281   4.066   3.093
  536SOL     OW 2506   6.720   6.137   2.781
  536SOL    HW1 2507   6.749   6.046   2.752
  536SOL    HW2 2508   6.709   6.139   2.881
  537SOL     OW 2509   3.370   0.142   3.958
  537SOL    HW1 2510   3.429   0.189   3.893
  537SOL    HW2 2511   3.284   0.192   3.967
  538SOL     OW 2512   2.374   4.949   5.547
  538SOL    HW1 2513   2.460   4.898   5.548
  538SOL    HW2 2514   2.299   4.888   5.524
  539SOL     OW 2515   1.181   5.588   0.666
  539SOL    HW1 2516   1.104   5.529   0.642
  539SOL    HW2 2517   1.263   5.532   0.680
  540SOL     OW 2518   1.629   0.631   3.873
  540SOL    HW1 2519   1.692   0.699   3.911
  540SOL    HW2 2520   1.680   0.548   3.849
  541SOL     OW 2521   4.244   6.460   4.229
  541SOL    HW1 2522   4.221   6.546   4.273
  541SOL    HW2 2523   4.320   6.417   4.276
  542SOL     OW 2524   3.051   6.026   6.569
  542SOL    HW1 2525   3.048   6.005   6.471
  542SOL    HW2 2526   2.977   6.089   6.592
  543SOL     OW 2527   6.054   3.256   4.213
  543SOL    HW1 2528   6.020   3.177   4.161
  543SOL    HW2 2529   6.146   3.278   4.183
  544SOL     OW 2530   6.885   4.894   0.220
  544SOL    HW1 2531   6.894   4.796   0.239
  544SOL    HW2 2532   6.798   4.911   0.174
  545SOL     OW 2533   5.320   1.528   0.857
  545SOL    HW1 2534   5.308   1.621   0.824
  545SOL    HW2 2535   5.407   1.491   0.823
  546SOL     OW 2536   0.425   4.178   2.411
  546SOL    HW1 2537   0.487   4.197   2.487
  546SOL    HW2 2538   0.354   4.249   2.406
  547SOL     OW 2539   3.616   1.762   0.498
  547SOL    HW1 2540   3.576   1.848   0.531
  547SOL    HW2 2541   3.637   1.703   0.576
  548SOL     OW 2542   3.754   3.230   0.575
  548SOL    HW1 2543   3.785   3.322   0.599
  548SOL    HW2 2544   3.712   3.231   0.484
  549SOL     OW 2545   5.734   2.583   0.705
  549SOL    HW1 2546   5.757   2.680   0.716
  549SOL    HW2 2547   5.667   2.573   0.632
  550SOL     OW 2548   6.993   4.416   3.239
  550SOL    HW1 2549   6.895   4.417   3.219
  550SOL    HW2 2550   0.013   4.503   3.212
  551SOL     OW 2551   0.142   1.166   0.453
  551SOL    HW1 2552   0.066   1.138   0.511
  551SOL    HW2 2553   0.212   1.095   0.454
  552SOL     OW 2554   5.104   5.598   5.942
  552SOL    HW1 2555   5.067   5.533   5.875
  552SOL    HW2 2556   5.078   5.569   6.034
  553SOL     OW 2557   3.333   0.863   4.739
  553SOL    HW1 2558   3.278   0.851   4.656
  553SOL    HW2 2559   3.307   0.793   4.806
  554SOL     OW 2560   5.803   5.827   0.428
  554SOL    HW1 2561   5.705   5.806   0.417
  554SOL    HW2 2562   5.851   5.744   0.455
  555SOL     OW 2563   3.074   5.522   5.498
  555SOL    HW1 2564   3.026   5.609   5.498
  555SOL    HW2 2565   3.009   5.447   5.508
  556SOL     OW 2566   5.232   2.327   3.885
  556SOL    HW1 2567   5.270   2.365   3.969
  556SOL    HW2 2568   5.210   2.402   3.822
  557SOL     OW 2569   0.264   4.685   5.683
  557SOL    HW1 2570   0.286   4.727   5.771
  557SOL    HW2 2571   0.189   4.620   5.694
  558SOL     OW 2572   4.013   3.596   3.185
  558SOL    HW1 2573   4.049   3.543   3.108
  558SOL    HW2 2574   3.913   3.597   3.179
  559SOL     OW 2575   6.476   5.936   5.630
  559SOL    HW1 2576   6.550   5.997   5.660
  559SOL    HW2 2577   6.436   5.972   5.545
  560SOL     OW 2578   6.879   3.301   3.662
  560SOL    HW1 2579   6.884   3.257   3.752
  560SOL    HW2 2580   6.795   3.354   3.655
  561SOL     OW 2581   6.916   3.511   6.677
  561SOL    HW1 2582   7.011   3.532   6.653
  561SOL    HW2 2583   6.883   3.577   6.744
  562SOL     OW 2584   5.038   6.645   5.621
  562SOL    HW1 2585   4.953   6.686   5.589
  562SOL    HW2 2586   5.088   6.711   5.678
  563SOL     OW 2587   1.441   1.840   4.372
  563SOL    HW1 2588   1.498   1.866   4.450
  563SOL    HW2 2589   1.354   1.802   4.405
  564SOL     OW 2590   0.208   1.185   6.242
  564SOL    HW1 2591   0.272   1.187   6.320
  564SOL    HW2 2592   0.181   1.279   6.220
  565SOL     OW 2593   3.033   3.130   3.680
  565SOL    HW1 2594   3.072   3.074   3.753
  565SOL    HW2 2595   3.013   3.222   3.715
  566SOL     OW 2596   3.078   5.246   3.103
  566SOL    HW1 2597   3.065   5.341   3.133
  566SOL    HW2 2598   3.147   5.202   3.161
  567SOL     OW 2599   2.602   2.648   0.651
  567SOL    HW1 2600   2.666   2.578   0.684
  567SOL    HW2 2601   2.515   2.639   0.700
  568SOL     OW 2602   5.580   6.827   0.616
  568SOL    HW1 2603   5.540   6.832   0.707
  568SOL    HW2 2604   5.676   6.800   0.623
  569SOL     OW 2605   0.409   2.313   6.957
  569SOL    HW1 2606   0.434   2.409   6.950
  569SOL    HW2 2607   0.478   2.257   6.910
  570SOL     OW 2608   2.882   0.393   6.131
  570SOL    HW1 2609   2.876   0.458   6.054
  570SOL    HW2 2610   2.965   0.412   6.184
  571SOL     OW 2611   2.708   4.940   3.389
  571SOL    HW1 2612   2.670   4.952   3.298
  571SOL    HW2 2613   2.800   4.980   3.393
  572SOL     OW 2614   1.581   5.804   4.712
  572SOL    HW1 2615   1.643   5.882   4.719
  572SOL    HW2 2616   1.603   5.752   4.629
  573SOL     OW 2617   6.514   1.973   5.673
  573SOL    HW1 2618   6.540   1.895   5.730
  573SOL    HW2 2619   6.515   2.056   5.727
  574SOL     OW 2620   3.185   1.278   4.832
  574SOL    HW1 2621   3.277   1.308   4.810
  574SOL    HW2 2622   3.182   1.246   4.927
  575SOL     OW 2623   3.790   3.039   0.831
  575SOL    HW1 2624   3.861   2.995   0.886
  575SOL    HW2 2625   3.833   3.090   0.756
  576SOL     OW 2626   2.159   2.924   2.638
  576SOL    HW1 2627   2.086   2.881   2.585
  576SOL    HW2 2628   2.236   2.861   2.645
  577SOL     OW 2629   0.477   0.716   2.102
  577SOL    HW1 2630   0.393   0.769   2.117
  577SOL    HW2 2631   0.462   0.621   2.131
  578SOL     OW 2632   1.610   5.486   0.233
  578SOL    HW1 2633   1.671   5.538   0.293
  578SOL    HW2 2634   1.515   5.511   0.251
  579SOL     OW 2635   2.331   4.736   2.746
  579SOL    HW1 2636   2.381   4.775   2.668
  579SOL    HW2 2637   2.246   4.695   2.713
  580SOL     OW 2638   4.443   5.100   5.059
  580SOL    HW1 2639   4.452   5.172   4.990
  580SOL    HW2 2640   4.526   5.046   5.062
  581SOL     OW 2641   0.574   3.326   3.921
  581SOL    HW1 2642   0.488   3.366   3.891
  581SOL    HW2 2643   0.623   3.289   3.842
  582SOL     OW 2644   4.747   5.587   3.459
  582SOL    HW1 2645   4.717   5.509   3.404
  582SOL    HW2 2646   4.834   5.565   3.503
  583SOL     OW 2647   3.033   5.120   5.441
  583SOL    HW1 2648   3.015   5.205   5.491
  583SOL    HW2 2649   2.946   5.079   5.412
  584SOL     OW 2650   3.320   0.293   6.307
  584SOL    HW1 2651   3.328   0.194   6.303
  584SOL    HW2 2652   3.403   0.332   6.346
  585SOL     OW 2653   3.708   6.797   1.496
  585SOL    HW1 2654   3.608   6.796   1.497
  585SOL    HW2 2655   3.743   6.707   1.470
  586SOL     OW 2656   4.038   0.232   1.092
  586SOL    HW1 2657   4.121   0.285   1.077
  586SOL    HW2 2658   4.063   0.139   1.121
  587SOL     OW 2659   5.466   1.910   1.829
  587SOL    HW1 2660   5.529   1.866   1.765
  587SOL    HW2 2661   5.508   1.995   1.863
  588SOL     OW 2662   1.687   5.258   0.834
  588SOL    HW1 2663   1.747   5.335   0.856
  588SOL    HW2 2664   1.684   5.196   0.911
  589SOL     OW 2665   3.206   5.706   1.405
  589SOL    HW1 2666   3.301   5.720   1.377
  589SOL    HW2 2667   3.151   5.681   1.326
  590SOL     OW 2668   5.670   1.507   0.473
  590SOL    HW1 2669   5.689   1.597   0.434
  590SOL    HW2 2670   5.745   1.444   0.452
  591SOL     OW 2671   4.403   6.048   4.142
  591SOL    HW1 2672   4.428   6.115   4.072
  591SOL    HW2 2673   4.476   5.980   4.150
  592SOL     OW 2674   4.824   0.756   3.753
  592SOL    HW1 2675   4.816   0.822   3.679
  592SOL    HW2 2676   4.868   0.799   3.832
  593SOL     OW 2677   4.047   2.160   4.728
  593SOL    HW1 2678   4.048   2.146   4.827
  593SOL    HW2 2679   4.141   2.160   4.694
  594SOL     OW 2680   5.992   2.109   1.291
  594SOL    HW1 2681   6.060   2.182   1.300
  594SOL    HW2 2682   5.946   2.116   1.203
  595SOL     OW 2683   5.408   6.814   3.465
  595SOL    HW1 2684   5.464   6.750   3.518
  595SOL    HW2 2685   5.363   6.877   3.528
  596SOL     OW 2686   0.126   4.632   3.478
  596SOL    HW1 2687   0.131   4.534   3.497
  596SOL    HW2 2688   0.206   4.659   3.425
  597SOL     OW 2689   3.452   0.022   5.854
  597SOL    HW1 2690   3.410   0.082   5.923
  597SOL    HW2 2691   3.470   6.954   5.895
  598SOL     OW 2692   2.925   3.735   4.794
  598SOL    HW1 2693   2.976   3.685   4.864
  598SOL    HW2 2694   2.856   3.793   4.839
  599SOL     OW 2695   1.898   6.206   1.965
  599SOL    HW1 2696   1.983   6.241   2.005
  599SOL    HW2 2697   1.865   6.129   2.020
  600SOL     OW 2698   0.143   3.666   5.516
  600SOL    HW1 2699   0.195   3.655   5.601
  600SOL    HW2 2700   0.046   3.676   5.538
  601SOL     OW 2701   1.662   1.064   5.314
  601SOL    HW1 2702   1.737   1.109   5.264
  601SOL    HW2 2703   1.629   1.125   5.385
  602SOL     OW 2704   3.249   6.711   5.369
  602SOL    HW1 2705   3.290   6.800   5.391
  602SOL    HW2 2706   3.152   6.724   5.348
  603SOL     OW 2707   1.655   1.131   5.953
  603SOL    HW1 2708   1.589   1.141   6.027
  603SOL    HW2 2709   1.658   1.216   5.900
  604SOL     OW 2710   0.024   2.319   1.635
  604SOL    HW1 2711   0.099   2.276   1.686
  604SOL    HW2 2712   0.004   2.265   1.553
  605SOL     OW 2713   0.610   4.892   2.420
  605SOL    HW1 2714   0.692   4.842   2.446
  605SOL    HW2 2715   0.559   4.918   2.502
  606SOL     OW 2716   4.808   6.766   5.566
  606SOL    HW1 2717   4.743   6.741   5.495
  606SOL    HW2 2718   4.760   6.807   5.643
  607SOL     OW 2719   0.852   5.314   5.585
  607SOL    HW1 2720   0.859   5.307   5.486
  607SOL    HW2 2721   0.789   5.245   5.620
  608SOL     OW 2722   4.205   0.072   6.390
  608SOL    HW1 2723   4.274   0.018   6.341
  608SOL    HW2 2724   4.114   0.047   6.357
  609SOL     OW 2725   3.886   2.297   1.770
  609SOL    HW1 2726   3.921   2.268   1.859
  609SOL    HW2 2727   3.786   2.301   1.773
  610SOL     OW 2728   4.589   2.355   0.271
  610SOL    HW1 2729   4.547   2.426   0.327
  610SOL    HW2 2730   4.535   2.342   0.188
  611SOL     OW 2731   3.980   6.832   2.437
  611SOL    HW1 2732   3.972   6.897   2.513
  611SOL    HW2 2733   3.896   6.834   2.383
  612SOL     OW 2734   2.906   4.859   5.667
  612SOL    HW1 2735   2.965   4.821   5.738
  612SOL    HW2 2736   2.909   4.801   5.586
  613SOL     OW 2737   5.570   5.462   4.976
  613SOL    HW1 2738   5.580   5.561   4.988
  613SOL    HW2 2739   5.523   5.444   4.890
  614SOL     OW 2740   4.871   5.246   5.225
  614SOL    HW1 2741   4.891   5.331   5.175
  614SOL    HW2 2742   4.822   5.267   5.309
  615SOL     OW 2743   6.929   4.384   0.610
  615SOL    HW1 2744   6.849   4.326   0.622
  615SOL    HW2 2745   6.991   4.371   0.688
  616SOL     OW 2746   6.640   3.302   3.379
  616SOL    HW1 2747   6.624   3.400   3.371
  616SOL    HW2 2748   6.580   3.264   3.449
  617SOL     OW 2749   1.813   5.220   6.614
  617SOL    HW1 2750   1.886   5.264   6.562
  617SOL    HW2 2751   1.741   5.190   6.552
  618SOL     OW 2752   1.672   1.922   1.723
  618SOL    HW1 2753   1.756   1.868   1.721
  618SOL    HW2 2754   1.691   2.014   1.690
  619SOL     OW 2755   1.757   1.868   0.604
  619SOL    HW1 2756   1.674   1.848   0.551
  619SOL    HW2 2757   1.737   1.941   0.671
  620SOL     OW 2758   4.897   1.961   0.347
  620SOL    HW1 2759   4.965   1.960   0.422
  620SOL    HW2 2760   4.843   2.045   0.353
  621SOL     OW 2761   6.281   5.285   6.734
  621SOL    HW1 2762   6.190   5.279   6.777
  621SOL    HW2 2763   6.273   5.326   6.644
  622SOL     OW 2764   1.661   1.201   0.273
  622SOL    HW1 2765   1.726   1.192   0.197
  622SOL    HW2 2766   1.712   1.202   0.359
  623SOL     OW 2767   0.469   5.576   6.016
  623SOL    HW1 2768   0.411   5.500   5.985
  623SOL    HW2 2769   0.439   5.661   5.972
  624SOL     OW 2770   0.619   2.834   2.298
  624SOL    HW1 2771   0.527   2.796   2.294
  624SOL    HW2 2772   0.677   2.774   2.354
  625SOL     OW 2773   3.429   1.469   1.886
  625SOL    HW1 2774   3.349   1.465   1.945
  625SOL    HW2 2775   3.440   1.562   1.852
  626SOL     OW 2776   1.975   5.964   3.536
  626SOL    HW1 2777   1.949   5.870   3.559
  626SOL    HW2 2778   2.048   5.963   3.469
  627SOL     OW 2779   5.396   0.455   0.429
  627SOL    HW1 2780   5.475   0.465   0.369
  627SOL    HW2 2781   5.317   0.501   0.389
  628SOL     OW 2782   4.976   5.468   4.771
  628SOL    HW1 2783   4.959   5.453   4.674
  628SOL    HW2 2784   5.074   5.484   4.786
  629SOL     OW 2785   0.610   0.188   1.379
  629SOL    HW1 2786   0.530   0.146   1.422
  629SOL    HW2 2787   0.588   0.283   1.354
  630SOL     OW 2788   4.737   1.977   2.191
  630SOL    HW1 2789   4.759   1.891   2.238
  630SOL    HW2 2790   4.823   2.022   2.164
  631SOL     OW 2791   3.098   0.593   5.204
  631SOL    HW1 2792   3.182   0.636   5.171
  631SOL    HW2 2793   3.019   0.637   5.160
  632SOL     OW 2794   2.370   0.937   0.291
  632SOL    HW1 2795   2.292   0.882   0.263
  632SOL    HW2 2796   2.349   1.034   0.280
  633SOL     OW 2797   3.222   5.232   0.620
  633SOL    HW1 2798   3.124   5.229   0.600
  633SOL    HW2 2799   3.240   5.184   0.706
  634SOL     OW 2800   4.058   4.945   1.607
  634SOL    HW1 2801   4.048   4.852   1.642
  634SOL    HW2 2802   3.968   4.983   1.586
  635SOL     OW 2803   4.334   6.804   3.615
  635SOL    HW1 2804   4.248   6.840   3.579
  635SOL    HW2 2805   4.318   6.713   3.655
  636SOL     OW 2806   5.020   5.511   6.188
  636SOL    HW1 2807   4.924   5.510   6.217
  636SOL    HW2 2808   5.064   5.426   6.217
  637SOL     OW 2809   5.240   4.964   1.774
  637SOL    HW1 2810   5.167   4.897   1.786
  637SOL    HW2 2811   5.308   4.928   1.710
  638SOL     OW 2812   4.947   1.399   2.409
  638SOL    HW1 2813   4.862   1.359   2.375
  638SOL    HW2 2814   5.025   1.352   2.366
  639SOL     OW 2815   4.678   4.884   2.025
  639SOL    HW1 2816   4.720   4.824   2.092
  639SOL    HW2 2817   4.729   4.970   2.019
  640SOL     OW 2818   2.330   4.210   5.703
  640SOL    HW1 2819   2.326   4.120   5.659
  640SOL    HW2 2820   2.312   4.281   5.634
  641SOL     OW 2821   0.659   5.320   4.103
  641SOL    HW1 2822   0.705   5.394   4.153
  641SOL    HW2 2823   0.708   5.235   4.117
  642SOL     OW 2824   0.286   4.653   4.527
  642SOL    HW1 2825   0.368   4.708   4.542
  642SOL    HW2 2826   0.218   4.707   4.478
  643SOL     OW 2827   5.791   5.819   4.638
  643SOL    HW1 2828   5.749   5.899   4.681
  643SOL    HW2 2829   5.802   5.836   4.540
  644SOL     OW 2830   0.892   6.239   2.922
  644SOL    HW1 2831   0.886   6.140   2.920
  644SOL    HW2 2832   0.837   6.274   2.998
  645SOL     OW 2833   4.709   2.350   4.428
  645SOL    HW1 2834   4.646   2.395   4.491
  645SOL    HW2 2835   4.790   2.408   4.415
  646SOL     OW 2836   1.974   1.705   3.556
  646SOL    HW1 2837   2.034   1.625   3.544
  646SOL    HW2 2838   2.025   1.788   3.534
  647SOL     OW 2839   5.954   2.892   6.586
  647SOL    HW1 2840   6.034   2.901   6.527
  647SOL    HW2 2841   5.923   2.983   6.614
  648SOL     OW 2842   5.907   3.938   2.748
  648SOL    HW1 2843   5.972   3.969   2.679
  648SOL    HW2 2844   5.949   3.946   2.838
  649SOL     OW 2845   3.995   4.062   0.603
  649SOL    HW1 2846   4.047   3.994   0.551
  649SOL    HW2 2847   4.046   4.148   0.606
  650SOL     OW 2848   4.885   4.454   0.538
  650SOL    HW1 2849   4.924   4.509   0.464
  650SOL    HW2 2850   4.868   4.513   0.617
  651SOL     OW 2851   0.514   6.185   0.935
  651SOL    HW1 2852   0.474   6.261   0.883
  651SOL    HW2 2853   0.608   6.169   0.904
  652SOL     OW 2854   4.950   6.761   3.438
  652SOL    HW1 2855   4.877   6.745   3.504
  652SOL    HW2 2856   4.982   6.856   3.445
  653SOL     OW 2857   3.225   5.605   4.995
  653SOL    HW1 2858   3.287   5.562   4.929
  653SOL    HW2 2859   3.147   5.645   4.947
  654SOL     OW 2860   6.975   5.133   6.154
  654SOL    HW1 2861   6.942   5.225   6.132
  654SOL    HW2 2862   6.977   5.077   6.071
  655SOL     OW 2863   0.484   0.072   2.079
  655SOL    HW1 2864   0.539   0.003   2.033
  655SOL    HW2 2865   0.507   0.163   2.043
  656SOL     OW 2866   2.083   6.138   2.377
  656SOL    HW1 2867   2.122   6.045   2.375
  656SOL    HW2 2868   2.081   6.175   2.285
  657SOL     OW 2869   2.097   1.683   1.373
  657SOL    HW1 2870   2.142   1.670   1.284
  657SOL    HW2 2871   2.004   1.716   1.359
  658SOL     OW 2872   3.356   3.700   6.994
  658SOL    HW1 2873   3.309   3.760   6.929
  658SOL    HW2 2874   3.378   3.752   0.056
  659SOL     OW 2875   2.955   6.716   6.422
  659SOL    HW1 2876   2.947   6.769   6.337
  659SOL    HW2 2877   2.865   6.698   6.459
  660SOL     OW 2878   3.801   5.820   1.978
  660SOL    HW1 2879   3.892   5.785   2.003
  660SOL    HW2 2880   3.734   5.747   1.986
  661SOL     OW 2881   4.205   6.281   3.634
  661SOL    HW1 2882   4.164   6.332   3.710
  661SOL    HW2 2883   4.175   6.185   3.639
  662SOL     OW 2884   3.479   0.888   5.059
  662SOL    HW1 2885   3.517   0.950   5.128
  662SOL    HW2 2886   3.435   0.942   4.987
  663SOL     OW 2887   1.876   4.043   4.970
  663SOL    HW1 2888   1.908   3.962   4.921
  663SOL    HW2 2889   1.781   4.061   4.946
  664SOL     OW 2890   0.258   6.614   5.589
  664SOL    HW1 2891   0.329   6.681   5.567
  664SOL    HW2 2892   0.300   6.535   5.634
  665SOL     OW 2893   3.625   5.346   3.903
  665SOL    HW1 2894   3.525   5.343   3.913
  665SOL    HW2 2895   3.668   5.308   3.985
  666SOL     OW 2896   4.286   0.571   1.848
  666SOL    HW1 2897   4.308   0.668   1.840
  666SOL    HW2 2898   4.308   0.540   1.941
  667SOL     OW 2899   0.851   5.080   1.760
  667SOL    HW1 2900   0.772   5.095   1.820
  667SOL    HW2 2901   0.845   5.142   1.681
  668SOL     OW 2902   5.880   5.330   5.937
  668SOL    HW1 2903   5.895   5.250   5.996
  668SOL    HW2 2904   5.855   5.408   5.994
  669SOL     OW 2905   5.657   1.417   3.004
  669SOL    HW1 2906   5.695   1.467   2.927
  669SOL    HW2 2907   5.694   1.455   3.089
  670SOL     OW 2908   2.209   1.605   2.675
  670SOL    HW1 2909   2.149   1.685   2.661
  670SOL    HW2 2910   2.300   1.626   2.641
  671SOL     OW 2911   3.052   6.273   1.540
  671SOL    HW1 2912   3.128   6.253   1.602
  671SOL    HW2 2913   3.064   6.221   1.455
  672SOL     OW 2914   6.895   4.999   2.038
  672SOL    HW1 2915   6.843   4.924   1.998
  672SOL    HW2 2916   6.977   4.963   2.082
  673SOL     OW 2917   5.486   6.869   1.438
  673SOL    HW1 2918   5.392   6.881   1.407
  673SOL    HW2 2919   5.513   6.947   1.494
  674SOL     OW 2920   0.262   2.135   4.913
  674SOL    HW1 2921   0.255   2.235   4.921
  674SOL    HW2 2922   0.337   2.102   4.969
  675SOL     OW 2923   6.100   2.605   2.122
  675SOL    HW1 2924   6.158   2.654   2.186
  675SOL    HW2 2925   6.009   2.647   2.119
  676SOL     OW 2926   2.494   4.778   4.614
  676SOL    HW1 2927   2.579   4.823   4.638
  676SOL    HW2 2928   2.460   4.814   4.527
  677SOL     OW 2929   5.335   0.950   1.511
  677SOL    HW1 2930   5.322   0.912   1.420
  677SOL    HW2 2931   5.315   0.880   1.580
  678SOL     OW 2932   2.501   4.683   4.865
  678SOL    HW1 2933   2.592   4.683   4.907
  678SOL    HW2 2934   2.506   4.723   4.774
  679SOL     OW 2935   5.166   2.110   5.050
  679SOL    HW1 2936   5.181   2.018   5.014
  679SOL    HW2 2937   5.253   2.160   5.049
  680SOL     OW 2938   5.103   6.294   4.583
  680SOL    HW1 2939   5.038   6.319   4.512
  680SOL    HW2 2940   5.147   6.377   4.620
  681SOL     OW 2941   4.652   5.786   2.381
  681SOL    HW1 2942   4.637   5.866   2.323
  681SOL    HW2 2943   4.750   5.772   2.395
  682SOL     OW 2944   6.850   1.426   1.858
  682SOL    HW1 2945   6.793   1.357   1.813
  682SOL    HW2 2946   6.795   1.472   1.929
  683SOL     OW 2947   4.403   3.191   1.300
  683SOL    HW1 2948   4.332   3.137   1.254
  683SOL    HW2 2949   4.415   3.278   1.253
  684SOL     OW 2950   6.274   0.185   6.615
  684SOL    HW1 2951   6.199   0.120   6.617
  684SOL    HW2 2952   6.361   0.137   6.630
  685SOL     OW 2953   3.266   1.761   3.620
  685SOL    HW1 2954   3.214   1.747   3.704
  685SOL    HW2 2955   3.355   1.801   3.641
  686SOL     OW 2956   4.596   1.052   4.036
  686SOL    HW1 2957   4.528   1.122   4.012
  686SOL    HW2 2958   4.686   1.094   4.041
  687SOL     OW 2959   0.900   1.451   4.727
  687SOL    HW1 2960   0.882   1.524   4.662
  687SOL    HW2 2961   0.830   1.450   4.798
  688SOL     OW 2962   6.924   0.800   5.744
  688SOL    HW1 2963   6.997   0.734   5.727
  688SOL    HW2 2964   6.859   0.799   5.667
  689SOL     OW 2965   1.458   4.269   6.230
  689SOL    HW1 2966   1.490   4.180   6.261
  689SOL    HW2 2967   1.460   4.272   6.130
  690SOL     OW 2968   6.838   3.763   3.465
  690SOL    HW1 2969   6.871   3.748   3.372
  690SOL    HW2 2970   6.748   3.720   3.475
  691SOL     OW 2971   4.412   1.440   0.661
  691SOL    HW1 2972   4.437   1.486   0.576
  691SOL    HW2 2973   4.312   1.434   0.667
  692SOL     OW 2974   3.388   1.591   5.199
  692SOL    HW1 2975   3.412   1.628   5.288
  692SOL    HW2 2976   3.348   1.664   5.142
  693SOL     OW 2977   4.883   6.457   3.744
  693SOL    HW1 2978   4.887   6.374   3.798
  693SOL    HW2 2979   4.846   6.436   3.653
  694SOL     OW 2980   4.171   5.895   4.232
  694SOL    HW1 2981   4.244   5.936   4.178
  694SOL    HW2 2982   4.103   5.965   4.255
  695SOL     OW 2983   3.578   5.742   4.778
  695SOL    HW1 2984   3.598   5.663   4.836
  695SOL    HW2 2985   3.584   5.826   4.831
  696SOL     OW 2986   4.866   4.032   3.579
  696SOL    HW1 2987   4.804   4.109   3.586
  696SOL    HW2 2988   4.912   4.018   3.667
  697SOL     OW 2989   1.085   3.355   2.192
  697SOL    HW1 2990   1.103   3.308   2.279
  697SOL    HW2 2991   1.171   3.371   2.144
  698SOL     OW 2992   4.598   6.618   1.805
  698SOL    HW1 2993   4.593   6.687   1.733
  698SOL    HW2 2994   4.594   6.663   1.895
  699SOL     OW 2995   2.163   3.389   6.892
  699SOL    HW1 2996   2.101   3.353   6.823
  699SOL    HW2 2997   2.132   3.360   6.983
  700SOL     OW 2998   2.953   0.085   2.002
  700SOL    HW1 2999   2.943   0.021   1.925
  700SOL    HW2 3000   3.002   0.040   2.076
  701SOL     OW 3001   6.442   4.815   0.969
  701SOL    HW1 3002   6.386   4.898   0.967
  701SOL    HW2 3003   6.501   4.817   1.050
  702SOL     OW 3004   2.393   0.152   4.483
  702SOL    HW1 3005   2.460   0.196   4.543
  702SOL    HW2 3006   2.438   0.078   4.432
  703SOL     OW 3007   3.071   3.466   5.503
  703SOL    HW1 3008   3.006   3.398   5.469
  703SOL    HW2 3009   3.100   3.525   5.428
  704SOL     OW 3010   2.160   2.507   6.077
  704SOL    HW1 3011   2.118   2.568   6.144
  704SOL    HW2 3012   2.239   2.553   6.035
  705SOL     OW 3013   6.872   6.083   3.417
  705SOL    HW1 3014   6.905   6.045   3.504
  705SOL    HW2 3015   6.918   6.038   3.341
  706SOL     OW 3016   4.053   1.697   5.326
  706SOL    HW1 3017   4.114   1.719   5.250
  706SOL    HW2 3018   3.996   1.777   5.347
  707SOL     OW 3019   4.009   5.585   3.330
  707SOL    HW1 3020   3.997   5.503   3.385
  707SOL    HW2 3021   3.971   5.570   3.238
  708SOL     OW 3022   2.406   1.511   3.708
  708SOL    HW1 3023   2.429   1.470   3.620
  708SOL    HW2 3024   2.489   1.520   3.763
  709SOL     OW 3025   1.634   6.907   1.659
  709SOL    HW1 3026   1.594   6.818   1.637
  709SOL    HW2 3027   1.733   6.897   1.669
  710SOL     OW 3028   4.932   2.426   1.943
  710SOL    HW1 3029   4.860   2.356   1.939
  710SOL    HW2 3030   4.923   2.477   2.029
  711SOL     OW 3031   6.951   3.123   6.170
  711SOL    HW1 3032   6.971   3.205   6.117
  711SOL    HW2 3033   0.004   3.106   6.234
  712SOL     OW 3034   4.963   2.573   1.087
  712SOL    HW1 3035   4.890   2.624   1.041
  712SOL    HW2 3036   4.939   2.559   1.183
  713SOL     OW 3037   4.341   2.727   5.329
  713SOL    HW1 3038   4.369   2.678   5.412
  713SOL    HW2 3039   4.273   2.673   5.280
  714SOL     OW 3040   6.024   5.212   3.765
  714SOL    HW1 3041   6.072   5.290   3.726
  714SOL    HW2 3042   6.038   5.132   3.706
  715SOL     OW 3043   6.475   4.737   5.407
  715SOL    HW1 3044   6.480   4.702   5.500
  715SOL    HW2 3045   6.441   4.831   5.408
  716SOL     OW 3046   1.872   1.156   3.197
  716SOL    HW1 3047   1.968   1.129   3.191
  716SOL    HW2 3048   1.814   1.076   3.179
  717SOL     OW 3049   6.102   4.741   4.056
  717SOL    HW1 3050   6.194   4.704   4.048
  717SOL    HW2 3051   6.066   4.722   4.148
  718SOL     OW 3052   5.062   3.141   4.689
  718SOL    HW1 3053   5.074   3.213   4.622
  718SOL    HW2 3054   4.971   3.099   4.678
  719SOL     OW 3055   6.151   0.163   2.177
  719SOL    HW1 3056   6.135   0.203   2.267
  719SOL    HW2 3057   6.250   0.150   2.165
  720SOL     OW 3058   2.713   0.326   5.754
  720SOL    HW1 3059   2.621   0.312   5.789
  720SOL    HW2 3060   2.770   0.247   5.778
  721SOL     OW 3061   0.665   1.464   2.124
  721SOL    HW1 3062   0.692   1.439   2.031
  721SOL    HW2 3063   0.723   1.416   2.189
  722SOL     OW 3064   3.758   1.066   6.654
  722SOL    HW1 3065   3.793   0.987   6.606
  722SOL    HW2 3066   3.832   1.132   6.668
  723SOL     OW 3067   1.735   6.457   3.570
  723SOL    HW1 3068   1.778   6.469   3.480
  723SOL    HW2 3069   1.783   6.513   3.637
  724SOL     OW 3070   6.801   0.801   3.619
  724SOL    HW1 3071   6.845   0.889   3.606
  724SOL    HW2 3072   6.864   0.738   3.664
  725SOL     OW 3073   1.775   4.611   1.998
  725SOL    HW1 3074   1.716   4.686   2.029
  725SOL    HW2 3075   1.766   4.599   1.899
  726SOL     OW 3076   2.672   5.442   1.138
  726SOL    HW1 3077   2.680   5.354   1.183
  726SOL    HW2 3078   2.652   5.513   1.206
  727SOL     OW 3079   4.670   5.212   5.991
  727SOL    HW1 3080   4.752   5.201   5.935
  727SOL    HW2 3081   4.594   5.243   5.934
  728SOL     OW 3082   0.054   3.181   4.736
  728SOL    HW1 3083   0.058   3.141   4.827
  728SOL    HW2 3084   0.009   3.270   4.741
  729SOL     OW 3085   0.729   2.928   1.214
  729SOL    HW1 3086   0.653   2.937   1.150
  729SOL    HW2 3087   0.693   2.916   1.307
  730SOL     OW 3088   5.530   0.691   3.115
  730SOL    HW1 3089   5.543   0.773   3.058
  730SOL    HW2 3090   5.478   0.715   3.197
  731SOL     OW 3091   4.881   4.544   6.417
  731SOL    HW1 3092   4.818   4.544   6.494
  731SOL    HW2 3093   4.939   4.463   6.420
  732SOL     OW 3094   5.157   1.953   2.291
  732SOL    HW1 3095   5.242   1.956   2.343
  732SOL    HW2 3096   5.113   2.043   2.292
  733SOL     OW 3097   5.859   0.447   4.320
  733SOL    HW1 3098   5.914   0.528   4.337
  733SOL    HW2 3099   5.762   0.472   4.323
  734SOL     OW 3100   6.285   4.455   2.666
  734SOL    HW1 3101   6.252   4.501   2.749
  734SOL    HW2 3102   6.342   4.518   2.614
  735SOL     OW 3103   5.499   0.612   1.931
  735SOL    HW1 3104   5.524   0.593   1.836
  735SOL    HW2 3105   5.515   0.531   1.987
  736SOL     OW 3106   1.300   1.429   3.723
  736SOL    HW1 3107   1.273   1.339   3.757
  736SOL    HW2 3108   1.384   1.420   3.669
  737SOL     OW 3109   5.897   2.118   5.606
  737SOL    HW1 3110   5.965   2.046   5.623
  737SOL    HW2 3111   5.847   2.097   5.523
  738SOL     OW 3112   2.727   3.914   1.291
  738SOL    HW1 3113   2.822   3.905   1.320
  738SOL    HW2 3114   2.679   3.977   1.352
  739SOL     OW 3115   3.705   0.059   5.335
  739SOL    HW1 3116   3.696   0.102   5.245
  739SOL    HW2 3117   3.784   7.019   5.335
  740SOL     OW 3118   6.039   2.006   2.602
  740SOL    HW1 3119   6.012   1.917   2.566
  740SOL    HW2 3120   6.051   2.000   2.702
  741SOL     OW 3121   1.791   1.165   4.878
  741SOL    HW1 3122   1.825   1.226   4.806
  741SOL    HW2 3123   1.851   1.086   4.886
  742SOL     OW 3124   2.441   5.733   1.562
  742SOL    HW1 3125   2.467   5.814   1.614
  742SOL    HW2 3126   2.397   5.667   1.623
  743SOL     OW 3127   0.479   6.563   3.193
  743SOL    HW1 3128   0.382   6.588   3.190
  743SOL    HW2 3129   0.493   6.490   3.261
  744SOL     OW 3130   6.683   0.741   0.483
  744SOL    HW1 3131   6.626   0.823   0.480
  744SOL    HW2 3132   6.715   0.725   0.576
  745SOL     OW 3133   1.999   6.387   5.300
  745SOL    HW1 3134   1.954   6.379   5.211
  745SOL    HW2 3135   2.090   6.426   5.288
  746SOL     OW 3136   5.723   4.079   5.142
  746SOL    HW1 3137   5.760   4.027   5.065
  746SOL    HW2 3138   5.736   4.177   5.126
  747SOL     OW 3139   5.200   5.443   4.098
  747SOL    HW1 3140   5.298   5.449   4.079
  747SOL    HW2 3141   5.159   5.534   4.093
  748SOL     OW 3142   5.239   4.954   2.535
  748SOL    HW1 3143   5.213   5.051   2.530
  748SOL    HW2 3144   5.259   4.921   2.443
  749SOL     OW 3145   5.334   3.296   3.366
  749SOL    HW1 3146   5.395   3.219   3.348
  749SOL    HW2 3147   5.387   3.379   3.382
  750SOL     OW 3148   3.441   1.032   1.440
  750SOL    HW1 3149   3.488   1.112   1.403
  750SOL    HW2 3150   3.453   0.955   1.376
  751SOL     OW 3151   5.108   2.131   0.916
  751SOL    HW1 3152   5.056   2.213   0.891
  751SOL    HW2 3153   5.135   2.138   1.013
  752SOL     OW 3154   3.780   2.410   5.979
  752SOL    HW1 3155   3.705   2.440   5.920
  752SOL    HW2 3156   3.762   2.317   6.012
  753SOL     OW 3157   2.762   3.448   5.281
  753SOL    HW1 3158   2.787   3.536   5.241
  753SOL    HW2 3159   2.665   3.448   5.305
  754SOL     OW 3160   5.179   0.990   0.062
  754SOL    HW1 3161   5.276   0.966   0.058
  754SOL    HW2 3162   5.136   0.973   6.994
  755SOL     OW 3163   3.093   4.471   5.350
  755SOL    HW1 3164   3.095   4.525   5.433
  755SOL    HW2 3165   3.036   4.516   5.282
  756SOL     OW 3166   3.407   5.088   0.031
  756SOL    HW1 3167   3.460   5.044   0.104
  756SOL    HW2 3168   3.326   5.131   0.071
  757SOL     OW 3169   2.011   6.913   2.526
  757SOL    HW1 3170   2.052   6.994   2.483
  757SOL    HW2 3171   1.967   6.940   2.611
  758SOL     OW 3172   3.462   1.160   3.717
  758SOL    HW1 3173   3.362   1.173   3.716
  758SOL    HW2 3174   3.503   1.225   3.782
  759SOL     OW 3175   0.426   2.037   3.189
  759SOL    HW1 3176   0.470   2.125   3.208
  759SOL    HW2 3177   0.390   1.999   3.274
  760SOL     OW 3178   6.357   6.642   3.698
  760SOL    HW1 3179   6.455   6.645   3.680
  760SOL    HW2 3180   6.339   6.671   3.792
  761SOL     OW 3181   5.521   4.758   5.348
  761SOL    HW1 3182   5.487   4.713   5.265
  761SOL    HW2 3183   5.618   4.738   5.359
  762SOL     OW 3184   2.871   6.520   5.700
  762SOL    HW1 3185   2.827   6.574   5.628
  762SOL    HW2 3186   2.826   6.539   5.787
  763SOL     OW 3187   5.336   0.242   6.439
  763SOL    HW1 3188   5.303   0.148   6.442
  763SOL    HW2 3189   5.260   0.305   6.455
  764SOL     OW 3190   5.859   1.321   5.374
  764SOL    HW1 3191   5.795   1.271   5.316
  764SOL    HW2 3192   5.925   1.258   5.413
  765SOL     OW 3193   1.345   6.697   0.482
  765SOL    HW1 3194   1.323   6.606   0.448
  765SOL    HW2 3195   1.439   6.720   0.458
  766SOL     OW 3196   2.543   2.185   5.324
  766SOL    HW1 3197   2.628   2.235   5.341
  766SOL    HW2 3198   2.519   2.131   5.404
  767SOL     OW 3199   6.643   6.662   3.649
  767SOL    HW1 3200   6.646   6.761   3.635
  767SOL    HW2 3201   6.737   6.628   3.661
  768SOL     OW 3202   2.204   6.755   3.073
  768SOL    HW1 3203   2.195   6.848   3.109
  768SOL    HW2 3204   2.174   6.753   2.978
  769SOL     OW 3205   4.120   1.435   5.202
  769SOL    HW1 3206   4.195   1.383   5.244
  769SOL    HW2 3207   4.098   1.514   5.258
  770SOL     OW 3208   1.767   4.606   4.650
  770SOL    HW1 3209   1.795   4.650   4.565
  770SOL    HW2 3210   1.708   4.668   4.703
  771SOL     OW 3211   0.772   5.979   3.199
  771SOL    HW1 3212   0.791   6.010   3.105
  771SOL    HW2 3213   0.779   6.057   3.261
  772SOL     OW 3214   5.652   5.002   6.685
  772SOL    HW1 3215   5.633   4.938   6.759
  772SOL    HW2 3216   5.586   4.987   6.611
  773SOL     OW 3217   1.370   3.605   2.897
  773SOL    HW1 3218   1.292   3.544   2.882
  773SOL    HW2 3219   1.444   3.581   2.835
  774SOL     OW 3220   2.188   1.776   3.295
  774SOL    HW1 3221   2.208   1.811   3.386
  774SOL    HW2 3222   2.247   1.822   3.228
  775SOL     OW 3223   1.893   3.063   4.168
  775SOL    HW1 3224   1.965   3.114   4.122
  775SOL    HW2 3225   1.804   3.097   4.138
  776SOL     OW 3226   6.976   6.295   6.114
  776SOL    HW1 3227   0.029   6.235   6.084
  776SOL    HW2 3228   6.931   6.255   6.194
  777SOL     OW 3229   1.545   3.400   0.586
  777SOL    HW1 3230   1.518   3.488   0.624
  777SOL    HW2 3231   1.614   3.357   0.645
  778SOL     OW 3232   2.691   6.942   1.749
  778SOL    HW1 3233   2.775   6.992   1.729
  778SOL    HW2 3234   2.634   6.995   1.811
  779SOL     OW 3235   0.289   2.704   1.726
  779SOL    HW1 3236   0.298   2.767   1.804
  779SOL    HW2 3237   0.232   2.746   1.656
  780SOL     OW 3238   1.100   2.562   4.202
  780SOL    HW1 3239   1.015   2.509   4.200
  780SOL    HW2 3240   1.157   2.532   4.278
  781SOL     OW 3241   6.730   4.978   6.789
  781SOL    HW1 3242   6.700   5.009   6.879
  781SOL    HW2 3243   6.765   5.056   6.737
  782SOL     OW 3244   2.230   4.392   5.504
  782SOL    HW1 3245   2.229   4.318   5.436
  782SOL    HW2 3246   2.138   4.430   5.512
  783SOL     OW 3247   5.749   5.528   6.562
  783SOL    HW1 3248   5.693   5.450   6.590
  783SOL    HW2 3249   5.695   5.591   6.506
  784SOL     OW 3250   2.477   5.861   2.334
  784SOL    HW1 3251   2.527   5.797   2.275
  784SOL    HW2 3252   2.538   5.934   2.364
  785SOL     OW 3253   0.344   0.358   3.784
  785SOL    HW1 3254   0.392   0.442   3.810
  785SOL    HW2 3255   0.336   0.355   3.684
  786SOL     OW 3256   6.186   0.492   3.406
  786SOL    HW1 3257   6.108   0.486   3.344
  786SOL    HW2 3258   6.221   0.400   3.425
  787SOL     OW 3259   2.328   0.578   0.117
  787SOL    HW1 3260   2.360   0.571   0.212
  787SOL    HW2 3261   2.405   0.597   0.057
  788SOL     OW 3262   3.683   2.805   1.519
  788SOL    HW1 3263   3.750   2.782   1.590
  788SOL    HW2 3264   3.605   2.852   1.560
  789SOL     OW 3265   4.474   5.642   1.781
  789SOL    HW1 3266   4.562   5.681   1.810
  789SOL    HW2 3267   4.401   5.706   1.803
  790SOL     OW 3268   1.106   2.120   1.771
  790SOL    HW1 3269   1.032   2.176   1.734
  790SOL    HW2 3270   1.185   2.124   1.710
  791SOL     OW 3271   2.727   6.115   5.675
  791SOL    HW1 3272   2.799   6.057   5.635
  791SOL    HW2 3273   2.716   6.197   5.620
  792SOL     OW 3274   0.424   1.653   0.993
  792SOL    HW1 3275   0.354   1.724   1.005
  792SOL    HW2 3276   0.515   1.693   1.009
  793SOL     OW 3277   4.958   5.909   4.506
  793SOL    HW1 3278   4.910   5.990   4.541
  793SOL    HW2 3279   4.897   5.830   4.511
  794SOL     OW 3280   3.538   3.340   4.602
  794SOL    HW1 3281   3.637   3.322   4.600
  794SOL    HW2 3282   3.519   3.423   4.551
  795SOL     OW 3283   3.745   0.492   5.589
  795SOL    HW1 3284   3.758   0.589   5.568
  795SOL    HW2 3285   3.805   0.437   5.530
  796SOL     OW 3286   1.718   2.706   6.585
  796SOL    HW1 3287   1.707   2.720   6.487
  796SOL    HW2 3288   1.795   2.760   6.618
  797SOL     OW 3289   4.140   0.155   0.707
  797SOL    HW1 3290   4.092   0.080   0.752
  797SOL    HW2 3291   4.085   0.189   0.631
  798SOL     OW 3292   2.757   6.343   1.519
  798SOL    HW1 3293   2.843   6.298   1.541
  798SOL    HW2 3294   2.775   6.425   1.464
  799SOL     OW 3295   0.005   2.272   6.336
  799SOL    HW1 3296   0.080   2.332   6.366
  799SOL    HW2 3297   6.975   2.239   6.415
  800SOL     OW 3298   6.494   1.112   2.018
  800SOL    HW1 3299   6.488   1.072   1.927
  800SOL    HW2 3300   6.523   1.208   2.011
  801SOL     OW 3301   2.232   5.186   5.563
  801SOL    HW1 3302   2.277   5.097   5.557
  801SOL    HW2 3303   2.234   5.230   5.473
  802SOL     OW 3304   4.595   2.341   6.180
  802SOL    HW1 3305   4.592   2.254   6.130
  802SOL    HW2 3306   4.573   2.416   6.117
  803SOL     OW 3307   2.636   6.987   5.951
  803SOL    HW1 3308   2.579   0.038   5.911
  803SOL    HW2 3309   2.615   6.900   5.906
  804SOL     OW 3310   6.160   6.814   1.200
  804SOL    HW1 3311   6.077   6.804   1.146
  804SOL    HW2 3312   6.139   6.806   1.297
  805SOL     OW 3313   2.307   0.253   3.887
  805SOL    HW1 3314   2.331   0.306   3.968
  805SOL    HW2 3315   2.390   0.214   3.847
  806SOL     OW 3316   0.196   0.357   5.885
  806SOL    HW1 3317   0.198   0.258   5.871
  806SOL    HW2 3318   0.246   0.402   5.810
  807SOL     OW 3319   0.703   6.688   4.340
  807SOL    HW1 3320   0.660   6.720   4.256
  807SOL    HW2 3321   0.657   6.606   4.373
  808SOL     OW 3322   5.963   2.802   0.543
  808SOL    HW1 3323   5.918   2.743   0.476
  808SOL    HW2 3324   5.903   2.815   0.622
  809SOL     OW 3325   0.179   5.543   6.825
  809SOL    HW1 3326   0.090   5.522   6.865
  809SOL    HW2 3327   0.231   5.459   6.812
  810SOL     OW 3328   2.690   3.422   0.804
  810SOL    HW1 3329   2.757   3.491   0.831
  810SOL    HW2 3330   2.674   3.427   0.706
  811SOL     OW 3331   5.653   5.117   4.750
  811SOL    HW1 3332   5.698   5.058   4.817
  811SOL    HW2 3333   5.697   5.106   4.661
  812SOL     OW 3334   0.529   2.069   2.366
  812SOL    HW1 3335   0.523   1.974   2.333
  812SOL    HW2 3336   0.454   2.122   2.328
  813SOL     OW 3337   2.440   0.631   3.997
  813SOL    HW1 3338   2.414   0.547   4.043
  813SOL    HW2 3339   2.421   0.709   4.057
  814SOL     OW 3340   6.633   5.675   2.217
  814SOL    HW1 3341   6.673   5.624   2.293
  814SOL    HW2 3342   6.547   5.717   2.247
  815SOL     OW 3343   4.715   2.767   3.567
  815SOL    HW1 3344   4.731   2.848   3.623
  815SOL    HW2 3345   4.783   2.697   3.589
  816SOL     OW 3346   5.270   3.997   0.518
  816SOL    HW1 3347   5.288   4.001   0.616
  816SOL    HW2 3348   5.338   4.050   0.469
  817SOL     OW 3349   1.388   5.382   1.003
  817SOL    HW1 3350   1.463   5.330   0.963
  817SOL    HW2 3351   1.302   5.354   0.960
  818SOL     OW 3352   5.424   2.691   3.575
  818SOL    HW1 3353   5.406   2.672   3.478
  818SOL    HW2 3354   5.412   2.789   3.591
  819SOL     OW 3355   5.781   2.678   1.195
  819SOL    HW1 3356   5.815   2.717   1.281
  819SOL    HW2 3357   5.753   2.584   1.210
  820SOL     OW 3358   2.712   2.098   4.623
  820SOL    HW1 3359   2.774   2.129   4.551
  820SOL    HW2 3360   2.657   2.175   4.655
  821SOL     OW 3361   5.961   4.941   4.409
  821SOL    HW1 3362   5.988   5.010   4.341
  821SOL    HW2 3363   5.877   4.972   4.455
  822SOL     OW 3364   0.312   4.532   3.139
  822SOL    HW1 3365   0.301   4.441   3.178
  822SOL    HW2 3366   0.223   4.577   3.135
  823SOL     OW 3367   0.397   4.096   5.700
  823SOL    HW1 3368   0.471   4.031   5.683
  823SOL    HW2 3369   0.404   4.172   5.636
  824SOL     OW 3370   5.475   1.465   5.313
  824SOL    HW1 3371   5.497   1.435   5.406
  824SOL    HW2 3372   5.459   1.385   5.255
  825SOL     OW 3373   6.398   6.093   0.851
  825SOL    HW1 3374   6.362   6.180   0.817
  825SOL    HW2 3375   6.495   6.103   0.872
  826SOL     OW 3376   3.733   2.177   6.120
  826SOL    HW1 3377   3.641   2.139   6.126
  826SOL    HW2 3378   3.799   2.103   6.105
  827SOL     OW 3379   3.124   4.137   5.070
  827SOL    HW1 3380   3.054   4.159   5.003
  827SOL    HW2 3381   3.160   4.045   5.053
  828SOL     OW 3382   6.141   5.476   4.696
  828SOL    HW1 3383   6.235   5.451   4.669
  828SOL    HW2 3384   6.120   5.434   4.784
  829SOL     OW 3385   3.799   2.913   2.288
  829SOL    HW1 3386   3.725   2.851   2.315
  829SOL    HW2 3387   3.819   2.901   2.191
  830SOL     OW 3388   5.871   4.863   6.592
  830SOL    HW1 3389   5.790   4.894   6.641
  830SOL    HW2 3390   5.919   4.795   6.647
  831SOL     OW 3391   5.457   6.592   1.609
  831SOL    HW1 3392   5.362   6.612   1.584
  831SOL    HW2 3393   5.506   6.559   1.528
  832SOL     OW 3394   4.194   1.574   4.223
  832SOL    HW1 3395   4.163   1.534   4.136
  832SOL    HW2 3396   4.294   1.569   4.228
  833SOL     OW 3397   1.098   3.741   6.674
  833SOL    HW1 3398   1.070   3.674   6.604
  833SOL    HW2 3399   1.175   3.794   6.641
  834SOL     OW 3400   4.662   3.567   6.594
  834SOL    HW1 3401   4.685   3.508   6.517
  834SOL    HW2 3402   4.564   3.588   6.591
  835SOL     OW 3403   2.153   0.940   5.003
  835SOL    HW1 3404   2.142   0.859   5.060
  835SOL    HW2 3405   2.169   1.020   5.060
  836SOL     OW 3406   3.080   1.649   5.807
  836SOL    HW1 3407   3.177   1.628   5.812
  836SOL    HW2 3408   3.056   1.681   5.715
  837SOL     OW 3409   1.437   0.147   1.467
  837SOL    HW1 3410   1.412   0.082   1.396
  837SOL    HW2 3411   1.533   0.135   1.491
  838SOL     OW 3412   1.749   5.991   4.315
  838SOL    HW1 3413   1.798   6.072   4.283
  838SOL    HW2 3414   1.812   5.914   4.320
  839SOL     OW 3415   2.564   1.400   1.642
  839SOL    HW1 3416   2.637   1.335   1.619
  839SOL    HW2 3417   2.508   1.416   1.561
  840SOL     OW 3418   5.945   5.677   0.176
  840SOL    HW1 3419   5.931   5.776   0.174
  840SOL    HW2 3420   5.936   5.645   0.270
  841SOL     OW 3421   4.221   5.518   5.930
  841SOL    HW1 3422   4.286   5.557   5.864
  841SOL    HW2 3423   4.196   5.426   5.901
  842SOL     OW 3424   3.411   6.788   0.028
  842SOL    HW1 3425   3.427   6.883   0.053
  842SOL    HW2 3426   3.462   6.727   0.089
  843SOL     OW 3427   2.341   2.024   1.835
  843SOL    HW1 3428   2.290   1.948   1.873
  843SOL    HW2 3429   2.292   2.110   1.852
  844SOL     OW 3430   0.446   6.397   1.243
  844SOL    HW1 3431   0.542   6.399   1.218
  844SOL    HW2 3432   0.410   6.490   1.245
  845SOL     OW 3433   4.296   2.193   3.214
  845SOL    HW1 3434   4.200   2.165   3.207
  845SOL    HW2 3435   4.313   2.271   3.154
  846SOL     OW 3436   2.940   1.414   5.803
  846SOL    HW1 3437   2.850   1.451   5.780
  846SOL    HW2 3438   3.011   1.472   5.763
  847SOL     OW 3439   2.206   3.124   1.641
  847SOL    HW1 3440   2.305   3.138   1.638
  847SOL    HW2 3441   2.161   3.208   1.672
  848SOL     OW 3442   6.500   6.556   5.967
  848SOL    HW1 3443   6.443   6.476   5.982
  848SOL    HW2 3444   6.563   6.568   6.044
  849SOL     OW 3445   6.082   3.393   0.183
  849SOL    HW1 3446   6.086   3.478   0.235
  849SOL    HW2 3447   6.057   3.317   0.243
  850SOL     OW 3448   0.085   0.579   4.719
  850SOL    HW1 3449   0.002   0.578   4.775
  850SOL    HW2 3450   0.121   0.672   4.713
  851SOL     OW 3451   6.692   3.372   6.755
  851SOL    HW1 3452   6.770   3.403   6.701
  851SOL    HW2 3453   6.700   3.274   6.772
  852SOL     OW 3454   0.189   4.660   0.866
  852SOL    HW1 3455   0.099   4.675   0.824
  852SOL    HW2 3456   0.221   4.568   0.846
  853SOL     OW 3457   2.414   4.133   6.541
  853SOL    HW1 3458   2.358   4.051   6.524
  853SOL    HW2 3459   2.503   4.122   6.498
  854SOL     OW 3460   5.846   6.530   6.948
  854SOL    HW1 3461   5.930   6.571   6.984
  854SOL    HW2 3462   5.786   6.603   6.913
  855SOL     OW 3463   6.849   0.547   0.147
  855SOL    HW1 3464   6.911   0.494   0.205
  855SOL    HW2 3465   6.759   0.552   0.191
  856SOL     OW 3466   1.322   6.795   6.143
  856SOL    HW1 3467   1.287   6.833   6.057
  856SOL    HW2 3468   1.292   6.700   6.151
  857SOL     OW 3469   0.013   4.701   2.781
  857SOL    HW1 3470   7.009   4.628   2.716
  857SOL    HW2 3471   6.977   4.781   2.763
  858SOL     OW 3472   2.928   3.725   1.220
  858SOL    HW1 3473   2.860   3.783   1.175
  858SOL    HW2 3474   2.890   3.633   1.232
  859SOL     OW 3475   4.652   6.235   5.432
  859SOL    HW1 3476   4.583   6.306   5.421
  859SOL    HW2 3477   4.707   6.255   5.513
  860SOL     OW 3478   5.475   3.077   6.479
  860SOL    HW1 3479   5.504   2.987   6.510
  860SOL    HW2 3480   5.382   3.096   6.511
  861SOL     OW 3481   1.712   5.520   2.978
  861SOL    HW1 3482   1.666   5.596   2.932
  861SOL    HW2 3483   1.811   5.533   2.972
  862SOL     OW 3484   1.873   4.993   3.759
  862SOL    HW1 3485   1.824   4.984   3.845
  862SOL    HW2 3486   1.960   5.041   3.775
  863SOL     OW 3487   6.314   0.800   5.918
  863SOL    HW1 3488   6.361   0.875   5.873
  863SOL    HW2 3489   6.227   0.833   5.955
  864SOL     OW 3490   4.888   0.379   5.294
  864SOL    HW1 3491   4.959   0.316   5.261
  864SOL    HW2 3492   4.926   0.471   5.301
  865SOL     OW 3493   1.897   0.033   5.535
  865SOL    HW1 3494   1.893   0.017   5.634
  865SOL    HW2 3495   1.881   0.129   5.516
  866SOL     OW 3496   3.579   6.486   0.937
  866SOL    HW1 3497   3.555   6.563   0.878
  866SOL    HW2 3498   3.546   6.401   0.896
  867SOL     OW 3499   5.751   2.880   0.715
  867SOL    HW1 3500   5.729   2.899   0.619
  867SOL    HW2 3501   5.690   2.933   0.774
  868SOL     OW 3502   0.260   2.328   2.389
  868SOL    HW1 3503   0.180   2.331   2.449
  868SOL    HW2 3504   0.319   2.407   2.408
  869SOL     OW 3505   6.987   3.580   4.046
  869SOL    HW1 3506   0.032   3.563   4.119
  869SOL    HW2 3507   7.018   3.656   3.990
  870SOL     OW 3508   3.900   4.705   0.992
  870SOL    HW1 3509   3.933   4.769   1.062
  870SOL    HW2 3510   3.810   4.670   1.018
  871SOL     OW 3511   5.046   2.069   3.945
  871SOL    HW1 3512   5.113   2.134   3.909
  871SOL    HW2 3513   5.044   2.075   4.045
  872SOL     OW 3514   0.153   1.794   4.389
  872SOL    HW1 3515   0.086   1.816   4.317
  872SOL    HW2 3516   0.118   1.717   4.443
  873SOL     OW 3517   4.460   6.566   5.517
  873SOL    HW1 3518   4.420   6.510   5.445
  873SOL    HW2 3519   4.536   6.619   5.480
  874SOL     OW 3520   6.061   4.189   6.643
  874SOL    HW1 3521   6.014   4.277   6.657
  874SOL    HW2 3522   6.085   4.150   6.732
  875SOL     OW 3523   5.453   6.008   0.775
  875SOL    HW1 3524   5.367   5.976   0.815
  875SOL    HW2 3525   5.520   6.022   0.849
  876SOL     OW 3526   0.606   5.190   1.868
  876SOL    HW1 3527   0.520   5.140   1.855
  876SOL    HW2 3528   0.592   5.262   1.935
  877SOL     OW 3529   3.153   4.218   6.344
  877SOL    HW1 3530   3.198   4.129   6.332
  877SOL    HW2 3531   3.075   4.208   6.405
  878SOL     OW 3532   4.507   6.865   3.947
  878SOL    HW1 3533   4.496   6.824   4.037
  878SOL    HW2 3534   4.516   6.793   3.878
  879SOL     OW 3535   3.670   0.565   1.426
  879SOL    HW1 3536   3.738   0.531   1.361
  879SOL    HW2 3537   3.634   0.653   1.394
  880SOL     OW 3538   4.096   3.639   3.962
  880SOL    HW1 3539   4.002   3.608   3.968
  880SOL    HW2 3540   4.117   3.664   3.867
  881SOL     OW 3541   4.854   3.362   4.839
  881SOL    HW1 3542   4.845   3.450   4.886
  881SOL    HW2 3543   4.872   3.377   4.742
  882SOL     OW 3544   0.982   3.087   3.992
  882SOL    HW1 3545   1.055   3.136   3.946
  882SOL    HW2 3546   1.003   2.989   3.994
  883SOL     OW 3547   3.502   0.857   1.902
  883SOL    HW1 3548   3.440   0.780   1.888
  883SOL    HW2 3549   3.582   0.827   1.954
  884SOL     OW 3550   5.378   3.454   6.283
  884SOL    HW1 3551   5.440   3.530   6.265
  884SOL    HW2 3552   5.354   3.453   6.381
  885SOL     OW 3553   3.625   1.352   4.979
  885SOL    HW1 3554   3.691   1.277   4.972
  885SOL    HW2 3555   3.670   1.433   5.015
  886SOL     OW 3556   3.659   0.259   0.386
  886SOL    HW1 3557   3.573   0.308   0.403
  886SOL    HW2 3558   3.733   0.302   0.436
  887SOL     OW 3559   3.819   0.007   4.163
  887SOL    HW1 3560   3.821   6.964   4.240
  887SOL    HW2 3561   3.761   0.085   4.185
  888SOL     OW 3562   0.095   6.204   2.937
  888SOL    HW1 3563   0.131   6.211   3.030
  888SOL    HW2 3564   0.037   6.283   2.918
  889SOL     OW 3565   0.137   3.825   0.605
  889SOL    HW1 3566   0.043   3.819   0.570
  889SOL    HW2 3567   0.134   3.862   0.698
  890SOL     OW 3568   1.527   5.749   3.141
  890SOL    HW1 3569   1.546   5.654   3.166
  890SOL    HW2 3570   1.569   5.769   3.052
  891SOL     OW 3571   5.474   5.419   0.466
  891SOL    HW1 3572   5.411   5.384   0.535
  891SOL    HW2 3573   5.423   5.452   0.387
  892SOL     OW 3574   2.296   3.779   5.339
  892SOL    HW1 3575   2.344   3.853   5.292
  892SOL    HW2 3576   2.360   3.729   5.397
  893SOL     OW 3577   1.906   6.646   2.497
  893SOL    HW1 3578   2.005   6.650   2.512
  893SOL    HW2 3579   1.866   6.736   2.514
  894SOL     OW 3580   1.043   3.092   1.795
  894SOL    HW1 3581   1.129   3.073   1.843
  894SOL    HW2 3582   0.997   3.006   1.773
  895SOL     OW 3583   0.376   4.559   3.838
  895SOL    HW1 3584   0.437   4.525   3.910
  895SOL    HW2 3585   0.295   4.500   3.832
  896SOL     OW 3586   5.395   4.833   0.562
  896SOL    HW1 3587   5.357   4.790   0.481
  896SOL    HW2 3588   5.491   4.806   0.572
  897SOL     OW 3589   4.195   1.667   0.108
  897SOL    HW1 3590   4.274   1.684   0.168
  897SOL    HW2 3591   4.159   1.575   0.124
  898SOL     OW 3592   3.061   6.260   2.737
  898SOL    HW1 3593   2.994   6.192   2.767
  898SOL    HW2 3594   3.065   6.334   2.804
  899SOL     OW 3595   0.273   6.303   6.427
  899SOL    HW1 3596   0.316   6.250   6.501
  899SOL    HW2 3597   0.296   6.263   6.339
  900SOL     OW 3598   5.840   6.759   0.667
  900SOL    HW1 3599   5.863   6.840   0.721
  900SOL    HW2 3600   5.890   6.680   0.703
  901SOL     OW 3601   2.233   6.758   3.431
  901SOL    HW1 3602   2.260   6.782   3.337
  901SOL    HW2 3603   2.136   6.780   3.444
  902SOL     OW 3604   0.642   2.582   0.524
  902SOL    HW1 3605   0.687   2.661   0.481
  902SOL    HW2 3606   0.543   2.595   0.523
  903SOL     OW 3607   0.010   2.693   6.921
  903SOL    HW1 3608   0.085   2.759   6.920
  903SOL    HW2 3609   6.945   2.740   6.940
  904SOL     OW 3610   2.692   2.258   2.734
  904SOL    HW1 3611   2.658   2.292   2.646
  904SOL    HW2 3612   2.788   2.230   2.724
  905SOL     OW 3613   5.384   1.621   6.629
  905SOL    HW1 3614   5.316   1.630   6.555
  905SOL    HW2 3615   5.350   1.667   6.711
  906SOL     OW 3616   0.145   2.092   6.179
  906SOL    HW1 3617   0.064   2.034   6.165
  906SOL    HW2 3618   0.120   2.170   6.236
  907SOL     OW 3619   5.398   3.733   0.653
  907SOL    HW1 3620   5.385   3.694   0.562
  907SOL    HW2 3621   5.496   3.735   0.675
  908SOL     OW 3622   2.719   4.806   2.565
  908SOL    HW1 3623   2.627   4.841   2.548
  908SOL    HW2 3624   2.767   4.796   2.478
  909SOL     OW 3625   4.713   5.653   0.922
  909SOL    HW1 3626   4.677   5.579   0.979
  909SOL    HW2 3627   4.781   5.615   0.858
  910SOL     OW 3628   2.771   2.257   1.367
  910SOL    HW1 3629   2.680   2.286   1.398
  910SOL    HW2 3630   2.772   2.252   1.267
  911SOL     OW 3631   1.050   6.042   6.528
  911SOL    HW1 3632   0.968   5.987   6.546
  911SOL    HW2 3633   1.110   6.039   6.608
  912SOL     OW 3634   6.210   1.804   2.900
  912SOL    HW1 3635   6.136   1.781   2.836
  912SOL    HW2 3636   6.244   1.895   2.880
  913SOL     OW 3637   4.570   6.653   3.113
  913SOL    HW1 3638   4.652   6.625   3.064
  913SOL    HW2 3639   4.595   6.694   3.200
  914SOL     OW 3640   2.516   0.139   6.674
  914SOL    HW1 3641   2.551   0.111   6.585
  914SOL    HW2 3642   2.523   0.062   6.738
  915SOL     OW 3643   6.216   4.500   6.817
  915SOL    HW1 3644   6.144   4.469   6.755
  915SOL    HW2 3645   6.213   4.446   6.901
  916SOL     OW 3646   1.581   2.285   1.968
  916SOL    HW1 3647   1.561   2.238   1.882
  916SOL    HW2 3648   1.649   2.357   1.952
  917SOL     OW 3649   0.346   6.264   0.367
  917SOL    HW1 3650   0.418   6.276   0.435
  917SOL    HW2 3651   0.367   6.184   0.310
  918SOL     OW 3652   3.018   0.307   0.436
  918SOL    HW1 3653   2.975   0.220   0.460
  918SOL    HW2 3654   3.067   0.298   0.349
  919SOL     OW 3655   5.531   1.499   3.510
  919SOL    HW1 3656   5.468   1.530   3.581
  919SOL    HW2 3657   5.481   1.444   3.443
  920SOL     OW 3658   2.532   4.058   1.676
  920SOL    HW1 3659   2.512   4.076   1.579
  920SOL    HW2 3660   2.506   4.138   1.731
  921SOL     OW 3661   4.834   6.236   3.959
  921SOL    HW1 3662   4.791   6.202   4.043
  921SOL    HW2 3663   4.840   6.161   3.893
  922SOL     OW 3664   4.073   3.693   4.495
  922SOL    HW1 3665   3.989   3.660   4.451
  922SOL    HW2 3666   4.120   3.617   4.539
  923SOL     OW 3667   2.725   3.059   6.889
  923SOL    HW1 3668   2.754   3.094   6.978
  923SOL    HW2 3669   2.652   3.118   6.854
  924SOL     OW 3670   6.207   4.099   1.847
  924SOL    HW1 3671   6.110   4.083   1.828
  924SOL    HW2 3672   6.262   4.067   1.770
  925SOL     OW 3673   6.922   2.942   0.144
  925SOL    HW1 3674   6.955   2.909   0.233
  925SOL    HW2 3675   6.844   2.886   0.115
  926SOL     OW 3676   6.719   0.941   0.819
  926SOL    HW1 3677   6.635   0.974   0.861
  926SOL    HW2 3678   6.738   0.995   0.736
  927SOL     OW 3679   5.485   3.753   3.912
  927SOL    HW1 3680   5.505   3.747   3.814
  927SOL    HW2 3681   5.484   3.661   3.951
  928SOL     OW 3682   2.681   6.019   0.509
  928SOL    HW1 3683   2.766   5.982   0.547
  928SOL    HW2 3684   2.613   6.028   0.581
  929SOL     OW 3685   6.741   0.534   6.779
  929SOL    HW1 3686   6.666   0.472   6.799
  929SOL    HW2 3687   6.827   0.493   6.808
  930SOL     OW 3688   4.506   5.339   6.586
  930SOL    HW1 3689   4.442   5.303   6.517
  930SOL    HW2 3690   4.497   5.438   6.591
  931SOL     OW 3691   6.566   2.088   4.386
  931SOL    HW1 3692   6.521   2.148   4.452
  931SOL    HW2 3693   6.626   2.024   4.434
  932SOL     OW 3694   2.477   1.821   3.177
  932SOL    HW1 3695   2.479   1.920   3.192
  932SOL    HW2 3696   2.539   1.776   3.241
  933SOL     OW 3697   1.533   5.350   2.862
  933SOL    HW1 3698   1.582   5.268   2.832
  933SOL    HW2 3699   1.594   5.406   2.919
  934SOL     OW 3700   2.516   5.940   5.723
  934SOL    HW1 3701   2.548   5.867   5.783
  934SOL    HW2 3702   2.584   6.013   5.722
  935SOL     OW 3703   4.986   4.023   3.840
  935SOL    HW1 3704   4.940   4.090   3.899
  935SOL    HW2 3705   4.970   3.931   3.876
  936SOL     OW 3706   1.119   0.055   6.437
  936SOL    HW1 3707   1.049   0.127   6.435
  936SOL    HW2 3708   1.095   7.008   6.507
  937SOL     OW 3709   5.001   1.848   5.349
  937SOL    HW1 3710   5.099   1.846   5.371
  937SOL    HW2 3711   4.976   1.763   5.302
  938SOL     OW 3712   6.136   5.558   4.107
  938SOL    HW1 3713   6.114   5.631   4.042
  938SOL    HW2 3714   6.056   5.538   4.163
  939SOL     OW 3715   0.397   6.736   4.296
  939SOL    HW1 3716   0.445   6.786   4.223
  939SOL    HW2 3717   0.460   6.672   4.339
  940SOL     OW 3718   0.583   4.336   0.568
  940SOL    HW1 3719   0.635   4.251   0.565
  940SOL    HW2 3720   0.570   4.370   0.475
  941SOL     OW 3721   5.054   0.647   6.832
  941SOL    HW1 3722   4.969   0.607   6.866
  941SOL    HW2 3723   5.073   0.612   6.740
  942SOL     OW 3724   6.351   6.072   1.345
  942SOL    HW1 3725   6.326   6.021   1.427
  942SOL    HW2 3726   6.450   6.085   1.342
  943SOL     OW 3727   2.173   4.484   2.696
  943SOL    HW1 3728   2.096   4.436   2.737
  943SOL    HW2 3729   2.168   4.476   2.596
  944SOL     OW 3730   0.648   5.062   4.259
  944SOL    HW1 3731   0.591   5.089   4.336
  944SOL    HW2 3732   0.739   5.102   4.268
  945SOL     OW 3733   0.544   4.985   5.363
  945SOL    HW1 3734   0.478   5.017   5.430
  945SOL    HW2 3735   0.516   4.896   5.328
  946SOL     OW 3736   4.727   4.741   4.276
  946SOL    HW1 3737   4.803   4.698   4.228
  946SOL    HW2 3738   4.744   4.839   4.284
  947SOL     OW 3739   3.650   3.207   3.330
  947SOL    HW1 3740   3.661   3.109   3.310
  947SOL    HW2 3741   3.715   3.234   3.401
  948SOL     OW 3742   5.096   0.831   2.464
  948SOL    HW1 3743   4.998   0.853   2.457
  948SOL    HW2 3744   5.117   0.810   2.560
  949SOL     OW 3745   3.253   6.546   0.047
  949SOL    HW1 3746   3.277   6.641   0.026
  949SOL    HW2 3747   3.168   6.522   7.020
  950SOL     OW 3748   5.524   5.858   2.433
  950SOL    HW1 3749   5.447   5.834   2.492
  950SOL    HW2 3750   5.591   5.911   2.486
  951SOL     OW 3751   1.102   0.237   3.586
  951SOL    HW1 3752   1.074   0.252   3.681
  951SOL    HW2 3753   1.186   0.288   3.568
  952SOL     OW 3754   4.237   1.908   2.826
  952SOL    HW1 3755   4.153   1.908   2.773
  952SOL    HW2 3756   4.310   1.864   2.773
  953SOL     OW 3757   5.827   5.950   4.931
  953SOL    HW1 3758   5.834   5.850   4.937
  953SOL    HW2 3759   5.751   5.981   4.988
  954SOL     OW 3760   4.276   6.098   2.239
  954SOL    HW1 3761   4.248   6.190   2.265
  954SOL    HW2 3762   4.208   6.032   2.272
  955SOL     OW 3763   1.742   4.629   0.150
  955SOL    HW1 3764   1.687   4.603   0.229
  955SOL    HW2 3765   1.788   4.716   0.169
  956SOL     OW 3766   6.921   0.946   1.020
  956SOL    HW1 3767   6.867   0.922   0.940
  956SOL    HW2 3768   6.953   1.041   1.012
  957SOL     OW 3769   6.258   1.412   2.038
  957SOL    HW1 3770   6.352   1.404   2.007
  957SOL    HW2 3771   6.218   1.321   2.052
  958SOL     OW 3772   4.957   6.252   2.386
  958SOL    HW1 3773   5.052   6.267   2.415
  958SOL    HW2 3774   4.915   6.339   2.362
  959SOL     OW 3775   3.685   6.563   4.412
  959SOL    HW1 3776   3.629   6.593   4.489
  959SOL    HW2 3777   3.632   6.499   4.356
  960SOL     OW 3778   1.218   0.779   0.916
  960SOL    HW1 3779   1.161   0.703   0.947
  960SOL    HW2 3780   1.290   0.745   0.855
  961SOL     OW 3781   3.725   6.773   3.159
  961SOL    HW1 3782   3.792   6.834   3.202
  961SOL    HW2 3783   3.768   6.684   3.141
  962SOL     OW 3784   5.884   0.789   4.716
  962SOL    HW1 3785   5.836   0.838   4.643
  962SOL    HW2 3786   5.833   0.705   4.739
  963SOL     OW 3787   4.833   1.401   1.053
  963SOL    HW1 3788   4.800   1.484   1.009
  963SOL    HW2 3789   4.930   1.388   1.031
  964SOL     OW 3790   4.646   4.935   5.379
  964SOL    HW1 3791   4.659   5.019   5.432
  964SOL    HW2 3792   4.702   4.862   5.418
  965SOL     OW 3793   6.383   1.951   2.109
  965SOL    HW1 3794   6.395   2.050   2.113
  965SOL    HW2 3795   6.323   1.928   2.032
  966SOL     OW 3796   4.782   2.428   3.275
  966SOL    HW1 3797   4.794   2.458   3.180
  966SOL    HW2 3798   4.687   2.444   3.302
  967SOL     OW 3799   3.105   5.160   6.605
  967SOL    HW1 3800   3.192   5.172   6.651
  967SOL    HW2 3801   3.117   5.171   6.506
  968SOL     OW 3802   3.852   0.006   1.333
  968SOL    HW1 3803   3.792   6.979   1.397
  968SOL    HW2 3804   3.878   0.095   1.371
  969SOL     OW 3805   2.646   5.223   5.636
  969SOL    HW1 3806   2.554   5.249   5.666
  969SOL    HW2 3807   2.678   5.145   5.691
  970SOL     OW 3808   6.175   1.166   5.986
  970SOL    HW1 3809   6.219   1.115   5.912
  970SOL    HW2 3810   6.083   1.193   5.958
  971SOL     OW 3811   6.982   3.138   2.923
  971SOL    HW1 3812   6.984   3.179   3.015
  971SOL    HW2 3813   6.891   3.101   2.905
  972SOL     OW 3814   6.762   2.648   1.441
  972SOL    HW1 3815   6.752   2.747   1.438
  972SOL    HW2 3816   6.817   2.622   1.520
  973SOL     OW 3817   0.419   4.470   6.543
  973SOL    HW1 3818   0.355   4.544   6.565
  973SOL    HW2 3819   0.390   4.386   6.589
  974SOL     OW 3820   0.972   5.240   2.205
  974SOL    HW1 3821   0.931   5.152   2.181
  974SOL    HW2 3822   1.023   5.230   2.290
  975SOL     OW 3823   2.628   6.875   0.752
  975SOL    HW1 3824   2.685   6.836   0.824
  975SOL    HW2 3825   2.647   6.828   0.666
  976SOL     OW 3826   6.324   3.847   1.489
  976SOL    HW1 3827   6.373   3.927   1.522
  976SOL    HW2 3828   6.257   3.875   1.420
  977SOL     OW 3829   1.054   1.162   2.184
  977SOL    HW1 3830   1.134   1.129   2.133
  977SOL    HW2 3831   0.986   1.089   2.189
  978SOL     OW 3832   5.455   1.863   1.131
  978SOL    HW1 3833   5.365   1.856   1.173
  978SOL    HW2 3834   5.450   1.919   1.048
  979SOL     OW 3835   0.247   2.919   6.599
  979SOL    HW1 3836   0.336   2.950   6.565
  979SOL    HW2 3837   0.188   2.998   6.617
  980SOL     OW 3838   4.014   0.979   4.514
  980SOL    HW1 3839   4.083   0.910   4.538
  980SOL    HW2 3840   4.061   1.065   4.491
  981SOL     OW 3841   0.210   0.218   5.317
  981SOL    HW1 3842   0.135   0.227   5.383
  981SOL    HW2 3843   0.180   0.253   5.228
  982SOL     OW 3844   0.546   1.555   5.324
  982SOL    HW1 3845   0.463   1.507   5.351
  982SOL    HW2 3846   0.626   1.505   5.359
  983SOL     OW 3847   6.631   3.194   3.104
  983SOL    HW1 3848   6.690   3.126   3.147
  983SOL    HW2 3849   6.604   3.262   3.173
  984SOL     OW 3850   1.819   2.310   3.118
  984SOL    HW1 3851   1.859   2.317   3.027
  984SOL    HW2 3852   1.891   2.311   3.187
  985SOL     OW 3853   6.420   4.223   4.564
  985SOL    HW1 3854   6.416   4.132   4.605
  985SOL    HW2 3855   6.373   4.222   4.475
  986SOL     OW 3856   4.800   4.722   1.050
  986SOL    HW1 3857   4.814   4.802   1.108
  986SOL    HW2 3858   4.702   4.702   1.043
  987SOL     OW 3859   5.518   6.361   3.410
  987SOL    HW1 3860   5.544   6.381   3.505
  987SOL    HW2 3861   5.556   6.273   3.383
  988SOL     OW 3862   3.323   3.618   2.357
  988SOL    HW1 3863   3.325   3.659   2.448
  988SOL    HW2 3864   3.290   3.684   2.290
  989SOL     OW 3865   6.775   2.266   0.397
  989SOL    HW1 3866   6.802   2.290   0.304
  989SOL    HW2 3867   6.855   2.272   0.458
  990SOL     OW 3868   3.459   0.186   2.960
  990SOL    HW1 3869   3.487   0.092   2.982
  990SOL    HW2 3870   3.411   0.225   3.039
  991SOL     OW 3871   6.753   4.538   3.237
  991SOL    HW1 3872   6.666   4.568   3.197
  991SOL    HW2 3873   6.800   4.617   3.276
  992SOL     OW 3874   1.078   2.811   1.355
  992SOL    HW1 3875   1.115   2.901   1.379
  992SOL    HW2 3876   1.061   2.807   1.256
  993SOL     OW 3877   0.779   4.134   1.074
  993SOL    HW1 3878   0.811   4.126   0.979
  993SOL    HW2 3879   0.826   4.065   1.129
  994SOL     OW 3880   3.677   5.476   1.266
  994SOL    HW1 3881   3.679   5.433   1.175
  994SOL    HW2 3882   3.582   5.502   1.288
  995SOL     OW 3883   4.488   3.506   5.582
  995SOL    HW1 3884   4.526   3.485   5.492
  995SOL    HW2 3885   4.485   3.423   5.638
  996SOL     OW 3886   4.014   5.474   5.347
  996SOL    HW1 3887   4.022   5.400   5.412
  996SOL    HW2 3888   3.955   5.446   5.271
  997SOL     OW 3889   1.040   6.798   3.592
  997SOL    HW1 3890   0.993   6.746   3.664
  997SOL    HW2 3891   0.993   6.886   3.579
  998SOL     OW 3892   6.525   0.554   5.830
  998SOL    HW1 3893   6.594   0.486   5.806
  998SOL    HW2 3894   6.553   0.601   5.914
  999SOL     OW 3895   4.885   3.668   1.730
  999SOL    HW1 3896   4.959   3.652   1.666
  999SOL    HW2 3897   4.916   3.728   1.804
 1000SOL     OW 3898   4.816   1.368   1.568
 1000SOL    HW1 3899   4.880   1.298   1.600
 1000SOL    HW2 3900   4.729   1.324   1.543
 1001SOL     OW 3901   2.873   6.205   2.018
 1001SOL    HW1 3902   2.900   6.183   2.112
 1001SOL    HW2 3903   2.891   6.301   1.999
 1002SOL     OW 3904   5.909   1.864   1.396
 1002SOL    HW1 3905   5.811   1.852   1.408
 1002SOL    HW2 3906   5.928   1.958   1.368
 1003SOL     OW 3907   1.702   6.054   2.628
 1003SOL    HW1 3908   1.763   6.131   2.649
 1003SOL    HW2 3909   1.750   5.968   2.647
 1004SOL     OW 3910   6.292   1.079   2.316
 1004SOL    HW1 3911   6.361   1.014   2.346
 1004SOL    HW2 3912   6.331   1.171   2.313
 1005SOL     OW 3913   1.569   4.774   3.878
 1005SOL    HW1 3914   1.638   4.839   3.912
 1005SOL    HW2 3915   1.574   4.769   3.778
 1006SOL     OW 3916   2.391   3.702   0.358
 1006SOL    HW1 3917   2.367   3.779   0.299
 1006SOL    HW2 3918   2.379   3.617   0.307
 1007SOL     OW 3919   4.630   1.514   6.657
 1007SOL    HW1 3920   4.717   1.505   6.705
 1007SOL    HW2 3921   4.567   1.569   6.712
 1008SOL     OW 3922   0.619   3.800   5.274
 1008SOL    HW1 3923   0.676   3.877   5.245
 1008SOL    HW2 3924   0.556   3.775   5.200
 1009SOL     OW 3925   5.988   4.980   5.204
 1009SOL    HW1 3926   6.069   5.029   5.170
 1009SOL    HW2 3927   5.971   5.007   5.299
 1010SOL     OW 3928   2.612   2.308   1.604
 1010SOL    HW1 3929   2.641   2.261   1.688
 1010SOL    HW2 3930   2.602   2.406   1.622
 1011SOL     OW 3931   0.274   5.503   2.719
 1011SOL    HW1 3932   0.223   5.585   2.746
 1011SOL    HW2 3933   0.372   5.519   2.728
 1012SOL     OW 3934   6.641   6.951   2.643
 1012SOL    HW1 3935   6.631   6.916   2.550
 1012SOL    HW2 3936   6.739   6.958   2.665
 1013SOL     OW 3937   6.822   1.394   6.092
 1013SOL    HW1 3938   6.754   1.418   6.161
 1013SOL    HW2 3939   6.841   1.295   6.098
 1014SOL     OW 3940   0.861   4.138   4.459
 1014SOL    HW1 3941   0.881   4.193   4.540
 1014SOL    HW2 3942   0.831   4.198   4.385
 1015SOL     OW 3943   3.260   0.827   6.576
 1015SOL    HW1 3944   3.357   0.848   6.567
 1015SOL    HW2 3945   3.234   0.759   6.508
 1016SOL     OW 3946   4.794   4.623   1.365
 1016SOL    HW1 3947   4.826   4.532   1.337
 1016SOL    HW2 3948   4.833   4.692   1.304
 1017SOL     OW 3949   3.182   1.713   1.574
 1017SOL    HW1 3950   3.163   1.642   1.642
 1017SOL    HW2 3951   3.269   1.694   1.529
 1018SOL     OW 3952   6.786   4.498   3.517
 1018SOL    HW1 3953   6.803   4.520   3.421
 1018SOL    HW2 3954   6.807   4.402   3.534
 1019SOL     OW 3955   6.617   5.095   0.287
 1019SOL    HW1 3956   6.565   5.009   0.291
 1019SOL    HW2 3957   6.581   5.159   0.355
 1020SOL     OW 3958   6.290   0.899   0.972
 1020SOL    HW1 3959   6.205   0.904   1.025
 1020SOL    HW2 3960   6.268   0.887   0.875
 1021SOL     OW 3961   6.438   5.736   2.462
 1021SOL    HW1 3962   6.496   5.655   2.470
 1021SOL    HW2 3963   6.347   5.716   2.498
 1022SOL     OW 3964   2.875   6.056   6.142
 1022SOL    HW1 3965   2.885   6.155   6.151
 1022SOL    HW2 3966   2.876   6.031   6.045
 1023SOL     OW 3967   6.897   0.431   2.281
 1023SOL    HW1 3968   6.891   0.531   2.277
 1023SOL    HW2 3969   6.976   0.405   2.337
 1024SOL     OW 3970   0.514   1.262   4.018
 1024SOL    HW1 3971   0.459   1.255   3.935
 1024SOL    HW2 3972   0.584   1.333   4.006
 1025SOL     OW 3973   4.607   3.343   0.528
 1025SOL    HW1 3974   4.601   3.386   0.618
 1025SOL    HW2 3975   4.689   3.376   0.481
 1026SOL     OW 3976   3.038   2.380   1.685
 1026SOL    HW1 3977   2.969   2.391   1.756
 1026SOL    HW2 3978   2.994   2.371   1.596
 1027SOL     OW 3979   1.883   6.443   1.827
 1027SOL    HW1 3980   1.897   6.354   1.871
 1027SOL    HW2 3981   1.786   6.465   1.826
 1028SOL     OW 3982   1.531   6.317   3.220
 1028SOL    HW1 3983   1.438   6.351   3.205
 1028SOL    HW2 3984   1.581   6.381   3.277
 1029SOL     OW 3985   1.366   1.778   6.091
 1029SOL    HW1 3986   1.462   1.751   6.087
 1029SOL    HW2 3987   1.338   1.817   6.003
 1030SOL     OW 3988   3.494   3.205   1.774
 1030SOL    HW1 3989   3.502   3.172   1.680
 1030SOL    HW2 3990   3.506   3.127   1.837
 1031SOL     OW 3991   4.062   3.309   1.398
 1031SOL    HW1 3992   3.964   3.294   1.388
 1031SOL    HW2 3993   4.106   3.224   1.429
 1032SOL     OW 3994   2.509   1.042   4.997
 1032SOL    HW1 3995   2.431   1.062   5.056
 1032SOL    HW2 3996   2.590   1.088   5.033
 1033SOL     OW 3997   1.865   6.331   2.320
 1033SOL    HW1 3998   1.825   6.350   2.409
 1033SOL    HW2 3999   1.954   6.286   2.332
 1034SOL     OW 4000   2.122   6.160   4.350
 1034SOL    HW1 4001   2.182   6.225   4.397
 1034SOL    HW2 4002   2.037   6.205   4.324
 1035SOL     OW 4003   0.762   1.956   6.011
 1035SOL    HW1 4004   0.762   1.973   5.913
 1035SOL    HW2 4005   0.708   2.026   6.058
 1036SOL     OW 4006   4.994   1.183   1.629
 1036SOL    HW1 4007   5.066   1.175   1.560
 1036SOL    HW2 4008   5.027   1.147   1.716
 1037SOL     OW 4009   0.964   1.918   2.898
 1037SOL    HW1 4010   0.879   1.926   2.847
 1037SOL    HW2 4011   1.041   1.919   2.835
 1038SOL     OW 4012   1.509   1.513   6.648
 1038SOL    HW1 4013   1.511   1.428   6.701
 1038SOL    HW2 4014   1.598   1.527   6.604
 1039SOL     OW 4015   2.957   3.236   3.362
 1039SOL    HW1 4016   2.980   3.209   3.455
 1039SOL    HW2 4017   3.005   3.178   3.297
 1040SOL     OW 4018   5.149   0.954   3.395
 1040SOL    HW1 4019   5.137   0.979   3.299
 1040SOL    HW2 4020   5.094   1.014   3.453
 1041SOL     OW 4021   6.921   6.569   3.659
 1041SOL    HW1 4022   6.989   6.634   3.628
 1041SOL    HW2 4023   6.962   6.504   3.723
 1042SOL     OW 4024   4.915   5.029   2.919
 1042SOL    HW1 4025   4.990   4.964   2.931
 1042SOL    HW2 4026   4.850   5.018   2.994
 1043SOL     OW 4027   3.855   2.111   3.388
 1043SOL    HW1 4028   3.765   2.094   3.349
 1043SOL    HW2 4029   3.915   2.151   3.318
 1044SOL     OW 4030   5.875   5.709   1.369
 1044SOL    HW1 4031   5.775   5.698   1.366
 1044SOL    HW2 4032   5.898   5.804   1.385
 1045SOL     OW 4033   2.793   0.094   2.943
 1045SOL    HW1 4034   2.829   0.140   3.024
 1045SOL    HW2 4035   2.712   0.041   2.967
 1046SOL     OW 4036   2.678   1.217   0.773
 1046SOL    HW1 4037   2.622   1.142   0.739
 1046SOL    HW2 4038   2.728   1.188   0.854
 1047SOL     OW 4039   3.124   0.236   4.249
 1047SOL    HW1 4040   3.196   0.170   4.270
 1047SOL    HW2 4041   3.159   0.328   4.262
 1048SOL     OW 4042   3.158   5.263   2.661
 1048SOL    HW1 4043   3.243   5.241   2.613
 1048SOL    HW2 4044   3.129   5.184   2.716
 1049SOL     OW 4045   4.758   6.910   3.839
 1049SOL    HW1 4046   4.680   6.907   3.901
 1049SOL    HW2 4047   4.778   7.004   3.814
 1050SOL     OW 4048   4.151   5.377   2.854
 1050SOL    HW1 4049   4.096   5.430   2.919
 1050SOL    HW2 4050   4.241   5.359   2.894
 1051SOL     OW 4051   0.156   5.610   0.449
 1051SOL    HW1 4052   0.197   5.694   0.413
 1051SOL    HW2 4053   0.174   5.534   0.387
 1052SOL     OW 4054   4.917   1.118   5.307
 1052SOL    HW1 4055   4.972   1.066   5.372
 1052SOL    HW2 4056   4.839   1.063   5.277
 1053SOL     OW 4057   6.127   3.779   2.134
 1053SOL    HW1 4058   6.042   3.759   2.085
 1053SOL    HW2 4059   6.193   3.707   2.116
 1054SOL     OW 4060   2.890   3.459   1.248
 1054SOL    HW1 4061   2.889   3.409   1.334
 1054SOL    HW2 4062   2.809   3.436   1.195
 1055SOL     OW 4063   4.899   6.186   6.493
 1055SOL    HW1 4064   4.813   6.237   6.486
 1055SOL    HW2 4065   4.919   6.166   6.589
 1056SOL     OW 4066   1.314   3.842   0.424
 1056SOL    HW1 4067   1.290   3.770   0.358
 1056SOL    HW2 4068   1.371   3.911   0.379
 1057SOL     OW 4069   3.860   1.963   2.047
 1057SOL    HW1 4070   3.957   1.983   2.036
 1057SOL    HW2 4071   3.812   2.047   2.072
 1058SOL     OW 4072   4.306   2.401   3.039
 1058SOL    HW1 4073   4.362   2.467   2.988
 1058SOL    HW2 4074   4.219   2.388   2.990
 1059SOL     OW 4075   2.468   6.833   2.305
 1059SOL    HW1 4076   2.383   6.817   2.354
 1059SOL    HW2 4077   2.448   6.849   2.208
 1060SOL     OW 4078   6.879   4.855   3.903
 1060SOL    HW1 4079   6.940   4.778   3.883
 1060SOL    HW2 4080   6.926   4.919   3.964
 1061SOL     OW 4081   6.499   3.672   6.457
 1061SOL    HW1 4082   6.596   3.647   6.453
 1061SOL    HW2 4083   6.466   3.661   6.551
 1062SOL     OW 4084   3.903   6.280   5.613
 1062SOL    HW1 4085   3.868   6.205   5.556
 1062SOL    HW2 4086   3.923   6.246   5.704
 1063SOL     OW 4087   0.459   6.911   6.496
 1063SOL    HW1 4088   0.439   6.965   6.577
 1063SOL    HW2 4089   0.409   6.948   6.417
 1064SOL     OW 4090   0.504   4.039   2.170
 1064SOL    HW1 4091   0.450   4.083   2.098
 1064SOL    HW2 4092   0.489   4.087   2.256
 1065SOL     OW 4093   3.178   0.873   3.941
 1065SOL    HW1 4094   3.217   0.845   3.854
 1065SOL    HW2 4095   3.193   0.971   3.955
 1066SOL     OW 4096   4.420   6.683   2.303
 1066SOL    HW1 4097   4.379   6.612   2.360
 1066SOL    HW2 4098   4.417   6.771   2.351
 1067SOL     OW 4099   2.715   1.290   6.739
 1067SOL    HW1 4100   2.658   1.337   6.672
 1067SOL    HW2 4101   2.721   1.193   6.716
 1068SOL     OW 4102   5.835   3.942   1.380
 1068SOL    HW1 4103   5.772   4.017   1.398
 1068SOL    HW2 4104   5.789   3.855   1.396
 1069SOL     OW 4105   5.419   5.435   1.063
 1069SOL    HW1 4106   5.445   5.443   1.159
 1069SOL    HW2 4107   5.453   5.348   1.027
 1070SOL     OW 4108   2.456   0.123   2.533
 1070SOL    HW1 4109   2.498   0.212   2.551
 1070SOL    HW2 4110   2.527   0.054   2.522
 1071SOL     OW 4111   0.545   1.645   4.528
 1071SOL    HW1 4112   0.519   1.713   4.596
 1071SOL    HW2 4113   0.480   1.569   4.530
 1072SOL     OW 4114   1.703   0.510   1.618
 1072SOL    HW1 4115   1.740   0.555   1.700
 1072SOL    HW2 4116   1.693   0.412   1.635
 1073SOL     OW 4117   5.895   2.033   3.407
 1073SOL    HW1 4118   5.868   2.072   3.495
 1073SOL    HW2 4119   5.995   2.035   3.399
 1074SOL     OW 4120   2.731   5.166   1.185
 1074SOL    HW1 4121   2.720   5.107   1.265
 1074SOL    HW2 4122   2.733   5.109   1.103
 1075SOL     OW 4123   6.446   1.442   4.586
 1075SOL    HW1 4124   6.542   1.414   4.586
 1075SOL    HW2 4125   6.423   1.481   4.675
 1076SOL     OW 4126   1.724   3.481   5.555
 1076SOL    HW1 4127   1.693   3.386   5.567
 1076SOL    HW2 4128   1.816   3.492   5.592
 1077SOL     OW 4129   6.950   6.601   0.287
 1077SOL    HW1 4130   0.014   6.652   0.273
 1077SOL    HW2 4131   6.933   6.543   0.207
 1078SOL     OW 4132   6.454   0.077   2.782
 1078SOL    HW1 4133   6.364   0.035   2.790
 1078SOL    HW2 4134   6.518   0.012   2.741
 1079SOL     OW 4135   1.827   5.620   1.891
 1079SOL    HW1 4136   1.740   5.621   1.940
 1079SOL    HW2 4137   1.884   5.696   1.923
 1080SOL     OW 4138   2.259   5.545   5.238
 1080SOL    HW1 4139   2.320   5.606   5.187
 1080SOL    HW2 4140   2.164   5.568   5.217
 1081SOL     OW 4141   0.065   5.739   3.996
 1081SOL    HW1 4142   0.075   5.826   4.044
 1081SOL    HW2 4143   0.092   5.664   4.057
 1082SOL     OW 4144   6.253   1.539   5.993
 1082SOL    HW1 4145   6.310   1.466   5.956
 1082SOL    HW2 4146   6.275   1.552   6.090
 1083SOL     OW 4147   4.839   3.458   0.437
 1083SOL    HW1 4148   4.807   3.544   0.396
 1083SOL    HW2 4149   4.895   3.479   0.517
 1084SOL     OW 4150   6.901   6.462   6.431
 1084SOL    HW1 4151   6.811   6.482   6.392
 1084SOL    HW2 4152   6.967   6.530   6.400
 1085SOL     OW 4153   2.123   3.533   3.754
 1085SOL    HW1 4154   2.174   3.564   3.834
 1085SOL    HW2 4155   2.121   3.605   3.685
 1086SOL     OW 4156   6.677   4.895   6.191
 1086SOL    HW1 4157   6.719   4.920   6.278
 1086SOL    HW2 4158   6.589   4.941   6.181
 1087SOL     OW 4159   1.171   1.585   5.538
 1087SOL    HW1 4160   1.193   1.637   5.456
 1087SOL    HW2 4161   1.191   1.640   5.619
 1088SOL     OW 4162   0.017   5.266   3.070
 1088SOL    HW1 4163   6.951   5.217   3.063
 1088SOL    HW2 4164   0.064   5.263   2.982
 1089SOL     OW 4165   0.649   5.744   4.865
 1089SOL    HW1 4166   0.681   5.665   4.814
 1089SOL    HW2 4167   0.552   5.735   4.885
 1090SOL     OW 4168   5.518   1.937   3.287
 1090SOL    HW1 4169   5.430   1.918   3.244
 1090SOL    HW2 4170   5.503   1.982   3.375
 1091SOL     OW 4171   1.829   3.406   3.454
 1091SOL    HW1 4172   1.774   3.367   3.528
 1091SOL    HW2 4173   1.924   3.377   3.464
 1092SOL     OW 4174   0.724   4.705   0.318
 1092SOL    HW1 4175   0.720   4.692   0.219
 1092SOL    HW2 4176   0.694   4.798   0.341
 1093SOL     OW 4177   3.037   0.090   1.414
 1093SOL    HW1 4178   3.045   7.013   1.432
 1093SOL    HW2 4179   2.949   0.108   1.370
 1094SOL     OW 4180   0.810   6.911   2.765
 1094SOL    HW1 4181   0.867   6.991   2.783
 1094SOL    HW2 4182   0.714   6.935   2.780
 1095SOL     OW 4183   0.824   2.694   6.547
 1095SOL    HW1 4184   0.807   2.788   6.576
 1095SOL    HW2 4185   0.747   2.662   6.491
 1096SOL     OW 4186   2.940   4.647   0.850
 1096SOL    HW1 4187   2.890   4.587   0.913
 1096SOL    HW2 4188   2.938   4.741   0.885
 1097SOL     OW 4189   2.138   5.659   3.087
 1097SOL    HW1 4190   2.148   5.605   3.003
 1097SOL    HW2 4191   2.045   5.695   3.093
 1098SOL     OW 4192   5.614   4.300   6.699
 1098SOL    HW1 4193   5.586   4.218   6.750
 1098SOL    HW2 4194   5.615   4.279   6.601
 1099SOL     OW 4195   4.746   1.241   6.643
 1099SOL    HW1 4196   4.718   1.321   6.590
 1099SOL    HW2 4197   4.845   1.243   6.658
 1100SOL     OW 4198   3.445   1.245   4.151
 1100SOL    HW1 4199   3.430   1.167   4.090
 1100SOL    HW2 4200   3.398   1.231   4.237
 1101SOL     OW 4201   5.634   3.458   5.064
 1101SOL    HW1 4202   5.578   3.426   5.141
 1101SOL    HW2 4203   5.705   3.390   5.044
 1102SOL     OW 4204   2.604   0.852   4.391
 1102SOL    HW1 4205   2.650   0.866   4.303
 1102SOL    HW2 4206   2.614   0.934   4.447
 1103SOL     OW 4207   2.458   1.312   0.187
 1103SOL    HW1 4208   2.527   1.383   0.204
 1103SOL    HW2 4209   2.488   1.255   0.110
 1104SOL     OW 4210   1.215   4.552   3.362
 1104SOL    HW1 4211   1.273   4.477   3.392
 1104SOL    HW2 4212   1.175   4.598   3.441
 1105SOL     OW 4213   5.027   2.751   4.494
 1105SOL    HW1 4214   5.066   2.792   4.412
 1105SOL    HW2 4215   4.944   2.800   4.520
 1106SOL     OW 4216   0.310   1.474   0.440
 1106SOL    HW1 4217   0.345   1.382   0.425
 1106SOL    HW2 4218   0.373   1.525   0.498
 1107SOL     OW 4219   0.885   0.377   0.190
 1107SOL    HW1 4220   0.943   0.323   0.251
 1107SOL    HW2 4221   0.931   0.391   0.103
 1108SOL     OW 4222   4.008   6.322   4.831
 1108SOL    HW1 4223   4.103   6.293   4.820
 1108SOL    HW2 4224   3.959   6.255   4.887
 1109SOL     OW 4225   5.774   1.827   3.858
 1109SOL    HW1 4226   5.725   1.818   3.771
 1109SOL    HW2 4227   5.725   1.777   3.929
 1110SOL     OW 4228   3.430   0.656   2.987
 1110SOL    HW1 4229   3.442   0.710   3.070
 1110SOL    HW2 4230   3.424   0.717   2.908
 1111SOL     OW 4231   5.224   4.103   6.201
 1111SOL    HW1 4232   5.160   4.178   6.219
 1111SOL    HW2 4233   5.200   4.024   6.258
 1112SOL     OW 4234   6.540   0.115   3.259
 1112SOL    HW1 4235   6.628   0.104   3.305
 1112SOL    HW2 4236   6.543   0.071   3.170
 1113SOL     OW 4237   6.024   4.532   1.633
 1113SOL    HW1 4238   6.060   4.552   1.542
 1113SOL    HW2 4239   6.053   4.604   1.697
 1114SOL     OW 4240   3.950   2.539   5.680
 1114SOL    HW1 4241   3.892   2.459   5.694
 1114SOL    HW2 4242   3.892   2.621   5.675
 1115SOL     OW 4243   4.273   4.125   5.449
 1115SOL    HW1 4244   4.259   4.095   5.544
 1115SOL    HW2 4245   4.269   4.047   5.388
 1116SOL     OW 4246   5.227   0.271   0.119
 1116SOL    HW1 4247   5.191   0.183   0.089
 1116SOL    HW2 4248   5.301   0.256   0.185
 1117SOL     OW 4249   0.922   2.261   1.585
 1117SOL    HW1 4250   0.957   2.256   1.491
 1117SOL    HW2 4251   0.842   2.201   1.594
 1118SOL     OW 4252   2.162   5.325   0.144
 1118SOL    HW1 4253   2.221   5.245   0.143
 1118SOL    HW2 4254   2.171   5.375   0.058
 1119SOL     OW 4255   4.258   4.620   1.921
 1119SOL    HW1 4256   4.243   4.622   2.020
 1119SOL    HW2 4257   4.347   4.580   1.902
 1120SOL     OW 4258   6.304   5.847   1.184
 1120SOL    HW1 4259   6.311   5.940   1.219
 1120SOL    HW2 4260   6.382   5.793   1.216
 1121SOL     OW 4261   1.033   4.643   4.484
 1121SOL    HW1 4262   0.986   4.690   4.559
 1121SOL    HW2 4263   0.965   4.603   4.423
 1122SOL     OW 4264   6.630   2.673   2.167
 1122SOL    HW1 4265   6.608   2.592   2.113
 1122SOL    HW2 4266   6.550   2.702   2.219
 1123SOL     OW 4267   4.398   2.320   3.722
 1123SOL    HW1 4268   4.433   2.403   3.767
 1123SOL    HW2 4269   4.453   2.242   3.749
 1124SOL     OW 4270   1.049   3.379   5.662
 1124SOL    HW1 4271   1.039   3.364   5.564
 1124SOL    HW2 4272   1.078   3.473   5.679
 1125SOL     OW 4273   1.564   2.978   4.493
 1125SOL    HW1 4274   1.590   2.891   4.535
 1125SOL    HW2 4275   1.627   3.049   4.523
 1126SOL     OW 4276   4.338   5.890   5.298
 1126SOL    HW1 4277   4.432   5.915   5.276
 1126SOL    HW2 4278   4.299   5.958   5.360
 1127SOL     OW 4279   5.517   6.620   4.807
 1127SOL    HW1 4280   5.438   6.600   4.865
 1127SOL    HW2 4281   5.550   6.536   4.766
 1128SOL     OW 4282   5.742   1.352   5.007
 1128SOL    HW1 4283   5.826   1.299   4.997
 1128SOL    HW2 4284   5.702   1.333   5.097
 1129SOL     OW 4285   1.960   0.017   0.396
 1129SOL    HW1 4286   1.879   0.070   0.370
 1129SOL    HW2 4287   1.990   0.045   0.486
 1130SOL     OW 4288   1.905   5.626   1.626
 1130SOL    HW1 4289   1.969   5.550   1.618
 1130SOL    HW2 4290   1.877   5.637   1.722
 1131SOL     OW 4291   1.759   0.693   4.752
 1131SOL    HW1 4292   1.692   0.620   4.763
 1131SOL    HW2 4293   1.831   0.664   4.689
 1132SOL     OW 4294   4.757   0.455   2.612
 1132SOL    HW1 4295   4.846   0.423   2.580
 1132SOL    HW2 4296   4.767   0.544   2.656
 1133SOL     OW 4297   1.202   0.282   6.853
 1133SOL    HW1 4298   1.281   0.238   6.897
 1133SOL    HW2 4299   1.228   0.313   6.762
 1134SOL     OW 4300   5.496   6.766   2.270
 1134SOL    HW1 4301   5.417   6.814   2.232
 1134SOL    HW2 4302   5.567   6.832   2.295
 1135SOL     OW 4303   2.418   6.285   3.631
 1135SOL    HW1 4304   2.348   6.297   3.560
 1135SOL    HW2 4305   2.389   6.213   3.694
 1136SOL     OW 4306   3.384   5.194   3.374
 1136SOL    HW1 4307   3.379   5.118   3.439
 1136SOL    HW2 4308   3.479   5.207   3.346
 1137SOL     OW 4309   0.986   6.258   6.378
 1137SOL    HW1 4310   0.941   6.228   6.293
 1137SOL    HW2 4311   1.016   6.178   6.429
 1138SOL     OW 4312   1.675   2.411   5.187
 1138SOL    HW1 4313   1.641   2.476   5.256
 1138SOL    HW2 4314   1.714   2.331   5.234
 1139SOL     OW 4315   2.575   4.776   4.027
 1139SOL    HW1 4316   2.546   4.858   4.076
 1139SOL    HW2 4317   2.657   4.797   3.973
 1140SOL     OW 4318   2.286   0.699   2.318
 1140SOL    HW1 4319   2.348   0.625   2.345
 1140SOL    HW2 4320   2.281   0.704   2.218
 1141SOL     OW 4321   6.238   5.357   6.462
 1141SOL    HW1 4322   6.206   5.315   6.377
 1141SOL    HW2 4323   6.180   5.434   6.486
 1142SOL     OW 4324   2.472   0.145   3.673
 1142SOL    HW1 4325   2.419   0.062   3.658
 1142SOL    HW2 4326   2.511   0.144   3.765
 1143SOL     OW 4327   1.503   2.687   2.246
 1143SOL    HW1 4328   1.411   2.684   2.284
 1143SOL    HW2 4329   1.564   2.631   2.302
 1144SOL     OW 4330   5.150   4.472   2.360
 1144SOL    HW1 4331   5.116   4.387   2.319
 1144SOL    HW2 4332   5.118   4.479   2.455
 1145SOL     OW 4333   1.078   2.619   0.646
 1145SOL    HW1 4334   1.006   2.608   0.714
 1145SOL    HW2 4335   1.157   2.564   0.672
 1146SOL     OW 4336   0.511   2.273   1.081
 1146SOL    HW1 4337   0.555   2.360   1.104
 1146SOL    HW2 4338   0.447   2.248   1.154
 1147SOL     OW 4339   3.164   6.227   0.617
 1147SOL    HW1 4340   3.230   6.162   0.580
 1147SOL    HW2 4341   3.141   6.295   0.547
 1148SOL     OW 4342   4.172   6.143   1.447
 1148SOL    HW1 4343   4.123   6.147   1.360
 1148SOL    HW2 4344   4.107   6.124   1.521
 1149SOL     OW 4345   6.088   3.110   1.789
 1149SOL    HW1 4346   6.123   3.143   1.701
 1149SOL    HW2 4347   6.098   3.011   1.794
 1150SOL     OW 4348   0.774   4.163   0.069
 1150SOL    HW1 4349   0.713   4.168   0.148
 1150SOL    HW2 4350   0.737   4.100   0.001
 1151SOL     OW 4351   5.749   5.110   4.479
 1151SOL    HW1 4352   5.826   5.173   4.472
 1151SOL    HW2 4353   5.676   5.139   4.418
 1152SOL     OW 4354   4.307   6.572   6.713
 1152SOL    HW1 4355   4.369   6.636   6.667
 1152SOL    HW2 4356   4.214   6.606   6.708
 1153SOL     OW 4357   6.805   6.924   1.367
 1153SOL    HW1 4358   6.787   6.997   1.301
 1153SOL    HW2 4359   6.903   6.921   1.387
 1154SOL     OW 4360   0.741   4.110   1.519
 1154SOL    HW1 4361   0.823   4.153   1.555
 1154SOL    HW2 4362   0.735   4.016   1.552
 1155SOL     OW 4363   2.284   6.497   5.307
 1155SOL    HW1 4364   2.328   6.453   5.228
 1155SOL    HW2 4365   2.282   6.596   5.293
 1156SOL     OW 4366   4.201   1.751   5.094
 1156SOL    HW1 4367   4.226   1.822   5.028
 1156SOL    HW2 4368   4.232   1.662   5.060
 1157SOL     OW 4369   5.338   1.281   5.670
 1157SOL    HW1 4370   5.240   1.302   5.662
 1157SOL    HW2 4371   5.349   1.186   5.700
 1158SOL     OW 4372   6.312   6.092   4.432
 1158SOL    HW1 4373   6.301   6.009   4.486
 1158SOL    HW2 4374   6.308   6.070   4.334
 1159SOL     OW 4375   5.996   6.685   3.354
 1159SOL    HW1 4376   6.040   6.668   3.443
 1159SOL    HW2 4377   5.913   6.630   3.347
 1160SOL     OW 4378   3.851   5.605   1.743
 1160SOL    HW1 4379   3.850   5.581   1.840
 1160SOL    HW2 4380   3.789   5.682   1.728
 1161SOL     OW 4381   6.613   5.657   6.220
 1161SOL    HW1 4382   6.627   5.649   6.121
 1161SOL    HW2 4383   6.544   5.727   6.238
 1162SOL     OW 4384   2.382   2.213   6.027
 1162SOL    HW1 4385   2.302   2.193   5.970
 1162SOL    HW2 4386   2.460   2.158   5.997
 1163SOL     OW 4387   6.246   5.000   1.616
 1163SOL    HW1 4388   6.253   4.974   1.713
 1163SOL    HW2 4389   6.326   5.053   1.590
 1164SOL     OW 4390   5.512   2.563   5.093
 1164SOL    HW1 4391   5.468   2.475   5.079
 1164SOL    HW2 4392   5.495   2.622   5.013
 1165SOL     OW 4393   4.270   5.936   3.154
 1165SOL    HW1 4394   4.193   5.997   3.135
 1165SOL    HW2 4395   4.335   5.939   3.078
 1166SOL     OW 4396   1.843   6.222   6.938
 1166SOL    HW1 4397   1.875   6.275   7.016
 1166SOL    HW2 4398   1.745   6.235   6.926
 1167SOL     OW 4399   4.920   4.383   1.361
 1167SOL    HW1 4400   4.985   4.321   1.318
 1167SOL    HW2 4401   4.935   4.383   1.460
 1168SOL     OW 4402   6.208   2.433   1.959
 1168SOL    HW1 4403   6.192   2.499   2.032
 1168SOL    HW2 4404   6.168   2.345   1.984
 1169SOL     OW 4405   5.682   2.044   5.428
 1169SOL    HW1 4406   5.583   2.041   5.441
 1169SOL    HW2 4407   5.717   1.951   5.423
 1170SOL     OW 4408   4.608   6.945   2.719
 1170SOL    HW1 4409   4.567   6.905   2.801
 1170SOL    HW2 4410   4.659   0.007   2.745
 1171SOL     OW 4411   2.526   0.289   0.337
 1171SOL    HW1 4412   2.602   0.343   0.300
 1171SOL    HW2 4413   2.561   0.206   0.379
 1172SOL     OW 4414   4.925   4.275   1.036
 1172SOL    HW1 4415   4.953   4.218   0.958
 1172SOL    HW2 4416   4.947   4.227   1.121
 1173SOL     OW 4417   2.415   1.257   1.904
 1173SOL    HW1 4418   2.451   1.260   1.811
 1173SOL    HW2 4419   2.492   1.257   1.969
 1174SOL     OW 4420   3.402   3.964   1.898
 1174SOL    HW1 4421   3.401   4.042   1.961
 1174SOL    HW2 4422   3.372   3.882   1.945
 1175SOL     OW 4423   4.733   3.387   5.758
 1175SOL    HW1 4424   4.769   3.395   5.664
 1175SOL    HW2 4425   4.713   3.291   5.777
 1176SOL     OW 4426   5.091   3.550   6.433
 1176SOL    HW1 4427   5.049   3.459   6.436
 1176SOL    HW2 4428   5.149   3.557   6.352
 1177SOL     OW 4429   6.977   4.055   4.749
 1177SOL    HW1 4430   0.045   4.011   4.734
 1177SOL    HW2 4431   6.984   4.119   4.825
 1178SOL     OW 4432   2.796   3.188   0.459
 1178SOL    HW1 4433   2.794   3.276   0.507
 1178SOL    HW2 4434   2.715   3.135   0.483
 1179SOL     OW 4435   2.583   5.612   0.535
 1179SOL    HW1 4436   2.658   5.653   0.484
 1179SOL    HW2 4437   2.499   5.616   0.481
 1180SOL     OW 4438   2.405   6.017   3.357
 1180SOL    HW1 4439   2.367   6.096   3.406
 1180SOL    HW2 4440   2.504   6.016   3.368
 1181SOL     OW 4441   0.459   5.345   5.767
 1181SOL    HW1 4442   0.439   5.436   5.730
 1181SOL    HW2 4443   0.373   5.293   5.776
 1182SOL     OW 4444   3.766   5.363   3.452
 1182SOL    HW1 4445   3.726   5.421   3.523
 1182SOL    HW2 4446   3.857   5.332   3.482
 1183SOL     OW 4447   2.457   4.133   0.413
 1183SOL    HW1 4448   2.538   4.116   0.356
 1183SOL    HW2 4449   2.389   4.183   0.359
 1184SOL     OW 4450   0.161   0.844   4.732
 1184SOL    HW1 4451   0.110   0.930   4.727
 1184SOL    HW2 4452   0.223   0.839   4.654
 1185SOL     OW 4453   0.044   1.525   0.651
 1185SOL    HW1 4454   6.995   1.590   0.622
 1185SOL    HW2 4455   0.111   1.512   0.578
 1186SOL     OW 4456   5.172   6.035   5.883
 1186SOL    HW1 4457   5.204   5.941   5.873
 1186SOL    HW2 4458   5.139   6.068   5.794
 1187SOL     OW 4459   6.340   6.523   6.558
 1187SOL    HW1 4460   6.428   6.510   6.604
 1187SOL    HW2 4461   6.348   6.597   6.491
 1188SOL     OW 4462   3.531   5.883   5.337
 1188SOL    HW1 4463   3.481   5.951   5.284
 1188SOL    HW2 4464   3.606   5.928   5.386
 1189SOL     OW 4465   6.499   2.202   2.724
 1189SOL    HW1 4466   6.495   2.286   2.779
 1189SOL    HW2 4467   6.464   2.222   2.632
 1190SOL     OW 4468   2.700   5.891   4.157
 1190SOL    HW1 4469   2.712   5.880   4.256
 1190SOL    HW2 4470   2.606   5.869   4.133
 1191SOL     OW 4471   4.614   5.098   3.945
 1191SOL    HW1 4472   4.555   5.043   4.005
 1191SOL    HW2 4473   4.622   5.053   3.856
 1192SOL     OW 4474   3.970   5.466   3.030
 1192SOL    HW1 4475   4.008   5.397   3.091
 1192SOL    HW2 4476   3.879   5.438   2.999
 1193SOL     OW 4477   6.597   3.521   4.578
 1193SOL    HW1 4478   6.586   3.460   4.657
 1193SOL    HW2 4479   6.603   3.467   4.494
 1194SOL     OW 4480   5.625   0.111   1.877
 1194SOL    HW1 4481   5.548   0.071   1.927
 1194SOL    HW2 4482   5.690   0.039   1.853
 1195SOL     OW 4483   6.315   4.239   1.333
 1195SOL    HW1 4484   6.375   4.175   1.382
 1195SOL    HW2 4485   6.368   4.293   1.268
 1196SOL     OW 4486   6.909   5.549   2.731
 1196SOL    HW1 4487   6.989   5.569   2.787
 1196SOL    HW2 4488   6.856   5.475   2.772
 1197SOL     OW 4489   4.316   0.729   5.508
 1197SOL    HW1 4490   4.399   0.686   5.473
 1197SOL    HW2 4491   4.307   0.821   5.468
 1198SOL     OW 4492   1.067   2.542   2.127
 1198SOL    HW1 4493   1.074   2.639   2.104
 1198SOL    HW2 4494   0.972   2.512   2.120
 1199SOL     OW 4495   4.082   4.663   1.713
 1199SOL    HW1 4496   4.106   4.599   1.640
 1199SOL    HW2 4497   4.136   4.642   1.794
 1200SOL     OW 4498   3.497   3.353   3.749
 1200SOL    HW1 4499   3.470   3.311   3.662
 1200SOL    HW2 4500   3.584   3.315   3.779
 1201SOL     OW 4501   1.023   0.935   4.389
 1201SOL    HW1 4502   1.051   0.846   4.353
 1201SOL    HW2 4503   0.986   0.923   4.481
 1202SOL     OW 4504   0.692   5.878   6.098
 1202SOL    HW1 4505   0.714   5.790   6.055
 1202SOL    HW2 4506   0.685   5.948   6.028
 1203SOL     OW 4507   6.020   6.408   0.363
 1203SOL    HW1 4508   5.991   6.377   0.273
 1203SOL    HW2 4509   5.956   6.477   0.397
 1204SOL     OW 4510   3.279   6.717   1.286
 1204SOL    HW1 4511   3.325   6.700   1.373
 1204SOL    HW2 4512   3.321   6.661   1.215
 1205SOL     OW 4513   5.332   3.573   1.286
 1205SOL    HW1 4514   5.274   3.495   1.264
 1205SOL    HW2 4515   5.366   3.565   1.380
 1206SOL     OW 4516   3.004   2.836   5.304
 1206SOL    HW1 4517   2.968   2.877   5.388
 1206SOL    HW2 4518   2.951   2.753   5.284
 1207SOL     OW 4519   2.144   6.241   1.746
 1207SOL    HW1 4520   2.080   6.254   1.821
 1207SOL    HW2 4521   2.208   6.318   1.744
 1208SOL     OW 4522   3.031   3.487   1.011
 1208SOL    HW1 4523   2.990   3.504   1.101
 1208SOL    HW2 4524   3.106   3.551   0.997
 1209SOL     OW 4525   4.572   0.955   4.609
 1209SOL    HW1 4526   4.594   0.931   4.703
 1209SOL    HW2 4527   4.491   1.014   4.607
 1210SOL     OW 4528   2.707   0.444   3.345
 1210SOL    HW1 4529   2.627   0.413   3.397
 1210SOL    HW2 4530   2.682   0.455   3.249
 1211SOL     OW 4531   1.129   3.348   1.821
 1211SOL    HW1 4532   1.075   3.265   1.809
 1211SOL    HW2 4533   1.089   3.403   1.895
 1212SOL     OW 4534   6.528   0.080   6.617
 1212SOL    HW1 4535   6.518   0.074   6.517
 1212SOL    HW2 4536   6.559   7.013   6.653
 1213SOL     OW 4537   6.423   1.862   0.564
 1213SOL    HW1 4538   6.424   1.896   0.470
 1213SOL    HW2 4539   6.385   1.770   0.566
 1214SOL     OW 4540   0.409   3.095   0.388
 1214SOL    HW1 4541   0.340   3.132   0.449
 1214SOL    HW2 4542   0.366   3.059   0.306
 1215SOL     OW 4543   1.446   4.421   3.932
 1215SOL    HW1 4544   1.496   4.499   3.894
 1215SOL    HW2 4545   1.506   4.368   3.991
 1216SOL     OW 4546   4.945   0.683   1.419
 1216SOL    HW1 4547   4.961   0.736   1.336
 1216SOL    HW2 4548   4.901   0.596   1.396
 1217SOL     OW 4549   1.504   4.954   0.472
 1217SOL    HW1 4550   1.601   4.977   0.463
 1217SOL    HW2 4551   1.450   5.014   0.412
 1218SOL     OW 4552   2.269   4.375   4.077
 1218SOL    HW1 4553   2.308   4.450   4.023
 1218SOL    HW2 4554   2.313   4.372   4.166
 1219SOL     OW 4555   5.498   5.684   1.613
 1219SOL    HW1 4556   5.502   5.586   1.595
 1219SOL    HW2 4557   5.580   5.729   1.577
 1220SOL     OW 4558   0.780   4.787   3.017
 1220SOL    HW1 4559   0.751   4.882   3.005
 1220SOL    HW2 4560   0.878   4.785   3.037
 1221SOL     OW 4561   5.776   3.829   6.108
 1221SOL    HW1 4562   5.780   3.751   6.045
 1221SOL    HW2 4563   5.737   3.908   6.061
 1222SOL     OW 4564   6.346   6.668   6.294
 1222SOL    HW1 4565   6.380   6.740   6.233
 1222SOL    HW2 4566   6.254   6.692   6.326
 1223SOL     OW 4567   4.047   0.702   0.435
 1223SOL    HW1 4568   3.979   0.650   0.383
 1223SOL    HW2 4569   4.043   0.676   0.531
 1224SOL     OW 4570   2.789   6.334   0.515
 1224SOL    HW1 4571   2.805   6.236   0.505
 1224SOL    HW2 4572   2.693   6.350   0.541
 1225SOL     OW 4573   3.590   3.864   6.817
 1225SOL    HW1 4574   3.580   3.960   6.791
 1225SOL    HW2 4575   3.541   3.806   6.751
 1226SOL     OW 4576   2.363   5.511   1.131
 1226SOL    HW1 4577   2.395   5.605   1.143
 1226SOL    HW2 4578   2.300   5.488   1.206
 1227SOL     OW 4579   6.568   3.948   7.021
 1227SOL    HW1 4580   6.623   3.973   0.079
 1227SOL    HW2 4581   6.526   3.858   0.015
 1228SOL     OW 4582   4.429   2.931   0.086
 1228SOL    HW1 4583   4.502   2.999   0.094
 1228SOL    HW2 4584   4.450   2.853   0.145
 1229SOL     OW 4585   3.297   4.822   6.023
 1229SOL    HW1 4586   3.379   4.816   5.965
 1229SOL    HW2 4587   3.325   4.822   6.120
 1230SOL     OW 4588   4.417   0.028   3.606
 1230SOL    HW1 4589   4.468   0.054   3.524
 1230SOL    HW2 4590   4.408   6.949   3.609
 1231SOL     OW 4591   1.494   3.721   4.423
 1231SOL    HW1 4592   1.490   3.634   4.473
 1231SOL    HW2 4593   1.545   3.788   4.478
 1232SOL     OW 4594   0.689   2.372   6.296
 1232SOL    HW1 4595   0.659   2.443   6.360
 1232SOL    HW2 4596   0.716   2.413   6.210
 1233SOL     OW 4597   0.822   3.197   4.224
 1233SOL    HW1 4598   0.862   3.150   4.145
 1233SOL    HW2 4599   0.858   3.289   4.230
 1234SOL     OW 4600   6.352   4.324   4.991
 1234SOL    HW1 4601   6.260   4.286   4.978
 1234SOL    HW2 4602   6.420   4.259   4.959
 1235SOL     OW 4603   6.944   5.672   2.492
 1235SOL    HW1 4604   6.948   5.597   2.426
 1235SOL    HW2 4605   6.927   5.634   2.583
 1236SOL     OW 4606   4.980   1.305   6.726
 1236SOL    HW1 4607   4.942   1.397   6.728
 1236SOL    HW2 4608   5.056   1.298   6.790
 1237SOL     OW 4609   2.754   5.273   5.996
 1237SOL    HW1 4610   2.658   5.294   5.980
 1237SOL    HW2 4611   2.783   5.199   5.936
 1238SOL     OW 4612   2.037   0.998   0.329
 1238SOL    HW1 4613   2.096   0.917   0.321
 1238SOL    HW2 4614   2.091   1.080   0.310
 1239SOL     OW 4615   0.167   6.579   6.378
 1239SOL    HW1 4616   0.247   6.637   6.392
 1239SOL    HW2 4617   0.194   6.483   6.386
 1240SOL     OW 4618   5.488   5.648   2.089
 1240SOL    HW1 4619   5.462   5.585   2.016
 1240SOL    HW2 4620   5.535   5.598   2.162
 1241SOL     OW 4621   6.538   3.815   4.105
 1241SOL    HW1 4622   6.535   3.908   4.140
 1241SOL    HW2 4623   6.489   3.754   4.167
 1242SOL     OW 4624   1.093   3.665   1.386
 1242SOL    HW1 4625   1.156   3.670   1.309
 1242SOL    HW2 4626   1.012   3.612   1.359
 1243SOL     OW 4627   0.993   6.342   5.363
 1243SOL    HW1 4628   0.920   6.393   5.318
 1243SOL    HW2 4629   1.081   6.386   5.345
 1244SOL     OW 4630   0.152   6.126   3.520
 1244SOL    HW1 4631   0.127   6.222   3.507
 1244SOL    HW2 4632   0.235   6.120   3.575
 1245SOL     OW 4633   4.581   4.036   6.357
 1245SOL    HW1 4634   4.508   4.102   6.377
 1245SOL    HW2 4635   4.610   4.046   6.262
 1246SOL     OW 4636   2.386   6.395   2.456
 1246SOL    HW1 4637   2.295   6.418   2.421
 1246SOL    HW2 4638   2.452   6.463   2.424
 1247SOL     OW 4639   2.772   0.434   6.730
 1247SOL    HW1 4640   2.690   0.472   6.689
 1247SOL    HW2 4641   2.843   0.505   6.736
 1248SOL     OW 4642   2.517   6.920   4.384
 1248SOL    HW1 4643   2.532   6.858   4.307
 1248SOL    HW2 4644   2.482   6.868   4.462
 1249SOL     OW 4645   5.537   2.281   2.191
 1249SOL    HW1 4646   5.587   2.257   2.107
 1249SOL    HW2 4647   5.580   2.234   2.268
 1250SOL     OW 4648   6.949   4.768   4.789
 1250SOL    HW1 4649   6.915   4.862   4.796
 1250SOL    HW2 4650   6.939   4.722   4.877
 1251SOL     OW 4651   3.238   7.001   4.516
 1251SOL    HW1 4652   3.325   7.019   4.471
 1251SOL    HW2 4653   3.175   6.957   4.452
 1252SOL     OW 4654   3.632   3.851   6.393
 1252SOL    HW1 4655   3.692   3.784   6.437
 1252SOL    HW2 4656   3.681   3.897   6.319
 1253SOL     OW 4657   3.404   5.732   1.657
 1253SOL    HW1 4658   3.374   5.679   1.737
 1253SOL    HW2 4659   3.326   5.780   1.618
 1254SOL     OW 4660   6.343   3.061   2.516
 1254SOL    HW1 4661   6.422   3.049   2.456
 1254SOL    HW2 4662   6.261   3.074   2.460
 1255SOL     OW 4663   6.715   1.568   4.383
 1255SOL    HW1 4664   6.814   1.554   4.373
 1255SOL    HW2 4665   6.699   1.645   4.444
 1256SOL     OW 4666   6.952   6.816   2.573
 1256SOL    HW1 4667   0.027   6.819   2.545
 1256SOL    HW2 4668   6.930   6.726   2.609
 1257SOL     OW 4669   6.556   6.731   3.400
 1257SOL    HW1 4670   6.564   6.669   3.478
 1257SOL    HW2 4671   6.618   6.808   3.412
 1258SOL     OW 4672   0.521   5.281   3.297
 1258SOL    HW1 4673   0.577   5.203   3.321
 1258SOL    HW2 4674   0.577   5.350   3.251
 1259SOL     OW 4675   3.604   2.102   4.433
 1259SOL    HW1 4676   3.654   2.106   4.520
 1259SOL    HW2 4677   3.652   2.157   4.365
 1260SOL     OW 4678   0.914   1.858   6.705
 1260SOL    HW1 4679   0.921   1.796   6.782
 1260SOL    HW2 4680   0.839   1.828   6.645
 1261SOL     OW 4681   0.163   5.819   6.263
 1261SOL    HW1 4682   0.163   5.742   6.326
 1261SOL    HW2 4683   0.148   5.904   6.313
 1262SOL     OW 4684   5.668   5.020   2.030
 1262SOL    HW1 4685   5.605   5.089   2.067
 1262SOL    HW2 4686   5.626   4.976   1.951
 1263SOL     OW 4687   0.193   1.111   2.708
 1263SOL    HW1 4688   0.143   1.175   2.649
 1263SOL    HW2 4689   0.250   1.051   2.652
 1264SOL     OW 4690   0.726   3.749   6.690
 1264SOL    HW1 4691   0.763   3.670   6.739
 1264SOL    HW2 4692   0.797   3.819   6.681
 1265SOL     OW 4693   6.576   5.210   4.507
 1265SOL    HW1 4694   6.626   5.144   4.563
 1265SOL    HW2 4695   6.535   5.162   4.429
 1266SOL     OW 4696   0.756   0.442   4.333
 1266SOL    HW1 4697   0.757   0.342   4.332
 1266SOL    HW2 4698   0.737   0.474   4.426
 1267SOL     OW 4699   5.234   0.908   2.063
 1267SOL    HW1 4700   5.208   0.811   2.069
 1267SOL    HW2 4701   5.329   0.915   2.035
 1268SOL     OW 4702   3.578   2.544   5.847
 1268SOL    HW1 4703   3.575   2.634   5.804
 1268SOL    HW2 4704   3.500   2.489   5.815
 1269SOL     OW 4705   5.407   2.877   4.351
 1269SOL    HW1 4706   5.506   2.874   4.341
 1269SOL    HW2 4707   5.384   2.900   4.446
 1270SOL     OW 4708   2.028   4.714   2.048
 1270SOL    HW1 4709   2.015   4.790   1.985
 1270SOL    HW2 4710   1.942   4.663   2.057
 1271SOL     OW 4711   2.784   0.890   1.408
 1271SOL    HW1 4712   2.747   0.968   1.457
 1271SOL    HW2 4713   2.722   0.863   1.335
 1272SOL     OW 4714   6.543   4.209   6.257
 1272SOL    HW1 4715   6.519   4.147   6.331
 1272SOL    HW2 4716   6.463   4.223   6.198
 1273SOL     OW 4717   1.866   3.826   5.201
 1273SOL    HW1 4718   1.964   3.813   5.191
 1273SOL    HW2 4719   1.827   3.857   5.114
 1274SOL     OW 4720   0.372   4.720   1.596
 1274SOL    HW1 4721   0.462   4.701   1.556
 1274SOL    HW2 4722   0.355   4.818   1.595
 1275SOL     OW 4723   2.725   0.214   3.518
 1275SOL    HW1 4724   2.629   0.209   3.548
 1275SOL    HW2 4725   2.739   0.300   3.469
 1276SOL     OW 4726   5.349   4.770   4.547
 1276SOL    HW1 4727   5.366   4.868   4.549
 1276SOL    HW2 4728   5.295   4.746   4.467
 1277SOL     OW 4729   1.236   5.192   0.092
 1277SOL    HW1 4730   1.168   5.265   0.103
 1277SOL    HW2 4731   1.242   5.165   7.017
 1278SOL     OW 4732   1.342   0.075   4.095
 1278SOL    HW1 4733   1.243   0.081   4.089
 1278SOL    HW2 4734   1.378   0.034   4.011
 1279SOL     OW 4735   2.116   3.716   5.961
 1279SOL    HW1 4736   2.138   3.702   6.058
 1279SOL    HW2 4737   2.018   3.710   5.947
 1280SOL     OW 4738   3.539   0.541   3.533
 1280SOL    HW1 4739   3.508   0.473   3.467
 1280SOL    HW2 4740   3.460   0.582   3.580
 1281SOL     OW 4741   3.023   5.883   4.141
 1281SOL    HW1 4742   2.924   5.897   4.132
 1281SOL    HW2 4743   3.041   5.791   4.175
 1282SOL     OW 4744   0.360   2.705   0.476
 1282SOL    HW1 4745   0.317   2.627   0.522
 1282SOL    HW2 4746   0.327   2.790   0.517
 1283SOL     OW 4747   6.653   4.399   5.269
 1283SOL    HW1 4748   6.614   4.356   5.350
 1283SOL    HW2 4749   6.753   4.393   5.273
 1284SOL     OW 4750   4.011   0.541   1.060
 1284SOL    HW1 4751   4.097   0.493   1.044
 1284SOL    HW2 4752   3.972   0.511   1.147
 1285SOL     OW 4753   3.698   1.326   5.656
 1285SOL    HW1 4754   3.781   1.332   5.711
 1285SOL    HW2 4755   3.711   1.376   5.570
 1286SOL     OW 4756   4.780   2.631   0.919
 1286SOL    HW1 4757   4.686   2.611   0.891
 1286SOL    HW2 4758   4.805   2.722   0.888
 1287SOL     OW 4759   5.211   4.615   5.427
 1287SOL    HW1 4760   5.161   4.672   5.362
 1287SOL    HW2 4761   5.270   4.672   5.484
 1288SOL     OW 4762   4.557   4.461   5.809
 1288SOL    HW1 4763   4.499   4.538   5.834
 1288SOL    HW2 4764   4.545   4.442   5.711
 1289SOL     OW 4765   6.686   0.742   2.047
 1289SOL    HW1 4766   6.649   0.660   2.003
 1289SOL    HW2 4767   6.769   0.771   2.000
 1290SOL     OW 4768   1.312   0.394   1.212
 1290SOL    HW1 4769   1.366   0.385   1.295
 1290SOL    HW2 4770   1.250   0.472   1.220
 1291SOL     OW 4771   6.316   5.016   4.414
 1291SOL    HW1 4772   6.239   5.068   4.376
 1291SOL    HW2 4773   6.316   4.923   4.376
 1292SOL     OW 4774   0.422   5.675   2.326
 1292SOL    HW1 4775   0.404   5.576   2.324
 1292SOL    HW2 4776   0.347   5.721   2.372
 1293SOL     OW 4777   2.018   2.239   0.375
 1293SOL    HW1 4778   2.114   2.237   0.402
 1293SOL    HW2 4779   2.010   2.283   0.285
 1294SOL     OW 4780   1.531   4.010   6.308
 1294SOL    HW1 4781   1.629   4.000   6.291
 1294SOL    HW2 4782   1.513   3.994   6.405
 1295SOL     OW 4783   0.072   3.713   1.239
 1295SOL    HW1 4784   0.037   3.758   1.321
 1295SOL    HW2 4785   0.001   3.656   1.199
 1296SOL     OW 4786   5.008   0.041   5.555
 1296SOL    HW1 4787   4.908   0.042   5.549
 1296SOL    HW2 4788   5.037   6.988   5.616
 1297SOL     OW 4789   0.902   6.201   1.505
 1297SOL    HW1 4790   0.975   6.267   1.492
 1297SOL    HW2 4791   0.851   6.190   1.420
 1298SOL     OW 4792   5.245   6.316   3.435
 1298SOL    HW1 4793   5.189   6.384   3.388
 1298SOL    HW2 4794   5.340   6.348   3.438
 1299SOL     OW 4795   2.147   3.228   4.177
 1299SOL    HW1 4796   2.128   3.277   4.092
 1299SOL    HW2 4797   2.218   3.159   4.161
 1300SOL     OW 4798   1.840   3.627   1.386
 1300SOL    HW1 4799   1.772   3.673   1.442
 1300SOL    HW2 4800   1.848   3.532   1.416
 1301SOL     OW 4801   0.594   6.883   1.920
 1301SOL    HW1 4802   0.677   6.892   1.975
 1301SOL    HW2 4803   0.618   6.856   1.827
 1302SOL     OW 4804   5.571   0.396   5.339
 1302SOL    HW1 4805   5.628   0.315   5.351
 1302SOL    HW2 4806   5.617   0.475   5.380
 1303SOL     OW 4807   4.480   0.267   1.621
 1303SOL    HW1 4808   4.505   0.364   1.631
 1303SOL    HW2 4809   4.455   0.249   1.526
 1304SOL     OW 4810   1.891   1.164   1.159
 1304SOL    HW1 4811   1.918   1.239   1.219
 1304SOL    HW2 4812   1.892   1.195   1.063
 1305SOL     OW 4813   5.417   4.443   6.188
 1305SOL    HW1 4814   5.320   4.433   6.168
 1305SOL    HW2 4815   5.449   4.531   6.153
 1306SOL     OW 4816   0.939   5.578   4.445
 1306SOL    HW1 4817   0.907   5.569   4.540
 1306SOL    HW2 4818   0.986   5.666   4.435
 1307SOL     OW 4819   1.787   3.402   3.896
 1307SOL    HW1 4820   1.754   3.492   3.924
 1307SOL    HW2 4821   1.746   3.376   3.809
 1308SOL     OW 4822   6.669   6.442   6.158
 1308SOL    HW1 4823   6.603   6.389   6.212
 1308SOL    HW2 4824   6.715   6.382   6.093
 1309SOL     OW 4825   5.384   4.515   5.719
 1309SOL    HW1 4826   5.329   4.563   5.787
 1309SOL    HW2 4827   5.323   4.470   5.653
 1310SOL     OW 4828   0.602   4.124   3.818
 1310SOL    HW1 4829   0.698   4.105   3.836
 1310SOL    HW2 4830   0.545   4.067   3.879
 1311SOL     OW 4831   6.338   5.751   6.240
 1311SOL    HW1 4832   6.333   5.779   6.336
 1311SOL    HW2 4833   6.247   5.754   6.199
 1312SOL     OW 4834   1.758   0.764   6.538
 1312SOL    HW1 4835   1.847   0.784   6.579
 1312SOL    HW2 4836   1.745   0.822   6.457
 1313SOL     OW 4837   6.610   5.266   2.928
 1313SOL    HW1 4838   6.520   5.309   2.923
 1313SOL    HW2 4839   6.627   5.233   3.021
 1314SOL     OW 4840   3.039   1.827   4.406
 1314SOL    HW1 4841   3.032   1.860   4.312
 1314SOL    HW2 4842   2.952   1.842   4.453
 1315SOL     OW 4843   6.791   0.948   4.257
 1315SOL    HW1 4844   6.817   0.957   4.161
 1315SOL    HW2 4845   6.691   0.952   4.265
 1316SOL     OW 4846   3.979   0.162   4.992
 1316SOL    HW1 4847   3.933   0.250   4.978
 1316SOL    HW2 4848   4.018   0.131   4.905
 1317SOL     OW 4849   2.005   4.623   5.485
 1317SOL    HW1 4850   1.911   4.656   5.499
 1317SOL    HW2 4851   2.018   4.603   5.388
 1318SOL     OW 4852   1.484   2.706   6.666
 1318SOL    HW1 4853   1.580   2.702   6.639
 1318SOL    HW2 4854   1.431   2.645   6.608
 1319SOL     OW 4855   0.111   5.997   6.719
 1319SOL    HW1 4856   0.104   6.066   6.647
 1319SOL    HW2 4857   0.022   5.985   6.763
 1320SOL     OW 4858   3.087   3.135   6.656
 1320SOL    HW1 4859   3.098   3.065   6.585
 1320SOL    HW2 4860   2.993   3.168   6.655
 1321SOL     OW 4861   4.712   2.436   6.762
 1321SOL    HW1 4862   4.751   2.383   6.686
 1321SOL    HW2 4863   4.614   2.450   6.745
 1322SOL     OW 4864   3.554   1.479   4.241
 1322SOL    HW1 4865   3.516   1.400   4.193
 1322SOL    HW2 4866   3.589   1.449   4.330
 1323SOL     OW 4867   3.838   6.301   0.814
 1323SOL    HW1 4868   3.745   6.333   0.828
 1323SOL    HW2 4869   3.885   6.361   0.749
 1324SOL     OW 4870   1.021   3.700   0.593
 1324SOL    HW1 4871   1.042   3.796   0.576
 1324SOL    HW2 4872   1.104   3.652   0.621
 1325SOL     OW 4873   4.215   6.518   5.203
 1325SOL    HW1 4874   4.204   6.613   5.231
 1325SOL    HW2 4875   4.175   6.505   5.112
 1326SOL     OW 4876   4.634   4.064   5.387
 1326SOL    HW1 4877   4.626   4.120   5.304
 1326SOL    HW2 4878   4.622   3.968   5.363
 1327SOL     OW 4879   0.288   6.195   1.119
 1327SOL    HW1 4880   0.368   6.175   1.062
 1327SOL    HW2 4881   0.317   6.251   1.197
 1328SOL     OW 4882   1.411   3.308   6.359
 1328SOL    HW1 4883   1.370   3.376   6.298
 1328SOL    HW2 4884   1.339   3.251   6.398
 1329SOL     OW 4885   0.254   1.859   2.879
 1329SOL    HW1 4886   0.190   1.903   2.943
 1329SOL    HW2 4887   0.231   1.762   2.870
 1330SOL     OW 4888   0.355   2.074   0.893
 1330SOL    HW1 4889   0.437   2.083   0.836
 1330SOL    HW2 4890   0.368   2.126   0.978
 1331SOL     OW 4891   4.362   2.403   2.412
 1331SOL    HW1 4892   4.275   2.450   2.394
 1331SOL    HW2 4893   4.362   2.368   2.506
 1332SOL     OW 4894   2.249   6.569   0.275
 1332SOL    HW1 4895   2.274   6.501   0.342
 1332SOL    HW2 4896   2.186   6.635   0.316
 1333SOL     OW 4897   3.054   3.934   3.107
 1333SOL    HW1 4898   3.077   3.992   3.029
 1333SOL    HW2 4899   2.987   3.865   3.079
 1334SOL     OW 4900   6.661   2.160   3.516
 1334SOL    HW1 4901   6.761   2.168   3.515
 1334SOL    HW2 4902   6.621   2.246   3.550
 1335SOL     OW 4903   1.910   2.178   2.367
 1335SOL    HW1 4904   1.892   2.086   2.403
 1335SOL    HW2 4905   1.837   2.204   2.304
 1336SOL     OW 4906   3.994   1.896   5.670
 1336SOL    HW1 4907   3.959   1.990   5.659
 1336SOL    HW2 4908   4.093   1.896   5.654
 1337SOL     OW 4909   6.731   1.440   2.817
 1337SOL    HW1 4910   6.797   1.369   2.791
 1337SOL    HW2 4911   6.671   1.406   2.889
 1338SOL     OW 4912   6.766   4.596   4.363
 1338SOL    HW1 4913   6.782   4.649   4.446
 1338SOL    HW2 4914   6.723   4.509   4.387
 1339SOL     OW 4915   6.953   0.433   6.915
 1339SOL    HW1 4916   6.945   0.502   6.987
 1339SOL    HW2 4917   6.909   0.348   6.945
 1340SOL     OW 4918   5.425   1.973   2.797
 1340SOL    HW1 4919   5.348   1.915   2.773
 1340SOL    HW2 4920   5.505   1.915   2.817
 1341SOL     OW 4921   4.359   6.378   0.578
 1341SOL    HW1 4922   4.315   6.463   0.548
 1341SOL    HW2 4923   4.342   6.306   0.510
 1342SOL     OW 4924   3.169   5.154   6.339
 1342SOL    HW1 4925   3.216   5.233   6.301
 1342SOL    HW2 4926   3.212   5.070   6.306
 1343SOL     OW 4927   5.818   5.218   2.953
 1343SOL    HW1 4928   5.802   5.153   3.027
 1343SOL    HW2 4929   5.834   5.169   2.867
 1344SOL     OW 4930   0.922   6.280   4.350
 1344SOL    HW1 4931   0.995   6.295   4.283
 1344SOL    HW2 4932   0.869   6.199   4.324
 1345SOL     OW 4933   0.708   4.546   2.168
 1345SOL    HW1 4934   0.789   4.596   2.199
 1345SOL    HW2 4935   0.626   4.602   2.181
 1346SOL     OW 4936   1.750   5.362   6.227
 1346SOL    HW1 4937   1.723   5.451   6.265
 1346SOL    HW2 4938   1.726   5.290   6.291
 1347SOL     OW 4939   1.523   7.011   6.582
 1347SOL    HW1 4940   1.594   6.948   6.549
 1347SOL    HW2 4941   1.461   0.012   6.507
 1348SOL     OW 4942   0.341   6.104   5.215
 1348SOL    HW1 4943   0.337   6.153   5.128
 1348SOL    HW2 4944   0.413   6.035   5.211
 1349SOL     OW 4945   5.445   2.488   4.069
 1349SOL    HW1 4946   5.479   2.394   4.069
 1349SOL    HW2 4947   5.487   2.539   3.994
 1350SOL     OW 4948   4.281   4.862   6.666
 1350SOL    HW1 4949   4.367   4.818   6.639
 1350SOL    HW2 4950   4.259   4.934   6.600
 1351SOL     OW 4951   5.975   2.556   4.115
 1351SOL    HW1 4952   6.046   2.539   4.183
 1351SOL    HW2 4953   5.921   2.473   4.102
 1352SOL     OW 4954   6.832   6.591   2.687
 1352SOL    HW1 4955   6.816   6.509   2.632
 1352SOL    HW2 4956   6.749   6.613   2.739
 1353SOL     OW 4957   1.090   1.919   0.459
 1353SOL    HW1 4958   1.001   1.961   0.437
 1353SOL    HW2 4959   1.146   1.985   0.510
 1354SOL     OW 4960   0.013   3.467   2.225
 1354SOL    HW1 4961   0.110   3.482   2.208
 1354SOL    HW2 4962   7.019   3.370   2.248
 1355SOL     OW 4963   6.141   3.560   4.161
 1355SOL    HW1 4964   6.049   3.521   4.160
 1355SOL    HW2 4965   6.202   3.500   4.213
 1356SOL     OW 4966   3.345   2.860   2.272
 1356SOL    HW1 4967   3.389   2.794   2.333
 1356SOL    HW2 4968   3.261   2.894   2.314
 1357SOL     OW 4969   6.496   4.252   5.921
 1357SOL    HW1 4970   6.593   4.230   5.926
 1357SOL    HW2 4971   6.441   4.170   5.936
 1358SOL     OW 4972   5.998   0.014   0.519
 1358SOL    HW1 4973   5.933   0.086   0.494
 1358SOL    HW2 4974   6.047   0.041   0.602
 1359SOL     OW 4975   6.852   4.758   2.360
 1359SOL    HW1 4976   6.800   4.843   2.367
 1359SOL    HW2 4977   6.791   4.683   2.334
 1360SOL     OW 4978   3.458   3.473   0.069
 1360SOL    HW1 4979   3.545   3.472   0.119
 1360SOL    HW2 4980   3.453   3.558   0.015
 1361SOL     OW 4981   0.184   4.591   5.127
 1361SOL    HW1 4982   0.147   4.660   5.189
 1361SOL    HW2 4983   0.233   4.522   5.180
 1362SOL     OW 4984   3.780   3.637   2.601
 1362SOL    HW1 4985   3.751   3.655   2.695
 1362SOL    HW2 4986   3.700   3.618   2.544
 1363SOL     OW 4987   0.267   5.132   4.251
 1363SOL    HW1 4988   0.289   5.221   4.213
 1363SOL    HW2 4989   0.232   5.143   4.344
 1364SOL     OW 4990   4.570   4.031   0.397
 1364SOL    HW1 4991   4.631   4.110   0.386
 1364SOL    HW2 4992   4.499   4.054   0.465
 1365SOL     OW 4993   0.348   4.504   6.859
 1365SOL    HW1 4994   0.358   4.525   6.957
 1365SOL    HW2 4995   0.323   4.408   6.848
 1366SOL     OW 4996   1.979   6.787   5.761
 1366SOL    HW1 4997   1.998   6.885   5.762
 1366SOL    HW2 4998   2.001   6.749   5.671
 1367SOL     OW 4999   1.722   1.382   2.201
 1367SOL    HW1 5000   1.809   1.419   2.169
 1367SOL    HW2 5001   1.728   1.357   2.297
 1368SOL     OW 5002   5.429   6.715   5.281
 1368SOL    HW1 5003   5.491   6.668   5.218
 1368SOL    HW2 5004   5.472   6.798   5.315
 1369SOL     OW 5005   1.378   6.160   2.843
 1369SOL    HW1 5006   1.471   6.186   2.869
 1369SOL    HW2 5007   1.352   6.208   2.760
 1370SOL     OW 5008   3.603   0.950   1.684
 1370SOL    HW1 5009   3.549   0.921   1.763
 1370SOL    HW2 5010   3.548   0.941   1.601
 1371SOL     OW 5011   4.373   1.371   4.656
 1371SOL    HW1 5012   4.441   1.366   4.582
 1371SOL    HW2 5013   4.307   1.443   4.637
 1372SOL     OW 5014   1.768   2.779   1.025
 1372SOL    HW1 5015   1.752   2.786   1.123
 1372SOL    HW2 5016   1.730   2.692   0.991
 1373SOL     OW 5017   6.530   4.765   0.383
 1373SOL    HW1 5018   6.603   4.775   0.451
 1373SOL    HW2 5019   6.570   4.761   0.292
 1374SOL     OW 5020   4.353   2.311   0.644
 1374SOL    HW1 5021   4.323   2.216   0.650
 1374SOL    HW2 5022   4.305   2.366   0.712
 1375SOL     OW 5023   0.023   5.094   5.398
 1375SOL    HW1 5024   0.081   5.051   5.329
 1375SOL    HW2 5025   6.952   5.108   5.361
 1376SOL     OW 5026   4.593   2.651   3.887
 1376SOL    HW1 5027   4.524   2.581   3.907
 1376SOL    HW2 5028   4.612   2.651   3.789
 1377SOL     OW 5029   0.605   4.499   5.248
 1377SOL    HW1 5030   0.644   4.574   5.302
 1377SOL    HW2 5031   0.637   4.507   5.153
 1378SOL     OW 5032   1.168   2.580   5.989
 1378SOL    HW1 5033   1.234   2.513   5.956
 1378SOL    HW2 5034   1.097   2.534   6.042
 1379SOL     OW 5035   3.151   6.119   3.268
 1379SOL    HW1 5036   3.226   6.172   3.228
 1379SOL    HW2 5037   3.158   6.122   3.368
 1380SOL     OW 5038   6.635   6.597   2.165
 1380SOL    HW1 5039   6.652   6.634   2.256
 1380SOL    HW2 5040   6.669   6.661   2.096
 1381SOL     OW 5041   5.981   3.172   0.291
 1381SOL    HW1 5042   5.891   3.201   0.322
 1381SOL    HW2 5043   6.018   3.104   0.355
 1382SOL     OW 5044   6.056   5.615   5.595
 1382SOL    HW1 5045   6.094   5.708   5.602
 1382SOL    HW2 5046   6.131   5.550   5.592
 1383SOL     OW 5047   0.471   0.722   0.182
 1383SOL    HW1 5048   0.536   0.775   0.238
 1383SOL    HW2 5049   0.510   0.632   0.163
 1384SOL     OW 5050   3.457   1.232   3.410
 1384SOL    HW1 5051   3.533   1.281   3.369
 1384SOL    HW2 5052   3.447   1.260   3.505
 1385SOL     OW 5053   6.466   2.835   3.156
 1385SOL    HW1 5054   6.400   2.789   3.097
 1385SOL    HW2 5055   6.427   2.921   3.189
 1386SOL     OW 5056   1.924   3.095   4.448
 1386SOL    HW1 5057   1.896   3.084   4.353
 1386SOL    HW2 5058   2.008   3.043   4.465
 1387SOL     OW 5059   3.515   0.481   4.676
 1387SOL    HW1 5060   3.530   0.532   4.591
 1387SOL    HW2 5061   3.488   0.545   4.748
 1388SOL     OW 5062   6.458   0.527   4.292
 1388SOL    HW1 5063   6.519   0.481   4.356
 1388SOL    HW2 5064   6.450   0.473   4.208
 1389SOL     OW 5065   6.237   6.990   4.288
 1389SOL    HW1 5066   6.197   6.918   4.232
 1389SOL    HW2 5067   6.223   0.057   4.244
 1390SOL     OW 5068   4.798   1.536   1.339
 1390SOL    HW1 5069   4.745   1.455   1.312
 1390SOL    HW2 5070   4.791   1.549   1.438
 1391SOL     OW 5071   6.814   0.480   4.600
 1391SOL    HW1 5072   6.851   0.549   4.662
 1391SOL    HW2 5073   6.845   0.499   4.506
 1392SOL     OW 5074   4.268   6.053   6.365
 1392SOL    HW1 5075   4.334   6.121   6.334
 1392SOL    HW2 5076   4.182   6.065   6.317
 1393SOL     OW 5077   6.700   1.589   6.415
 1393SOL    HW1 5078   6.608   1.622   6.393
 1393SOL    HW2 5079   6.693   1.508   6.474
 1394SOL     OW 5080   4.083   6.627   3.551
 1394SOL    HW1 5081   4.077   6.552   3.484
 1394SOL    HW2 5082   3.997   6.678   3.551
 1395SOL     OW 5083   1.160   5.160   2.978
 1395SOL    HW1 5084   1.230   5.224   3.009
 1395SOL    HW2 5085   1.090   5.150   3.049
 1396SOL     OW 5086   1.885   1.384   4.707
 1396SOL    HW1 5087   1.859   1.388   4.610
 1396SOL    HW2 5088   1.974   1.338   4.715
 1397SOL     OW 5089   0.503   4.776   4.425
 1397SOL    HW1 5090   0.563   4.743   4.353
 1397SOL    HW2 5091   0.422   4.820   4.385
 1398SOL     OW 5092   0.940   1.732   0.878
 1398SOL    HW1 5093   0.943   1.727   0.779
 1398SOL    HW2 5094   1.011   1.795   0.911
 1399SOL     OW 5095   3.849   0.433   0.538
 1399SOL    HW1 5096   3.795   0.509   0.572
 1399SOL    HW2 5097   3.879   0.376   0.614
 1400SOL     OW 5098   6.268   0.782   4.543
 1400SOL    HW1 5099   6.293   0.793   4.447
 1400SOL    HW2 5100   6.327   0.713   4.586
 1401SOL     OW 5101   5.311   0.503   3.343
 1401SOL    HW1 5102   5.398   0.460   3.368
 1401SOL    HW2 5103   5.236   0.438   3.356
 1402SOL     OW 5104   5.728   3.707   1.407
 1402SOL    HW1 5105   5.664   3.710   1.484
 1402SOL    HW2 5106   5.767   3.615   1.400
 1403SOL     OW 5107   3.888   2.907   6.876
 1403SOL    HW1 5108   3.902   2.934   6.780
 1403SOL    HW2 5109   3.800   2.942   6.907
 1404SOL     OW 5110   4.363   0.019   0.883
 1404SOL    HW1 5111   4.445   0.075   0.873
 1404SOL    HW2 5112   4.283   0.071   0.852
 1405SOL     OW 5113   2.308   3.368   0.982
 1405SOL    HW1 5114   2.374   3.385   0.908
 1405SOL    HW2 5115   2.353   3.319   1.056
 1406SOL     OW 5116   2.326   2.951   0.691
 1406SOL    HW1 5117   2.293   3.041   0.717
 1406SOL    HW2 5118   2.416   2.935   0.731
 1407SOL     OW 5119   0.722   3.001   1.734
 1407SOL    HW1 5120   0.677   3.064   1.671
 1407SOL    HW2 5121   0.731   3.044   1.823
 1408SOL     OW 5122   5.598   6.047   6.335
 1408SOL    HW1 5123   5.568   6.135   6.298
 1408SOL    HW2 5124   5.662   6.064   6.410
 1409SOL     OW 5125   6.828   1.063   5.744
 1409SOL    HW1 5126   6.873   1.123   5.678
 1409SOL    HW2 5127   6.876   0.976   5.748
 1410SOL     OW 5128   2.944   2.544   5.595
 1410SOL    HW1 5129   2.881   2.574   5.524
 1410SOL    HW2 5130   2.995   2.465   5.563
 1411SOL     OW 5131   3.894   5.846   0.132
 1411SOL    HW1 5132   3.989   5.818   0.148
 1411SOL    HW2 5133   3.854   5.880   0.217
 1412SOL     OW 5134   1.278   2.442   0.705
 1412SOL    HW1 5135   1.269   2.405   0.798
 1412SOL    HW2 5136   1.354   2.396   0.658
 1413SOL     OW 5137   1.486   1.582   5.195
 1413SOL    HW1 5138   1.571   1.586   5.247
 1413SOL    HW2 5139   1.463   1.486   5.176
 1414SOL     OW 5140   0.638   3.401   2.027
 1414SOL    HW1 5141   0.602   3.493   2.015
 1414SOL    HW2 5142   0.686   3.395   2.115
 1415SOL     OW 5143   2.823   1.979   3.619
 1415SOL    HW1 5144   2.886   1.915   3.575
 1415SOL    HW2 5145   2.768   2.026   3.550
 1416SOL     OW 5146   4.337   0.141   5.845
 1416SOL    HW1 5147   4.309   0.235   5.861
 1416SOL    HW2 5148   4.266   0.078   5.878
 1417SOL     OW 5149   3.397   3.037   6.090
 1417SOL    HW1 5150   3.489   3.009   6.065
 1417SOL    HW2 5151   3.377   3.007   6.183
 1418SOL     OW 5152   3.722   3.677   6.995
 1418SOL    HW1 5153   3.820   3.698   6.985
 1418SOL    HW2 5154   3.672   3.717   6.919
 1419SOL     OW 5155   2.136   5.210   3.555
 1419SOL    HW1 5156   2.166   5.215   3.650
 1419SOL    HW2 5157   2.036   5.222   3.551
 1420SOL     OW 5158   3.660   5.192   3.279
 1420SOL    HW1 5159   3.700   5.259   3.342
 1420SOL    HW2 5160   3.669   5.225   3.185
 1421SOL     OW 5161   0.972   5.660   6.102
 1421SOL    HW1 5162   0.906   5.586   6.115
 1421SOL    HW2 5163   1.059   5.622   6.071
 1422SOL     OW 5164   2.706   3.621   6.042
 1422SOL    HW1 5165   2.613   3.614   6.005
 1422SOL    HW2 5166   2.761   3.679   5.982
 1423SOL     OW 5167   4.745   0.543   4.652
 1423SOL    HW1 5168   4.653   0.527   4.616
 1423SOL    HW2 5169   4.786   0.622   4.605
 1424SOL     OW 5170   5.873   3.140   6.636
 1424SOL    HW1 5171   5.953   3.183   6.595
 1424SOL    HW2 5172   5.794   3.201   6.625
 1425SOL     OW 5173   3.871   6.599   4.112
 1425SOL    HW1 5174   3.782   6.553   4.105
 1425SOL    HW2 5175   3.915   6.599   4.022
 1426SOL     OW 5176   2.643   1.996   0.245
 1426SOL    HW1 5177   2.605   2.088   0.251
 1426SOL    HW2 5178   2.699   1.977   0.326
 1427SOL     OW 5179   0.804   1.254   3.088
 1427SOL    HW1 5180   0.725   1.314   3.100
 1427SOL    HW2 5181   0.875   1.279   3.154
 1428SOL     OW 5182   6.731   3.536   3.600
 1428SOL    HW1 5183   6.637   3.560   3.576
 1428SOL    HW2 5184   6.743   3.543   3.698
 1429SOL     OW 5185   5.956   1.448   0.442
 1429SOL    HW1 5186   6.035   1.484   0.393
 1429SOL    HW2 5187   5.932   1.510   0.517
 1430SOL     OW 5188   2.005   3.231   3.282
 1430SOL    HW1 5189   2.086   3.171   3.286
 1430SOL    HW2 5190   1.934   3.195   3.342
 1431SOL     OW 5191   2.466   1.528   6.280
 1431SOL    HW1 5192   2.543   1.537   6.217
 1431SOL    HW2 5193   2.398   1.598   6.258
 1432SOL     OW 5194   2.893   1.126   1.075
 1432SOL    HW1 5195   2.932   1.094   1.161
 1432SOL    HW2 5196   2.827   1.199   1.092
 1433SOL     OW 5197   2.892   0.517   4.401
 1433SOL    HW1 5198   2.920   0.482   4.312
 1433SOL    HW2 5199   2.949   0.476   4.472
 1434SOL     OW 5200   6.907   3.051   6.892
 1434SOL    HW1 5201   6.928   3.047   6.990
 1434SOL    HW2 5202   6.810   3.074   6.879
 1435SOL     OW 5203   0.745   6.968   5.093
 1435SOL    HW1 5204   0.794   0.002   5.026
 1435SOL    HW2 5205   0.686   6.902   5.045
 1436SOL     OW 5206   5.696   2.105   0.582
 1436SOL    HW1 5207   5.698   2.038   0.657
 1436SOL    HW2 5208   5.648   2.187   0.613
 1437SOL     OW 5209   4.206   1.445   6.140
 1437SOL    HW1 5210   4.171   1.351   6.145
 1437SOL    HW2 5211   4.132   1.509   6.157
 1438SOL     OW 5212   2.470   1.155   1.464
 1438SOL    HW1 5213   2.392   1.219   1.462
 1438SOL    HW2 5214   2.446   1.072   1.415
 1439SOL     OW 5215   6.609   5.076   7.008
 1439SOL    HW1 5216   6.592   5.152   0.050
 1439SOL    HW2 5217   6.533   5.012   7.012
 1440SOL     OW 5218   3.294   3.029   3.633
 1440SOL    HW1 5219   3.200   3.061   3.644
 1440SOL    HW2 5220   3.354   3.107   3.617
 1441SOL     OW 5221   0.147   2.634   4.521
 1441SOL    HW1 5222   0.065   2.670   4.565
 1441SOL    HW2 5223   0.137   2.637   4.422
 1442SOL     OW 5224   5.069   3.992   0.199
 1442SOL    HW1 5225   5.051   3.981   0.297
 1442SOL    HW2 5226   4.983   4.003   0.149
 1443SOL     OW 5227   0.772   1.677   3.526
 1443SOL    HW1 5228   0.724   1.613   3.586
 1443SOL    HW2 5229   0.801   1.630   3.443
 1444SOL     OW 5230   4.426   0.532   3.597
 1444SOL    HW1 5231   4.370   0.609   3.626
 1444SOL    HW2 5232   4.519   0.544   3.632
 1445SOL     OW 5233   6.622   2.236   1.624
 1445SOL    HW1 5234   6.692   2.286   1.675
 1445SOL    HW2 5235   6.532   2.272   1.649
 1446SOL     OW 5236   3.855   2.201   1.456
 1446SOL    HW1 5237   3.872   2.216   1.553
 1446SOL    HW2 5238   3.896   2.276   1.403
 1447SOL     OW 5239   6.171   1.374   4.819
 1447SOL    HW1 5240   6.077   1.345   4.806
 1447SOL    HW2 5241   6.226   1.297   4.851
 1448SOL     OW 5242   5.444   1.210   6.298
 1448SOL    HW1 5243   5.481   1.252   6.215
 1448SOL    HW2 5244   5.351   1.243   6.313
 1449SOL     OW 5245   5.247   5.945   0.935
 1449SOL    HW1 5246   5.250   6.027   0.993
 1449SOL    HW2 5247   5.266   5.864   0.990
 1450SOL     OW 5248   5.504   3.010   2.940
 1450SOL    HW1 5249   5.554   3.038   2.858
 1450SOL    HW2 5250   5.569   2.984   3.011
 1451SOL     OW 5251   1.857   6.578   2.830
 1451SOL    HW1 5252   1.758   6.582   2.815
 1451SOL    HW2 5253   1.889   6.485   2.812
 1452SOL     OW 5254   5.079   0.720   5.303
 1452SOL    HW1 5255   4.997   0.756   5.347
 1452SOL    HW2 5256   5.141   0.684   5.372
 1453SOL     OW 5257   5.184   4.020   4.883
 1453SOL    HW1 5258   5.253   4.054   4.819
 1453SOL    HW2 5259   5.208   4.047   4.976
 1454SOL     OW 5260   5.029   2.809   2.125
 1454SOL    HW1 5261   4.997   2.717   2.149
 1454SOL    HW2 5262   4.988   2.837   2.038
 1455SOL     OW 5263   1.278   1.037   2.070
 1455SOL    HW1 5264   1.270   1.018   1.972
 1455SOL    HW2 5265   1.338   0.969   2.112
 1456SOL     OW 5266   0.124   6.704   4.161
 1456SOL    HW1 5267   0.078   6.724   4.248
 1456SOL    HW2 5268   0.210   6.657   4.179
 1457SOL     OW 5269   1.941   0.604   4.170
 1457SOL    HW1 5270   2.011   0.535   4.191
 1457SOL    HW2 5271   1.852   0.574   4.205
 1458SOL     OW 5272   5.285   6.382   6.256
 1458SOL    HW1 5273   5.244   6.473   6.261
 1458SOL    HW2 5274   5.284   6.340   6.347
 1459SOL     OW 5275   2.899   6.245   0.158
 1459SOL    HW1 5276   2.868   6.330   0.117
 1459SOL    HW2 5277   2.889   6.171   0.092
 1460SOL     OW 5278   1.352   6.735   0.144
 1460SOL    HW1 5279   1.451   6.721   0.153
 1460SOL    HW2 5280   1.309   6.651   0.112
 1461SOL     OW 5281   5.568   4.568   2.215
 1461SOL    HW1 5282   5.601   4.629   2.286
 1461SOL    HW2 5283   5.615   4.479   2.222
 1462SOL     OW 5284   5.782   0.700   0.242
 1462SOL    HW1 5285   5.716   0.627   0.261
 1462SOL    HW2 5286   5.815   0.692   0.148
 1463SOL     OW 5287   1.150   0.555   5.055
 1463SOL    HW1 5288   1.153   0.591   5.148
 1463SOL    HW2 5289   1.192   0.622   4.993
 1464SOL     OW 5290   0.028   6.294   0.695
 1464SOL    HW1 5291   0.019   6.195   0.696
 1464SOL    HW2 5292   0.105   6.322   0.751
 1465SOL     OW 5293   0.521   0.198   4.547
 1465SOL    HW1 5294   0.621   0.207   4.549
 1465SOL    HW2 5295   0.497   0.107   4.514
 1466SOL     OW 5296   5.925   5.573   3.320
 1466SOL    HW1 5297   5.942   5.584   3.418
 1466SOL    HW2 5298   5.828   5.588   3.302
 1467SOL     OW 5299   0.779   1.218   3.803
 1467SOL    HW1 5300   0.803   1.315   3.806
 1467SOL    HW2 5301   0.680   1.208   3.798
 1468SOL     OW 5302   5.068   5.764   3.564
 1468SOL    HW1 5303   5.089   5.741   3.659
 1468SOL    HW2 5304   5.038   5.681   3.516
 1469SOL     OW 5305   0.828   0.989   2.370
 1469SOL    HW1 5306   0.834   0.991   2.470
 1469SOL    HW2 5307   0.855   0.899   2.337
 1470SOL     OW 5308   0.986   1.015   2.978
 1470SOL    HW1 5309   0.912   1.079   2.999
 1470SOL    HW2 5310   1.003   0.956   3.057
 1471SOL     OW 5311   0.138   0.304   6.729
 1471SOL    HW1 5312   0.179   0.257   6.807
 1471SOL    HW2 5313   0.048   0.339   6.755
 1472SOL     OW 5314   5.000   0.604   6.116
 1472SOL    HW1 5315   5.085   0.557   6.139
 1472SOL    HW2 5316   4.970   0.657   6.195
 1473SOL     OW 5317   5.879   4.759   3.083
 1473SOL    HW1 5318   5.919   4.734   2.995
 1473SOL    HW2 5319   5.945   4.741   3.156
 1474SOL     OW 5320   5.864   5.517   4.256
 1474SOL    HW1 5321   5.841   5.578   4.180
 1474SOL    HW2 5322   5.818   5.547   4.339
 1475SOL     OW 5323   6.851   0.948   2.267
 1475SOL    HW1 5324   6.887   0.856   2.255
 1475SOL    HW2 5325   6.841   0.992   2.178
 1476SOL     OW 5326   0.817   1.847   2.403
 1476SOL    HW1 5327   0.726   1.830   2.441
 1476SOL    HW2 5328   0.824   1.944   2.377
 1477SOL     OW 5329   2.864   6.703   5.258
 1477SOL    HW1 5330   2.935   6.681   5.192
 1477SOL    HW2 5331   2.897   6.776   5.319
 1478SOL     OW 5332   5.715   4.891   1.175
 1478SOL    HW1 5333   5.797   4.834   1.177
 1478SOL    HW2 5334   5.634   4.832   1.166
 1479SOL     OW 5335   2.131   4.505   0.558
 1479SOL    HW1 5336   2.096   4.413   0.539
 1479SOL    HW2 5337   2.072   4.573   0.515
 1480SOL     OW 5338   2.365   1.471   0.444
 1480SOL    HW1 5339   2.284   1.439   0.494
 1480SOL    HW2 5340   2.392   1.402   0.377
 1481SOL     OW 5341   6.066   2.463   6.087
 1481SOL    HW1 5342   6.125   2.427   6.015
 1481SOL    HW2 5343   5.972   2.431   6.072
 1482SOL     OW 5344   5.621   0.751   6.876
 1482SOL    HW1 5345   5.568   0.716   6.953
 1482SOL    HW2 5346   5.599   0.847   6.860
 1483SOL     OW 5347   6.350   2.641   0.108
 1483SOL    HW1 5348   6.384   2.735   0.098
 1483SOL    HW2 5349   6.421   2.583   0.147
 1484SOL     OW 5350   0.037   4.908   2.236
 1484SOL    HW1 5351   6.975   4.854   2.251
 1484SOL    HW2 5352   0.086   4.919   2.322
 1485SOL     OW 5353   5.519   2.672   3.856
 1485SOL    HW1 5354   5.501   2.657   3.759
 1485SOL    HW2 5355   5.489   2.764   3.883
 1486SOL     OW 5356   4.663   2.210   2.926
 1486SOL    HW1 5357   4.652   2.211   3.025
 1486SOL    HW2 5358   4.707   2.125   2.898
 1487SOL     OW 5359   5.724   1.528   5.879
 1487SOL    HW1 5360   5.740   1.612   5.828
 1487SOL    HW2 5361   5.811   1.491   5.912
 1488SOL     OW 5362   4.625   1.274   3.230
 1488SOL    HW1 5363   4.536   1.320   3.234
 1488SOL    HW2 5364   4.649   1.241   3.321
 1489SOL     OW 5365   3.902   4.926   4.839
 1489SOL    HW1 5366   3.882   4.966   4.750
 1489SOL    HW2 5367   3.999   4.906   4.846
 1490SOL     OW 5368   1.037   2.313   0.349
 1490SOL    HW1 5369   1.005   2.247   0.282
 1490SOL    HW2 5370   1.027   2.406   0.312
 1491SOL     OW 5371   0.123   3.411   3.827
 1491SOL    HW1 5372   0.086   3.484   3.769
 1491SOL    HW2 5373   0.049   3.371   3.882
 1492SOL     OW 5374   5.280   1.677   1.526
 1492SOL    HW1 5375   5.283   1.584   1.561
 1492SOL    HW2 5376   5.242   1.738   1.595
 1493SOL     OW 5377   4.692   0.156   5.264
 1493SOL    HW1 5378   4.597   0.187   5.255
 1493SOL    HW2 5379   4.740   0.216   5.328
 1494SOL     OW 5380   4.021   2.256   5.944
 1494SOL    HW1 5381   4.009   2.186   6.015
 1494SOL    HW2 5382   3.960   2.333   5.962
 1495SOL     OW 5383   0.965   3.199   2.887
 1495SOL    HW1 5384   0.878   3.218   2.842
 1495SOL    HW2 5385   0.965   3.241   2.978
 1496SOL     OW 5386   6.890   0.340   2.019
 1496SOL    HW1 5387   6.883   0.371   2.114
 1496SOL    HW2 5388   6.806   0.291   1.994
 1497SOL     OW 5389   6.521   5.211   4.133
 1497SOL    HW1 5390   6.425   5.192   4.156
 1497SOL    HW2 5391   6.538   5.187   4.037
 1498SOL     OW 5392   1.860   4.407   6.540
 1498SOL    HW1 5393   1.825   4.315   6.524
 1498SOL    HW2 5394   1.959   4.404   6.552
 1499SOL     OW 5395   1.091   3.969   4.903
 1499SOL    HW1 5396   1.099   3.875   4.937
 1499SOL    HW2 5397   1.166   4.024   4.939
 1500SOL     OW 5398   5.216   6.667   0.125
 1500SOL    HW1 5399   5.308   6.671   0.086
 1500SOL    HW2 5400   5.151   6.707   0.061
 1501SOL     OW 5401   4.233   0.338   6.452
 1501SOL    HW1 5402   4.208   0.243   6.434
 1501SOL    HW2 5403   4.298   0.369   6.382
 1502SOL     OW 5404   6.360   6.645   0.077
 1502SOL    HW1 5405   6.392   6.633   0.172
 1502SOL    HW2 5406   6.380   6.562   0.025
 1503SOL     OW 5407   3.057   3.062   6.972
 1503SOL    HW1 5408   3.036   2.969   7.001
 1503SOL    HW2 5409   2.994   3.126   7.018
 1504SOL     OW 5410   3.509   6.556   4.986
 1504SOL    HW1 5411   3.594   6.507   5.008
 1504SOL    HW2 5412   3.464   6.511   4.909
 1505SOL     OW 5413   5.889   6.503   5.777
 1505SOL    HW1 5414   5.834   6.426   5.745
 1505SOL    HW2 5415   5.961   6.470   5.838
 1506SOL     OW 5416   0.796   5.771   3.942
 1506SOL    HW1 5417   0.822   5.675   3.957
 1506SOL    HW2 5418   0.811   5.795   3.846
 1507SOL     OW 5419   1.315   1.225   5.658
 1507SOL    HW1 5420   1.339   1.210   5.753
 1507SOL    HW2 5421   1.234   1.170   5.635
 1508SOL     OW 5422   4.385   0.078   0.583
 1508SOL    HW1 5423   4.308   0.100   0.642
 1508SOL    HW2 5424   4.355   0.070   0.488
 1509SOL     OW 5425   4.501   2.881   6.676
 1509SOL    HW1 5426   4.501   2.870   6.776
 1509SOL    HW2 5427   4.571   2.823   6.636
 1510SOL     OW 5428   7.016   1.844   4.185
 1510SOL    HW1 5429   0.064   1.846   4.113
 1510SOL    HW2 5430   6.964   1.930   4.183
 1511SOL     OW 5431   2.803   1.964   0.463
 1511SOL    HW1 5432   2.877   2.030   0.450
 1511SOL    HW2 5433   2.733   2.004   0.522
 1512SOL     OW 5434   0.288   0.678   1.718
 1512SOL    HW1 5435   0.372   0.699   1.668
 1512SOL    HW2 5436   0.240   0.603   1.672
 1513SOL     OW 5437   3.375   0.069   4.220
 1513SOL    HW1 5438   3.352   0.078   4.123
 1513SOL    HW2 5439   3.458   0.015   4.230
 1514SOL     OW 5440   5.696   1.657   4.814
 1514SOL    HW1 5441   5.747   1.682   4.732
 1514SOL    HW2 5442   5.612   1.609   4.788
 1515SOL     OW 5443   0.351   4.369   5.223
 1515SOL    HW1 5444   0.338   4.348   5.127
 1515SOL    HW2 5445   0.442   4.410   5.236
 1516SOL     OW 5446   0.479   1.579   0.618
 1516SOL    HW1 5447   0.460   1.541   0.708
 1516SOL    HW2 5448   0.551   1.648   0.625
 1517SOL     OW 5449   4.670   6.191   3.713
 1517SOL    HW1 5450   4.647   6.094   3.721
 1517SOL    HW2 5451   4.643   6.239   3.796
 1518SOL     OW 5452   6.672   4.172   1.100
 1518SOL    HW1 5453   6.674   4.270   1.081
 1518SOL    HW2 5454   6.662   4.157   1.198
 1519SOL     OW 5455   6.273   4.614   1.014
 1519SOL    HW1 5456   6.204   4.663   1.068
 1519SOL    HW2 5457   6.313   4.677   0.947
 1520SOL     OW 5458   2.110   3.441   2.742
 1520SOL    HW1 5459   2.144   3.362   2.690
 1520SOL    HW2 5460   2.117   3.421   2.840
 1521SOL     OW 5461   1.578   3.219   6.760
 1521SOL    HW1 5462   1.595   3.225   6.858
 1521SOL    HW2 5463   1.591   3.309   6.718
 1522SOL     OW 5464   5.841   1.940   6.550
 1522SOL    HW1 5465   5.808   2.022   6.598
 1522SOL    HW2 5466   5.768   1.904   6.492
 1523SOL     OW 5467   6.207   2.581   1.252
 1523SOL    HW1 5468   6.218   2.558   1.349
 1523SOL    HW2 5469   6.298   2.587   1.210
 1524SOL     OW 5470   0.421   1.051   1.317
 1524SOL    HW1 5471   0.340   1.066   1.260
 1524SOL    HW2 5472   0.393   1.026   1.409
 1525SOL     OW 5473   3.722   1.941   5.918
 1525SOL    HW1 5474   3.681   1.906   5.834
 1525SOL    HW2 5475   3.819   1.916   5.921
 1526SOL     OW 5476   0.321   1.987   1.464
 1526SOL    HW1 5477   0.358   2.080   1.460
 1526SOL    HW2 5478   0.359   1.939   1.542
 1527SOL     OW 5479   3.225   2.046   5.382
 1527SOL    HW1 5480   3.275   2.133   5.384
 1527SOL    HW2 5481   3.166   2.043   5.302
 1528SOL     OW 5482   4.363   6.621   3.376
 1528SOL    HW1 5483   4.347   6.671   3.460
 1528SOL    HW2 5484   4.370   6.685   3.299
 1529SOL     OW 5485   3.753   0.449   6.277
 1529SOL    HW1 5486   3.752   0.395   6.193
 1529SOL    HW2 5487   3.844   0.446   6.318
 1530SOL     OW 5488   2.669   6.628   2.317
 1530SOL    HW1 5489   2.728   6.644   2.397
 1530SOL    HW2 5490   2.601   6.702   2.311
 1531SOL     OW 5491   6.961   6.914   3.809
 1531SOL    HW1 5492   6.956   6.863   3.723
 1531SOL    HW2 5493   6.869   6.947   3.833
 1532SOL     OW 5494   3.380   2.258   5.334
 1532SOL    HW1 5495   3.306   2.295   5.277
 1532SOL    HW2 5496   3.440   2.332   5.362
 1533SOL     OW 5497   6.148   3.659   0.012
 1533SOL    HW1 5498   6.114   3.659   6.939
 1533SOL    HW2 5499   6.212   3.583   0.025
 1534SOL     OW 5500   1.040   5.834   0.687
 1534SOL    HW1 5501   1.095   5.752   0.677
 1534SOL    HW2 5502   0.974   5.839   0.613
 1535SOL     OW 5503   5.283   4.651   4.311
 1535SOL    HW1 5504   5.373   4.609   4.298
 1535SOL    HW2 5505   5.216   4.581   4.336
 1536SOL     OW 5506   1.891   5.786   4.428
 1536SOL    HW1 5507   1.911   5.807   4.524
 1536SOL    HW2 5508   1.819   5.716   4.424
 1537SOL     OW 5509   2.117   5.497   4.990
 1537SOL    HW1 5510   2.039   5.495   5.051
 1537SOL    HW2 5511   2.144   5.591   4.972
 1538SOL     OW 5512   2.639   4.740   0.166
 1538SOL    HW1 5513   2.716   4.803   0.163
 1538SOL    HW2 5514   2.668   4.650   0.133
 1539SOL     OW 5515   3.380   4.638   1.626
 1539SOL    HW1 5516   3.407   4.588   1.544
 1539SOL    HW2 5517   3.448   4.625   1.698
 1540SOL     OW 5518   0.561   0.248   5.272
 1540SOL    HW1 5519   0.504   0.265   5.191
 1540SOL    HW2 5520   0.505   0.208   5.344
 1541SOL     OW 5521   4.525   2.792   1.056
 1541SOL    HW1 5522   4.486   2.882   1.038
 1541SOL    HW2 5523   4.564   2.790   1.148
 1542SOL     OW 5524   0.548   6.327   1.550
 1542SOL    HW1 5525   0.499   6.380   1.620
 1542SOL    HW2 5526   0.644   6.353   1.550
 1543SOL     OW 5527   3.544   3.712   3.814
 1543SOL    HW1 5528   3.463   3.771   3.812
 1543SOL    HW2 5529   3.557   3.670   3.724
 1544SOL     OW 5530   3.306   4.149   2.363
 1544SOL    HW1 5531   3.361   4.232   2.372
 1544SOL    HW2 5532   3.324   4.088   2.440
 1545SOL     OW 5533   6.392   0.533   4.630
 1545SOL    HW1 5534   6.326   0.471   4.672
 1545SOL    HW2 5535   6.450   0.482   4.567
 1546SOL     OW 5536   6.371   6.096   5.881
 1546SOL    HW1 5537   6.450   6.133   5.830
 1546SOL    HW2 5538   6.404   6.042   5.958
 1547SOL     OW 5539   3.010   5.106   2.883
 1547SOL    HW1 5540   3.030   5.147   2.972
 1547SOL    HW2 5541   3.024   5.007   2.888
 1548SOL     OW 5542   4.485   4.277   5.218
 1548SOL    HW1 5543   4.451   4.225   5.297
 1548SOL    HW2 5544   4.412   4.336   5.183
 1549SOL     OW 5545   6.429   2.804   1.354
 1549SOL    HW1 5546   6.479   2.717   1.353
 1549SOL    HW2 5547   6.433   2.845   1.263
 1550SOL     OW 5548   1.909   6.052   5.020
 1550SOL    HW1 5549   2.003   6.022   5.002
 1550SOL    HW2 5550   1.846   5.976   5.001
 1551SOL     OW 5551   1.683   3.294   0.803
 1551SOL    HW1 5552   1.701   3.208   0.851
 1551SOL    HW2 5553   1.725   3.370   0.853
 1552SOL     OW 5554   1.232   0.910   1.435
 1552SOL    HW1 5555   1.204   0.999   1.470
 1552SOL    HW2 5556   1.267   0.920   1.342
 1553SOL     OW 5557   5.682   2.140   6.645
 1553SOL    HW1 5558   5.657   2.068   6.710
 1553SOL    HW2 5559   5.754   2.198   6.684
 1554SOL     OW 5560   4.502   1.958   2.319
 1554SOL    HW1 5561   4.505   1.937   2.416
 1554SOL    HW2 5562   4.595   1.967   2.284
 1555SOL     OW 5563   4.253   1.519   4.935
 1555SOL    HW1 5564   4.217   1.426   4.939
 1555SOL    HW2 5565   4.215   1.565   4.854
 1556SOL     OW 5566   3.892   0.372   0.807
 1556SOL    HW1 5567   3.804   0.332   0.833
 1556SOL    HW2 5568   3.944   0.394   0.890
 1557SOL     OW 5569   1.871   1.752   1.238
 1557SOL    HW1 5570   1.937   1.800   1.182
 1557SOL    HW2 5571   1.817   1.689   1.182
 1558SOL     OW 5572   6.085   3.345   5.165
 1558SOL    HW1 5573   6.129   3.294   5.092
 1558SOL    HW2 5574   5.990   3.315   5.174
 1559SOL     OW 5575   1.302   4.167   2.612
 1559SOL    HW1 5576   1.287   4.195   2.707
 1559SOL    HW2 5577   1.220   4.186   2.559
 1560SOL     OW 5578   4.092   1.186   1.237
 1560SOL    HW1 5579   4.167   1.202   1.174
 1560SOL    HW2 5580   4.116   1.223   1.327
 1561SOL     OW 5581   5.413   6.235   2.312
 1561SOL    HW1 5582   5.456   6.324   2.297
 1561SOL    HW2 5583   5.320   6.248   2.348
 1562SOL     OW 5584   2.766   0.283   1.973
 1562SOL    HW1 5585   2.834   0.212   1.992
 1562SOL    HW2 5586   2.776   0.313   1.878
 1563SOL     OW 5587   3.361   2.125   4.574
 1563SOL    HW1 5588   3.431   2.128   4.503
 1563SOL    HW2 5589   3.273   2.152   4.536
 1564SOL     OW 5590   0.914   2.139   2.249
 1564SOL    HW1 5591   1.001   2.170   2.212
 1564SOL    HW2 5592   0.866   2.083   2.181
 1565SOL     OW 5593   3.679   6.991   3.925
 1565SOL    HW1 5594   3.719   0.039   3.865
 1565SOL    HW2 5595   3.728   6.991   4.013
 1566SOL     OW 5596   4.652   4.211   3.549
 1566SOL    HW1 5597   4.583   4.272   3.510
 1566SOL    HW2 5598   4.643   4.120   3.508
 1567SOL     OW 5599   5.162   5.647   5.359
 1567SOL    HW1 5600   5.226   5.630   5.284
 1567SOL    HW2 5601   5.197   5.720   5.417
 1568SOL     OW 5602   2.130   6.466   2.811
 1568SOL    HW1 5603   2.221   6.432   2.836
 1568SOL    HW2 5604   2.133   6.565   2.797
 1569SOL     OW 5605   2.628   0.272   2.813
 1569SOL    HW1 5606   2.554   0.291   2.878
 1569SOL    HW2 5607   2.696   0.214   2.857
 1570SOL     OW 5608   3.306   0.247   0.036
 1570SOL    HW1 5609   3.362   0.330   0.037
 1570SOL    HW2 5610   3.222   0.263   7.006
 1571SOL     OW 5611   1.313   2.617   3.766
 1571SOL    HW1 5612   1.317   2.635   3.864
 1571SOL    HW2 5613   1.251   2.541   3.748
 1572SOL     OW 5614   1.862   5.162   1.573
 1572SOL    HW1 5615   1.866   5.079   1.517
 1572SOL    HW2 5616   1.928   5.154   1.648
 1573SOL     OW 5617   4.477   5.124   1.317
 1573SOL    HW1 5618   4.404   5.153   1.378
 1573SOL    HW2 5619   4.478   5.024   1.311
 1574SOL     OW 5620   6.391   3.354   1.933
 1574SOL    HW1 5621   6.418   3.364   1.837
 1574SOL    HW2 5622   6.469   3.321   1.986
 1575SOL     OW 5623   0.884   1.227   1.030
 1575SOL    HW1 5624   0.934   1.145   1.056
 1575SOL    HW2 5625   0.939   1.281   0.967
 1576SOL     OW 5626   0.490   5.980   1.793
 1576SOL    HW1 5627   0.391   5.988   1.800
 1576SOL    HW2 5628   0.515   5.884   1.787
 1577SOL     OW 5629   3.981   0.030   6.258
 1577SOL    HW1 5630   3.960   6.955   6.239
 1577SOL    HW2 5631   3.973   0.083   6.174
 1578SOL     OW 5632   4.640   1.091   0.315
 1578SOL    HW1 5633   4.664   1.072   0.220
 1578SOL    HW2 5634   4.623   1.005   0.363
 1579SOL     OW 5635   1.773   2.133   1.472
 1579SOL    HW1 5636   1.762   2.190   1.553
 1579SOL    HW2 5637   1.838   2.059   1.491
 1580SOL     OW 5638   3.240   4.002   2.894
 1580SOL    HW1 5639   3.275   3.918   2.935
 1580SOL    HW2 5640   3.308   4.075   2.904
 1581SOL     OW 5641   0.348   4.502   6.291
 1581SOL    HW1 5642   0.376   4.593   6.260
 1581SOL    HW2 5643   0.380   4.488   6.384
 1582SOL     OW 5644   4.713   6.606   5.922
 1582SOL    HW1 5645   4.721   6.702   5.894
 1582SOL    HW2 5646   4.761   6.548   5.857
 1583SOL     OW 5647   1.006   6.019   5.041
 1583SOL    HW1 5648   0.978   5.963   5.119
 1583SOL    HW2 5649   0.926   6.063   5.001
 1584SOL     OW 5650   0.679   5.244   6.641
 1584SOL    HW1 5651   0.668   5.157   6.594
 1584SOL    HW2 5652   0.599   5.302   6.622
 1585SOL     OW 5653   3.999   0.291   2.850
 1585SOL    HW1 5654   3.914   0.287   2.902
 1585SOL    HW2 5655   4.000   0.219   2.781
 1586SOL     OW 5656   2.768   5.690   4.443
 1586SOL    HW1 5657   2.842   5.639   4.486
 1586SOL    HW2 5658   2.680   5.654   4.475
 1587SOL     OW 5659   1.727   6.160   6.211
 1587SOL    HW1 5660   1.665   6.084   6.233
 1587SOL    HW2 5661   1.818   6.140   6.247
 1588SOL     OW 5662   6.072   0.223   1.934
 1588SOL    HW1 5663   6.090   0.218   2.032
 1588SOL    HW2 5664   5.975   0.241   1.919
 1589SOL     OW 5665   6.852   4.298   2.812
 1589SOL    HW1 5666   6.854   4.208   2.769
 1589SOL    HW2 5667   6.758   4.330   2.819
 1590SOL     OW 5668   6.312   2.213   3.551
 1590SOL    HW1 5669   6.269   2.201   3.641
 1590SOL    HW2 5670   6.399   2.261   3.563
 1591SOL     OW 5671   0.197   5.581   1.276
 1591SOL    HW1 5672   0.244   5.659   1.317
 1591SOL    HW2 5673   0.100   5.604   1.263
 1592SOL     OW 5674   1.222   4.295   0.011
 1592SOL    HW1 5675   1.248   4.251   0.098
 1592SOL    HW2 5676   1.297   4.352   7.000
 1593SOL     OW 5677   0.848   0.159   6.655
 1593SOL    HW1 5678   0.909   0.148   6.733
 1593SOL    HW2 5679   0.825   0.070   6.617
 1594SOL     OW 5680   6.945   0.774   1.950
 1594SOL    HW1 5681   0.017   0.738   1.958
 1594SOL    HW2 5682   6.945   0.872   1.972
 1595SOL     OW 5683   1.308   4.193   6.701
 1595SOL    HW1 5684   1.296   4.131   6.779
 1595SOL    HW2 5685   1.402   4.227   6.699
 1596SOL     OW 5686   5.674   4.322   2.180
 1596SOL    HW1 5687   5.731   4.304   2.099
 1596SOL    HW2 5688   5.726   4.301   2.262
 1597SOL     OW 5689   3.356   5.767   1.014
 1597SOL    HW1 5690   3.422   5.816   0.957
 1597SOL    HW2 5691   3.378   5.670   1.014
 1598SOL     OW 5692   1.727   5.889   0.294
 1598SOL    HW1 5693   1.798   5.888   0.223
 1598SOL    HW2 5694   1.637   5.883   0.252
 1599SOL     OW 5695   3.766   5.368   4.161
 1599SOL    HW1 5696   3.856   5.342   4.197
 1599SOL    HW2 5697   3.707   5.396   4.237
 1600SOL     OW 5698   2.935   0.467   2.816
 1600SOL    HW1 5699   3.024   0.442   2.778
 1600SOL    HW2 5700   2.875   0.498   2.742
 1601SOL     OW 5701   6.548   6.703   4.289
 1601SOL    HW1 5702   6.584   6.759   4.364
 1601SOL    HW2 5703   6.616   6.634   4.263
 1602SOL     OW 5704   4.474   5.376   3.969
 1602SOL    HW1 5705   4.527   5.446   4.017
 1602SOL    HW2 5706   4.525   5.291   3.968
 1603SOL     OW 5707   3.150   6.121   4.165
 1603SOL    HW1 5708   3.098   6.036   4.158
 1603SOL    HW2 5709   3.100   6.186   4.223
 1604SOL     OW 5710   4.014   4.833   1.943
 1604SOL    HW1 5711   3.997   4.761   1.875
 1604SOL    HW2 5712   4.080   4.801   2.010
 1605SOL     OW 5713   4.817   5.152   2.118
 1605SOL    HW1 5714   4.904   5.201   2.119
 1605SOL    HW2 5715   4.769   5.167   2.204
 1606SOL     OW 5716   4.482   6.300   4.000
 1606SOL    HW1 5717   4.390   6.319   3.964
 1606SOL    HW2 5718   4.537   6.383   3.996
 1607SOL     OW 5719   4.479   6.862   2.950
 1607SOL    HW1 5720   4.521   6.810   3.024
 1607SOL    HW2 5721   4.407   6.920   2.987
 1608SOL     OW 5722   6.712   0.831   2.933
 1608SOL    HW1 5723   6.738   0.876   2.848
 1608SOL    HW2 5724   6.759   0.875   3.010
 1609SOL     OW 5725   3.253   6.446   0.818
 1609SOL    HW1 5726   3.178   6.510   0.837
 1609SOL    HW2 5727   3.219   6.372   0.759
 1610SOL     OW 5728   3.647   6.464   6.864
 1610SOL    HW1 5729   3.559   6.494   6.828
 1610SOL    HW2 5730   3.639   6.368   6.894
 1611SOL     OW 5731   1.197   4.156   1.603
 1611SOL    HW1 5732   1.115   4.203   1.570
 1611SOL    HW2 5733   1.213   4.074   1.548
 1612SOL     OW 5734   2.887   5.685   1.006
 1612SOL    HW1 5735   2.920   5.691   0.912
 1612SOL    HW2 5736   2.937   5.750   1.063
 1613SOL     OW 5737   0.815   5.613   2.405
 1613SOL    HW1 5738   0.720   5.619   2.434
 1613SOL    HW2 5739   0.864   5.696   2.435
 1614SOL     OW 5740   5.440   2.751   6.776
 1614SOL    HW1 5741   5.473   2.784   6.865
 1614SOL    HW2 5742   5.513   2.700   6.731
 1615SOL     OW 5743   0.485   5.461   6.579
 1615SOL    HW1 5744   0.561   5.517   6.610
 1615SOL    HW2 5745   0.463   5.483   6.484
 1616SOL     OW 5746   3.274   0.603   5.560
 1616SOL    HW1 5747   3.302   0.689   5.518
 1616SOL    HW2 5748   3.291   0.527   5.497
 1617SOL     OW 5749   4.756   6.748   3.623
 1617SOL    HW1 5750   4.680   6.691   3.653
 1617SOL    HW2 5751   4.766   6.825   3.686
 1618SOL     OW 5752   2.245   6.034   2.828
 1618SOL    HW1 5753   2.324   6.071   2.779
 1618SOL    HW2 5754   2.202   6.107   2.881
 1619SOL     OW 5755   1.043   5.081   6.869
 1619SOL    HW1 5756   1.095   5.009   6.916
 1619SOL    HW2 5757   0.949   5.050   6.855
 1620SOL     OW 5758   3.199   5.074   0.853
 1620SOL    HW1 5759   3.292   5.038   0.862
 1620SOL    HW2 5760   3.171   5.116   0.940
 1621SOL     OW 5761   5.673   6.500   1.087
 1621SOL    HW1 5762   5.679   6.454   0.999
 1621SOL    HW2 5763   5.594   6.562   1.087
 1622SOL     OW 5764   1.036   3.833   5.541
 1622SOL    HW1 5765   0.978   3.897   5.591
 1622SOL    HW2 5766   1.018   3.840   5.443
 1623SOL     OW 5767   0.695   2.250   5.103
 1623SOL    HW1 5768   0.730   2.322   5.163
 1623SOL    HW2 5769   0.772   2.195   5.070
 1624SOL     OW 5770   3.575   1.210   0.543
 1624SOL    HW1 5771   3.642   1.279   0.570
 1624SOL    HW2 5772   3.609   1.119   0.566
 1625SOL     OW 5773   2.178   4.959   0.848
 1625SOL    HW1 5774   2.271   4.922   0.854
 1625SOL    HW2 5775   2.119   4.891   0.806
 1626SOL     OW 5776   3.178   1.976   1.672
 1626SOL    HW1 5777   3.194   1.884   1.636
 1626SOL    HW2 5778   3.197   2.044   1.601
 1627SOL     OW 5779   4.987   2.194   4.239
 1627SOL    HW1 5780   4.889   2.175   4.248
 1627SOL    HW2 5781   5.005   2.289   4.265
 1628SOL     OW 5782   4.709   5.630   6.635
 1628SOL    HW1 5783   4.750   5.580   6.711
 1628SOL    HW2 5784   4.760   5.715   6.620
 1629SOL     OW 5785   3.019   2.136   2.903
 1629SOL    HW1 5786   3.040   2.070   2.975
 1629SOL    HW2 5787   2.926   2.170   2.915
 1630SOL     OW 5788   6.994   4.631   0.219
 1630SOL    HW1 5789   6.986   4.536   0.250
 1630SOL    HW2 5790   6.996   4.633   0.120
 1631SOL     OW 5791   6.893   3.514   1.163
 1631SOL    HW1 5792   6.811   3.563   1.194
 1631SOL    HW2 5793   6.888   3.500   1.064
 1632SOL     OW 5794   5.599   4.838   2.390
 1632SOL    HW1 5795   5.535   4.822   2.464
 1632SOL    HW2 5796   5.626   4.934   2.389
 1633SOL     OW 5797   4.878   3.792   3.977
 1633SOL    HW1 5798   4.897   3.749   4.065
 1633SOL    HW2 5799   4.836   3.726   3.916
 1634SOL     OW 5800   4.487   0.532   4.562
 1634SOL    HW1 5801   4.430   0.494   4.636
 1634SOL    HW2 5802   4.444   0.616   4.528
 1635SOL     OW 5803   3.688   4.456   5.590
 1635SOL    HW1 5804   3.707   4.393   5.665
 1635SOL    HW2 5805   3.717   4.415   5.504
 1636SOL     OW 5806   4.110   5.744   1.386
 1636SOL    HW1 5807   4.060   5.779   1.465
 1636SOL    HW2 5808   4.205   5.773   1.391
 1637SOL     OW 5809   0.224   6.539   2.731
 1637SOL    HW1 5810   0.141   6.548   2.787
 1637SOL    HW2 5811   0.304   6.536   2.790
 1638SOL     OW 5812   6.748   3.313   1.835
 1638SOL    HW1 5813   6.846   3.330   1.830
 1638SOL    HW2 5814   6.707   3.324   1.745
 1639SOL     OW 5815   6.043   4.033   2.194
 1639SOL    HW1 5816   6.087   3.951   2.157
 1639SOL    HW2 5817   5.970   4.006   2.257
 1640SOL     OW 5818   5.754   0.607   1.267
 1640SOL    HW1 5819   5.783   0.592   1.362
 1640SOL    HW2 5820   5.779   0.526   1.212
 1641SOL     OW 5821   6.980   2.700   3.707
 1641SOL    HW1 5822   0.048   2.674   3.745
 1641SOL    HW2 5823   6.907   2.655   3.759
 1642SOL     OW 5824   5.635   2.609   5.977
 1642SOL    HW1 5825   5.597   2.634   6.067
 1642SOL    HW2 5826   5.653   2.693   5.925
 1643SOL     OW 5827   3.404   5.013   4.929
 1643SOL    HW1 5828   3.318   5.054   4.898
 1643SOL    HW2 5829   3.385   4.942   4.997
 1644SOL     OW 5830   6.031   3.197   0.667
 1644SOL    HW1 5831   6.047   3.158   0.757
 1644SOL    HW2 5832   6.063   3.134   0.597
 1645SOL     OW 5833   3.361   0.779   6.178
 1645SOL    HW1 5834   3.408   0.862   6.208
 1645SOL    HW2 5835   3.427   0.705   6.167
 1646SOL     OW 5836   0.983   5.708   0.065
 1646SOL    HW1 5837   0.985   5.783   7.020
 1646SOL    HW2 5838   1.010   5.623   0.020
 1647SOL     OW 5839   6.407   2.955   4.000
 1647SOL    HW1 5840   6.371   2.894   3.930
 1647SOL    HW2 5841   6.359   3.042   3.998
 1648SOL     OW 5842   5.184   6.317   0.745
 1648SOL    HW1 5843   5.251   6.357   0.683
 1648SOL    HW2 5844   5.229   6.293   0.831
 1649SOL     OW 5845   2.984   0.296   3.290
 1649SOL    HW1 5846   2.959   0.361   3.362
 1649SOL    HW2 5847   2.941   0.323   3.204
 1650SOL     OW 5848   2.110   4.964   6.362
 1650SOL    HW1 5849   2.069   4.953   6.272
 1650SOL    HW2 5850   2.126   4.874   6.403
 1651SOL     OW 5851   0.403   2.569   3.671
 1651SOL    HW1 5852   0.478   2.633   3.658
 1651SOL    HW2 5853   0.346   2.567   3.589
 1652SOL     OW 5854   1.336   2.589   1.421
 1652SOL    HW1 5855   1.339   2.680   1.462
 1652SOL    HW2 5856   1.289   2.526   1.483
 1653SOL     OW 5857   0.296   5.439   1.989
 1653SOL    HW1 5858   0.321   5.534   2.006
 1653SOL    HW2 5859   0.197   5.429   1.994
 1654SOL     OW 5860   0.698   2.817   1.515
 1654SOL    HW1 5861   0.722   2.851   1.606
 1654SOL    HW2 5862   0.737   2.727   1.502
 1655SOL     OW 5863   6.709   1.294   4.486
 1655SOL    HW1 5864   6.804   1.264   4.492
 1655SOL    HW2 5865   6.703   1.380   4.435
 1656SOL     OW 5866   2.212   5.663   4.528
 1656SOL    HW1 5867   2.290   5.653   4.590
 1656SOL    HW2 5868   2.210   5.756   4.491
 1657SOL     OW 5869   6.916   0.988   5.148
 1657SOL    HW1 5870   6.892   1.056   5.217
 1657SOL    HW2 5871   7.014   0.969   5.152
 1658SOL     OW 5872   6.901   6.869   0.456
 1658SOL    HW1 5873   6.807   6.902   0.463
 1658SOL    HW2 5874   6.908   6.807   0.377
 1659SOL     OW 5875   4.318   0.081   6.648
 1659SOL    HW1 5876   4.397   0.140   6.629
 1659SOL    HW2 5877   4.260   0.077   6.567
 1660SOL     OW 5878   1.595   6.513   1.824
 1660SOL    HW1 5879   1.563   6.488   1.733
 1660SOL    HW2 5880   1.541   6.590   1.858
 1661SOL     OW 5881   2.845   4.797   2.275
 1661SOL    HW1 5882   2.781   4.874   2.272
 1661SOL    HW2 5883   2.844   4.750   2.187
 1662SOL     OW 5884   6.874   1.789   5.573
 1662SOL    HW1 5885   6.960   1.754   5.536
 1662SOL    HW2 5886   6.878   1.784   5.673
 1663SOL     OW 5887   4.714   5.138   1.862
 1663SOL    HW1 5888   4.733   5.137   1.960
 1663SOL    HW2 5889   4.759   5.060   1.818
 1664SOL     OW 5890   0.576   6.961   5.319
 1664SOL    HW1 5891   0.641   6.952   5.244
 1664SOL    HW2 5892   0.616   7.018   5.391
 1665SOL     OW 5893   1.794   3.746   0.953
 1665SOL    HW1 5894   1.813   3.668   0.893
 1665SOL    HW2 5895   1.859   3.746   1.029
 1666SOL     OW 5896   5.548   0.052   6.758
 1666SOL    HW1 5897   5.625   0.010   6.709
 1666SOL    HW2 5898   5.581   0.129   6.812
 1667SOL     OW 5899   0.481   6.407   0.746
 1667SOL    HW1 5900   0.439   6.494   0.721
 1667SOL    HW2 5901   0.491   6.350   0.664
 1668SOL     OW 5902   5.289   5.153   4.114
 1668SOL    HW1 5903   5.333   5.140   4.026
 1668SOL    HW2 5904   5.269   5.251   4.126
 1669SOL     OW 5905   0.210   4.060   5.900
 1669SOL    HW1 5906   0.269   4.091   5.826
 1669SOL    HW2 5907   0.265   4.040   5.981
 1670SOL     OW 5908   1.871   4.617   6.003
 1670SOL    HW1 5909   1.835   4.577   6.088
 1670SOL    HW2 5910   1.827   4.705   5.987
 1671SOL     OW 5911   5.008   1.758   2.916
 1671SOL    HW1 5912   4.934   1.825   2.918
 1671SOL    HW2 5913   5.015   1.714   3.005
 1672SOL     OW 5914   1.039   3.154   0.267
 1672SOL    HW1 5915   1.030   3.253   0.268
 1672SOL    HW2 5916   1.013   3.119   0.177
 1673SOL     OW 5917   2.133   2.091   4.253
 1673SOL    HW1 5918   2.176   2.051   4.334
 1673SOL    HW2 5919   2.188   2.069   4.172
 1674SOL     OW 5920   5.349   2.592   2.324
 1674SOL    HW1 5921   5.268   2.650   2.316
 1674SOL    HW2 5922   5.322   2.500   2.354
 1675SOL     OW 5923   5.254   0.817   1.282
 1675SOL    HW1 5924   5.292   0.877   1.211
 1675SOL    HW2 5925   5.236   0.727   1.243
 1676SOL     OW 5926   2.077   2.225   2.965
 1676SOL    HW1 5927   2.076   2.223   2.865
 1676SOL    HW2 5928   2.041   2.138   3.001
 1677SOL     OW 5929   3.679   3.803   2.954
 1677SOL    HW1 5930   3.738   3.838   3.027
 1677SOL    HW2 5931   3.707   3.710   2.930
 1678SOL     OW 5932   0.590   6.271   0.530
 1678SOL    HW1 5933   0.641   6.190   0.558
 1678SOL    HW2 5934   0.648   6.329   0.473
 1679SOL     OW 5935   1.560   1.227   5.525
 1679SOL    HW1 5936   1.461   1.231   5.537
 1679SOL    HW2 5937   1.605   1.222   5.614
 1680SOL     OW 5938   5.498   2.983   4.599
 1680SOL    HW1 5939   5.571   2.918   4.621
 1680SOL    HW2 5940   5.535   3.055   4.539
 1681SOL     OW 5941   1.663   5.889   3.930
 1681SOL    HW1 5942   1.671   5.988   3.918
 1681SOL    HW2 5943   1.633   5.847   3.844
 1682SOL     OW 5944   3.056   0.250   5.706
 1682SOL    HW1 5945   3.069   0.293   5.795
 1682SOL    HW2 5946   3.002   0.167   5.717
 1683SOL     OW 5947   5.855   5.075   2.721
 1683SOL    HW1 5948   5.832   4.982   2.693
 1683SOL    HW2 5949   5.783   5.138   2.690
 1684SOL     OW 5950   1.457   4.565   1.962
 1684SOL    HW1 5951   1.490   4.471   1.967
 1684SOL    HW2 5952   1.513   4.617   1.898
 1685SOL     OW 5953   1.430   1.316   5.925
 1685SOL    HW1 5954   1.498   1.355   5.863
 1685SOL    HW2 5955   1.356   1.382   5.939
 1686SOL     OW 5956   4.969   6.188   3.443
 1686SOL    HW1 5957   5.064   6.175   3.416
 1686SOL    HW2 5958   4.945   6.121   3.514
 1687SOL     OW 5959   0.069   3.773   1.989
 1687SOL    HW1 5960   0.151   3.762   2.046
 1687SOL    HW2 5961   0.012   3.846   2.027
 1688SOL     OW 5962   2.100   2.059   3.344
 1688SOL    HW1 5963   2.038   2.034   3.270
 1688SOL    HW2 5964   2.055   2.045   3.432
 1689SOL     OW 5965   6.681   1.238   1.758
 1689SOL    HW1 5966   6.722   1.146   1.760
 1689SOL    HW2 5967   6.583   1.231   1.773
 1690SOL     OW 5968   0.695   3.973   4.072
 1690SOL    HW1 5969   0.738   3.887   4.045
 1690SOL    HW2 5970   0.598   3.971   4.047
 1691SOL     OW 5971   4.844   3.151   4.305
 1691SOL    HW1 5972   4.781   3.083   4.343
 1691SOL    HW2 5973   4.853   3.136   4.206
 1692SOL     OW 5974   5.693   5.443   1.700
 1692SOL    HW1 5975   5.782   5.439   1.655
 1692SOL    HW2 5976   5.665   5.350   1.726
 1693SOL     OW 5977   6.821   1.315   5.008
 1693SOL    HW1 5978   6.743   1.274   4.961
 1693SOL    HW2 5979   6.791   1.392   5.063
 1694SOL     OW 5980   5.929   1.177   4.703
 1694SOL    HW1 5981   5.915   1.271   4.734
 1694SOL    HW2 5982   5.841   1.137   4.677
 1695SOL     OW 5983   3.558   0.755   6.669
 1695SOL    HW1 5984   3.504   0.762   6.753
 1695SOL    HW2 5985   3.521   0.683   6.611
 1696SOL     OW 5986   4.180   5.670   0.428
 1696SOL    HW1 5987   4.107   5.603   0.437
 1696SOL    HW2 5988   4.183   5.727   0.510
 1697SOL     OW 5989   6.058   2.442   0.928
 1697SOL    HW1 5990   6.024   2.524   0.973
 1697SOL    HW2 5991   5.981   2.384   0.900
 1698SOL     OW 5992   3.859   0.907   1.774
 1698SOL    HW1 5993   3.875   0.894   1.872
 1698SOL    HW2 5994   3.765   0.935   1.759
 1699SOL     OW 5995   2.765   1.319   6.140
 1699SOL    HW1 5996   2.807   1.332   6.230
 1699SOL    HW2 5997   2.833   1.338   6.069
 1700SOL     OW 5998   5.760   3.261   3.718
 1700SOL    HW1 5999   5.849   3.262   3.673
 1700SOL    HW2 6000   5.705   3.337   3.686
 1701SOL     OW 6001   6.622   4.851   4.827
 1701SOL    HW1 6002   6.531   4.878   4.797
 1701SOL    HW2 6003   6.654   4.773   4.773
 1702SOL     OW 6004   1.867   1.223   6.547
 1702SOL    HW1 6005   1.961   1.243   6.520
 1702SOL    HW2 6006   1.814   1.194   6.467
 1703SOL     OW 6007   3.250   1.548   6.180
 1703SOL    HW1 6008   3.310   1.629   6.173
 1703SOL    HW2 6009   3.157   1.578   6.200
 1704SOL     OW 6010   2.066   1.266   0.090
 1704SOL    HW1 6011   2.094   1.310   0.005
 1704SOL    HW2 6012   1.968   1.250   0.089
 1705SOL     OW 6013   3.848   1.479   1.937
 1705SOL    HW1 6014   3.835   1.571   1.975
 1705SOL    HW2 6015   3.817   1.478   1.842
 1706SOL     OW 6016   4.273   1.801   0.610
 1706SOL    HW1 6017   4.302   1.727   0.670
 1706SOL    HW2 6018   4.221   1.763   0.533
 1707SOL     OW 6019   4.745   1.904   2.912
 1707SOL    HW1 6020   4.672   1.835   2.907
 1707SOL    HW2 6021   4.756   1.934   3.007
 1708SOL     OW 6022   3.292   5.468   1.908
 1708SOL    HW1 6023   3.256   5.378   1.935
 1708SOL    HW2 6024   3.217   5.525   1.876
 1709SOL     OW 6025   5.046   5.838   0.723
 1709SOL    HW1 6026   5.129   5.853   0.777
 1709SOL    HW2 6027   4.982   5.913   0.739
 1710SOL     OW 6028   4.646   5.241   3.546
 1710SOL    HW1 6029   4.549   5.215   3.538
 1710SOL    HW2 6030   4.659   5.289   3.633
 1711SOL     OW 6031   3.379   6.058   5.846
 1711SOL    HW1 6032   3.354   5.961   5.847
 1711SOL    HW2 6033   3.377   6.092   5.751
 1712SOL     OW 6034   0.243   2.056   4.447
 1712SOL    HW1 6035   0.301   2.065   4.528
 1712SOL    HW2 6036   0.220   1.960   4.432
 1713SOL     OW 6037   3.721   0.751   3.071
 1713SOL    HW1 6038   3.809   0.705   3.062
 1713SOL    HW2 6039   3.700   0.801   2.987
 1714SOL     OW 6040   3.693   2.383   6.644
 1714SOL    HW1 6041   3.774   2.325   6.635
 1714SOL    HW2 6042   3.638   2.376   6.561
 1715SOL     OW 6043   1.463   6.126   2.035
 1715SOL    HW1 6044   1.471   6.127   1.935
 1715SOL    HW2 6045   1.499   6.040   2.070
 1716SOL     OW 6046   4.775   0.299   4.308
 1716SOL    HW1 6047   4.676   0.300   4.324
 1716SOL    HW2 6048   4.813   0.211   4.337
 1717SOL     OW 6049   4.052   6.338   5.369
 1717SOL    HW1 6050   4.024   6.325   5.464
 1717SOL    HW2 6051   4.080   6.433   5.355
 1718SOL     OW 6052   2.479   2.111   2.538
 1718SOL    HW1 6053   2.409   2.165   2.493
 1718SOL    HW2 6054   2.547   2.080   2.471
 1719SOL     OW 6055   1.187   4.405   1.117
 1719SOL    HW1 6056   1.183   4.503   1.098
 1719SOL    HW2 6057   1.276   4.382   1.156
 1720SOL     OW 6058   0.022   2.691   5.904
 1720SOL    HW1 6059   6.993   2.652   5.827
 1720SOL    HW2 6060   6.983   2.698   5.983
 1721SOL     OW 6061   1.245   0.472   2.187
 1721SOL    HW1 6062   1.176   0.399   2.190
 1721SOL    HW2 6063   1.337   0.431   2.192
 1722SOL     OW 6064   3.554   2.116   2.728
 1722SOL    HW1 6065   3.599   2.118   2.639
 1722SOL    HW2 6066   3.600   2.049   2.787
 1723SOL     OW 6067   4.610   2.053   6.840
 1723SOL    HW1 6068   4.550   1.975   6.855
 1723SOL    HW2 6069   4.591   2.093   6.750
 1724SOL     OW 6070   6.239   2.534   1.519
 1724SOL    HW1 6071   6.231   2.441   1.554
 1724SOL    HW2 6072   6.336   2.558   1.509
 1725SOL     OW 6073   2.149   4.296   6.643
 1725SOL    HW1 6074   2.155   4.370   6.710
 1725SOL    HW2 6075   2.241   4.259   6.626
 1726SOL     OW 6076   5.479   4.662   3.665
 1726SOL    HW1 6077   5.523   4.634   3.751
 1726SOL    HW2 6078   5.503   4.597   3.593
 1727SOL     OW 6079   3.196   3.618   3.514
 1727SOL    HW1 6080   3.217   3.713   3.492
 1727SOL    HW2 6081   3.239   3.557   3.446
 1728SOL     OW 6082   5.046   4.050   5.307
 1728SOL    HW1 6083   4.982   4.023   5.235
 1728SOL    HW2 6084   4.996   4.060   5.394
 1729SOL     OW 6085   1.763   3.697   1.840
 1729SOL    HW1 6086   1.790   3.617   1.894
 1729SOL    HW2 6087   1.841   3.728   1.786
 1730SOL     OW 6088   2.677   5.548   5.619
 1730SOL    HW1 6089   2.717   5.566   5.709
 1730SOL    HW2 6090   2.597   5.489   5.629
 1731SOL     OW 6091   4.990   4.903   4.162
 1731SOL    HW1 6092   4.995   4.826   4.100
 1731SOL    HW2 6093   4.991   4.988   4.110
 1732SOL     OW 6094   2.223   3.915   6.506
 1732SOL    HW1 6095   2.256   3.821   6.495
 1732SOL    HW2 6096   2.217   3.937   6.603
 1733SOL     OW 6097   2.590   3.970   0.224
 1733SOL    HW1 6098   2.582   3.908   0.145
 1733SOL    HW2 6099   2.614   3.917   0.305
 1734SOL     OW 6100   6.509   3.101   1.599
 1734SOL    HW1 6101   6.585   3.166   1.594
 1734SOL    HW2 6102   6.460   3.100   1.512
 1735SOL     OW 6103   4.829   5.185   6.659
 1735SOL    HW1 6104   4.763   5.132   6.605
 1735SOL    HW2 6105   4.783   5.265   6.698
 1736SOL     OW 6106   4.746   3.450   1.773
 1736SOL    HW1 6107   4.788   3.538   1.754
 1736SOL    HW2 6108   4.799   3.377   1.730
 1737SOL     OW 6109   5.061   0.945   4.540
 1737SOL    HW1 6110   5.115   1.025   4.511
 1737SOL    HW2 6111   4.966   0.958   4.511
 1738SOL     OW 6112   1.626   4.083   4.263
 1738SOL    HW1 6113   1.636   4.165   4.319
 1738SOL    HW2 6114   1.712   4.067   4.214
 1739SOL     OW 6115   5.587   0.200   3.901
 1739SOL    HW1 6116   5.540   0.139   3.965
 1739SOL    HW2 6117   5.521   0.237   3.835
 1740SOL     OW 6118   6.988   1.961   4.526
 1740SOL    HW1 6119   0.030   1.916   4.463
 1740SOL    HW2 6120   0.007   1.962   4.618
 1741SOL     OW 6121   1.570   1.885   4.609
 1741SOL    HW1 6122   1.663   1.857   4.630
 1741SOL    HW2 6123   1.506   1.831   4.663
 1742SOL     OW 6124   6.126   6.558   6.006
 1742SOL    HW1 6125   6.202   6.506   6.044
 1742SOL    HW2 6126   6.155   6.652   5.987
 1743SOL     OW 6127   1.046   1.356   3.521
 1743SOL    HW1 6128   1.066   1.452   3.540
 1743SOL    HW2 6129   1.083   1.299   3.595
 1744SOL     OW 6130   5.190   2.353   3.519
 1744SOL    HW1 6131   5.155   2.261   3.534
 1744SOL    HW2 6132   5.238   2.357   3.431
 1745SOL     OW 6133   6.029   6.303   1.005
 1745SOL    HW1 6134   6.037   6.395   0.966
 1745SOL    HW2 6135   6.115   6.279   1.051
 1746SOL     OW 6136   1.792   3.684   3.676
 1746SOL    HW1 6137   1.797   3.585   3.665
 1746SOL    HW2 6138   1.789   3.728   3.586
 1747SOL     OW 6139   3.527   1.299   2.082
 1747SOL    HW1 6140   3.484   1.356   2.151
 1747SOL    HW2 6141   3.520   1.344   1.993
 1748SOL     OW 6142   6.595   1.709   4.618
 1748SOL    HW1 6143   6.500   1.733   4.633
 1748SOL    HW2 6144   6.628   1.653   4.695
 1749SOL     OW 6145   2.633   5.794   0.960
 1749SOL    HW1 6146   2.551   5.762   1.007
 1749SOL    HW2 6147   2.709   5.732   0.980
 1750SOL     OW 6148   4.391   0.846   5.224
 1750SOL    HW1 6149   4.355   0.766   5.175
 1750SOL    HW2 6150   4.482   0.869   5.189
 1751SOL     OW 6151   6.307   2.917   5.010
 1751SOL    HW1 6152   6.345   2.940   5.100
 1751SOL    HW2 6153   6.364   2.846   4.968
 1752SOL     OW 6154   6.223   1.404   1.240
 1752SOL    HW1 6155   6.151   1.438   1.180
 1752SOL    HW2 6156   6.203   1.309   1.266
 1753SOL     OW 6157   6.687   1.652   1.556
 1753SOL    HW1 6158   6.761   1.654   1.624
 1753SOL    HW2 6159   6.711   1.710   1.479
 1754SOL     OW 6160   3.106   6.271   5.916
 1754SOL    HW1 6161   3.092   6.244   5.821
 1754SOL    HW2 6162   3.137   6.192   5.969
 1755SOL     OW 6163   6.315   0.285   5.118
 1755SOL    HW1 6164   6.277   0.305   5.028
 1755SOL    HW2 6165   6.273   0.202   5.155
 1756SOL     OW 6166   5.655   0.460   6.025
 1756SOL    HW1 6167   5.752   0.437   6.037
 1756SOL    HW2 6168   5.602   0.417   6.098
 1757SOL     OW 6169   2.533   5.567   4.473
 1757SOL    HW1 6170   2.483   5.595   4.554
 1757SOL    HW2 6171   2.520   5.469   4.457
 1758SOL     OW 6172   1.696   0.098   5.167
 1758SOL    HW1 6173   1.685   0.186   5.212
 1758SOL    HW2 6174   1.786   0.094   5.123
 1759SOL     OW 6175   1.304   6.275   7.001
 1759SOL    HW1 6176   1.301   6.193   0.037
 1759SOL    HW2 6177   1.250   6.348   0.024
 1760SOL     OW 6178   6.245   0.822   4.991
 1760SOL    HW1 6179   6.225   0.834   4.894
 1760SOL    HW2 6180   6.186   0.883   5.045
 1761SOL     OW 6181   0.072   2.149   1.135
 1761SOL    HW1 6182   0.036   2.187   1.050
 1761SOL    HW2 6183   0.074   2.049   1.129
 1762SOL     OW 6184   0.443   1.293   5.194
 1762SOL    HW1 6185   0.506   1.230   5.151
 1762SOL    HW2 6186   0.430   1.268   5.290
 1763SOL     OW 6187   1.239   3.520   4.653
 1763SOL    HW1 6188   1.240   3.616   4.626
 1763SOL    HW2 6189   1.328   3.494   4.689
 1764SOL     OW 6190   1.636   4.328   1.790
 1764SOL    HW1 6191   1.647   4.330   1.889
 1764SOL    HW2 6192   1.696   4.257   1.751
 1765SOL     OW 6193   5.490   2.919   2.021
 1765SOL    HW1 6194   5.533   2.858   1.954
 1765SOL    HW2 6195   5.551   2.932   2.099
 1766SOL     OW 6196   4.208   4.707   4.120
 1766SOL    HW1 6197   4.187   4.727   4.215
 1766SOL    HW2 6198   4.137   4.745   4.061
 1767SOL     OW 6199   6.934   5.389   2.358
 1767SOL    HW1 6200   6.973   5.374   2.267
 1767SOL    HW2 6201   7.005   5.423   2.419
 1768SOL     OW 6202   4.602   6.467   2.171
 1768SOL    HW1 6203   4.625   6.558   2.137
 1768SOL    HW2 6204   4.554   6.475   2.258
 1769SOL     OW 6205   5.952   0.098   6.740
 1769SOL    HW1 6206   6.004   0.063   6.662
 1769SOL    HW2 6207   5.911   0.187   6.716
 1770SOL     OW 6208   1.737   4.443   5.839
 1770SOL    HW1 6209   1.793   4.499   5.900
 1770SOL    HW2 6210   1.796   4.381   5.787
 1771SOL     OW 6211   0.800   3.559   6.872
 1771SOL    HW1 6212   0.807   3.494   6.797
 1771SOL    HW2 6213   0.776   3.510   6.956
 1772SOL     OW 6214   2.730   5.007   3.901
 1772SOL    HW1 6215   2.762   4.982   3.810
 1772SOL    HW2 6216   2.803   4.992   3.968
 1773SOL     OW 6217   0.773   0.321   5.058
 1773SOL    HW1 6218   0.823   0.234   5.062
 1773SOL    HW2 6219   0.693   0.317   5.117
 1774SOL     OW 6220   6.025   6.034   1.985
 1774SOL    HW1 6221   6.014   6.094   2.064
 1774SOL    HW2 6222   6.115   5.992   1.987
 1775SOL     OW 6223   1.489   5.527   6.832
 1775SOL    HW1 6224   1.585   5.504   6.848
 1775SOL    HW2 6225   1.483   5.618   6.791
 1776SOL     OW 6226   4.389   1.147   5.261
 1776SOL    HW1 6227   4.418   1.053   5.246
 1776SOL    HW2 6228   4.468   1.203   5.286
 1777SOL     OW 6229   4.268   6.420   6.926
 1777SOL    HW1 6230   4.170   6.427   6.940
 1777SOL    HW2 6231   4.297   6.483   6.854
 1778SOL     OW 6232   5.916   0.956   3.937
 1778SOL    HW1 6233   5.997   0.897   3.938
 1778SOL    HW2 6234   5.861   0.937   3.856
 1779SOL     OW 6235   5.755   6.904   4.377
 1779SOL    HW1 6236   5.840   6.865   4.412
 1779SOL    HW2 6237   5.684   6.898   4.448
 1780SOL     OW 6238   1.409   5.546   4.965
 1780SOL    HW1 6239   1.449   5.461   4.928
 1780SOL    HW2 6240   1.337   5.578   4.903
 1781SOL     OW 6241   4.344   0.376   3.958
 1781SOL    HW1 6242   4.337   0.467   3.999
 1781SOL    HW2 6243   4.286   0.312   4.008
 1782SOL     OW 6244   1.653   1.934   2.844
 1782SOL    HW1 6245   1.639   1.836   2.862
 1782SOL    HW2 6246   1.604   1.960   2.761
 1783SOL     OW 6247   2.086   3.872   5.666
 1783SOL    HW1 6248   2.061   3.905   5.575
 1783SOL    HW2 6249   2.160   3.929   5.703
 1784SOL     OW 6250   2.705   0.497   0.934
 1784SOL    HW1 6251   2.715   0.425   0.865
 1784SOL    HW2 6252   2.610   0.503   0.963
 1785SOL     OW 6253   0.564   6.475   4.409
 1785SOL    HW1 6254   0.556   6.400   4.344
 1785SOL    HW2 6255   0.507   6.456   4.489
 1786SOL     OW 6256   2.002   5.915   0.677
 1786SOL    HW1 6257   2.045   5.859   0.606
 1786SOL    HW2 6258   1.925   5.864   0.717
 1787SOL     OW 6259   1.694   3.281   5.915
 1787SOL    HW1 6260   1.778   3.241   5.878
 1787SOL    HW2 6261   1.666   3.230   5.996
 1788SOL     OW 6262   5.203   3.867   0.788
 1788SOL    HW1 6263   5.281   3.833   0.736
 1788SOL    HW2 6264   5.124   3.808   0.772
 1789SOL     OW 6265   6.798   3.676   1.773
 1789SOL    HW1 6266   6.817   3.612   1.847
 1789SOL    HW2 6267   6.765   3.762   1.811
 1790SOL     OW 6268   2.781   2.349   4.240
 1790SOL    HW1 6269   2.784   2.291   4.158
 1790SOL    HW2 6270   2.786   2.445   4.214
 1791SOL     OW 6271   6.144   0.120   3.557
 1791SOL    HW1 6272   6.119   0.024   3.555
 1791SOL    HW2 6273   6.166   0.151   3.465
 1792SOL     OW 6274   6.430   1.875   5.216
 1792SOL    HW1 6275   6.487   1.901   5.294
 1792SOL    HW2 6276   6.338   1.912   5.227
 1793SOL     OW 6277   0.135   0.934   5.665
 1793SOL    HW1 6278   0.195   0.861   5.633
 1793SOL    HW2 6279   0.095   0.908   5.753
 1794SOL     OW 6280   6.956   0.296   6.261
 1794SOL    HW1 6281   7.009   0.371   6.221
 1794SOL    HW2 6282   7.001   0.209   6.242
 1795SOL     OW 6283   6.075   4.397   0.401
 1795SOL    HW1 6284   6.032   4.355   0.322
 1795SOL    HW2 6285   6.112   4.326   0.461
 1796SOL     OW 6286   0.715   0.047   5.535
 1796SOL    HW1 6287   0.697   0.030   5.632
 1796SOL    HW2 6288   0.753   0.139   5.524
 1797SOL     OW 6289   2.470   6.130   4.608
 1797SOL    HW1 6290   2.450   6.034   4.630
 1797SOL    HW2 6291   2.444   6.149   4.514
 1798SOL     OW 6292   3.395   3.801   4.809
 1798SOL    HW1 6293   3.435   3.723   4.761
 1798SOL    HW2 6294   3.383   3.778   4.906
 1799SOL     OW 6295   3.217   1.176   0.283
 1799SOL    HW1 6296   3.118   1.183   0.269
 1799SOL    HW2 6297   3.260   1.263   0.259
 1800SOL     OW 6298   5.132   3.407   4.503
 1800SOL    HW1 6299   5.108   3.493   4.460
 1800SOL    HW2 6300   5.206   3.421   4.568
 1801SOL     OW 6301   0.960   1.617   2.219
 1801SOL    HW1 6302   1.006   1.665   2.145
 1801SOL    HW2 6303   0.881   1.671   2.249
 1802SOL     OW 6304   6.269   4.600   3.752
 1802SOL    HW1 6305   6.367   4.592   3.734
 1802SOL    HW2 6306   6.222   4.636   3.671
 1803SOL     OW 6307   0.749   6.554   2.727
 1803SOL    HW1 6308   0.723   6.620   2.797
 1803SOL    HW2 6309   0.842   6.571   2.697
 1804SOL     OW 6310   2.503   3.231   6.079
 1804SOL    HW1 6311   2.602   3.228   6.093
 1804SOL    HW2 6312   2.482   3.292   6.003
 1805SOL     OW 6313   0.229   6.301   5.857
 1805SOL    HW1 6314   0.247   6.218   5.910
 1805SOL    HW2 6315   0.149   6.348   5.895
 1806SOL     OW 6316   0.078   2.438   2.232
 1806SOL    HW1 6317   0.144   2.383   2.283
 1806SOL    HW2 6318   0.104   2.534   2.238
 1807SOL     OW 6319   6.403   4.130   1.574
 1807SOL    HW1 6320   6.467   4.147   1.648
 1807SOL    HW2 6321   6.347   4.212   1.559
 1808SOL     OW 6322   5.628   2.170   5.733
 1808SOL    HW1 6323   5.587   2.259   5.756
 1808SOL    HW2 6324   5.680   2.178   5.649
 1809SOL     OW 6325   3.805   2.187   5.080
 1809SOL    HW1 6326   3.799   2.087   5.091
 1809SOL    HW2 6327   3.767   2.212   4.991
 1810SOL     OW 6328   0.550   6.795   4.084
 1810SOL    HW1 6329   0.622   6.732   4.054
 1810SOL    HW2 6330   0.483   6.807   4.010
 1811SOL     OW 6331   3.767   5.148   2.695
 1811SOL    HW1 6332   3.744   5.102   2.610
 1811SOL    HW2 6333   3.851   5.202   2.683
 1812SOL     OW 6334   4.696   0.167   6.110
 1812SOL    HW1 6335   4.749   0.166   6.194
 1812SOL    HW2 6336   4.679   0.262   6.083
 1813SOL     OW 6337   4.293   4.757   2.781
 1813SOL    HW1 6338   4.365   4.690   2.803
 1813SOL    HW2 6339   4.335   4.846   2.763
 1814SOL     OW 6340   0.769   6.447   0.300
 1814SOL    HW1 6341   0.689   6.486   0.254
 1814SOL    HW2 6342   0.840   6.517   0.309
 1815SOL     OW 6343   5.522   6.007   2.209
 1815SOL    HW1 6344   5.485   6.092   2.245
 1815SOL    HW2 6345   5.524   5.938   2.281
 1816SOL     OW 6346   3.784   5.781   5.706
 1816SOL    HW1 6347   3.872   5.810   5.744
 1816SOL    HW2 6348   3.799   5.710   5.637
 1817SOL     OW 6349   1.550   1.374   3.632
 1817SOL    HW1 6350   1.585   1.311   3.562
 1817SOL    HW2 6351   1.530   1.322   3.716
 1818SOL     OW 6352   2.539   6.629   0.251
 1818SOL    HW1 6353   2.441   6.620   0.233
 1818SOL    HW2 6354   2.582   6.539   0.244
 1819SOL     OW 6355   1.872   4.966   3.124
 1819SOL    HW1 6356   1.910   4.995   3.036
 1819SOL    HW2 6357   1.778   5.001   3.133
 1820SOL     OW 6358   3.738   0.709   3.795
 1820SOL    HW1 6359   3.728   0.706   3.894
 1820SOL    HW2 6360   3.683   0.784   3.757
 1821SOL     OW 6361   4.664   1.350   2.382
 1821SOL    HW1 6362   4.707   1.424   2.330
 1821SOL    HW2 6363   4.570   1.338   2.352
 1822SOL     OW 6364   0.214   3.395   1.970
 1822SOL    HW1 6365   0.158   3.319   2.004
 1822SOL    HW2 6366   0.232   3.459   2.045
 1823SOL     OW 6367   3.699   6.319   2.450
 1823SOL    HW1 6368   3.779   6.259   2.443
 1823SOL    HW2 6369   3.621   6.266   2.483
 1824SOL     OW 6370   4.275   3.656   1.126
 1824SOL    HW1 6371   4.223   3.598   1.189
 1824SOL    HW2 6372   4.371   3.657   1.152
 1825SOL     OW 6373   1.836   1.763   5.048
 1825SOL    HW1 6374   1.843   1.804   5.139
 1825SOL    HW2 6375   1.773   1.816   4.992
 1826SOL     OW 6376   3.399   2.295   1.723
 1826SOL    HW1 6377   3.485   2.289   1.775
 1826SOL    HW2 6378   3.381   2.390   1.699
 1827SOL     OW 6379   6.003   4.707   0.333
 1827SOL    HW1 6380   6.090   4.689   0.379
 1827SOL    HW2 6381   5.985   4.805   0.333
 1828SOL     OW 6382   1.515   3.318   5.707
 1828SOL    HW1 6383   1.506   3.222   5.682
 1828SOL    HW2 6384   1.587   3.328   5.776
 1829SOL     OW 6385   3.109   1.321   3.872
 1829SOL    HW1 6386   3.140   1.255   3.940
 1829SOL    HW2 6387   3.057   1.273   3.800
 1830SOL     OW 6388   5.793   6.762   4.721
 1830SOL    HW1 6389   5.701   6.767   4.684
 1830SOL    HW2 6390   5.847   6.840   4.688
 1831SOL     OW 6391   4.789   5.700   2.671
 1831SOL    HW1 6392   4.867   5.733   2.617
 1831SOL    HW2 6393   4.706   5.704   2.616
 1832SOL     OW 6394   2.231   3.210   0.702
 1832SOL    HW1 6395   2.273   3.243   0.618
 1832SOL    HW2 6396   2.167   3.279   0.737
 1833SOL     OW 6397   4.960   0.347   1.548
 1833SOL    HW1 6398   4.877   0.335   1.494
 1833SOL    HW2 6399   4.970   0.270   1.611
 1834SOL     OW 6400   2.196   2.732   7.011
 1834SOL    HW1 6401   2.284   2.735   0.039
 1834SOL    HW2 6402   2.196   2.654   6.948
 1835SOL     OW 6403   0.528   5.031   1.419
 1835SOL    HW1 6404   0.476   5.035   1.333
 1835SOL    HW2 6405   0.613   4.981   1.404
 1836SOL     OW 6406   5.623   1.903   1.339
 1836SOL    HW1 6407   5.557   1.872   1.271
 1836SOL    HW2 6408   5.604   1.860   1.427
 1837SOL     OW 6409   2.880   1.578   6.531
 1837SOL    HW1 6410   2.893   1.499   6.470
 1837SOL    HW2 6411   2.858   1.545   6.623
 1838SOL     OW 6412   5.973   1.211   0.972
 1838SOL    HW1 6413   6.033   1.289   0.987
 1838SOL    HW2 6414   6.014   1.150   0.904
 1839SOL     OW 6415   5.454   1.367   6.728
 1839SOL    HW1 6416   5.412   1.457   6.714
 1839SOL    HW2 6417   5.516   1.347   6.652
 1840SOL     OW 6418   4.077   6.959   2.862
 1840SOL    HW1 6419   4.040   6.959   2.769
 1840SOL    HW2 6420   4.069   6.868   2.901
 1841SOL     OW 6421   2.185   1.226   2.123
 1841SOL    HW1 6422   2.271   1.176   2.133
 1841SOL    HW2 6423   2.155   1.258   2.213
 1842SOL     OW 6424   1.858   5.065   0.649
 1842SOL    HW1 6425   1.816   5.037   0.563
 1842SOL    HW2 6426   1.887   5.160   0.643
 1843SOL     OW 6427   2.962   1.388   4.731
 1843SOL    HW1 6428   2.980   1.384   4.632
 1843SOL    HW2 6429   3.039   1.349   4.780
 1844SOL     OW 6430   4.942   1.563   6.445
 1844SOL    HW1 6431   4.924   1.473   6.405
 1844SOL    HW2 6432   4.877   1.629   6.408
 1845SOL     OW 6433   2.327   1.493   3.219
 1845SOL    HW1 6434   2.363   1.522   3.130
 1845SOL    HW2 6435   2.253   1.555   3.246
 1846SOL     OW 6436   4.286   1.324   2.529
 1846SOL    HW1 6437   4.333   1.288   2.448
 1846SOL    HW2 6438   4.313   1.271   2.609
 1847SOL     OW 6439   2.054   0.060   4.784
 1847SOL    HW1 6440   2.147   0.036   4.755
 1847SOL    HW2 6441   2.009   0.112   4.711
 1848SOL     OW 6442   2.138   5.551   4.281
 1848SOL    HW1 6443   2.169   5.564   4.376
 1848SOL    HW2 6444   2.217   5.552   4.220
 1849SOL     OW 6445   4.615   2.546   2.243
 1849SOL    HW1 6446   4.525   2.569   2.280
 1849SOL    HW2 6447   4.633   2.602   2.162
 1850SOL     OW 6448   5.138   1.835   2.029
 1850SOL    HW1 6449   5.111   1.925   2.061
 1850SOL    HW2 6450   5.134   1.770   2.105
 1851SOL     OW 6451   6.719   3.413   5.529
 1851SOL    HW1 6452   6.791   3.481   5.546
 1851SOL    HW2 6453   6.630   3.453   5.549
 1852SOL     OW 6454   1.610   5.310   1.951
 1852SOL    HW1 6455   1.678   5.298   2.023
 1852SOL    HW2 6456   1.519   5.294   1.988
 1853SOL     OW 6457   0.741   2.653   4.886
 1853SOL    HW1 6458   0.696   2.723   4.831
 1853SOL    HW2 6459   0.720   2.667   4.982
 1854SOL     OW 6460   0.485   6.130   3.476
 1854SOL    HW1 6461   0.511   6.073   3.554
 1854SOL    HW2 6462   0.442   6.074   3.406
 1855SOL     OW 6463   4.883   3.370   5.200
 1855SOL    HW1 6464   4.823   3.439   5.158
 1855SOL    HW2 6465   4.864   3.281   5.159
 1856SOL     OW 6466   3.627   2.949   6.970
 1856SOL    HW1 6467   3.620   2.882   0.023
 1856SOL    HW2 6468   3.550   3.012   6.975
 1857SOL     OW 6469   5.160   0.624   0.251
 1857SOL    HW1 6470   5.070   0.585   0.269
 1857SOL    HW2 6471   5.192   0.594   0.162
 1858SOL     OW 6472   4.394   2.414   4.217
 1858SOL    HW1 6473   4.435   2.331   4.178
 1858SOL    HW2 6474   4.315   2.389   4.274
 1859SOL     OW 6475   5.237   2.342   4.415
 1859SOL    HW1 6476   5.278   2.422   4.372
 1859SOL    HW2 6477   5.138   2.355   4.421
 1860SOL     OW 6478   1.192   1.286   4.991
 1860SOL    HW1 6479   1.283   1.244   4.991
 1860SOL    HW2 6480   1.138   1.250   4.915
 1861SOL     OW 6481   6.553   0.381   3.115
 1861SOL    HW1 6482   6.522   0.366   3.021
 1861SOL    HW2 6483   6.501   0.322   3.177
 1862SOL     OW 6484   2.301   6.374   6.463
 1862SOL    HW1 6485   2.312   6.418   6.374
 1862SOL    HW2 6486   2.376   6.310   6.478
 1863SOL     OW 6487   0.151   3.003   1.438
 1863SOL    HW1 6488   0.119   2.999   1.343
 1863SOL    HW2 6489   0.232   3.061   1.444
 1864SOL     OW 6490   3.271   5.885   3.140
 1864SOL    HW1 6491   3.232   5.803   3.183
 1864SOL    HW2 6492   3.241   5.966   3.189
 1865SOL     OW 6493   5.344   1.590   6.176
 1865SOL    HW1 6494   5.379   1.681   6.198
 1865SOL    HW2 6495   5.415   1.522   6.196
 1866SOL     OW 6496   0.547   4.636   3.658
 1866SOL    HW1 6497   0.634   4.588   3.661
 1866SOL    HW2 6498   0.483   4.592   3.721
 1867SOL     OW 6499   2.563   2.455   0.985
 1867SOL    HW1 6500   2.563   2.500   1.075
 1867SOL    HW2 6501   2.519   2.515   0.918
 1868SOL     OW 6502   5.730   4.752   5.664
 1868SOL    HW1 6503   5.789   4.793   5.594
 1868SOL    HW2 6504   5.763   4.661   5.687
 1869SOL     OW 6505   4.393   2.148   4.080
 1869SOL    HW1 6506   4.384   2.115   3.986
 1869SOL    HW2 6507   4.463   2.095   4.127
 1870SOL     OW 6508   0.925   4.832   3.927
 1870SOL    HW1 6509   0.965   4.802   4.014
 1870SOL    HW2 6510   0.949   4.927   3.911
 1871SOL     OW 6511   1.178   6.494   0.116
 1871SOL    HW1 6512   1.079   6.494   0.099
 1871SOL    HW2 6513   1.195   6.480   0.213
 1872SOL     OW 6514   2.795   2.506   0.774
 1872SOL    HW1 6515   2.768   2.449   0.852
 1872SOL    HW2 6516   2.873   2.563   0.801
 1873SOL     OW 6517   6.399   0.604   6.812
 1873SOL    HW1 6518   6.480   0.632   6.761
 1873SOL    HW2 6519   6.320   0.603   6.751
 1874SOL     OW 6520   1.341   6.068   0.165
 1874SOL    HW1 6521   1.262   6.008   0.179
 1874SOL    HW2 6522   1.370   6.106   0.252
 1875SOL     OW 6523   5.884   4.959   7.003
 1875SOL    HW1 6524   5.916   5.039   0.032
 1875SOL    HW2 6525   5.962   4.900   6.981
 1876SOL     OW 6526   6.519   6.134   6.293
 1876SOL    HW1 6527   6.509   6.233   6.304
 1876SOL    HW2 6528   6.458   6.087   6.356
 1877SOL     OW 6529   0.329   1.218   2.439
 1877SOL    HW1 6530   0.414   1.270   2.427
 1877SOL    HW2 6531   0.286   1.205   2.350
 1878SOL     OW 6532   0.383   4.707   3.443
 1878SOL    HW1 6533   0.456   4.685   3.508
 1878SOL    HW2 6534   0.420   4.764   3.369
 1879SOL     OW 6535   3.681   5.529   4.925
 1879SOL    HW1 6536   3.657   5.523   5.022
 1879SOL    HW2 6537   3.705   5.439   4.890
 1880SOL     OW 6538   0.165   1.799   3.591
 1880SOL    HW1 6539   0.172   1.756   3.502
 1880SOL    HW2 6540   0.242   1.770   3.648
 1881SOL     OW 6541   1.280   1.667   3.866
 1881SOL    HW1 6542   1.193   1.651   3.914
 1881SOL    HW2 6543   1.301   1.589   3.807
 1882SOL     OW 6544   1.345   5.590   0.264
 1882SOL    HW1 6545   1.299   5.508   0.298
 1882SOL    HW2 6546   1.312   5.670   0.315
 1883SOL     OW 6547   1.485   3.250   3.146
 1883SOL    HW1 6548   1.500   3.263   3.244
 1883SOL    HW2 6549   1.573   3.249   3.099
 1884SOL     OW 6550   2.998   0.938   0.442
 1884SOL    HW1 6551   2.953   1.017   0.486
 1884SOL    HW2 6552   3.072   0.906   0.502
 1885SOL     OW 6553   0.205   2.455   0.875
 1885SOL    HW1 6554   0.230   2.478   0.970
 1885SOL    HW2 6555   0.112   2.419   0.873
 1886SOL     OW 6556   2.646   2.494   0.158
 1886SOL    HW1 6557   2.636   2.593   0.166
 1886SOL    HW2 6558   2.635   2.467   0.063
 1887SOL     OW 6559   1.385   5.909   5.618
 1887SOL    HW1 6560   1.295   5.916   5.575
 1887SOL    HW2 6561   1.451   5.966   5.569
 1888SOL     OW 6562   1.705   2.178   6.481
 1888SOL    HW1 6563   1.795   2.215   6.456
 1888SOL    HW2 6564   1.666   2.129   6.403
 1889SOL     OW 6565   4.539   3.113   0.391
 1889SOL    HW1 6566   4.564   3.196   0.440
 1889SOL    HW2 6567   4.585   3.112   0.302
 1890SOL     OW 6568   0.179   6.082   6.077
 1890SOL    HW1 6569   0.240   6.089   6.156
 1890SOL    HW2 6570   0.187   5.991   6.037
 1891SOL     OW 6571   6.061   3.212   5.484
 1891SOL    HW1 6572   6.071   3.266   5.401
 1891SOL    HW2 6573   6.128   3.242   5.552
 1892SOL     OW 6574   3.855   5.211   1.989
 1892SOL    HW1 6575   3.881   5.122   2.027
 1892SOL    HW2 6576   3.762   5.233   2.018
 1893SOL     OW 6577   3.971   2.191   4.164
 1893SOL    HW1 6578   3.969   2.092   4.152
 1893SOL    HW2 6579   4.044   2.230   4.108
 1894SOL     OW 6580   4.782   3.855   1.156
 1894SOL    HW1 6581   4.871   3.811   1.166
 1894SOL    HW2 6582   4.752   3.890   1.245
 1895SOL     OW 6583   6.249   0.875   3.304
 1895SOL    HW1 6584   6.245   0.816   3.385
 1895SOL    HW2 6585   6.344   0.893   3.280
 1896SOL     OW 6586   6.628   1.500   4.792
 1896SOL    HW1 6587   6.624   1.401   4.800
 1896SOL    HW2 6588   6.549   1.541   4.838
 1897SOL     OW 6589   5.279   4.569   2.786
 1897SOL    HW1 6590   5.341   4.513   2.732
 1897SOL    HW2 6591   5.264   4.526   2.875
 1898SOL     OW 6592   5.231   5.119   1.132
 1898SOL    HW1 6593   5.235   5.210   1.091
 1898SOL    HW2 6594   5.138   5.101   1.165
 1899SOL     OW 6595   0.570   2.970   3.069
 1899SOL    HW1 6596   0.553   2.897   3.135
 1899SOL    HW2 6597   0.596   2.929   2.981
 1900SOL     OW 6598   1.572   5.665   6.063
 1900SOL    HW1 6599   1.527   5.589   6.017
 1900SOL    HW2 6600   1.512   5.746   6.060
 1901SOL     OW 6601   1.909   0.586   6.953
 1901SOL    HW1 6602   1.915   0.504   7.010
 1901SOL    HW2 6603   1.994   0.597   6.901
 1902SOL     OW 6604   0.871   3.105   4.568
 1902SOL    HW1 6605   0.962   3.071   4.592
 1902SOL    HW2 6606   0.812   3.028   4.545
 1903SOL     OW 6607   6.285   3.684   3.030
 1903SOL    HW1 6608   6.322   3.775   3.049
 1903SOL    HW2 6609   6.201   3.671   3.083
 1904SOL     OW 6610   6.510   6.878   4.065
 1904SOL    HW1 6611   6.592   6.849   4.015
 1904SOL    HW2 6612   6.515   6.845   4.159
 1905SOL     OW 6613   0.214   2.133   3.932
 1905SOL    HW1 6614   0.264   2.209   3.890
 1905SOL    HW2 6615   0.199   2.153   4.029
 1906SOL     OW 6616   2.602   0.212   6.429
 1906SOL    HW1 6617   2.609   0.271   6.349
 1906SOL    HW2 6618   2.556   0.262   6.503
 1907SOL     OW 6619   3.340   6.342   3.442
 1907SOL    HW1 6620   3.421   6.319   3.496
 1907SOL    HW2 6621   3.265   6.279   3.466
 1908SOL     OW 6622   4.022   1.456   5.729
 1908SOL    HW1 6623   3.969   1.524   5.678
 1908SOL    HW2 6624   4.111   1.443   5.685
 1909SOL     OW 6625   2.182   4.995   4.516
 1909SOL    HW1 6626   2.264   4.974   4.463
 1909SOL    HW2 6627   2.139   4.910   4.547
 1910SOL     OW 6628   5.267   2.324   5.989
 1910SOL    HW1 6629   5.262   2.265   6.070
 1910SOL    HW2 6630   5.360   2.323   5.953
 1911SOL     OW 6631   6.427   2.701   4.910
 1911SOL    HW1 6632   6.509   2.671   4.960
 1911SOL    HW2 6633   6.422   2.652   4.823
 1912SOL     OW 6634   3.743   0.054   2.393
 1912SOL    HW1 6635   3.646   0.077   2.403
 1912SOL    HW2 6636   3.752   6.978   2.370
 1913SOL     OW 6637   0.968   5.567   5.357
 1913SOL    HW1 6638   0.979   5.622   5.439
 1913SOL    HW2 6639   1.052   5.516   5.339
 1914SOL     OW 6640   3.234   2.464   6.119
 1914SOL    HW1 6641   3.297   2.423   6.053
 1914SOL    HW2 6642   3.141   2.462   6.082
 1915SOL     OW 6643   3.750   0.308   6.024
 1915SOL    HW1 6644   3.651   0.302   6.014
 1915SOL    HW2 6645   3.790   0.347   5.941
 1916SOL     OW 6646   3.136   5.785   2.109
 1916SOL    HW1 6647   3.043   5.812   2.133
 1916SOL    HW2 6648   3.148   5.785   2.010
 1917SOL     OW 6649   2.935   3.804   4.323
 1917SOL    HW1 6650   2.896   3.763   4.241
 1917SOL    HW2 6651   3.005   3.871   4.297
 1918SOL     OW 6652   5.438   5.961   5.644
 1918SOL    HW1 6653   5.407   5.915   5.727
 1918SOL    HW2 6654   5.531   5.932   5.623
 1919SOL     OW 6655   0.571   6.002   2.287
 1919SOL    HW1 6656   0.475   6.024   2.301
 1919SOL    HW2 6657   0.584   5.963   2.196
 1920SOL     OW 6658   0.013   5.772   3.671
 1920SOL    HW1 6659   6.996   5.682   3.651
 1920SOL    HW2 6660   6.989   5.810   3.751
 1921SOL     OW 6661   1.389   5.876   6.659
 1921SOL    HW1 6662   1.450   5.845   6.732
 1921SOL    HW2 6663   1.434   5.947   6.605
 1922SOL     OW 6664   4.008   3.904   1.275
 1922SOL    HW1 6665   4.014   3.886   1.177
 1922SOL    HW2 6666   3.920   3.872   1.310
 1923SOL     OW 6667   2.244   1.327   0.949
 1923SOL    HW1 6668   2.147   1.303   0.954
 1923SOL    HW2 6669   2.273   1.330   0.853
 1924SOL     OW 6670   6.833   4.088   1.937
 1924SOL    HW1 6671   6.910   4.134   1.893
 1924SOL    HW2 6672   6.817   4.128   2.027
 1925SOL     OW 6673   3.711   3.911   1.709
 1925SOL    HW1 6674   3.764   3.996   1.717
 1925SOL    HW2 6675   3.639   3.909   1.778
 1926SOL     OW 6676   1.376   0.121   4.601
 1926SOL    HW1 6677   1.369   0.070   4.516
 1926SOL    HW2 6678   1.371   0.219   4.583
 1927SOL     OW 6679   3.986   3.815   6.979
 1927SOL    HW1 6680   3.941   3.893   6.935
 1927SOL    HW2 6681   4.085   3.823   6.969
 1928SOL     OW 6682   6.342   4.128   5.602
 1928SOL    HW1 6683   6.358   4.040   5.647
 1928SOL    HW2 6684   6.262   4.120   5.541
 1929SOL     OW 6685   1.098   6.094   0.771
 1929SOL    HW1 6686   1.178   6.090   0.830
 1929SOL    HW2 6687   1.066   6.001   0.751
 1930SOL     OW 6688   5.859   4.384   6.078
 1930SOL    HW1 6689   5.884   4.303   6.024
 1930SOL    HW2 6690   5.858   4.359   6.175
 1931SOL     OW 6691   0.868   3.789   3.952
 1931SOL    HW1 6692   0.824   3.700   3.937
 1931SOL    HW2 6693   0.964   3.784   3.923
 1932SOL     OW 6694   5.017   4.107   1.903
 1932SOL    HW1 6695   5.083   4.074   1.970
 1932SOL    HW2 6696   5.029   4.205   1.890
 1933SOL     OW 6697   2.573   4.756   0.718
 1933SOL    HW1 6698   2.504   4.703   0.668
 1933SOL    HW2 6699   2.626   4.811   0.653
 1934SOL     OW 6700   1.064   6.848   5.568
 1934SOL    HW1 6701   0.977   6.797   5.570
 1934SOL    HW2 6702   1.053   6.930   5.512
 1935SOL     OW 6703   2.324   6.948   3.992
 1935SOL    HW1 6704   2.382   7.020   3.953
 1935SOL    HW2 6705   2.361   6.859   3.967
 1936SOL     OW 6706   5.630   6.062   4.675
 1936SOL    HW1 6707   5.661   6.143   4.726
 1936SOL    HW2 6708   5.589   6.091   4.589
 1937SOL     OW 6709   3.773   6.344   1.727
 1937SOL    HW1 6710   3.679   6.380   1.721
 1937SOL    HW2 6711   3.830   6.392   1.660
 1938SOL     OW 6712   4.024   1.137   3.377
 1938SOL    HW1 6713   3.968   1.083   3.440
 1938SOL    HW2 6714   3.977   1.222   3.355
 1939SOL     OW 6715   1.807   0.830   3.924
 1939SOL    HW1 6716   1.901   0.834   3.957
 1939SOL    HW2 6717   1.755   0.908   3.959
 1940SOL     OW 6718   6.713   5.290   0.149
 1940SOL    HW1 6719   6.805   5.315   0.178
 1940SOL    HW2 6720   6.680   5.215   0.205
 1941SOL     OW 6721   6.164   3.692   2.767
 1941SOL    HW1 6722   6.192   3.679   2.863
 1941SOL    HW2 6723   6.245   3.714   2.712
 1942SOL     OW 6724   6.687   5.523   2.452
 1942SOL    HW1 6725   6.746   5.453   2.412
 1942SOL    HW2 6726   6.681   5.510   2.551
 1943SOL     OW 6727   2.156   4.515   3.065
 1943SOL    HW1 6728   2.173   4.559   2.977
 1943SOL    HW2 6729   2.100   4.575   3.122
 1944SOL     OW 6730   5.638   1.298   6.522
 1944SOL    HW1 6731   5.592   1.247   6.449
 1944SOL    HW2 6732   5.657   1.391   6.491
 1945SOL     OW 6733   4.381   5.593   3.528
 1945SOL    HW1 6734   4.317   5.527   3.567
 1945SOL    HW2 6735   4.361   5.684   3.564
 1946SOL     OW 6736   1.684   0.154   0.419
 1946SOL    HW1 6737   1.692   0.227   0.488
 1946SOL    HW2 6738   1.595   0.159   0.376
 1947SOL     OW 6739   5.636   6.772   4.166
 1947SOL    HW1 6740   5.600   6.719   4.242
 1947SOL    HW2 6741   5.689   6.849   4.202
 1948SOL     OW 6742   6.814   5.892   3.939
 1948SOL    HW1 6743   6.808   5.925   4.033
 1948SOL    HW2 6744   6.878   5.815   3.935
 1949SOL     OW 6745   4.507   4.412   6.119
 1949SOL    HW1 6746   4.597   4.395   6.077
 1949SOL    HW2 6747   4.492   4.510   6.126
 1950SOL     OW 6748   3.444   3.722   6.629
 1950SOL    HW1 6749   3.364   3.771   6.663
 1950SOL    HW2 6750   3.450   3.731   6.530
 1951SOL     OW 6751   5.382   1.771   0.213
 1951SOL    HW1 6752   5.313   1.731   0.274
 1951SOL    HW2 6753   5.367   1.870   0.207
 1952SOL     OW 6754   3.992   2.029   0.855
 1952SOL    HW1 6755   3.982   2.076   0.943
 1952SOL    HW2 6756   4.040   1.943   0.869
 1953SOL     OW 6757   6.980   2.248   6.614
 1953SOL    HW1 6758   6.963   2.184   6.689
 1953SOL    HW2 6759   0.018   2.321   6.646
 1954SOL     OW 6760   4.589   1.803   3.708
 1954SOL    HW1 6761   4.528   1.761   3.641
 1954SOL    HW2 6762   4.560   1.776   3.800
 1955SOL     OW 6763   0.788   6.772   2.274
 1955SOL    HW1 6764   0.803   6.821   2.360
 1955SOL    HW2 6765   0.814   6.831   2.198
 1956SOL     OW 6766   5.337   5.793   2.612
 1956SOL    HW1 6767   5.278   5.713   2.596
 1956SOL    HW2 6768   5.287   5.861   2.665
 1957SOL     OW 6769   0.474   5.673   4.561
 1957SOL    HW1 6770   0.535   5.665   4.639
 1957SOL    HW2 6771   0.493   5.598   4.496
 1958SOL     OW 6772   5.144   3.386   5.299
 1958SOL    HW1 6773   5.063   3.370   5.242
 1958SOL    HW2 6774   5.144   3.481   5.330
 1959SOL     OW 6775   1.321   2.354   5.874
 1959SOL    HW1 6776   1.300   2.313   5.785
 1959SOL    HW2 6777   1.335   2.282   5.941
 1960SOL     OW 6778   6.339   5.264   0.285
 1960SOL    HW1 6779   6.296   5.353   0.268
 1960SOL    HW2 6780   6.394   5.270   0.368
 1961SOL     OW 6781   5.844   4.589   3.704
 1961SOL    HW1 6782   5.765   4.528   3.698
 1961SOL    HW2 6783   5.921   4.541   3.744
 1962SOL     OW 6784   1.229   6.232   3.382
 1962SOL    HW1 6785   1.183   6.287   3.312
 1962SOL    HW2 6786   1.265   6.148   3.340
 1963SOL     OW 6787   0.930   0.132   2.801
 1963SOL    HW1 6788   0.902   0.213   2.852
 1963SOL    HW2 6789   0.935   0.153   2.703
 1964SOL     OW 6790   4.532   2.455   1.945
 1964SOL    HW1 6791   4.433   2.446   1.959
 1964SOL    HW2 6792   4.560   2.548   1.966
 1965SOL     OW 6793   0.264   3.579   2.195
 1965SOL    HW1 6794   0.280   3.671   2.231
 1965SOL    HW2 6795   0.321   3.513   2.244
 1966SOL     OW 6796   6.919   5.212   4.467
 1966SOL    HW1 6797   6.867   5.278   4.413
 1966SOL    HW2 6798   6.864   5.130   4.482
 1967SOL     OW 6799   5.122   2.957   5.804
 1967SOL    HW1 6800   5.037   2.952   5.752
 1967SOL    HW2 6801   5.181   3.028   5.765
 1968SOL     OW 6802   2.799   5.646   6.970
 1968SOL    HW1 6803   2.749   5.603   0.024
 1968SOL    HW2 6804   2.769   5.741   6.961
 1969SOL     OW 6805   6.750   2.705   1.721
 1969SOL    HW1 6806   6.655   2.676   1.723
 1969SOL    HW2 6807   6.775   2.742   1.811
 1970SOL     OW 6808   1.330   0.572   5.814
 1970SOL    HW1 6809   1.315   0.532   5.904
 1970SOL    HW2 6810   1.244   0.574   5.763
 1971SOL     OW 6811   0.167   0.124   6.226
 1971SOL    HW1 6812   0.260   0.159   6.221
 1971SOL    HW2 6813   0.164   0.046   6.289
 1972SOL     OW 6814   0.890   4.121   3.817
 1972SOL    HW1 6815   0.926   4.179   3.890
 1972SOL    HW2 6816   0.932   4.148   3.730
 1973SOL     OW 6817   3.484   2.827   1.774
 1973SOL    HW1 6818   3.493   2.871   1.864
 1973SOL    HW2 6819   3.553   2.755   1.766
 1974SOL     OW 6820   5.724   6.297   4.829
 1974SOL    HW1 6821   5.817   6.261   4.833
 1974SOL    HW2 6822   5.713   6.350   4.745
 1975SOL     OW 6823   2.309   0.682   4.664
 1975SOL    HW1 6824   2.337   0.765   4.712
 1975SOL    HW2 6825   2.373   0.664   4.589
 1976SOL     OW 6826   0.538   5.851   0.460
 1976SOL    HW1 6827   0.631   5.815   0.468
 1976SOL    HW2 6828   0.534   5.941   0.504
 1977SOL     OW 6829   0.740   2.550   4.336
 1977SOL    HW1 6830   0.732   2.531   4.239
 1977SOL    HW2 6831   0.648   2.563   4.375
 1978SOL     OW 6832   0.689   1.063   4.498
 1978SOL    HW1 6833   0.697   0.968   4.470
 1978SOL    HW2 6834   0.604   1.076   4.550
 1979SOL     OW 6835   0.003   4.422   4.905
 1979SOL    HW1 6836   6.985   4.337   4.941
 1979SOL    HW2 6837   0.078   4.452   4.964
 1980SOL     OW 6838   3.284   0.305   0.652
 1980SOL    HW1 6839   3.268   0.403   0.663
 1980SOL    HW2 6840   3.236   0.255   0.724
 1981SOL     OW 6841   5.395   2.439   2.602
 1981SOL    HW1 6842   5.464   2.504   2.631
 1981SOL    HW2 6843   5.323   2.433   2.671
 1982SOL     OW 6844   6.366   4.965   4.708
 1982SOL    HW1 6845   6.372   4.979   4.609
 1982SOL    HW2 6846   6.404   5.045   4.755
 1983SOL     OW 6847   1.558   2.449   3.089
 1983SOL    HW1 6848   1.505   2.480   3.168
 1983SOL    HW2 6849   1.615   2.372   3.116
 1984SOL     OW 6850   4.528   1.370   6.242
 1984SOL    HW1 6851   4.470   1.409   6.313
 1984SOL    HW2 6852   4.588   1.440   6.205
 1985SOL     OW 6853   0.893   0.971   2.027
 1985SOL    HW1 6854   0.879   0.875   2.003
 1985SOL    HW2 6855   0.805   1.012   2.051
 1986SOL     OW 6856   1.308   1.912   6.793
 1986SOL    HW1 6857   1.301   2.009   6.771
 1986SOL    HW2 6858   1.404   1.886   6.799
 1987SOL     OW 6859   2.695   3.121   1.684
 1987SOL    HW1 6860   2.669   3.026   1.699
 1987SOL    HW2 6861   2.792   3.133   1.704
 1988SOL     OW 6862   4.844   3.966   0.067
 1988SOL    HW1 6863   4.796   3.890   0.024
 1988SOL    HW2 6864   4.783   4.045   0.074
 1989SOL     OW 6865   2.306   0.000   4.702
 1989SOL    HW1 6866   2.344   6.935   4.669
 1989SOL    HW2 6867   2.312   0.069   4.629
 1990SOL     OW 6868   3.000   1.056   1.314
 1990SOL    HW1 6869   2.935   0.992   1.353
 1990SOL    HW2 6870   3.091   1.014   1.312
 1991SOL     OW 6871   3.220   5.950   5.483
 1991SOL    HW1 6872   3.158   5.969   5.407
 1991SOL    HW2 6873   3.267   5.863   5.467
 1992SOL     OW 6874   2.209   6.788   5.316
 1992SOL    HW1 6875   2.191   6.831   5.228
 1992SOL    HW2 6876   2.234   6.857   5.383
 1993SOL     OW 6877   3.955   3.432   5.371
 1993SOL    HW1 6878   3.963   3.375   5.289
 1993SOL    HW2 6879   3.863   3.470   5.375
 1994SOL     OW 6880   0.491   2.105   1.716
 1994SOL    HW1 6881   0.567   2.152   1.760
 1994SOL    HW2 6882   0.487   2.011   1.748
 1995SOL     OW 6883   6.373   2.329   1.696
 1995SOL    HW1 6884   6.321   2.383   1.762
 1995SOL    HW2 6885   6.330   2.239   1.684
 1996SOL     OW 6886   3.842   3.451   0.685
 1996SOL    HW1 6887   3.773   3.521   0.702
 1996SOL    HW2 6888   3.933   3.492   0.690
 1997SOL     OW 6889   5.926   1.149   4.983
 1997SOL    HW1 6890   5.842   1.097   4.999
 1997SOL    HW2 6891   5.957   1.134   4.890
 1998SOL     OW 6892   2.617   3.628   6.319
 1998SOL    HW1 6893   2.624   3.634   6.219
 1998SOL    HW2 6894   2.701   3.587   6.355
 1999SOL     OW 6895   2.372   0.326   2.197
 1999SOL    HW1 6896   2.278   0.303   2.222
 1999SOL    HW2 6897   2.408   0.392   2.262
 2000SOL     OW 6898   4.297   1.702   4.681
 2000SOL    HW1 6899   4.233   1.659   4.617
 2000SOL    HW2 6900   4.319   1.794   4.650
 2001SOL     OW 6901   3.866   1.726   1.608
 2001SOL    HW1 6902   3.845   1.787   1.685
 2001SOL    HW2 6903   3.839   1.770   1.523
 2002SOL     OW 6904   2.029   6.683   6.380
 2002SOL    HW1 6905   2.050   6.772   6.340
 2002SOL    HW2 6906   2.020   6.616   6.307
 2003SOL     OW 6907   5.139   0.333   3.547
 2003SOL    HW1 6908   5.078   0.336   3.626
 2003SOL    HW2 6909   5.103   0.269   3.479
 2004SOL     OW 6910   4.326   1.097   4.635
 2004SOL    HW1 6911   4.227   1.104   4.645
 2004SOL    HW2 6912   4.369   1.184   4.661
 2005SOL     OW 6913   1.775   6.090   6.651
 2005SOL    HW1 6914   1.790   6.147   6.732
 2005SOL    HW2 6915   1.863   6.066   6.610
 2006SOL     OW 6916   4.760   4.173   3.962
 2006SOL    HW1 6917   4.810   4.175   4.049
 2006SOL    HW2 6918   4.702   4.092   3.959
 2007SOL     OW 6919   5.259   5.192   6.767
 2007SOL    HW1 6920   5.348   5.216   6.806
 2007SOL    HW2 6921   5.194   5.173   6.840
 2008SOL     OW 6922   6.677   6.293   3.456
 2008SOL    HW1 6923   6.738   6.215   3.442
 2008SOL    HW2 6924   6.583   6.261   3.466
 2009SOL     OW 6925   6.573   0.507   1.909
 2009SOL    HW1 6926   6.607   0.421   1.946
 2009SOL    HW2 6927   6.474   0.512   1.920
 2010SOL     OW 6928   1.684   0.984   1.286
 2010SOL    HW1 6929   1.752   1.050   1.254
 2010SOL    HW2 6930   1.731   0.907   1.330
 2011SOL     OW 6931   6.787   2.425   4.922
 2011SOL    HW1 6932   6.884   2.419   4.946
 2011SOL    HW2 6933   6.762   2.521   4.910
 2012SOL     OW 6934   1.440   4.062   1.394
 2012SOL    HW1 6935   1.451   4.043   1.491
 2012SOL    HW2 6936   1.417   3.977   1.346
 2013SOL     OW 6937   5.189   1.736   3.201
 2013SOL    HW1 6938   5.186   1.751   3.300
 2013SOL    HW2 6939   5.250   1.803   3.159
 2014SOL     OW 6940   0.785   6.165   3.498
 2014SOL    HW1 6941   0.710   6.142   3.561
 2014SOL    HW2 6942   0.864   6.108   3.518
 2015SOL     OW 6943   3.527   0.792   0.137
 2015SOL    HW1 6944   3.560   0.699   0.157
 2015SOL    HW2 6945   3.506   0.838   0.223
 2016SOL     OW 6946   0.810   5.508   4.230
 2016SOL    HW1 6947   0.853   5.519   4.320
 2016SOL    HW2 6948   0.870   5.546   4.160
 2017SOL     OW 6949   2.683   6.491   3.305
 2017SOL    HW1 6950   2.684   6.454   3.212
 2017SOL    HW2 6951   2.646   6.422   3.367
 2018SOL     OW 6952   6.669   5.563   5.008
 2018SOL    HW1 6953   6.664   5.603   5.099
 2018SOL    HW2 6954   6.579   5.566   4.965
 2019SOL     OW 6955   5.250   2.497   1.152
 2019SOL    HW1 6956   5.159   2.507   1.110
 2019SOL    HW2 6957   5.296   2.585   1.154
 2020SOL     OW 6958   1.516   5.304   4.563
 2020SOL    HW1 6959   1.477   5.353   4.485
 2020SOL    HW2 6960   1.588   5.243   4.530
 2021SOL     OW 6961   1.842   0.540   2.458
 2021SOL    HW1 6962   1.762   0.482   2.474
 2021SOL    HW2 6963   1.813   0.636   2.455
 2022SOL     OW 6964   2.145   3.384   1.701
 2022SOL    HW1 6965   2.140   3.439   1.617
 2022SOL    HW2 6966   2.223   3.413   1.755
 2023SOL     OW 6967   6.930   1.221   6.850
 2023SOL    HW1 6968   6.891   1.166   6.923
 2023SOL    HW2 6969   7.009   1.173   6.811
 2024SOL     OW 6970   6.338   0.677   3.510
 2024SOL    HW1 6971   6.284   0.610   3.458
 2024SOL    HW2 6972   6.435   0.656   3.501
 2025SOL     OW 6973   1.109   1.852   1.504
 2025SOL    HW1 6974   1.179   1.922   1.496
 2025SOL    HW2 6975   1.150   1.766   1.535
 2026SOL     OW 6976   2.173   2.308   6.280
 2026SOL    HW1 6977   2.135   2.221   6.248
 2026SOL    HW2 6978   2.176   2.372   6.203
 2027SOL     OW 6979   0.238   0.868   2.194
 2027SOL    HW1 6980   0.161   0.876   2.130
 2027SOL    HW2 6981   0.285   0.957   2.200
 2028SOL     OW 6982   4.029   1.235   0.628
 2028SOL    HW1 6983   4.044   1.224   0.726
 2028SOL    HW2 6984   4.117   1.230   0.580
 2029SOL     OW 6985   1.215   0.704   6.694
 2029SOL    HW1 6986   1.158   0.681   6.773
 2029SOL    HW2 6987   1.306   0.665   6.704
 2030SOL     OW 6988   2.200   2.394   3.525
 2030SOL    HW1 6989   2.227   2.331   3.598
 2030SOL    HW2 6990   2.106   2.425   3.541
 2031SOL     OW 6991   5.228   5.893   2.182
 2031SOL    HW1 6992   5.131   5.903   2.159
 2031SOL    HW2 6993   5.239   5.897   2.281
 2032SOL     OW 6994   5.058   6.403   1.090
 2032SOL    HW1 6995   5.019   6.312   1.077
 2032SOL    HW2 6996   5.005   6.453   1.159
 2033SOL     OW 6997   4.341   4.781   6.318
 2033SOL    HW1 6998   4.368   4.754   6.411
 2033SOL    HW2 6999   4.250   4.822   6.320
 2034SOL     OW 7000   1.862   6.408   3.326
 2034SOL    HW1 7001   1.898   6.317   3.346
 2034SOL    HW2 7002   1.892   6.436   3.235
 2035SOL     OW 7003   6.688   1.638   2.634
 2035SOL    HW1 7004   6.704   1.566   2.701
 2035SOL    HW2 7005   6.626   1.706   2.672
 2036SOL     OW 7006   0.526   5.652   1.297
 2036SOL    HW1 7007   0.583   5.584   1.250
 2036SOL    HW2 7008   0.473   5.607   1.369
 2037SOL     OW 7009   0.029   2.174   5.665
 2037SOL    HW1 7010   7.011   2.132   5.583
 2037SOL    HW2 7011   0.056   2.269   5.644
 2038SOL     OW 7012   1.199   1.530   6.012
 2038SOL    HW1 7013   1.111   1.497   5.978
 2038SOL    HW2 7014   1.213   1.625   5.984
 2039SOL     OW 7015   0.108   6.024   4.037
 2039SOL    HW1 7016   0.162   6.049   3.957
 2039SOL    HW2 7017   0.093   6.105   4.094
 2040SOL     OW 7018   3.511   3.096   4.022
 2040SOL    HW1 7019   3.449   3.174   4.021
 2040SOL    HW2 7020   3.477   3.025   3.960
 2041SOL     OW 7021   5.926   5.109   6.079
 2041SOL    HW1 7022   6.017   5.077   6.051
 2041SOL    HW2 7023   5.901   5.065   6.165
 2042SOL     OW 7024   5.653   5.452   0.838
 2042SOL    HW1 7025   5.611   5.380   0.894
 2042SOL    HW2 7026   5.704   5.515   0.897
 2043SOL     OW 7027   6.360   5.224   2.293
 2043SOL    HW1 7028   6.417   5.269   2.225
 2043SOL    HW2 7029   6.385   5.255   2.385
 2044SOL     OW 7030   5.934   6.972   2.182
 2044SOL    HW1 7031   5.938   6.947   2.085
 2044SOL    HW2 7032   5.978   0.040   2.194
 2045SOL     OW 7033   2.104   4.869   5.573
 2045SOL    HW1 7034   2.068   4.790   5.523
 2045SOL    HW2 7035   2.078   4.953   5.526
 2046SOL     OW 7036   0.112   0.378   4.366
 2046SOL    HW1 7037   0.044   0.451   4.364
 2046SOL    HW2 7038   0.158   0.372   4.278
 2047SOL     OW 7039   4.505   1.827   1.033
 2047SOL    HW1 7040   4.490   1.751   0.969
 2047SOL    HW2 7041   4.425   1.837   1.091
 2048SOL     OW 7042   3.695   6.793   0.010
 2048SOL    HW1 7043   3.694   6.875   0.068
 2048SOL    HW2 7044   3.695   6.712   0.068
 2049SOL     OW 7045   4.911   1.982   6.796
 2049SOL    HW1 7046   4.815   1.994   6.769
 2049SOL    HW2 7047   4.943   1.892   6.767
 2050SOL     OW 7048   6.092   2.927   3.631
 2050SOL    HW1 7049   6.179   2.954   3.590
 2050SOL    HW2 7050   6.106   2.902   3.727
 2051SOL     OW 7051   0.338   5.184   6.415
 2051SOL    HW1 7052   0.257   5.236   6.384
 2051SOL    HW2 7053   0.310   5.119   6.486
 2052SOL     OW 7054   0.487   3.442   0.015
 2052SOL    HW1 7055   0.569   3.385   0.022
 2052SOL    HW2 7056   0.419   3.395   6.979
 2053SOL     OW 7057   6.232   7.012   0.251
 2053SOL    HW1 7058   6.190   6.922   0.264
 2053SOL    HW2 7059   6.305   0.004   0.319
 2054SOL     OW 7060   6.038   2.674   1.055
 2054SOL    HW1 7061   5.955   2.707   1.100
 2054SOL    HW2 7062   6.098   2.632   1.123
 2055SOL     OW 7063   5.392   2.687   3.315
 2055SOL    HW1 7064   5.314   2.738   3.280
 2055SOL    HW2 7065   5.377   2.589   3.299
 2056SOL     OW 7066   2.085   1.450   2.887
 2056SOL    HW1 7067   2.091   1.507   2.970
 2056SOL    HW2 7068   2.139   1.492   2.814
 2057SOL     OW 7069   5.560   2.240   4.119
 2057SOL    HW1 7070   5.574   2.159   4.062
 2057SOL    HW2 7071   5.510   2.214   4.202
 2058SOL     OW 7072   0.770   1.807   3.121
 2058SOL    HW1 7073   0.683   1.802   3.072
 2058SOL    HW2 7074   0.842   1.839   3.059
 2059SOL     OW 7075   2.289   0.116   6.821
 2059SOL    HW1 7076   2.360   0.134   6.753
 2059SOL    HW2 7077   2.311   0.032   6.872
 2060SOL     OW 7078   6.652   4.198   1.378
 2060SOL    HW1 7079   6.658   4.292   1.412
 2060SOL    HW2 7080   6.744   4.160   1.368
 2061SOL     OW 7081   0.315   1.500   2.297
 2061SOL    HW1 7082   0.290   1.588   2.335
 2061SOL    HW2 7083   0.250   1.475   2.225
 2062SOL     OW 7084   5.278   6.846   3.086
 2062SOL    HW1 7085   5.190   6.832   3.132
 2062SOL    HW2 7086   5.342   6.776   3.116
 2063SOL     OW 7087   1.093   1.311   6.816
 2063SOL    HW1 7088   1.053   1.367   6.888
 2063SOL    HW2 7089   1.153   1.367   6.759
 2064SOL     OW 7090   0.716   2.471   6.045
 2064SOL    HW1 7091   0.699   2.413   5.966
 2064SOL    HW2 7092   0.730   2.565   6.014
 2065SOL     OW 7093   5.705   3.531   2.179
 2065SOL    HW1 7094   5.731   3.627   2.184
 2065SOL    HW2 7095   5.722   3.497   2.087
 2066SOL     OW 7096   0.518   5.189   4.488
 2066SOL    HW1 7097   0.462   5.257   4.440
 2066SOL    HW2 7098   0.505   5.199   4.587
 2067SOL     OW 7099   6.877   6.590   0.791
 2067SOL    HW1 7100   6.790   6.595   0.741
 2067SOL    HW2 7101   6.949   6.557   0.730
 2068SOL     OW 7102   2.005   1.177   5.616
 2068SOL    HW1 7103   1.954   1.263   5.609
 2068SOL    HW2 7104   1.954   1.113   5.673
 2069SOL     OW 7105   0.595   2.986   2.646
 2069SOL    HW1 7106   0.624   3.060   2.707
 2069SOL    HW2 7107   0.557   3.025   2.562
 2070SOL     OW 7108   1.523   0.535   2.410
 2070SOL    HW1 7109   1.587   0.610   2.395
 2070SOL    HW2 7110   1.489   0.502   2.322
 2071SOL     OW 7111   0.857   6.551   4.105
 2071SOL    HW1 7112   0.851   6.599   4.017
 2071SOL    HW2 7113   0.901   6.610   4.172
 2072SOL     OW 7114   4.764   5.778   1.970
 2072SOL    HW1 7115   4.803   5.717   1.901
 2072SOL    HW2 7116   4.748   5.727   2.054
 2073SOL     OW 7117   3.791   6.841   4.396
 2073SOL    HW1 7118   3.855   6.802   4.462
 2073SOL    HW2 7119   3.729   6.769   4.363
 2074SOL     OW 7120   0.356   2.153   6.729
 2074SOL    HW1 7121   0.278   2.110   6.684
 2074SOL    HW2 7122   0.422   2.082   6.756
 2075SOL     OW 7123   4.746   3.123   1.448
 2075SOL    HW1 7124   4.781   3.064   1.375
 2075SOL    HW2 7125   4.648   3.105   1.461
 2076SOL     OW 7126   5.592   5.977   0.041
 2076SOL    HW1 7127   5.568   6.043   6.991
 2076SOL    HW2 7128   5.575   5.884   0.006
 2077SOL     OW 7129   5.474   2.536   2.078
 2077SOL    HW1 7130   5.522   2.451   2.099
 2077SOL    HW2 7131   5.424   2.567   2.159
 2078SOL     OW 7132   2.607   5.989   6.546
 2078SOL    HW1 7133   2.665   5.919   6.504
 2078SOL    HW2 7134   2.624   6.077   6.502
 2079SOL     OW 7135   5.739   0.834   3.768
 2079SOL    HW1 7136   5.811   0.840   3.700
 2079SOL    HW2 7137   5.713   0.738   3.780
 2080SOL     OW 7138   2.506   1.531   4.956
 2080SOL    HW1 7139   2.492   1.596   4.881
 2080SOL    HW2 7140   2.601   1.501   4.957
 2081SOL     OW 7141   1.173   6.098   5.331
 2081SOL    HW1 7142   1.183   6.026   5.399
 2081SOL    HW2 7143   1.082   6.138   5.337
 2082SOL     OW 7144   5.822   0.312   1.644
 2082SOL    HW1 7145   5.838   0.215   1.623
 2082SOL    HW2 7146   5.799   0.321   1.741
 2083SOL     OW 7147   4.246   4.598   6.721
 2083SOL    HW1 7148   4.228   4.696   6.712
 2083SOL    HW2 7149   4.214   4.551   6.639
 2084SOL     OW 7150   6.901   3.002   3.769
 2084SOL    HW1 7151   6.934   2.917   3.810
 2084SOL    HW2 7152   6.955   3.023   3.687
 2085SOL     OW 7153   5.355   1.030   6.672
 2085SOL    HW1 7154   5.390   1.112   6.716
 2085SOL    HW2 7155   5.350   0.956   6.739
 2086SOL     OW 7156   2.799   5.778   6.410
 2086SOL    HW1 7157   2.894   5.782   6.379
 2086SOL    HW2 7158   2.782   5.689   6.452
 2087SOL     OW 7159   4.688   6.253   1.990
 2087SOL    HW1 7160   4.779   6.222   2.020
 2087SOL    HW2 7161   4.654   6.323   2.053
 2088SOL     OW 7162   3.235   5.920   0.541
 2088SOL    HW1 7163   3.298   5.851   0.576
 2088SOL    HW2 7164   3.242   5.924   0.441
 2089SOL     OW 7165   4.401   1.380   0.043
 2089SOL    HW1 7166   4.367   1.357   6.973
 2089SOL    HW2 7167   4.498   1.406   0.036
 2090SOL     OW 7168   4.165   3.482   4.156
 2090SOL    HW1 7169   4.121   3.542   4.089
 2090SOL    HW2 7170   4.186   3.533   4.239
 2091SOL     OW 7171   0.436   6.039   0.238
 2091SOL    HW1 7172   0.509   5.989   0.285
 2091SOL    HW2 7173   0.427   6.005   0.144
 2092SOL     OW 7174   5.481   6.189   0.567
 2092SOL    HW1 7175   5.530   6.147   0.491
 2092SOL    HW2 7176   5.476   6.125   0.644
 2093SOL     OW 7177   1.208   1.620   1.693
 2093SOL    HW1 7178   1.292   1.612   1.638
 2093SOL    HW2 7179   1.232   1.616   1.790
 2094SOL     OW 7180   6.074   1.022   1.767
 2094SOL    HW1 7181   6.106   0.944   1.820
 2094SOL    HW2 7182   6.153   1.068   1.724
 2095SOL     OW 7183   5.832   6.901   3.874
 2095SOL    HW1 7184   5.930   6.887   3.858
 2095SOL    HW2 7185   5.819   6.954   3.958
 2096SOL     OW 7186   4.929   3.895   3.049
 2096SOL    HW1 7187   5.029   3.894   3.056
 2096SOL    HW2 7188   4.901   3.849   2.965
 2097SOL     OW 7189   1.105   3.041   6.272
 2097SOL    HW1 7190   1.191   3.035   6.222
 2097SOL    HW2 7191   1.095   2.960   6.330
 2098SOL     OW 7192   3.766   6.097   3.714
 2098SOL    HW1 7193   3.852   6.071   3.757
 2098SOL    HW2 7194   3.783   6.168   3.645
 2099SOL     OW 7195   2.283   1.367   4.979
 2099SOL    HW1 7196   2.318   1.311   4.903
 2099SOL    HW2 7197   2.336   1.451   4.985
 2100SOL     OW 7198   3.807   3.624   6.438
 2100SOL    HW1 7199   3.886   3.567   6.459
 2100SOL    HW2 7200   3.770   3.598   6.348
 2101SOL     OW 7201   1.073   6.621   2.102
 2101SOL    HW1 7202   1.033   6.569   2.178
 2101SOL    HW2 7203   1.049   6.578   2.015
 2102SOL     OW 7204   0.387   5.070   1.823
 2102SOL    HW1 7205   0.359   5.049   1.729
 2102SOL    HW2 7206   0.345   5.003   1.885
 2103SOL     OW 7207   2.502   3.719   0.088
 2103SOL    HW1 7208   2.447   3.680   0.015
 2103SOL    HW2 7209   2.572   3.653   0.117
 2104SOL     OW 7210   1.534   3.583   6.837
 2104SOL    HW1 7211   1.633   3.565   6.831
 2104SOL    HW2 7212   1.518   3.665   6.891
 2105SOL     OW 7213   5.040   5.174   3.408
 2105SOL    HW1 7214   5.071   5.081   3.391
 2105SOL    HW2 7215   5.010   5.183   3.503
 2106SOL     OW 7216   4.084   5.381   0.291
 2106SOL    HW1 7217   3.989   5.351   0.305
 2106SOL    HW2 7218   4.095   5.417   0.198
 2107SOL     OW 7219   4.364   3.247   5.789
 2107SOL    HW1 7220   4.285   3.252   5.851
 2107SOL    HW2 7221   4.435   3.191   5.832
 2108SOL     OW 7222   6.156   6.184   5.731
 2108SOL    HW1 7223   6.232   6.155   5.788
 2108SOL    HW2 7224   6.070   6.150   5.770
 2109SOL     OW 7225   5.170   6.908   3.803
 2109SOL    HW1 7226   5.109   6.829   3.814
 2109SOL    HW2 7227   5.263   6.876   3.786
 2110SOL     OW 7228   3.247   3.968   6.202
 2110SOL    HW1 7229   3.188   3.891   6.177
 2110SOL    HW2 7230   3.294   4.001   6.121
 2111SOL     OW 7231   0.542   1.943   6.513
 2111SOL    HW1 7232   0.449   1.918   6.539
 2111SOL    HW2 7233   0.550   1.943   6.413
 2112SOL     OW 7234   4.581   1.791   1.579
 2112SOL    HW1 7235   4.546   1.733   1.652
 2112SOL    HW2 7236   4.518   1.868   1.564
 2113SOL     OW 7237   1.071   0.017   3.987
 2113SOL    HW1 7238   1.044   0.026   4.083
 2113SOL    HW2 7239   1.083   6.941   3.965
 2114SOL     OW 7240   1.690   3.226   0.422
 2114SOL    HW1 7241   1.638   3.299   0.467
 2114SOL    HW2 7242   1.700   3.149   0.485
 2115SOL     OW 7243   1.861   4.004   3.040
 2115SOL    HW1 7244   1.799   4.078   3.014
 2115SOL    HW2 7245   1.950   4.041   3.064
 2116SOL     OW 7246   6.839   4.221   3.542
 2116SOL    HW1 7247   6.924   4.172   3.521
 2116SOL    HW2 7248   6.776   4.214   3.464
 2117SOL     OW 7249   6.872   4.761   1.906
 2117SOL    HW1 7250   6.931   4.759   1.825
 2117SOL    HW2 7251   6.873   4.672   1.950
 2118SOL     OW 7252   0.316   3.387   2.810
 2118SOL    HW1 7253   0.371   3.352   2.734
 2118SOL    HW2 7254   0.337   3.335   2.893
 2119SOL     OW 7255   2.401   5.797   1.111
 2119SOL    HW1 7256   2.331   5.809   1.041
 2119SOL    HW2 7257   2.363   5.821   1.200
 2120SOL     OW 7258   6.743   5.248   3.423
 2120SOL    HW1 7259   6.652   5.284   3.401
 2120SOL    HW2 7260   6.800   5.322   3.459
 2121SOL     OW 7261   0.969   4.445   5.596
 2121SOL    HW1 7262   1.039   4.377   5.573
 2121SOL    HW2 7263   0.935   4.488   5.513
 2122SOL     OW 7264   6.307   4.180   5.229
 2122SOL    HW1 7265   6.386   4.131   5.265
 2122SOL    HW2 7266   6.337   4.244   5.158
 2123SOL     OW 7267   0.475   4.387   2.761
 2123SOL    HW1 7268   0.375   4.385   2.764
 2123SOL    HW2 7269   0.509   4.445   2.835
 2124SOL     OW 7270   1.983   1.389   1.256
 2124SOL    HW1 7271   2.027   1.454   1.195
 2124SOL    HW2 7272   2.033   1.385   1.343
 2125SOL     OW 7273   1.420   0.677   0.729
 2125SOL    HW1 7274   1.428   0.584   0.692
 2125SOL    HW2 7275   1.413   0.743   0.654
 2126SOL     OW 7276   3.078   0.539   0.898
 2126SOL    HW1 7277   3.123   0.479   0.965
 2126SOL    HW2 7278   3.049   0.485   0.819
 2127SOL     OW 7279   6.234   3.163   4.514
 2127SOL    HW1 7280   6.216   3.103   4.592
 2127SOL    HW2 7281   6.223   3.259   4.541
 2128SOL     OW 7282   0.067   4.491   4.641
 2128SOL    HW1 7283   0.055   4.483   4.740
 2128SOL    HW2 7284   0.114   4.577   4.620
 2129SOL     OW 7285   4.347   2.973   5.625
 2129SOL    HW1 7286   4.376   3.059   5.668
 2129SOL    HW2 7287   4.327   2.990   5.529
 2130SOL     OW 7288   4.842   6.777   2.704
 2130SOL    HW1 7289   4.791   6.861   2.688
 2130SOL    HW2 7290   4.939   6.792   2.683
 2131SOL     OW 7291   0.000   0.931   0.648
 2131SOL    HW1 7292   0.029   0.841   0.615
 2131SOL    HW2 7293   0.065   0.962   0.718
 2132SOL     OW 7294   4.197   3.066   1.114
 2132SOL    HW1 7295   4.131   3.012   1.165
 2132SOL    HW2 7296   4.148   3.131   1.055
 2133SOL     OW 7297   3.024   2.347   5.422
 2133SOL    HW1 7298   3.111   2.391   5.402
 2133SOL    HW2 7299   2.973   2.333   5.337
 2134SOL     OW 7300   0.122   2.062   0.701
 2134SOL    HW1 7301   0.074   1.975   0.695
 2134SOL    HW2 7302   0.182   2.062   0.781
 2135SOL     OW 7303   0.307   4.466   4.316
 2135SOL    HW1 7304   0.224   4.461   4.261
 2135SOL    HW2 7305   0.295   4.532   4.390
 2136SOL     OW 7306   2.853   5.236   2.338
 2136SOL    HW1 7307   2.805   5.287   2.408
 2136SOL    HW2 7308   2.943   5.209   2.371
 2137SOL     OW 7309   3.180   5.147   5.205
 2137SOL    HW1 7310   3.122   5.090   5.263
 2137SOL    HW2 7311   3.136   5.236   5.191
 2138SOL     OW 7312   6.326   0.905   2.942
 2138SOL    HW1 7313   6.332   0.806   2.955
 2138SOL    HW2 7314   6.328   0.926   2.844
 2139SOL     OW 7315   3.978   0.596   4.625
 2139SOL    HW1 7316   4.034   0.658   4.680
 2139SOL    HW2 7317   3.961   0.636   4.535
 2140SOL     OW 7318   3.758   0.191   4.527
 2140SOL    HW1 7319   3.770   0.170   4.624
 2140SOL    HW2 7320   3.660   0.185   4.504
 2141SOL     OW 7321   6.440   4.056   2.294
 2141SOL    HW1 7322   6.378   3.981   2.315
 2141SOL    HW2 7323   6.534   4.029   2.315
 2142SOL     OW 7324   0.991   2.070   3.663
 2142SOL    HW1 7325   1.088   2.062   3.643
 2142SOL    HW2 7326   0.977   2.091   3.760
 2143SOL     OW 7327   2.040   5.559   0.941
 2143SOL    HW1 7328   2.127   5.532   0.900
 2143SOL    HW2 7329   2.003   5.483   0.995
 2144SOL     OW 7330   0.420   4.913   4.167
 2144SOL    HW1 7331   0.352   4.984   4.184
 2144SOL    HW2 7332   0.511   4.947   4.192
 2145SOL     OW 7333   4.113   6.704   4.064
 2145SOL    HW1 7334   4.182   6.735   4.129
 2145SOL    HW2 7335   4.028   6.685   4.112
 2146SOL     OW 7336   2.012   1.969   0.776
 2146SOL    HW1 7337   2.015   1.897   0.707
 2146SOL    HW2 7338   2.067   1.941   0.855
 2147SOL     OW 7339   6.879   1.760   5.843
 2147SOL    HW1 7340   6.805   1.700   5.875
 2147SOL    HW2 7341   6.966   1.726   5.877
 2148SOL     OW 7342   0.039   3.361   6.041
 2148SOL    HW1 7343   0.120   3.303   6.031
 2148SOL    HW2 7344   0.064   3.445   6.089
 2149SOL     OW 7345   1.260   1.313   1.075
 2149SOL    HW1 7346   1.340   1.267   1.114
 2149SOL    HW2 7347   1.282   1.347   0.984
 2150SOL     OW 7348   2.701   2.560   1.775
 2150SOL    HW1 7349   2.651   2.593   1.856
 2150SOL    HW2 7350   2.779   2.504   1.805
 2151SOL     OW 7351   0.768   6.073   6.991
 2151SOL    HW1 7352   0.838   6.039   6.927
 2151SOL    HW2 7353   0.813   6.126   0.042
 2152SOL     OW 7354   3.756   5.115   2.368
 2152SOL    HW1 7355   3.836   5.077   2.322
 2152SOL    HW2 7356   3.760   5.215   2.363
 2153SOL     OW 7357   4.850   1.589   2.586
 2153SOL    HW1 7358   4.909   1.655   2.632
 2153SOL    HW2 7359   4.906   1.525   2.533
 2154SOL     OW 7360   2.654   6.900   3.871
 2154SOL    HW1 7361   2.682   6.918   3.777
 2154SOL    HW2 7362   2.736   6.882   3.926
 2155SOL     OW 7363   4.254   6.789   0.868
 2155SOL    HW1 7364   4.190   6.787   0.791
 2155SOL    HW2 7365   4.297   6.879   0.874
 2156SOL     OW 7366   6.573   0.356   4.494
 2156SOL    HW1 7367   6.593   0.276   4.439
 2156SOL    HW2 7368   6.658   0.393   4.533
 2157SOL     OW 7369   4.580   5.940   3.782
 2157SOL    HW1 7370   4.606   5.885   3.703
 2157SOL    HW2 7371   4.608   5.892   3.866
 2158SOL     OW 7372   4.092   6.539   0.923
 2158SOL    HW1 7373   4.071   6.470   0.853
 2158SOL    HW2 7374   4.155   6.607   0.886
 2159SOL     OW 7375   2.110   0.637   5.060
 2159SOL    HW1 7376   2.016   0.671   5.051
 2159SOL    HW2 7377   2.134   0.629   5.157
 2160SOL     OW 7378   5.069   5.255   6.567
 2160SOL    HW1 7379   5.135   5.243   6.642
 2160SOL    HW2 7380   4.984   5.208   6.590
 2161SOL     OW 7381   0.047   4.070   2.450
 2161SOL    HW1 7382   0.145   4.053   2.440
 2161SOL    HW2 7383   0.017   4.039   2.540
 2162SOL     OW 7384   2.552   6.996   2.988
 2162SOL    HW1 7385   2.508   0.038   3.051
 2162SOL    HW2 7386   2.548   6.903   3.025
 2163SOL     OW 7387   1.902   3.582   0.257
 2163SOL    HW1 7388   1.928   3.615   0.348
 2163SOL    HW2 7389   1.915   3.656   0.191
 2164SOL     OW 7390   2.523   2.638   6.704
 2164SOL    HW1 7391   2.475   2.712   6.658
 2164SOL    HW2 7392   2.622   2.651   6.694
 2165SOL     OW 7393   0.854   1.799   4.161
 2165SOL    HW1 7394   0.837   1.883   4.109
 2165SOL    HW2 7395   0.767   1.760   4.191
 2166SOL     OW 7396   0.131   4.562   4.114
 2166SOL    HW1 7397   0.092   4.494   4.052
 2166SOL    HW2 7398   0.151   4.646   4.063
 2167SOL     OW 7399   0.602   2.792   3.687
 2167SOL    HW1 7400   0.700   2.785   3.707
 2167SOL    HW2 7401   0.589   2.851   3.608
 2168SOL     OW 7402   0.729   1.953   2.767
 2168SOL    HW1 7403   0.702   2.018   2.695
 2168SOL    HW2 7404   0.658   1.950   2.837
 2169SOL     OW 7405   0.098   0.176   1.175
 2169SOL    HW1 7406   0.006   0.208   1.155
 2169SOL    HW2 7407   0.153   0.175   1.091
 2170SOL     OW 7408   0.090   4.249   4.513
 2170SOL    HW1 7409   0.161   4.205   4.569
 2170SOL    HW2 7410   0.073   4.342   4.547
 2171SOL     OW 7411   0.596   5.906   1.221
 2171SOL    HW1 7412   0.578   5.989   1.273
 2171SOL    HW2 7413   0.555   5.828   1.268
 2172SOL     OW 7414   2.003   1.782   5.840
 2172SOL    HW1 7415   2.082   1.735   5.878
 2172SOL    HW2 7416   1.924   1.767   5.899
 2173SOL     OW 7417   5.323   0.238   5.942
 2173SOL    HW1 7418   5.411   0.220   5.899
 2173SOL    HW2 7419   5.255   0.261   5.872
 2174SOL     OW 7420   6.984   6.558   4.772
 2174SOL    HW1 7421   0.042   6.612   4.801
 2174SOL    HW2 7422   7.014   6.473   4.729
 2175SOL     OW 7423   1.765   2.952   4.790
 2175SOL    HW1 7424   1.772   2.923   4.885
 2175SOL    HW2 7425   1.850   2.997   4.762
 2176SOL     OW 7426   4.879   2.193   1.198
 2176SOL    HW1 7427   4.861   2.283   1.238
 2176SOL    HW2 7428   4.793   2.148   1.175
 2177SOL     OW 7429   6.519   0.596   2.325
 2177SOL    HW1 7430   6.470   0.550   2.250
 2177SOL    HW2 7431   6.481   0.687   2.338
 2178SOL     OW 7432   1.203   1.094   2.402
 2178SOL    HW1 7433   1.165   1.111   2.492
 2178SOL    HW2 7434   1.135   1.115   2.332
 2179SOL     OW 7435   1.860   3.124   6.163
 2179SOL    HW1 7436   1.858   3.200   6.227
 2179SOL    HW2 7437   1.946   3.074   6.173
 2180SOL     OW 7438   1.945   3.463   1.935
 2180SOL    HW1 7439   1.923   3.388   1.997
 2180SOL    HW2 7440   2.044   3.465   1.920
 2181SOL     OW 7441   4.727   5.006   4.260
 2181SOL    HW1 7442   4.753   5.055   4.177
 2181SOL    HW2 7443   4.737   5.066   4.339
 2182SOL     OW 7444   0.672   4.887   3.575
 2182SOL    HW1 7445   0.626   4.803   3.604
 2182SOL    HW2 7446   0.634   4.964   3.626
 2183SOL     OW 7447   2.522   3.750   0.602
 2183SOL    HW1 7448   2.510   3.849   0.609
 2183SOL    HW2 7449   2.476   3.717   0.519
 2184SOL     OW 7450   4.546   0.209   6.611
 2184SOL    HW1 7451   4.637   0.172   6.631
 2184SOL    HW2 7452   4.550   0.262   6.526
 2185SOL     OW 7453   1.180   1.012   6.831
 2185SOL    HW1 7454   1.258   0.984   6.775
 2185SOL    HW2 7455   1.179   1.111   6.841
 2186SOL     OW 7456   6.006   5.856   5.879
 2186SOL    HW1 7457   5.919   5.810   5.863
 2186SOL    HW2 7458   6.041   5.893   5.793
 2187SOL     OW 7459   0.200   5.821   2.493
 2187SOL    HW1 7460   0.255   5.826   2.576
 2187SOL    HW2 7461   0.117   5.769   2.512
 2188SOL     OW 7462   2.026   5.014   6.010
 2188SOL    HW1 7463   2.049   4.932   5.958
 2188SOL    HW2 7464   1.930   5.038   5.994
 2189SOL     OW 7465   1.729   0.631   2.151
 2189SOL    HW1 7466   1.634   0.661   2.153
 2189SOL    HW2 7467   1.736   0.546   2.098
 2190SOL     OW 7468   6.614   3.667   2.116
 2190SOL    HW1 7469   6.627   3.711   2.027
 2190SOL    HW2 7470   6.696   3.680   2.171
 2191SOL     OW 7471   2.972   1.457   5.399
 2191SOL    HW1 7472   3.018   1.443   5.312
 2191SOL    HW2 7473   2.883   1.412   5.399
 2192SOL     OW 7474   5.395   0.116   2.721
 2192SOL    HW1 7475   5.440   0.201   2.749
 2192SOL    HW2 7476   5.296   0.127   2.729
 2193SOL     OW 7477   6.477   0.297   6.012
 2193SOL    HW1 7478   6.500   0.379   5.958
 2193SOL    HW2 7479   6.558   0.264   6.060
 2194SOL     OW 7480   0.666   3.963   5.689
 2194SOL    HW1 7481   0.761   3.993   5.697
 2194SOL    HW2 7482   0.643   3.907   5.769
 2195SOL     OW 7483   0.091   6.358   5.156
 2195SOL    HW1 7484   0.172   6.315   5.118
 2195SOL    HW2 7485   0.118   6.423   5.227
 2196SOL     OW 7486   3.073   6.656   5.098
 2196SOL    HW1 7487   3.118   6.720   5.035
 2196SOL    HW2 7488   3.129   6.575   5.109
 2197SOL     OW 7489   2.849   3.451   6.376
 2197SOL    HW1 7490   2.886   3.448   6.284
 2197SOL    HW2 7491   2.924   3.442   6.443
 2198SOL     OW 7492   6.218   0.104   1.097
 2198SOL    HW1 7493   6.151   0.167   1.057
 2198SOL    HW2 7494   6.170   0.024   1.135
 2199SOL     OW 7495   5.239   0.131   5.236
 2199SOL    HW1 7496   5.318   0.090   5.190
 2199SOL    HW2 7497   5.254   0.229   5.247
 2200SOL     OW 7498   2.533   1.390   3.998
 2200SOL    HW1 7499   2.442   1.416   4.031
 2200SOL    HW2 7500   2.540   1.291   3.995
 2201SOL     OW 7501   6.260   2.892   2.726
 2201SOL    HW1 7502   6.284   2.925   2.634
 2201SOL    HW2 7503   6.321   2.934   2.793
 2202SOL     OW 7504   3.366   5.486   2.380
 2202SOL    HW1 7505   3.267   5.489   2.395
 2202SOL    HW2 7506   3.384   5.456   2.286
 2203SOL     OW 7507   2.685   3.571   1.502
 2203SOL    HW1 7508   2.663   3.483   1.460
 2203SOL    HW2 7509   2.636   3.580   1.589
 2204SOL     OW 7510   4.507   2.601   0.856
 2204SOL    HW1 7511   4.460   2.617   0.769
 2204SOL    HW2 7512   4.506   2.685   0.911
 2205SOL     OW 7513   1.487   0.240   0.036
 2205SOL    HW1 7514   1.533   0.282   0.115
 2205SOL    HW2 7515   1.554   0.226   6.984
 2206SOL     OW 7516   1.956   4.038   6.438
 2206SOL    HW1 7517   2.053   4.020   6.451
 2206SOL    HW2 7518   1.930   4.016   6.344
 2207SOL     OW 7519   3.531   4.987   0.266
 2207SOL    HW1 7520   3.622   4.946   0.266
 2207SOL    HW2 7521   3.483   4.962   0.351
 2208SOL     OW 7522   0.577   5.568   2.845
 2208SOL    HW1 7523   0.559   5.657   2.885
 2208SOL    HW2 7524   0.675   5.550   2.845
 2209SOL     OW 7525   2.890   6.195   4.736
 2209SOL    HW1 7526   2.883   6.133   4.658
 2209SOL    HW2 7527   2.846   6.282   4.714
 2210SOL     OW 7528   6.543   5.673   2.934
 2210SOL    HW1 7529   6.584   5.621   3.009
 2210SOL    HW2 7530   6.614   5.723   2.884
 2211SOL     OW 7531   6.128   0.840   0.686
 2211SOL    HW1 7532   6.194   0.766   0.675
 2211SOL    HW2 7533   6.069   0.845   0.606
 2212SOL     OW 7534   1.803   5.724   6.830
 2212SOL    HW1 7535   1.815   5.626   6.846
 2212SOL    HW2 7536   1.875   5.756   6.768
 2213SOL     OW 7537   4.426   2.595   5.540
 2213SOL    HW1 7538   4.457   2.500   5.532
 2213SOL    HW2 7539   4.364   2.604   5.618
 2214SOL     OW 7540   3.098   3.302   4.719
 2214SOL    HW1 7541   3.154   3.382   4.697
 2214SOL    HW2 7542   3.074   3.303   4.817
 2215SOL     OW 7543   5.717   1.534   6.408
 2215SOL    HW1 7544   5.816   1.521   6.420
 2215SOL    HW2 7545   5.692   1.626   6.438
 2216SOL     OW 7546   6.987   0.460   5.692
 2216SOL    HW1 7547   0.038   0.528   5.677
 2216SOL    HW2 7548   6.996   0.386   5.625
 2217SOL     OW 7549   4.288   0.012   3.039
 2217SOL    HW1 7550   4.292   0.111   3.047
 2217SOL    HW2 7551   4.213   7.007   2.978
 2218SOL     OW 7552   6.855   5.211   6.621
 2218SOL    HW1 7553   6.846   5.308   6.600
 2218SOL    HW2 7554   6.908   5.199   6.704
 2219SOL     OW 7555   6.308   2.321   0.944
 2219SOL    HW1 7556   6.217   2.361   0.939
 2219SOL    HW2 7557   6.308   2.233   0.896
 2220SOL     OW 7558   1.396   5.665   5.735
 2220SOL    HW1 7559   1.395   5.761   5.707
 2220SOL    HW2 7560   1.372   5.608   5.657
 2221SOL     OW 7561   6.820   1.793   5.000
 2221SOL    HW1 7562   6.836   1.860   5.073
 2221SOL    HW2 7563   6.764   1.834   4.929
 2222SOL     OW 7564   6.133   0.131   0.758
 2222SOL    HW1 7565   6.230   0.155   0.750
 2222SOL    HW2 7566   6.100   0.156   0.849
 2223SOL     OW 7567   6.330   1.558   6.266
 2223SOL    HW1 7568   6.249   1.506   6.292
 2223SOL    HW2 7569   6.340   1.637   6.327
 2224SOL     OW 7570   5.967   3.457   2.228
 2224SOL    HW1 7571   5.982   3.367   2.186
 2224SOL    HW2 7572   5.874   3.488   2.207
 2225SOL     OW 7573   6.878   6.713   3.145
 2225SOL    HW1 7574   6.878   6.666   3.233
 2225SOL    HW2 7575   6.904   6.809   3.159
 2226SOL     OW 7576   3.998   5.642   0.637
 2226SOL    HW1 7577   4.034   5.549   0.633
 2226SOL    HW2 7578   4.053   5.698   0.699
 2227SOL     OW 7579   4.849   2.616   1.772
 2227SOL    HW1 7580   4.890   2.545   1.831
 2227SOL    HW2 7581   4.811   2.573   1.691
 2228SOL     OW 7582   4.163   5.797   0.172
 2228SOL    HW1 7583   4.230   5.871   0.180
 2228SOL    HW2 7584   4.131   5.771   0.264
 2229SOL     OW 7585   3.857   3.346   4.896
 2229SOL    HW1 7586   3.774   3.293   4.918
 2229SOL    HW2 7587   3.925   3.286   4.856
 2230SOL     OW 7588   5.348   6.269   0.954
 2230SOL    HW1 7589   5.325   6.318   1.038
 2230SOL    HW2 7590   5.435   6.222   0.967
 2231SOL     OW 7591   0.666   0.498   0.027
 2231SOL    HW1 7592   0.706   0.446   0.103
 2231SOL    HW2 7593   0.733   0.507   6.975
 2232SOL     OW 7594   1.127   1.548   5.059
 2232SOL    HW1 7595   1.152   1.451   5.058
 2232SOL    HW2 7596   1.027   1.557   5.050
 2233SOL     OW 7597   2.541   2.951   0.898
 2233SOL    HW1 7598   2.628   2.965   0.945
 2233SOL    HW2 7599   2.469   2.934   0.965
 2234SOL     OW 7600   3.507   1.320   0.883
 2234SOL    HW1 7601   3.445   1.292   0.956
 2234SOL    HW2 7602   3.457   1.376   0.817
 2235SOL     OW 7603   2.513   0.274   1.696
 2235SOL    HW1 7604   2.481   0.333   1.770
 2235SOL    HW2 7605   2.465   0.186   1.699
 2236SOL     OW 7606   1.816   3.332   6.327
 2236SOL    HW1 7607   1.851   3.423   6.308
 2236SOL    HW2 7608   1.744   3.338   6.397
 2237SOL     OW 7609   6.054   4.638   4.809
 2237SOL    HW1 7610   5.959   4.656   4.834
 2237SOL    HW2 7611   6.062   4.546   4.771
 2238SOL     OW 7612   4.448   5.164   2.460
 2238SOL    HW1 7613   4.465   5.066   2.469
 2238SOL    HW2 7614   4.416   5.183   2.367
 2239SOL     OW 7615   4.732   5.855   4.011
 2239SOL    HW1 7616   4.709   5.936   4.063
 2239SOL    HW2 7617   4.799   5.879   3.940
 2240SOL     OW 7618   3.388   5.195   2.910
 2240SOL    HW1 7619   3.429   5.109   2.881
 2240SOL    HW2 7620   3.290   5.193   2.892
 2241SOL     OW 7621   0.003   6.447   1.636
 2241SOL    HW1 7622   0.032   6.543   1.632
 2241SOL    HW2 7623   6.969   6.432   1.718
 2242SOL     OW 7624   5.134   3.635   3.016
 2242SOL    HW1 7625   5.070   3.558   3.019
 2242SOL    HW2 7626   5.151   3.661   2.921
 2243SOL     OW 7627   2.070   6.852   7.020
 2243SOL    HW1 7628   2.160   6.832   0.036
 2243SOL    HW2 7629   2.059   6.808   6.931
 2244SOL     OW 7630   3.028   6.993   1.764
 2244SOL    HW1 7631   3.051   0.068   1.748
 2244SOL    HW2 7632   3.042   6.941   1.680
 2245SOL     OW 7633   0.251   1.420   1.388
 2245SOL    HW1 7634   0.289   1.393   1.477
 2245SOL    HW2 7635   0.320   1.406   1.317
 2246SOL     OW 7636   1.922   1.098   4.171
 2246SOL    HW1 7637   1.984   1.156   4.224
 2246SOL    HW2 7638   1.973   1.020   4.133
 2247SOL     OW 7639   3.088   3.632   3.189
 2247SOL    HW1 7640   3.054   3.687   3.113
 2247SOL    HW2 7641   3.018   3.566   3.217
 2248SOL     OW 7642   6.354   3.679   4.685
 2248SOL    HW1 7643   6.419   3.662   4.759
 2248SOL    HW2 7644   6.405   3.707   4.603
 2249SOL     OW 7645   4.974   6.710   3.859
 2249SOL    HW1 7646   4.950   6.626   3.811
 2249SOL    HW2 7647   4.894   6.770   3.863
 2250SOL     OW 7648   3.194   3.858   5.204
 2250SOL    HW1 7649   3.242   3.922   5.264
 2250SOL    HW2 7650   3.259   3.813   5.144
 2251SOL     OW 7651   5.060   0.202   6.020
 2251SOL    HW1 7652   5.034   0.200   5.924
 2251SOL    HW2 7653   5.159   0.213   6.028
 2252SOL     OW 7654   4.720   1.584   3.221
 2252SOL    HW1 7655   4.675   1.541   3.299
 2252SOL    HW2 7656   4.791   1.523   3.186
 2253SOL     OW 7657   6.830   3.639   0.190
 2253SOL    HW1 7658   6.893   3.696   0.138
 2253SOL    HW2 7659   6.881   3.582   0.253
 2254SOL     OW 7660   3.087   3.163   4.140
 2254SOL    HW1 7661   3.018   3.234   4.154
 2254SOL    HW2 7662   3.178   3.201   4.155
 2255SOL     OW 7663   3.301   3.822   5.871
 2255SOL    HW1 7664   3.390   3.844   5.833
 2255SOL    HW2 7665   3.245   3.776   5.802
 2256SOL     OW 7666   5.162   0.055   2.431
 2256SOL    HW1 7667   5.064   0.052   2.447
 2256SOL    HW2 7668   5.202   6.986   2.444
 2257SOL     OW 7669   0.381   1.332   4.248
 2257SOL    HW1 7670   0.430   1.282   4.177
 2257SOL    HW2 7671   0.447   1.380   4.306
 2258SOL     OW 7672   1.257   5.422   4.727
 2258SOL    HW1 7673   1.297   5.510   4.700
 2258SOL    HW2 7674   1.292   5.349   4.669
 2259SOL     OW 7675   5.396   2.762   5.363
 2259SOL    HW1 7676   5.430   2.734   5.453
 2259SOL    HW2 7677   5.338   2.689   5.326
 2260SOL     OW 7678   0.382   3.658   1.317
 2260SOL    HW1 7679   0.347   3.582   1.262
 2260SOL    HW2 7680   0.413   3.731   1.258
 2261SOL     OW 7681   6.531   5.319   0.491
 2261SOL    HW1 7682   6.532   5.282   0.584
 2261SOL    HW2 7683   6.608   5.382   0.480
 2262SOL     OW 7684   6.163   7.005   2.867
 2262SOL    HW1 7685   6.073   0.019   2.893
 2262SOL    HW2 7686   6.198   6.945   2.940
 2263SOL     OW 7687   2.366   6.226   0.016
 2263SOL    HW1 7688   2.384   6.199   6.943
 2263SOL    HW2 7689   2.275   6.267   0.023
 2264SOL     OW 7690   2.944   6.302   6.263
 2264SOL    HW1 7691   2.862   6.298   6.319
 2264SOL    HW2 7692   3.024   6.281   6.320
 2265SOL     OW 7693   1.948   0.800   4.342
 2265SOL    HW1 7694   1.930   0.742   4.263
 2265SOL    HW2 7695   1.880   0.874   4.346
 2266SOL     OW 7696   4.993   1.849   6.251
 2266SOL    HW1 7697   4.941   1.924   6.211
 2266SOL    HW2 7698   5.020   1.785   6.179
 2267SOL     OW 7699   4.850   3.135   5.065
 2267SOL    HW1 7700   4.908   3.054   5.055
 2267SOL    HW2 7701   4.806   3.155   4.978
 2268SOL     OW 7702   6.126   4.384   6.345
 2268SOL    HW1 7703   6.131   4.337   6.257
 2268SOL    HW2 7704   6.170   4.474   6.337
 2269SOL     OW 7705   0.897   3.563   5.408
 2269SOL    HW1 7706   0.954   3.629   5.360
 2269SOL    HW2 7707   0.852   3.607   5.486
 2270SOL     OW 7708   3.979   2.788   6.014
 2270SOL    HW1 7709   3.901   2.842   6.045
 2270SOL    HW2 7710   4.048   2.849   5.976
 2271SOL     OW 7711   5.570   4.536   0.088
 2271SOL    HW1 7712   5.627   4.455   0.102
 2271SOL    HW2 7713   5.627   4.618   0.095
 2272SOL     OW 7714   5.775   1.043   6.617
 2272SOL    HW1 7715   5.748   1.138   6.634
 2272SOL    HW2 7716   5.711   1.002   6.552
 2273SOL     OW 7717   1.212   1.925   1.932
 2273SOL    HW1 7718   1.150   1.973   1.870
 2273SOL    HW2 7719   1.302   1.918   1.890
 2274SOL     OW 7720   0.400   1.644   6.612
 2274SOL    HW1 7721   0.342   1.622   6.534
 2274SOL    HW2 7722   0.433   1.560   6.654
 2275SOL     OW 7723   6.103   6.866   3.200
 2275SOL    HW1 7724   6.157   6.833   3.122
 2275SOL    HW2 7725   6.069   6.789   3.252
 2276SOL     OW 7726   2.315   5.664   1.972
 2276SOL    HW1 7727   2.250   5.699   2.039
 2276SOL    HW2 7728   2.363   5.585   2.011
 2277SOL     OW 7729   3.866   3.958   4.624
 2277SOL    HW1 7730   3.895   3.997   4.537
 2277SOL    HW2 7731   3.793   3.892   4.609
 2278SOL     OW 7732   5.854   2.829   3.916
 2278SOL    HW1 7733   5.800   2.773   3.979
 2278SOL    HW2 7734   5.869   2.778   3.831
 2279SOL     OW 7735   5.872   0.119   5.123
 2279SOL    HW1 7736   5.840   0.024   5.128
 2279SOL    HW2 7737   5.960   0.122   5.075
 2280SOL     OW 7738   6.609   6.895   4.489
 2280SOL    HW1 7739   6.512   6.912   4.502
 2280SOL    HW2 7740   6.659   6.919   4.572
 2281SOL     OW 7741   3.322   0.676   1.778
 2281SOL    HW1 7742   3.305   0.680   1.680
 2281SOL    HW2 7743   3.295   0.586   1.812
 2282SOL     OW 7744   5.197   6.348   5.823
 2282SOL    HW1 7745   5.280   6.339   5.768
 2282SOL    HW2 7746   5.163   6.257   5.848
 2283SOL     OW 7747   1.868   0.149   1.767
 2283SOL    HW1 7748   1.959   0.176   1.736
 2283SOL    HW2 7749   1.873   0.114   1.861
 2284SOL     OW 7750   1.402   3.540   6.607
 2284SOL    HW1 7751   1.338   3.465   6.621
 2284SOL    HW2 7752   1.448   3.561   6.693
 2285SOL     OW 7753   0.750   2.847   0.431
 2285SOL    HW1 7754   0.673   2.883   0.485
 2285SOL    HW2 7755   0.832   2.901   0.450
 2286SOL     OW 7756   5.477   0.140   3.592
 2286SOL    HW1 7757   5.561   0.086   3.593
 2286SOL    HW2 7758   5.399   0.079   3.609
 2287SOL     OW 7759   2.071   0.184   3.682
 2287SOL    HW1 7760   2.014   0.216   3.757
 2287SOL    HW2 7761   2.165   0.215   3.697
 2288SOL     OW 7762   6.225   4.880   3.839
 2288SOL    HW1 7763   6.141   4.903   3.790
 2288SOL    HW2 7764   6.252   4.787   3.816
 2289SOL     OW 7765   0.254   4.943   0.785
 2289SOL    HW1 7766   0.273   4.860   0.838
 2289SOL    HW2 7767   0.163   4.976   0.808
 2290SOL     OW 7768   0.680   3.757   1.101
 2290SOL    HW1 7769   0.600   3.814   1.122
 2290SOL    HW2 7770   0.652   3.682   1.041
 2291SOL     OW 7771   2.496   2.527   5.718
 2291SOL    HW1 7772   2.406   2.540   5.678
 2291SOL    HW2 7773   2.490   2.534   5.817
 2292SOL     OW 7774   0.972   1.913   4.795
 2292SOL    HW1 7775   1.032   1.926   4.874
 2292SOL    HW2 7776   0.954   1.815   4.782
 2293SOL     OW 7777   4.886   6.386   1.781
 2293SOL    HW1 7778   4.797   6.427   1.762
 2293SOL    HW2 7779   4.881   6.334   1.866
 2294SOL     OW 7780   3.185   0.578   0.173
 2294SOL    HW1 7781   3.190   0.584   0.273
 2294SOL    HW2 7782   3.185   0.670   0.134
 2295SOL     OW 7783   0.565   1.729   2.549
 2295SOL    HW1 7784   0.626   1.751   2.625
 2295SOL    HW2 7785   0.475   1.769   2.566
 2296SOL     OW 7786   3.557   5.891   0.509
 2296SOL    HW1 7787   3.488   5.957   0.480
 2296SOL    HW2 7788   3.627   5.881   0.438
 2297SOL     OW 7789   3.607   3.983   5.222
 2297SOL    HW1 7790   3.581   4.027   5.136
 2297SOL    HW2 7791   3.698   4.014   5.248
 2298SOL     OW 7792   4.128   2.802   1.666
 2298SOL    HW1 7793   4.223   2.778   1.687
 2298SOL    HW2 7794   4.119   2.902   1.665
 2299SOL     OW 7795   5.279   0.087   6.761
 2299SOL    HW1 7796   5.377   0.072   6.750
 2299SOL    HW2 7797   5.231   0.049   6.682
 2300SOL     OW 7798   2.672   4.743   1.557
 2300SOL    HW1 7799   2.761   4.721   1.597
 2300SOL    HW2 7800   2.665   4.699   1.467
 2301SOL     OW 7801   2.856   3.487   3.037
 2301SOL    HW1 7802   2.776   3.433   3.010
 2301SOL    HW2 7803   2.875   3.471   3.134
 2302SOL     OW 7804   3.433   6.783   1.571
 2302SOL    HW1 7805   3.414   6.732   1.655
 2302SOL    HW2 7806   3.371   6.860   1.563
 2303SOL     OW 7807   1.679   3.452   6.530
 2303SOL    HW1 7808   1.598   3.498   6.494
 2303SOL    HW2 7809   1.724   3.510   6.597
 2304SOL     OW 7810   3.274   0.305   3.139
 2304SOL    HW1 7811   3.209   0.229   3.152
 2304SOL    HW2 7812   3.224   0.386   3.109
 2305SOL     OW 7813   3.098   6.387   3.000
 2305SOL    HW1 7814   3.092   6.484   3.025
 2305SOL    HW2 7815   3.181   6.348   3.040
 2306SOL     OW 7816   2.072   5.301   2.141
 2306SOL    HW1 7817   2.048   5.321   2.236
 2306SOL    HW2 7818   2.167   5.326   2.124
 2307SOL     OW 7819   1.743   4.066   2.599
 2307SOL    HW1 7820   1.772   3.972   2.617
 2307SOL    HW2 7821   1.754   4.087   2.502
 2308SOL     OW 7822   1.687   6.553   6.885
 2308SOL    HW1 7823   1.636   6.548   6.800
 2308SOL    HW2 7824   1.700   6.460   6.922
 2309SOL     OW 7825   3.142   6.931   0.142
 2309SOL    HW1 7826   3.227   6.882   0.120
 2309SOL    HW2 7827   3.119   6.993   0.067
 2310SOL     OW 7828   5.814   6.106   1.828
 2310SOL    HW1 7829   5.846   6.188   1.780
 2310SOL    HW2 7830   5.878   6.083   1.901
 2311SOL     OW 7831   2.778   6.405   2.671
 2311SOL    HW1 7832   2.686   6.367   2.679
 2311SOL    HW2 7833   2.843   6.331   2.651
 2312SOL     OW 7834   3.657   6.520   3.948
 2312SOL    HW1 7835   3.631   6.424   3.933
 2312SOL    HW2 7836   3.703   6.555   3.867
 2313SOL     OW 7837   5.132   5.240   2.458
 2313SOL    HW1 7838   5.052   5.271   2.407
 2313SOL    HW2 7839   5.109   5.230   2.555
 2314SOL     OW 7840   5.601   0.825   4.354
 2314SOL    HW1 7841   5.617   0.745   4.295
 2314SOL    HW2 7842   5.569   0.902   4.298
 2315SOL     OW 7843   5.093   3.539   4.976
 2315SOL    HW1 7844   4.996   3.560   4.986
 2315SOL    HW2 7845   5.107   3.440   4.973
 2316SOL     OW 7846   3.012   0.624   4.734
 2316SOL    HW1 7847   2.938   0.684   4.765
 2316SOL    HW2 7848   3.062   0.668   4.660
 2317SOL     OW 7849   6.299   6.279   3.337
 2317SOL    HW1 7850   6.202   6.263   3.358
 2317SOL    HW2 7851   6.311   6.373   3.307
 2318SOL     OW 7852   2.111   3.414   4.385
 2318SOL    HW1 7853   2.150   3.503   4.359
 2318SOL    HW2 7854   2.135   3.346   4.316
 2319SOL     OW 7855   3.046   5.406   5.190
 2319SOL    HW1 7856   3.085   5.450   5.110
 2319SOL    HW2 7857   3.041   5.471   5.266
 2320SOL     OW 7858   1.577   2.649   5.341
 2320SOL    HW1 7859   1.599   2.708   5.264
 2320SOL    HW2 7860   1.483   2.615   5.331
 2321SOL     OW 7861   1.787   5.332   0.065
 2321SOL    HW1 7862   1.734   5.410   0.099
 2321SOL    HW2 7863   1.838   5.292   0.141
 2322SOL     OW 7864   1.959   4.409   2.839
 2322SOL    HW1 7865   1.889   4.347   2.805
 2322SOL    HW2 7866   1.922   4.465   2.913
 2323SOL     OW 7867   3.145   4.773   1.766
 2323SOL    HW1 7868   3.228   4.730   1.730
 2323SOL    HW2 7869   3.134   4.750   1.863
 2324SOL     OW 7870   6.679   5.813   0.582
 2324SOL    HW1 7871   6.601   5.875   0.582
 2324SOL    HW2 7872   6.681   5.761   0.497
 2325SOL     OW 7873   0.953   4.290   1.543
 2325SOL    HW1 7874   0.961   4.272   1.445
 2325SOL    HW2 7875   0.964   4.388   1.559
 2326SOL     OW 7876   1.871   6.959   6.820
 2326SOL    HW1 7877   1.867   7.006   6.732
 2326SOL    HW2 7878   1.898   6.864   6.806
 2327SOL     OW 7879   6.732   1.227   3.483
 2327SOL    HW1 7880   6.787   1.213   3.565
 2327SOL    HW2 7881   6.720   1.325   3.466
 2328SOL     OW 7882   1.629   1.453   2.860
 2328SOL    HW1 7883   1.569   1.516   2.910
 2328SOL    HW2 7884   1.680   1.397   2.925
 2329SOL     OW 7885   1.403   4.219   4.727
 2329SOL    HW1 7886   1.434   4.298   4.675
 2329SOL    HW2 7887   1.376   4.146   4.663
 2330SOL     OW 7888   0.465   2.716   1.402
 2330SOL    HW1 7889   0.539   2.753   1.458
 2330SOL    HW2 7890   0.430   2.788   1.342
 2331SOL     OW 7891   4.126   5.091   0.092
 2331SOL    HW1 7892   4.120   5.019   0.023
 2331SOL    HW2 7893   4.133   5.180   0.047
 2332SOL     OW 7894   6.735   0.145   5.208
 2332SOL    HW1 7895   6.662   0.210   5.228
 2332SOL    HW2 7896   6.696   0.053   5.195
 2333SOL     OW 7897   0.024   4.110   3.415
 2333SOL    HW1 7898   0.077   4.044   3.469
 2333SOL    HW2 7899   0.063   4.117   3.324
 2334SOL     OW 7900   1.991   0.742   6.348
 2334SOL    HW1 7901   2.011   0.646   6.328
 2334SOL    HW2 7902   2.005   0.760   6.446
 2335SOL     OW 7903   5.788   0.830   4.134
 2335SOL    HW1 7904   5.820   0.885   4.056
 2335SOL    HW2 7905   5.820   0.872   4.219
 2336SOL     OW 7906   3.794   1.354   4.611
 2336SOL    HW1 7907   3.722   1.378   4.546
 2336SOL    HW2 7908   3.803   1.254   4.615
 2337SOL     OW 7909   3.970   0.215   1.442
 2337SOL    HW1 7910   3.964   0.284   1.513
 2337SOL    HW2 7911   4.045   0.152   1.463
 2338SOL     OW 7912   0.497   2.876   5.152
 2338SOL    HW1 7913   0.525   2.894   5.247
 2338SOL    HW2 7914   0.508   2.959   5.098
 2339SOL     OW 7915   3.229   4.058   3.286
 2339SOL    HW1 7916   3.234   4.158   3.289
 2339SOL    HW2 7917   3.149   4.031   3.233
 2340SOL     OW 7918   6.765   4.324   6.391
 2340SOL    HW1 7919   6.694   4.302   6.324
 2340SOL    HW2 7920   6.826   4.393   6.353
 2341SOL     OW 7921   3.046   4.810   2.038
 2341SOL    HW1 7922   3.037   4.907   2.017
 2341SOL    HW2 7923   2.956   4.767   2.038
 2342SOL     OW 7924   0.830   6.356   5.723
 2342SOL    HW1 7925   0.856   6.270   5.768
 2342SOL    HW2 7926   0.789   6.336   5.634
 2343SOL     OW 7927   1.668   5.107   2.843
 2343SOL    HW1 7928   1.757   5.078   2.808
 2343SOL    HW2 7929   1.610   5.027   2.857
 2344SOL     OW 7930   0.852   5.689   6.738
 2344SOL    HW1 7931   0.760   5.663   6.766
 2344SOL    HW2 7932   0.919   5.634   6.788
 2345SOL     OW 7933   3.003   5.763   5.348
 2345SOL    HW1 7934   2.973   5.856   5.327
 2345SOL    HW2 7935   3.097   5.750   5.316
 2346SOL     OW 7936   3.493   3.744   5.308
 2346SOL    HW1 7937   3.467   3.761   5.403
 2346SOL    HW2 7938   3.537   3.826   5.271
 2347SOL     OW 7939   3.243   2.194   1.487
 2347SOL    HW1 7940   3.283   2.239   1.567
 2347SOL    HW2 7941   3.144   2.203   1.490
 2348SOL     OW 7942   2.473   6.709   3.938
 2348SOL    HW1 7943   2.461   6.655   3.855
 2348SOL    HW2 7944   2.536   6.785   3.919
 2349SOL     OW 7945   1.143   5.081   5.822
 2349SOL    HW1 7946   1.047   5.050   5.823
 2349SOL    HW2 7947   1.149   5.169   5.867
 2350SOL     OW 7948   6.311   6.377   6.070
 2350SOL    HW1 7949   6.359   6.383   6.158
 2350SOL    HW2 7950   6.278   6.283   6.057
 2351SOL     OW 7951   2.566   5.296   4.428
 2351SOL    HW1 7952   2.600   5.261   4.516
 2351SOL    HW2 7953   2.642   5.300   4.363
 2352SOL     OW 7954   0.575   4.157   2.629
 2352SOL    HW1 7955   0.619   4.092   2.690
 2352SOL    HW2 7956   0.539   4.234   2.682
 2353SOL     OW 7957   3.591   5.457   5.186
 2353SOL    HW1 7958   3.580   5.514   5.268
 2353SOL    HW2 7959   3.537   5.374   5.196
 2354SOL     OW 7960   2.736   1.659   5.451
 2354SOL    HW1 7961   2.740   1.736   5.515
 2354SOL    HW2 7962   2.829   1.632   5.426
 2355SOL     OW 7963   1.938   6.669   6.834
 2355SOL    HW1 7964   1.847   6.638   6.862
 2355SOL    HW2 7965   2.007   6.606   6.870
 2356SOL     OW 7966   0.947   3.579   6.506
 2356SOL    HW1 7967   0.986   3.560   6.416
 2356SOL    HW2 7968   0.876   3.650   6.497
 2357SOL     OW 7969   4.493   0.119   2.567
 2357SOL    HW1 7970   4.499   0.044   2.633
 2357SOL    HW2 7971   4.548   0.095   2.486
 2358SOL     OW 7972   3.892   5.290   4.894
 2358SOL    HW1 7973   3.982   5.248   4.883
 2358SOL    HW2 7974   3.887   5.334   4.984
 2359SOL     OW 7975   6.431   1.159   5.437
 2359SOL    HW1 7976   6.503   1.089   5.442
 2359SOL    HW2 7977   6.342   1.115   5.434
 2360SOL     OW 7978   5.564   3.974   0.049
 2360SOL    HW1 7979   5.582   3.879   0.023
 2360SOL    HW2 7980   5.466   3.989   0.056
 2361SOL     OW 7981   2.882   0.997   5.222
 2361SOL    HW1 7982   2.817   0.971   5.293
 2361SOL    HW2 7983   2.958   1.047   5.264
 2362SOL     OW 7984   2.270   6.226   4.087
 2362SOL    HW1 7985   2.275   6.163   4.009
 2362SOL    HW2 7986   2.211   6.186   4.158
 2363SOL     OW 7987   4.651   2.181   4.782
 2363SOL    HW1 7988   4.573   2.235   4.815
 2363SOL    HW2 7989   4.617   2.098   4.738
 2364SOL     OW 7990   0.966   2.107   2.502
 2364SOL    HW1 7991   0.957   2.137   2.407
 2364SOL    HW2 7992   0.876   2.091   2.541
 2365SOL     OW 7993   5.872   2.559   6.309
 2365SOL    HW1 7994   5.916   2.618   6.242
 2365SOL    HW2 7995   5.924   2.475   6.320
 2366SOL     OW 7996   2.551   5.368   6.332
 2366SOL    HW1 7997   2.459   5.408   6.334
 2366SOL    HW2 7998   2.543   5.268   6.339
 2367SOL     OW 7999   2.613   3.738   0.885
 2367SOL    HW1 8000   2.600   3.729   0.786
 2367SOL    HW2 8001   2.710   3.726   0.907
 2368SOL     OW 8002   4.164   0.618   4.290
 2368SOL    HW1 8003   4.169   0.519   4.308
 2368SOL    HW2 8004   4.068   0.648   4.296
 2369SOL     OW 8005   1.808   0.896   5.485
 2369SOL    HW1 8006   1.809   0.944   5.573
 2369SOL    HW2 8007   1.762   0.953   5.417
 2370SOL     OW 8008   4.656   3.102   0.132
 2370SOL    HW1 8009   4.751   3.077   0.117
 2370SOL    HW2 8010   4.634   3.185   0.080
 2371SOL     OW 8011   0.303   6.872   1.940
 2371SOL    HW1 8012   0.269   6.783   1.970
 2371SOL    HW2 8013   0.402   6.875   1.952
 2372SOL     OW 8014   0.304   2.733   2.503
 2372SOL    HW1 8015   0.304   2.698   2.597
 2372SOL    HW2 8016   0.232   2.801   2.493
 2373SOL     OW 8017   0.259   1.962   6.464
 2373SOL    HW1 8018   0.234   2.051   6.427
 2373SOL    HW2 8019   0.182   1.899   6.457
 2374SOL     OW 8020   6.005   1.659   3.830
 2374SOL    HW1 8021   6.027   1.731   3.764
 2374SOL    HW2 8022   5.920   1.682   3.878
 2375SOL     OW 8023   2.848   6.590   4.916
 2375SOL    HW1 8024   2.876   6.676   4.873
 2375SOL    HW2 8025   2.909   6.569   4.992
 2376SOL     OW 8026   7.001   2.383   4.566
 2376SOL    HW1 8027   6.958   2.331   4.492
 2376SOL    HW2 8028   0.054   2.439   4.528
 2377SOL     OW 8029   3.896   4.037   3.219
 2377SOL    HW1 8030   3.980   4.086   3.241
 2377SOL    HW2 8031   3.900   3.944   3.256
 2378SOL     OW 8032   5.334   1.274   0.143
 2378SOL    HW1 8033   5.363   1.353   0.197
 2378SOL    HW2 8034   5.324   1.194   0.203
 2379SOL     OW 8035   5.725   1.831   7.001
 2379SOL    HW1 8036   5.673   1.748   7.021
 2379SOL    HW2 8037   5.734   1.886   0.064
 2380SOL     OW 8038   0.825   1.164   0.141
 2380SOL    HW1 8039   0.906   1.106   0.138
 2380SOL    HW2 8040   0.823   1.215   0.227
 2381SOL     OW 8041   2.306   4.293   4.666
 2381SOL    HW1 8042   2.276   4.353   4.740
 2381SOL    HW2 8043   2.402   4.309   4.646
 2382SOL     OW 8044   2.074   4.402   4.259
 2382SOL    HW1 8045   2.100   4.323   4.315
 2382SOL    HW2 8046   2.131   4.403   4.176
 2383SOL     OW 8047   5.022   6.630   1.724
 2383SOL    HW1 8048   5.021   6.649   1.822
 2383SOL    HW2 8049   4.987   6.538   1.708
 2384SOL     OW 8050   5.576   0.901   2.944
 2384SOL    HW1 8051   5.579   0.975   3.011
 2384SOL    HW2 8052   5.492   0.908   2.890
 2385SOL     OW 8053   1.245   0.356   0.687
 2385SOL    HW1 8054   1.183   0.297   0.636
 2385SOL    HW2 8055   1.210   0.370   0.779
 2386SOL     OW 8056   5.915   5.868   4.401
 2386SOL    HW1 8057   5.992   5.817   4.437
 2386SOL    HW2 8058   5.884   5.826   4.315
 2387SOL     OW 8059   1.390   2.335   3.797
 2387SOL    HW1 8060   1.487   2.326   3.820
 2387SOL    HW2 8061   1.370   2.286   3.713
 2388SOL     OW 8062   0.616   2.286   4.611
 2388SOL    HW1 8063   0.629   2.360   4.546
 2388SOL    HW2 8064   0.694   2.223   4.606
 2389SOL     OW 8065   4.829   4.052   3.273
 2389SOL    HW1 8066   4.859   3.990   3.200
 2389SOL    HW2 8067   4.890   4.044   3.352
 2390SOL     OW 8068   3.680   2.903   2.979
 2390SOL    HW1 8069   3.737   2.975   3.019
 2390SOL    HW2 8070   3.584   2.919   3.003
 2391SOL     OW 8071   4.962   3.945   5.871
 2391SOL    HW1 8072   5.054   3.980   5.852
 2391SOL    HW2 8073   4.895   4.014   5.845
 2392SOL     OW 8074   4.665   6.640   5.352
 2392SOL    HW1 8075   4.754   6.611   5.315
 2392SOL    HW2 8076   4.609   6.676   5.279
 2393SOL     OW 8077   5.903   4.113   6.009
 2393SOL    HW1 8078   5.813   4.100   6.050
 2393SOL    HW2 8079   5.948   4.024   5.998
 2394SOL     OW 8080   1.035   3.478   4.853
 2394SOL    HW1 8081   1.067   3.470   4.947
 2394SOL    HW2 8082   1.107   3.521   4.797
 2395SOL     OW 8083   5.142   2.523   6.339
 2395SOL    HW1 8084   5.079   2.457   6.298
 2395SOL    HW2 8085   5.090   2.593   6.388
 2396SOL     OW 8086   3.295   5.246   1.508
 2396SOL    HW1 8087   3.392   5.231   1.491
 2396SOL    HW2 8088   3.264   5.185   1.580
 2397SOL     OW 8089   6.972   4.116   5.801
 2397SOL    HW1 8090   0.046   4.108   5.832
 2397SOL    HW2 8091   6.912   4.123   5.881
 2398SOL     OW 8092   2.870   3.217   0.090
 2398SOL    HW1 8093   2.776   3.213   0.124
 2398SOL    HW2 8094   2.932   3.177   0.158
 2399SOL     OW 8095   4.755   1.480   2.172
 2399SOL    HW1 8096   4.695   1.538   2.118
 2399SOL    HW2 8097   4.828   1.444   2.113
 2400SOL     OW 8098   3.226   3.887   0.790
 2400SOL    HW1 8099   3.210   3.828   0.711
 2400SOL    HW2 8100   3.303   3.947   0.771
 2401SOL     OW 8101   4.361   6.420   6.076
 2401SOL    HW1 8102   4.444   6.464   6.111
 2401SOL    HW2 8103   4.361   6.423   5.976
 2402SOL     OW 8104   6.986   0.383   3.723
 2402SOL    HW1 8105   6.895   0.371   3.684
 2402SOL    HW2 8106   7.017   0.477   3.709
 2403SOL     OW 8107   2.198   2.914   6.776
 2403SOL    HW1 8108   2.205   2.873   6.866
 2403SOL    HW2 8109   2.284   2.904   6.727
 2404SOL     OW 8110   3.569   1.157   1.243
 2404SOL    HW1 8111   3.498   1.226   1.254
 2404SOL    HW2 8112   3.647   1.180   1.302
 2405SOL     OW 8113   3.606   3.562   2.384
 2405SOL    HW1 8114   3.520   3.572   2.333
 2405SOL    HW2 8115   3.666   3.498   2.335
 2406SOL     OW 8116   2.901   6.594   2.506
 2406SOL    HW1 8117   2.872   6.530   2.577
 2406SOL    HW2 8118   2.948   6.544   2.433
 2407SOL     OW 8119   5.793   1.795   2.360
 2407SOL    HW1 8120   5.795   1.891   2.332
 2407SOL    HW2 8121   5.705   1.775   2.404
 2408SOL     OW 8122   3.691   4.903   3.063
 2408SOL    HW1 8123   3.676   4.864   3.154
 2408SOL    HW2 8124   3.788   4.895   3.039
 2409SOL     OW 8125   1.673   4.985   2.303
 2409SOL    HW1 8126   1.699   4.890   2.319
 2409SOL    HW2 8127   1.586   5.004   2.349
 2410SOL     OW 8128   4.274   2.990   5.379
 2410SOL    HW1 8129   4.178   3.013   5.396
 2410SOL    HW2 8130   4.287   2.892   5.392
 2411SOL     OW 8131   4.222   5.440   5.103
 2411SOL    HW1 8132   4.226   5.379   5.182
 2411SOL    HW2 8133   4.189   5.390   5.023
 2412SOL     OW 8134   4.979   5.190   0.896
 2412SOL    HW1 8135   5.016   5.119   0.836
 2412SOL    HW2 8136   5.051   5.255   0.919
 2413SOL     OW 8137   6.186   1.944   1.188
 2413SOL    HW1 8138   6.185   1.858   1.239
 2413SOL    HW2 8139   6.105   1.998   1.212
 2414SOL     OW 8140   4.727   4.400   2.796
 2414SOL    HW1 8141   4.805   4.462   2.804
 2414SOL    HW2 8142   4.748   4.313   2.842
 2415SOL     OW 8143   6.606   0.607   2.819
 2415SOL    HW1 8144   6.597   0.536   2.888
 2415SOL    HW2 8145   6.622   0.696   2.864
 2416SOL     OW 8146   4.628   2.130   5.664
 2416SOL    HW1 8147   4.713   2.120   5.611
 2416SOL    HW2 8148   4.561   2.181   5.610
 2417SOL     OW 8149   3.396   3.406   5.438
 2417SOL    HW1 8150   3.328   3.465   5.395
 2417SOL    HW2 8151   3.441   3.456   5.512
 2418SOL     OW 8152   2.942   3.391   4.172
 2418SOL    HW1 8153   2.913   3.484   4.148
 2418SOL    HW2 8154   2.932   3.377   4.270
 2419SOL     OW 8155   6.950   0.012   4.946
 2419SOL    HW1 8156   6.903   0.099   4.960
 2419SOL    HW2 8157   7.018   0.022   4.874
 2420SOL     OW 8158   3.046   0.841   2.425
 2420SOL    HW1 8159   3.104   0.778   2.374
 2420SOL    HW2 8160   3.086   0.933   2.422
 2421SOL     OW 8161   2.148   2.173   4.645
 2421SOL    HW1 8162   2.239   2.188   4.686
 2421SOL    HW2 8163   2.094   2.257   4.652
 2422SOL     OW 8164   5.520   1.476   0.689
 2422SOL    HW1 8165   5.567   1.498   0.604
 2422SOL    HW2 8166   5.549   1.386   0.721
 2423SOL     OW 8167   1.534   5.764   2.420
 2423SOL    HW1 8168   1.610   5.828   2.426
 2423SOL    HW2 8169   1.475   5.774   2.500
 2424SOL     OW 8170   6.116   0.291   6.074
 2424SOL    HW1 8171   6.185   0.259   6.138
 2424SOL    HW2 8172   6.155   0.362   6.016
 2425SOL     OW 8173   5.555   0.630   3.701
 2425SOL    HW1 8174   5.560   0.613   3.603
 2425SOL    HW2 8175   5.488   0.568   3.742
 2426SOL     OW 8176   1.182   6.279   5.095
 2426SOL    HW1 8177   1.145   6.193   5.129
 2426SOL    HW2 8178   1.278   6.268   5.073
 2427SOL     OW 8179   5.737   6.272   5.697
 2427SOL    HW1 8180   5.761   6.208   5.769
 2427SOL    HW2 8181   5.797   6.258   5.618
 2428SOL     OW 8182   6.408   0.241   2.125
 2428SOL    HW1 8183   6.390   0.336   2.100
 2428SOL    HW2 8184   6.495   0.212   2.087
 2429SOL     OW 8185   5.491   5.771   3.291
 2429SOL    HW1 8186   5.404   5.817   3.276
 2429SOL    HW2 8187   5.560   5.808   3.229
 2430SOL     OW 8188   5.645   1.249   1.657
 2430SOL    HW1 8189   5.721   1.256   1.722
 2430SOL    HW2 8190   5.559   1.262   1.706
 2431SOL     OW 8191   4.458   0.923   1.937
 2431SOL    HW1 8192   4.548   0.967   1.935
 2431SOL    HW2 8193   4.414   0.932   1.848
 2432SOL     OW 8194   3.258   6.060   2.730
 2432SOL    HW1 8195   3.194   6.134   2.748
 2432SOL    HW2 8196   3.346   6.082   2.772
 2433SOL     OW 8197   3.772   1.383   0.623
 2433SOL    HW1 8198   3.760   1.426   0.712
 2433SOL    HW2 8199   3.852   1.324   0.624
 2434SOL     OW 8200   3.533   1.130   5.786
 2434SOL    HW1 8201   3.450   1.185   5.795
 2434SOL    HW2 8202   3.606   1.186   5.747
 2435SOL     OW 8203   4.199   5.291   5.729
 2435SOL    HW1 8204   4.193   5.280   5.630
 2435SOL    HW2 8205   4.151   5.215   5.774
 2436SOL     OW 8206   1.742   5.063   0.395
 2436SOL    HW1 8207   1.728   5.015   0.309
 2436SOL    HW2 8208   1.731   5.161   0.381
 2437SOL     OW 8209   5.266   6.751   6.529
 2437SOL    HW1 8210   5.353   6.712   6.557
 2437SOL    HW2 8211   5.216   6.685   6.473
 2438SOL     OW 8212   3.381   1.411   6.873
 2438SOL    HW1 8213   3.400   1.374   6.782
 2438SOL    HW2 8214   3.458   1.468   6.902
 2439SOL     OW 8215   0.845   4.232   6.518
 2439SOL    HW1 8216   0.787   4.161   6.556
 2439SOL    HW2 8217   0.939   4.219   6.550
 2440SOL     OW 8218   4.447   6.416   5.807
 2440SOL    HW1 8219   4.492   6.337   5.848
 2440SOL    HW2 8220   4.516   6.480   5.772
 2441SOL     OW 8221   0.595   1.550   0.255
 2441SOL    HW1 8222   0.653   1.626   0.283
 2441SOL    HW2 8223   0.500   1.569   0.280
 2442SOL     OW 8224   0.865   3.222   5.821
 2442SOL    HW1 8225   0.932   3.278   5.771
 2442SOL    HW2 8226   0.834   3.272   5.902
 2443SOL     OW 8227   3.630   5.151   5.513
 2443SOL    HW1 8228   3.537   5.118   5.495
 2443SOL    HW2 8229   3.694   5.075   5.508
 2444SOL     OW 8230   2.857   4.545   6.750
 2444SOL    HW1 8231   2.781   4.594   6.708
 2444SOL    HW2 8232   2.823   4.462   6.795
 2445SOL     OW 8233   7.011   1.214   1.084
 2445SOL    HW1 8234   7.006   1.301   1.035
 2445SOL    HW2 8235   0.080   1.172   1.070
 2446SOL     OW 8236   6.296   4.487   4.013
 2446SOL    HW1 8237   6.330   4.467   3.921
 2446SOL    HW2 8238   6.371   4.484   4.078
 2447SOL     OW 8239   2.183   2.842   0.286
 2447SOL    HW1 8240   2.176   2.816   0.383
 2447SOL    HW2 8241   2.187   2.760   0.230
 2448SOL     OW 8242   0.421   0.815   4.590
 2448SOL    HW1 8243   0.436   0.879   4.515
 2448SOL    HW2 8244   0.430   0.721   4.556
 2449SOL     OW 8245   6.680   4.478   0.106
 2449SOL    HW1 8246   6.708   4.405   0.168
 2449SOL    HW2 8247   6.691   4.447   0.012
 2450SOL     OW 8248   2.360   4.308   2.838
 2450SOL    HW1 8249   2.319   4.370   2.770
 2450SOL    HW2 8250   2.404   4.361   2.910
 2451SOL     OW 8251   1.538   0.314   4.285
 2451SOL    HW1 8252   1.476   0.289   4.211
 2451SOL    HW2 8253   1.590   0.233   4.314
 2452SOL     OW 8254   1.709   3.428   3.054
 2452SOL    HW1 8255   1.678   3.487   3.129
 2452SOL    HW2 8256   1.807   3.438   3.042
 2453SOL     OW 8257   6.609   4.777   1.202
 2453SOL    HW1 8258   6.602   4.753   1.299
 2453SOL    HW2 8259   6.626   4.694   1.148
 2454SOL     OW 8260   3.904   0.982   2.048
 2454SOL    HW1 8261   3.861   1.072   2.050
 2454SOL    HW2 8262   3.943   0.962   2.139
 2455SOL     OW 8263   5.270   6.335   0.467
 2455SOL    HW1 8264   5.327   6.415   0.452
 2455SOL    HW2 8265   5.325   6.261   0.504
 2456SOL     OW 8266   5.090   6.728   2.333
 2456SOL    HW1 8267   4.995   6.700   2.316
 2456SOL    HW2 8268   5.135   6.658   2.388
 2457SOL     OW 8269   5.338   6.702   0.448
 2457SOL    HW1 8270   5.413   6.729   0.509
 2457SOL    HW2 8271   5.259   6.676   0.502
 2458SOL     OW 8272   2.424   5.463   3.532
 2458SOL    HW1 8273   2.450   5.425   3.443
 2458SOL    HW2 8274   2.433   5.562   3.530
 2459SOL     OW 8275   1.793   6.900   1.019
 2459SOL    HW1 8276   1.710   6.847   1.005
 2459SOL    HW2 8277   1.837   6.917   0.931
 2460SOL     OW 8278   2.208   6.800   2.383
 2460SOL    HW1 8279   2.159   6.848   2.456
 2460SOL    HW2 8280   2.189   6.844   2.295
 2461SOL     OW 8281   5.840   0.774   2.424
 2461SOL    HW1 8282   5.842   0.863   2.378
 2461SOL    HW2 8283   5.755   0.727   2.401
 2462SOL     OW 8284   2.605   5.204   0.521
 2462SOL    HW1 8285   2.508   5.194   0.497
 2462SOL    HW2 8286   2.655   5.243   0.443
 2463SOL     OW 8287   6.930   2.006   3.812
 2463SOL    HW1 8288   6.972   1.916   3.820
 2463SOL    HW2 8289   6.945   2.056   3.897
 2464SOL     OW 8290   0.845   4.625   0.846
 2464SOL    HW1 8291   0.861   4.670   0.758
 2464SOL    HW2 8292   0.842   4.526   0.833
 2465SOL     OW 8293   0.057   5.687   1.559
 2465SOL    HW1 8294   0.133   5.702   1.622
 2465SOL    HW2 8295   0.056   5.592   1.529
 2466SOL     OW 8296   4.572   1.687   2.676
 2466SOL    HW1 8297   4.568   1.661   2.772
 2466SOL    HW2 8298   4.651   1.643   2.632
 2467SOL     OW 8299   6.694   1.561   5.877
 2467SOL    HW1 8300   6.733   1.502   5.947
 2467SOL    HW2 8301   6.721   1.528   5.787
 2468SOL     OW 8302   0.008   6.116   2.014
 2468SOL    HW1 8303   0.032   6.062   2.095
 2468SOL    HW2 8304   0.051   6.075   1.933
 2469SOL     OW 8305   3.099   3.674   5.739
 2469SOL    HW1 8306   3.058   3.749   5.686
 2469SOL    HW2 8307   3.140   3.608   5.676
 2470SOL     OW 8308   2.933   3.730   5.960
 2470SOL    HW1 8309   2.989   3.744   6.042
 2470SOL    HW2 8310   2.993   3.710   5.882
 2471SOL     OW 8311   0.847   6.308   1.739
 2471SOL    HW1 8312   0.862   6.273   1.646
 2471SOL    HW2 8313   0.768   6.261   1.779
 2472SOL     OW 8314   5.583   2.147   4.585
 2472SOL    HW1 8315   5.593   2.244   4.563
 2472SOL    HW2 8316   5.576   2.137   4.684
 2473SOL     OW 8317   0.883   5.170   4.267
 2473SOL    HW1 8318   0.948   5.096   4.282
 2473SOL    HW2 8319   0.932   5.251   4.235
 2474SOL     OW 8320   6.781   5.097   5.308
 2474SOL    HW1 8321   6.748   5.098   5.403
 2474SOL    HW2 8322   6.739   5.174   5.259
 2475SOL     OW 8323   4.236   2.447   0.408
 2475SOL    HW1 8324   4.147   2.403   0.390
 2475SOL    HW2 8325   4.282   2.400   0.483
 2476SOL     OW 8326   1.035   1.703   3.977
 2476SOL    HW1 8327   1.018   1.751   3.891
 2476SOL    HW2 8328   0.978   1.742   4.049
 2477SOL     OW 8329   5.568   6.428   1.450
 2477SOL    HW1 8330   5.643   6.466   1.397
 2477SOL    HW2 8331   5.554   6.332   1.425
 2478SOL     OW 8332   6.505   6.652   2.510
 2478SOL    HW1 8333   6.503   6.745   2.548
 2478SOL    HW2 8334   6.492   6.586   2.584
 2479SOL     OW 8335   0.036   2.529   1.474
 2479SOL    HW1 8336   0.043   2.611   1.530
 2479SOL    HW2 8337   0.033   2.448   1.533
 2480SOL     OW 8338   6.557   3.386   1.379
 2480SOL    HW1 8339   6.595   3.474   1.352
 2480SOL    HW2 8340   6.470   3.370   1.332
 2481SOL     OW 8341   3.958   5.506   1.342
 2481SOL    HW1 8342   3.999   5.588   1.382
 2481SOL    HW2 8343   3.864   5.526   1.313
 2482SOL     OW 8344   4.880   3.379   5.513
 2482SOL    HW1 8345   4.849   3.372   5.418
 2482SOL    HW2 8346   4.980   3.384   5.516
 2483SOL     OW 8347   1.146   1.159   0.771
 2483SOL    HW1 8348   1.101   1.241   0.808
 2483SOL    HW2 8349   1.123   1.080   0.827
 2484SOL     OW 8350   2.645   0.993   0.411
 2484SOL    HW1 8351   2.554   1.006   0.372
 2484SOL    HW2 8352   2.684   1.082   0.432
 2485SOL     OW 8353   0.303   4.959   2.082
 2485SOL    HW1 8354   0.371   5.004   2.140
 2485SOL    HW2 8355   0.239   4.908   2.140
 2486SOL     OW 8356   1.946   5.513   3.418
 2486SOL    HW1 8357   2.031   5.461   3.415
 2486SOL    HW2 8358   1.921   5.542   3.325
 2487SOL     OW 8359   4.035   6.957   0.474
 2487SOL    HW1 8360   4.009   6.955   0.377
 2487SOL    HW2 8361   4.061   0.029   0.499
 2488SOL     OW 8362   2.805   4.237   1.234
 2488SOL    HW1 8363   2.761   4.270   1.318
 2488SOL    HW2 8364   2.861   4.157   1.255
 2489SOL     OW 8365   1.464   5.537   5.365
 2489SOL    HW1 8366   1.495   5.581   5.281
 2489SOL    HW2 8367   1.539   5.484   5.405
 2490SOL     OW 8368   6.598   4.180   0.756
 2490SOL    HW1 8369   6.570   4.161   0.850
 2490SOL    HW2 8370   6.624   4.094   0.712
 2491SOL     OW 8371   2.820   5.559   3.401
 2491SOL    HW1 8372   2.903   5.612   3.417
 2491SOL    HW2 8373   2.753   5.615   3.351
 2492SOL     OW 8374   4.648   3.434   6.281
 2492SOL    HW1 8375   4.687   3.518   6.243
 2492SOL    HW2 8376   4.719   3.383   6.329
 2493SOL     OW 8377   5.562   1.232   2.806
 2493SOL    HW1 8378   5.563   1.309   2.869
 2493SOL    HW2 8379   5.473   1.225   2.762
 2494SOL     OW 8380   4.695   2.673   2.475
 2494SOL    HW1 8381   4.727   2.744   2.413
 2494SOL    HW2 8382   4.649   2.601   2.423
 2495SOL     OW 8383   5.273   1.159   5.191
 2495SOL    HW1 8384   5.247   1.065   5.169
 2495SOL    HW2 8385   5.209   1.223   5.148
 2496SOL     OW 8386   0.823   5.381   0.235
 2496SOL    HW1 8387   0.729   5.363   0.205
 2496SOL    HW2 8388   0.853   5.308   0.296
 2497SOL     OW 8389   6.867   1.768   0.106
 2497SOL    HW1 8390   6.936   1.787   0.176
 2497SOL    HW2 8391   6.785   1.821   0.125
 2498SOL     OW 8392   2.002   2.969   3.658
 2498SOL    HW1 8393   2.067   3.008   3.592
 2498SOL    HW2 8394   2.053   2.927   3.733
 2499SOL     OW 8395   5.154   0.595   4.646
 2499SOL    HW1 8396   5.163   0.539   4.728
 2499SOL    HW2 8397   5.169   0.539   4.565
 2500SOL     OW 8398   4.938   3.011   6.113
 2500SOL    HW1 8399   5.002   3.082   6.082
 2500SOL    HW2 8400   4.978   2.962   6.190
 2501SOL     OW 8401   6.238   4.387   0.086
 2501SOL    HW1 8402   6.265   4.458   0.151
 2501SOL    HW2 8403   6.206   4.306   0.135
 2502SOL     OW 8404   1.889   6.826   2.915
 2502SOL    HW1 8405   1.914   6.890   2.843
 2502SOL    HW2 8406   1.878   6.734   2.876
 2503SOL     OW 8407   4.002   5.156   6.125
 2503SOL    HW1 8408   3.943   5.227   6.087
 2503SOL    HW2 8409   3.996   5.158   6.225
 2504SOL     OW 8410   1.869   4.811   4.822
 2504SOL    HW1 8411   1.940   4.757   4.779
 2504SOL    HW2 8412   1.842   4.886   4.760
 2505SOL     OW 8413   4.298   5.580   4.163
 2505SOL    HW1 8414   4.210   5.613   4.130
 2505SOL    HW2 8415   4.371   5.624   4.111
 2506SOL     OW 8416   6.613   3.153   6.071
 2506SOL    HW1 8417   6.704   3.119   6.047
 2506SOL    HW2 8418   6.620   3.215   6.149
 2507SOL     OW 8419   6.197   5.909   0.747
 2507SOL    HW1 8420   6.242   5.971   0.811
 2507SOL    HW2 8421   6.267   5.861   0.694
 2508SOL     OW 8422   2.527   1.771   2.327
 2508SOL    HW1 8423   2.543   1.868   2.310
 2508SOL    HW2 8424   2.615   1.724   2.338
 2509SOL     OW 8425   5.672   2.458   3.303
 2509SOL    HW1 8426   5.667   2.365   3.341
 2509SOL    HW2 8427   5.751   2.465   3.242
 2510SOL     OW 8428   3.266   5.309   0.170
 2510SOL    HW1 8429   3.347   5.293   0.226
 2510SOL    HW2 8430   3.193   5.345   0.228
 2511SOL     OW 8431   0.886   0.560   5.120
 2511SOL    HW1 8432   0.861   0.474   5.075
 2511SOL    HW2 8433   0.979   0.585   5.094
 2512SOL     OW 8434   4.915   4.112   4.843
 2512SOL    HW1 8435   4.881   4.193   4.890
 2512SOL    HW2 8436   5.010   4.096   4.870
 2513SOL     OW 8437   1.059   2.538   6.620
 2513SOL    HW1 8438   0.983   2.596   6.591
 2513SOL    HW2 8439   1.031   2.442   6.615
 2514SOL     OW 8440   1.279   1.022   4.577
 2514SOL    HW1 8441   1.239   0.967   4.504
 2514SOL    HW2 8442   1.262   1.119   4.559
 2515SOL     OW 8443   1.237   5.759   0.457
 2515SOL    HW1 8444   1.303   5.820   0.499
 2515SOL    HW2 8445   1.220   5.681   0.517
 2516SOL     OW 8446   6.115   6.558   3.577
 2516SOL    HW1 8447   6.060   6.525   3.654
 2516SOL    HW2 8448   6.198   6.601   3.611
 2517SOL     OW 8449   2.417   4.792   0.299
 2517SOL    HW1 8450   2.497   4.757   0.251
 2517SOL    HW2 8451   2.404   4.741   0.384
 2518SOL     OW 8452   2.217   3.150   6.656
 2518SOL    HW1 8453   2.310   3.181   6.674
 2518SOL    HW2 8454   2.200   3.066   6.707
 2519SOL     OW 8455   4.808   4.601   4.823
 2519SOL    HW1 8456   4.733   4.538   4.844
 2519SOL    HW2 8457   4.775   4.695   4.831
 2520SOL     OW 8458   2.189   3.581   1.064
 2520SOL    HW1 8459   2.229   3.496   1.033
 2520SOL    HW2 8460   2.227   3.658   1.012
 2521SOL     OW 8461   6.572   0.445   5.500
 2521SOL    HW1 8462   6.535   0.520   5.555
 2521SOL    HW2 8463   6.528   0.360   5.527
 2522SOL     OW 8464   1.191   3.289   4.308
 2522SOL    HW1 8465   1.212   3.334   4.395
 2522SOL    HW2 8466   1.229   3.196   4.308
 2523SOL     OW 8467   6.917   4.005   0.799
 2523SOL    HW1 8468   7.005   3.966   0.827
 2523SOL    HW2 8469   6.906   4.095   0.841
 2524SOL     OW 8470   1.805   6.692   3.876
 2524SOL    HW1 8471   1.847   6.642   3.952
 2524SOL    HW2 8472   1.708   6.708   3.897
 2525SOL     OW 8473   1.415   4.168   4.102
 2525SOL    HW1 8474   1.506   4.142   4.134
 2525SOL    HW2 8475   1.382   4.099   4.037
 2526SOL     OW 8476   6.933   1.559   4.127
 2526SOL    HW1 8477   6.938   1.652   4.164
 2526SOL    HW2 8478   6.844   1.546   4.081
 2527SOL     OW 8479   5.533   6.378   4.635
 2527SOL    HW1 8480   5.455   6.331   4.677
 2527SOL    HW2 8481   5.562   6.327   4.554
 2528SOL     OW 8482   5.952   5.277   0.925
 2528SOL    HW1 8483   5.930   5.322   0.838
 2528SOL    HW2 8484   6.033   5.320   0.964
 2529SOL     OW 8485   5.322   5.366   4.488
 2529SOL    HW1 8486   5.264   5.286   4.503
 2529SOL    HW2 8487   5.384   5.348   4.412
 2530SOL     OW 8488   1.129   0.148   3.261
 2530SOL    HW1 8489   1.201   0.201   3.216
 2530SOL    HW2 8490   1.161   0.117   3.351
 2531SOL     OW 8491   4.570   0.966   5.479
 2531SOL    HW1 8492   4.594   0.870   5.493
 2531SOL    HW2 8493   4.519   1.000   5.558
 2532SOL     OW 8494   1.255   5.362   6.777
 2532SOL    HW1 8495   1.316   5.436   6.749
 2532SOL    HW2 8496   1.309   5.284   6.810
 2533SOL     OW 8497   5.261   6.892   5.729
 2533SOL    HW1 8498   5.340   6.831   5.719
 2533SOL    HW2 8499   5.251   6.948   5.647
 2534SOL     OW 8500   2.050   0.843   4.053
 2534SOL    HW1 8501   2.114   0.811   3.983
 2534SOL    HW2 8502   2.027   0.769   4.115
 2535SOL     OW 8503   1.505   1.223   3.851
 2535SOL    HW1 8504   1.556   1.146   3.889
 2535SOL    HW2 8505   1.409   1.216   3.877
 2536SOL     OW 8506   5.860   1.649   4.585
 2536SOL    HW1 8507   5.954   1.621   4.603
 2536SOL    HW2 8508   5.815   1.580   4.528
 2537SOL     OW 8509   5.050   5.650   1.437
 2537SOL    HW1 8510   5.047   5.670   1.535
 2537SOL    HW2 8511   4.963   5.675   1.395
 2538SOL     OW 8512   1.853   5.033   4.648
 2538SOL    HW1 8513   1.788   5.056   4.575
 2538SOL    HW2 8514   1.877   5.116   4.698
 2539SOL     OW 8515   4.494   0.557   5.379
 2539SOL    HW1 8516   4.448   0.490   5.436
 2539SOL    HW2 8517   4.491   0.528   5.284
 2540SOL     OW 8518   5.435   1.288   2.092
 2540SOL    HW1 8519   5.501   1.328   2.155
 2540SOL    HW2 8520   5.342   1.311   2.123
 2541SOL     OW 8521   1.501   6.527   5.717
 2541SOL    HW1 8522   1.412   6.551   5.754
 2541SOL    HW2 8523   1.570   6.590   5.751
 2542SOL     OW 8524   3.236   1.531   4.380
 2542SOL    HW1 8525   3.164   1.475   4.420
 2542SOL    HW2 8526   3.205   1.626   4.373
 2543SOL     OW 8527   0.884   1.290   2.794
 2543SOL    HW1 8528   0.854   1.262   2.885
 2543SOL    HW2 8529   0.808   1.284   2.730
 2544SOL     OW 8530   6.654   5.054   1.176
 2544SOL    HW1 8531   6.661   4.958   1.205
 2544SOL    HW2 8532   6.702   5.066   1.089
 2545SOL     OW 8533   0.760   1.715   1.738
 2545SOL    HW1 8534   0.780   1.713   1.640
 2545SOL    HW2 8535   0.814   1.787   1.782
 2546SOL     OW 8536   6.429   3.863   1.773
 2546SOL    HW1 8537   6.394   3.847   1.865
 2546SOL    HW2 8538   6.484   3.947   1.773
 2547SOL     OW 8539   5.611   4.606   0.526
 2547SOL    HW1 8540   5.669   4.584   0.448
 2547SOL    HW2 8541   5.521   4.565   0.513
 2548SOL     OW 8542   0.361   6.973   5.143
 2548SOL    HW1 8543   0.437   6.971   5.208
 2548SOL    HW2 8544   0.288   6.912   5.175
 2549SOL     OW 8545   1.962   1.945   1.513
 2549SOL    HW1 8546   2.062   1.950   1.504
 2549SOL    HW2 8547   1.939   1.882   1.587
 2550SOL     OW 8548   4.548   0.350   6.394
 2550SOL    HW1 8549   4.571   0.446   6.377
 2550SOL    HW2 8550   4.525   0.306   6.308
 2551SOL     OW 8551   2.903   5.317   6.772
 2551SOL    HW1 8552   2.965   5.355   6.840
 2551SOL    HW2 8553   2.947   5.319   6.682
 2552SOL     OW 8554   2.073   5.621   0.241
 2552SOL    HW1 8555   2.071   5.522   0.255
 2552SOL    HW2 8556   2.076   5.641   0.143
 2553SOL     OW 8557   3.907   2.211   6.640
 2553SOL    HW1 8558   3.880   2.183   6.731
 2553SOL    HW2 8559   3.975   2.284   6.646
 2554SOL     OW 8560   1.784   5.873   1.113
 2554SOL    HW1 8561   1.746   5.789   1.074
 2554SOL    HW2 8562   1.852   5.849   1.182
 2555SOL     OW 8563   5.889   6.345   6.048
 2555SOL    HW1 8564   5.950   6.268   6.027
 2555SOL    HW2 8565   5.944   6.426   6.069
 2556SOL     OW 8566   3.255   6.997   1.230
 2556SOL    HW1 8567   3.158   7.004   1.254
 2556SOL    HW2 8568   3.283   6.902   1.233
 2557SOL     OW 8569   3.623   0.547   0.671
 2557SOL    HW1 8570   3.639   0.609   0.747
 2557SOL    HW2 8571   3.630   0.452   0.703
 2558SOL     OW 8572   5.319   4.263   6.966
 2558SOL    HW1 8573   5.276   4.317   0.018
 2558SOL    HW2 8574   5.335   4.323   6.888
 2559SOL     OW 8575   0.747   3.789   3.657
 2559SOL    HW1 8576   0.704   3.867   3.611
 2559SOL    HW2 8577   0.818   3.822   3.718
 2560SOL     OW 8578   4.880   2.453   2.937
 2560SOL    HW1 8579   4.838   2.417   2.854
 2560SOL    HW2 8580   4.821   2.524   2.976
 2561SOL     OW 8581   3.118   1.099   4.097
 2561SOL    HW1 8582   3.087   1.004   4.098
 2561SOL    HW2 8583   3.193   1.109   4.163
 2562SOL     OW 8584   3.045   6.486   3.550
 2562SOL    HW1 8585   3.116   6.457   3.614
 2562SOL    HW2 8586   3.071   6.573   3.508
 2563SOL     OW 8587   3.013   1.176   6.976
 2563SOL    HW1 8588   2.990   1.183   0.052
 2563SOL    HW2 8589   3.058   1.260   6.946
 2564SOL     OW 8590   1.681   0.881   0.786
 2564SOL    HW1 8591   1.618   0.808   0.759
 2564SOL    HW2 8592   1.637   0.970   0.773
 2565SOL     OW 8593   1.181   1.888   6.557
 2565SOL    HW1 8594   1.084   1.904   6.575
 2565SOL    HW2 8595   1.233   1.897   6.642
 2566SOL     OW 8596   3.008   0.862   1.656
 2566SOL    HW1 8597   2.918   0.894   1.686
 2566SOL    HW2 8598   2.997   0.782   1.598
 2567SOL     OW 8599   1.351   7.009   6.986
 2567SOL    HW1 8600   1.369   6.922   0.011
 2567SOL    HW2 8601   1.416   0.057   7.019
 2568SOL     OW 8602   2.495   6.136   1.239
 2568SOL    HW1 8603   2.589   6.117   1.211
 2568SOL    HW2 8604   2.468   6.073   1.312
 2569SOL     OW 8605   1.743   1.277   1.417
 2569SOL    HW1 8606   1.694   1.354   1.458
 2569SOL    HW2 8607   1.817   1.312   1.359
 2570SOL     OW 8608   5.194   6.140   7.003
 2570SOL    HW1 8609   5.157   6.232   6.990
 2570SOL    HW2 8610   5.184   6.114   0.078
 2571SOL     OW 8611   3.787   2.986   4.061
 2571SOL    HW1 8612   3.689   2.993   4.040
 2571SOL    HW2 8613   3.799   2.936   4.147
 2572SOL     OW 8614   2.585   5.185   1.624
 2572SOL    HW1 8615   2.669   5.151   1.665
 2572SOL    HW2 8616   2.592   5.181   1.524
 2573SOL     OW 8617   6.935   2.113   4.092
 2573SOL    HW1 8618   6.847   2.159   4.106
 2573SOL    HW2 8619   7.007   2.182   4.085
 2574SOL     OW 8620   6.675   3.631   1.295
 2574SOL    HW1 8621   6.641   3.721   1.267
 2574SOL    HW2 8622   6.719   3.639   1.384
 2575SOL     OW 8623   5.708   4.076   0.281
 2575SOL    HW1 8624   5.649   4.049   0.205
 2575SOL    HW2 8625   5.735   3.996   0.334
 2576SOL     OW 8626   2.271   0.143   2.863
 2576SOL    HW1 8627   2.319   0.068   2.817
 2576SOL    HW2 8628   2.174   0.123   2.869
 2577SOL     OW 8629   3.148   6.883   3.022
 2577SOL    HW1 8630   3.222   6.819   3.004
 2577SOL    HW2 8631   3.065   6.832   3.045
 2578SOL     OW 8632   4.542   2.488   4.655
 2578SOL    HW1 8633   4.592   2.542   4.722
 2578SOL    HW2 8634   4.483   2.423   4.702
 2579SOL     OW 8635   0.319   2.442   6.722
 2579SOL    HW1 8636   0.365   2.512   6.777
 2579SOL    HW2 8637   0.340   2.352   6.759
 2580SOL     OW 8638   1.507   2.364   6.525
 2580SOL    HW1 8639   1.570   2.289   6.543
 2580SOL    HW2 8640   1.533   2.411   6.441
 2581SOL     OW 8641   5.265   5.608   2.336
 2581SOL    HW1 8642   5.303   5.533   2.391
 2581SOL    HW2 8643   5.324   5.626   2.258
 2582SOL     OW 8644   1.058   5.369   2.482
 2582SOL    HW1 8645   0.962   5.353   2.503
 2582SOL    HW2 8646   1.076   5.467   2.480
 2583SOL     OW 8647   0.626   0.265   0.760
 2583SOL    HW1 8648   0.662   0.232   0.847
 2583SOL    HW2 8649   0.549   0.207   0.732
 2584SOL     OW 8650   3.372   6.212   1.112
 2584SOL    HW1 8651   3.321   6.297   1.123
 2584SOL    HW2 8652   3.315   6.146   1.063
 2585SOL     OW 8653   3.140   6.952   0.562
 2585SOL    HW1 8654   3.082   7.008   0.503
 2585SOL    HW2 8655   3.114   6.965   0.658
 2586SOL     OW 8656   6.127   1.590   4.589
 2586SOL    HW1 8657   6.197   1.631   4.647
 2586SOL    HW2 8658   6.146   1.492   4.578
 2587SOL     OW 8659   5.968   6.783   4.494
 2587SOL    HW1 8660   6.033   6.766   4.568
 2587SOL    HW2 8661   5.955   6.699   4.441
 2588SOL     OW 8662   6.039   0.692   1.649
 2588SOL    HW1 8663   6.048   0.710   1.747
 2588SOL    HW2 8664   6.121   0.647   1.615
 2589SOL     OW 8665   6.433   0.231   5.628
 2589SOL    HW1 8666   6.379   0.164   5.577
 2589SOL    HW2 8667   6.374   0.283   5.689
 2590SOL     OW 8668   3.984   6.680   2.661
 2590SOL    HW1 8669   4.029   6.591   2.657
 2590SOL    HW2 8670   3.978   6.718   2.568
 2591SOL     OW 8671   5.059   6.124   1.410
 2591SOL    HW1 8672   5.043   6.218   1.380
 2591SOL    HW2 8673   5.019   6.110   1.501
 2592SOL     OW 8674   3.164   5.396   1.075
 2592SOL    HW1 8675   3.070   5.414   1.047
 2592SOL    HW2 8676   3.171   5.302   1.109
 2593SOL     OW 8677   3.318   6.288   3.169
 2593SOL    HW1 8678   3.324   6.331   3.259
 2593SOL    HW2 8679   3.399   6.312   3.115
 2594SOL     OW 8680   0.009   0.587   6.573
 2594SOL    HW1 8681   6.946   0.532   6.577
 2594SOL    HW2 8682   0.065   0.559   6.496
 2595SOL     OW 8683   6.902   3.388   4.725
 2595SOL    HW1 8684   6.808   3.361   4.745
 2595SOL    HW2 8685   6.927   3.466   4.783
 2596SOL     OW 8686   3.990   2.170   2.247
 2596SOL    HW1 8687   3.915   2.154   2.311
 2596SOL    HW2 8688   4.077   2.168   2.297
 2597SOL     OW 8689   2.571   3.304   1.435
 2597SOL    HW1 8690   2.513   3.277   1.511
 2597SOL    HW2 8691   2.650   3.242   1.430
 2598SOL     OW 8692   6.829   2.828   4.106
 2598SOL    HW1 8693   6.785   2.915   4.083
 2598SOL    HW2 8694   6.760   2.763   4.137
 2599SOL     OW 8695   4.227   5.899   6.567
 2599SOL    HW1 8696   4.187   5.954   6.640
 2599SOL    HW2 8697   4.248   5.957   6.489
 2600SOL     OW 8698   5.850   3.972   3.743
 2600SOL    HW1 8699   5.898   3.952   3.828
 2600SOL    HW2 8700   5.882   3.910   3.671
 2601SOL     OW 8701   3.425   3.139   5.690
 2601SOL    HW1 8702   3.370   3.064   5.654
 2601SOL    HW2 8703   3.394   3.226   5.651
 2602SOL     OW 8704   0.113   4.805   4.381
 2602SOL    HW1 8705   0.119   4.904   4.390
 2602SOL    HW2 8706   0.048   4.782   4.309
 2603SOL     OW 8707   2.422   2.305   1.397
 2603SOL    HW1 8708   2.342   2.365   1.397
 2603SOL    HW2 8709   2.471   2.315   1.484
 2604SOL     OW 8710   5.181   0.252   1.059
 2604SOL    HW1 8711   5.147   0.206   1.141
 2604SOL    HW2 8712   5.276   0.225   1.042
 2605SOL     OW 8713   4.038   4.795   3.889
 2605SOL    HW1 8714   4.027   4.731   3.812
 2605SOL    HW2 8715   4.076   4.881   3.856
 2606SOL     OW 8716   6.121   4.200   1.133
 2606SOL    HW1 8717   6.161   4.237   1.049
 2606SOL    HW2 8718   6.188   4.206   1.207
 2607SOL     OW 8719   1.300   1.120   3.429
 2607SOL    HW1 8720   1.236   1.051   3.465
 2607SOL    HW2 8721   1.339   1.172   3.505
 2608SOL     OW 8722   5.478   0.342   2.050
 2608SOL    HW1 8723   5.388   0.310   2.021
 2608SOL    HW2 8724   5.531   0.265   2.086
 2609SOL     OW 8725   0.717   2.129   2.587
 2609SOL    HW1 8726   0.668   2.088   2.510
 2609SOL    HW2 8727   0.672   2.214   2.614
 2610SOL     OW 8728   6.675   5.254   4.783
 2610SOL    HW1 8729   6.762   5.228   4.740
 2610SOL    HW2 8730   6.622   5.311   4.720
 2611SOL     OW 8731   5.163   6.922   0.764
 2611SOL    HW1 8732   5.071   6.887   0.749
 2611SOL    HW2 8733   5.187   6.986   0.691
 2612SOL     OW 8734   5.139   6.456   4.164
 2612SOL    HW1 8735   5.153   6.501   4.252
 2612SOL    HW2 8736   5.208   6.488   4.099
 2613SOL     OW 8737   3.446   6.819   2.005
 2613SOL    HW1 8738   3.436   6.744   2.071
 2613SOL    HW2 8739   3.464   6.904   2.055
 2614SOL     OW 8740   6.505   6.818   5.852
 2614SOL    HW1 8741   6.596   6.802   5.812
 2614SOL    HW2 8742   6.475   6.735   5.899
 2615SOL     OW 8743   5.218   5.521   3.744
 2615SOL    HW1 8744   5.252   5.526   3.650
 2615SOL    HW2 8745   5.290   5.486   3.804
 2616SOL     OW 8746   4.128   3.268   3.159
 2616SOL    HW1 8747   4.194   3.293   3.230
 2616SOL    HW2 8748   4.074   3.190   3.190
 2617SOL     OW 8749   3.608   5.239   0.816
 2617SOL    HW1 8750   3.576   5.165   0.757
 2617SOL    HW2 8751   3.529   5.289   0.853
 2618SOL     OW 8752   0.142   0.092   2.070
 2618SOL    HW1 8753   0.150   0.192   2.061
 2618SOL    HW2 8754   0.207   0.048   2.009
 2619SOL     OW 8755   4.672   1.872   1.923
 2619SOL    HW1 8756   4.698   1.904   2.014
 2619SOL    HW2 8757   4.633   1.948   1.871
 2620SOL     OW 8758   1.139   5.369   3.325
 2620SOL    HW1 8759   1.077   5.305   3.370
 2620SOL    HW2 8760   1.233   5.345   3.347
 2621SOL     OW 8761   0.251   5.520   3.827
 2621SOL    HW1 8762   0.302   5.569   3.757
 2621SOL    HW2 8763   0.297   5.434   3.849
 2622SOL     OW 8764   2.088   2.977   6.199
 2622SOL    HW1 8765   2.167   2.982   6.137
 2622SOL    HW2 8766   2.112   3.016   6.287
 2623SOL     OW 8767   3.333   1.515   3.866
 2623SOL    HW1 8768   3.346   1.608   3.900
 2623SOL    HW2 8769   3.245   1.480   3.899
 2624SOL     OW 8770   6.123   2.898   2.991
 2624SOL    HW1 8771   6.101   2.801   3.003
 2624SOL    HW2 8772   6.182   2.909   2.911
 2625SOL     OW 8773   2.155   2.855   5.477
 2625SOL    HW1 8774   2.244   2.887   5.510
 2625SOL    HW2 8775   2.114   2.793   5.545
 2626SOL     OW 8776   1.385   6.331   3.898
 2626SOL    HW1 8777   1.481   6.351   3.918
 2626SOL    HW2 8778   1.331   6.414   3.911
 2627SOL     OW 8779   0.569   0.893   4.839
 2627SOL    HW1 8780   0.658   0.853   4.821
 2627SOL    HW2 8781   0.509   0.879   4.760
 2628SOL     OW 8782   3.445   6.449   6.267
 2628SOL    HW1 8783   3.509   6.382   6.230
 2628SOL    HW2 8784   3.366   6.402   6.306
 2629SOL     OW 8785   3.809   4.188   1.714
 2629SOL    HW1 8786   3.721   4.222   1.749
 2629SOL    HW2 8787   3.873   4.265   1.704
 2630SOL     OW 8788   3.724   1.633   2.337
 2630SOL    HW1 8789   3.736   1.566   2.264
 2630SOL    HW2 8790   3.638   1.682   2.324
 2631SOL     OW 8791   4.942   6.798   4.520
 2631SOL    HW1 8792   4.894   6.731   4.462
 2631SOL    HW2 8793   4.914   6.890   4.494
 2632SOL     OW 8794   3.353   2.350   0.219
 2632SOL    HW1 8795   3.388   2.297   0.296
 2632SOL    HW2 8796   3.425   2.358   0.150
 2633SOL     OW 8797   6.001   2.607   6.563
 2633SOL    HW1 8798   5.946   2.690   6.552
 2633SOL    HW2 8799   5.987   2.546   6.485
 2634SOL     OW 8800   1.928   4.178   2.177
 2634SOL    HW1 8801   2.026   4.174   2.198
 2634SOL    HW2 8802   1.912   4.138   2.086
 2635SOL     OW 8803   5.493   6.227   4.403
 2635SOL    HW1 8804   5.400   6.192   4.414
 2635SOL    HW2 8805   5.549   6.158   4.357
 2636SOL     OW 8806   5.953   6.941   6.074
 2636SOL    HW1 8807   5.864   6.985   6.086
 2636SOL    HW2 8808   5.953   6.852   6.120
 2637SOL     OW 8809   5.960   0.439   3.266
 2637SOL    HW1 8810   5.896   0.429   3.190
 2637SOL    HW2 8811   5.913   0.419   3.352
 2638SOL     OW 8812   5.170   6.475   1.449
 2638SOL    HW1 8813   5.245   6.415   1.474
 2638SOL    HW2 8814   5.181   6.564   1.493
 2639SOL     OW 8815   6.090   6.488   2.034
 2639SOL    HW1 8816   6.136   6.416   2.085
 2639SOL    HW2 8817   6.049   6.553   2.097
 2640SOL     OW 8818   0.197   6.215   4.800
 2640SOL    HW1 8819   0.274   6.177   4.749
 2640SOL    HW2 8820   0.113   6.200   4.749
 2641SOL     OW 8821   5.633   3.451   0.097
 2641SOL    HW1 8822   5.606   3.498   0.181
 2641SOL    HW2 8823   5.602   3.356   0.101
 2642SOL     OW 8824   5.317   0.260   4.581
 2642SOL    HW1 8825   5.384   0.335   4.579
 2642SOL    HW2 8826   5.353   0.185   4.637
 2643SOL     OW 8827   6.763   5.767   2.819
 2643SOL    HW1 8828   6.818   5.683   2.814
 2643SOL    HW2 8829   6.794   5.832   2.749
 2644SOL     OW 8830   1.224   4.895   5.637
 2644SOL    HW1 8831   1.182   4.808   5.662
 2644SOL    HW2 8832   1.207   4.962   5.709
 2645SOL     OW 8833   5.212   6.804   6.005
 2645SOL    HW1 8834   5.249   6.713   5.989
 2645SOL    HW2 8835   5.213   6.857   5.920
 2646SOL     OW 8836   6.426   0.687   6.144
 2646SOL    HW1 8837   6.374   0.731   6.071
 2646SOL    HW2 8838   6.521   0.675   6.115
 2647SOL     OW 8839   5.063   0.839   0.628
 2647SOL    HW1 8840   5.093   0.854   0.534
 2647SOL    HW2 8841   5.136   0.867   0.691
 2648SOL     OW 8842   6.753   6.859   2.397
 2648SOL    HW1 8843   6.803   6.875   2.311
 2648SOL    HW2 8844   6.812   6.810   2.461
 2649SOL     OW 8845   3.685   1.415   6.076
 2649SOL    HW1 8846   3.589   1.388   6.068
 2649SOL    HW2 8847   3.701   1.500   6.026
 2650SOL     OW 8848   0.647   5.047   3.347
 2650SOL    HW1 8849   0.619   4.976   3.282
 2650SOL    HW2 8850   0.669   5.005   3.435
 2651SOL     OW 8851   0.543   1.693   1.297
 2651SOL    HW1 8852   0.454   1.737   1.307
 2651SOL    HW2 8853   0.532   1.605   1.250
 2652SOL     OW 8854   3.107   3.041   3.217
 2652SOL    HW1 8855   3.140   2.966   3.159
 2652SOL    HW2 8856   3.174   3.115   3.216
 2653SOL     OW 8857   5.772   0.022   6.406
 2653SOL    HW1 8858   5.833   0.101   6.411
 2653SOL    HW2 8859   5.826   6.961   6.386
 2654SOL     OW 8860   5.457   2.954   6.184
 2654SOL    HW1 8861   5.469   2.993   6.275
 2654SOL    HW2 8862   5.412   3.020   6.125
 2655SOL     OW 8863   4.263   5.710   4.422
 2655SOL    HW1 8864   4.341   5.654   4.394
 2655SOL    HW2 8865   4.227   5.759   4.343
 2656SOL     OW 8866   5.310   4.731   4.041
 2656SOL    HW1 8867   5.288   4.698   4.133
 2656SOL    HW2 8868   5.403   4.769   4.041
 2657SOL     OW 8869   2.574   3.968   6.394
 2657SOL    HW1 8870   2.576   3.873   6.365
 2657SOL    HW2 8871   2.564   4.027   6.314
 2658SOL     OW 8872   6.284   4.591   6.258
 2658SOL    HW1 8873   6.376   4.602   6.222
 2658SOL    HW2 8874   6.229   4.671   6.234
 2659SOL     OW 8875   6.453   2.874   4.385
 2659SOL    HW1 8876   6.521   2.848   4.454
 2659SOL    HW2 8877   6.384   2.802   4.378
 2660SOL     OW 8878   6.750   2.097   2.163
 2660SOL    HW1 8879   6.823   2.155   2.129
 2660SOL    HW2 8880   6.785   2.038   2.236
 2661SOL     OW 8881   3.180   5.989   1.003
 2661SOL    HW1 8882   3.098   5.999   0.947
 2661SOL    HW2 8883   3.225   5.903   0.980
 2662SOL     OW 8884   4.674   6.640   4.472
 2662SOL    HW1 8885   4.630   6.725   4.500
 2662SOL    HW2 8886   4.709   6.593   4.553
 2663SOL     OW 8887   2.042   4.481   1.416
 2663SOL    HW1 8888   2.034   4.572   1.455
 2663SOL    HW2 8889   2.125   4.475   1.360
 2664SOL     OW 8890   3.694   4.083   3.401
 2664SOL    HW1 8891   3.748   4.046   3.477
 2664SOL    HW2 8892   3.755   4.104   3.324
 2665SOL     OW 8893   3.005   1.357   4.468
 2665SOL    HW1 8894   2.981   1.259   4.471
 2665SOL    HW2 8895   2.975   1.395   4.380
 2666SOL     OW 8896   5.094   5.001   0.730
 2666SOL    HW1 8897   5.094   4.901   0.735
 2666SOL    HW2 8898   5.180   5.032   0.689
 2667SOL     OW 8899   1.558   6.057   5.485
 2667SOL    HW1 8900   1.504   6.115   5.423
 2667SOL    HW2 8901   1.643   6.104   5.509
 2668SOL     OW 8902   6.781   3.595   4.249
 2668SOL    HW1 8903   6.831   3.530   4.306
 2668SOL    HW2 8904   6.835   3.618   4.168
 2669SOL     OW 8905   3.745   4.709   5.648
 2669SOL    HW1 8906   3.728   4.615   5.618
 2669SOL    HW2 8907   3.840   4.719   5.676
 2670SOL     OW 8908   6.919   0.800   6.684
 2670SOL    HW1 8909   6.941   0.715   6.636
 2670SOL    HW2 8910   6.891   0.779   6.778
 2671SOL     OW 8911   2.020   3.678   6.741
 2671SOL    HW1 8912   2.092   3.746   6.753
 2671SOL    HW2 8913   2.026   3.640   6.649
 2672SOL     OW 8914   1.965   5.240   0.296
 2672SOL    HW1 8915   1.951   5.145   0.269
 2672SOL    HW2 8916   2.020   5.287   0.227
 2673SOL     OW 8917   4.672   2.757   3.290
 2673SOL    HW1 8918   4.598   2.690   3.285
 2673SOL    HW2 8919   4.702   2.766   3.385
 2674SOL     OW 8920   1.630   4.881   4.347
 2674SOL    HW1 8921   1.582   4.821   4.283
 2674SOL    HW2 8922   1.725   4.851   4.355
 2675SOL     OW 8923   0.783   4.415   5.832
 2675SOL    HW1 8924   0.877   4.402   5.802
 2675SOL    HW2 8925   0.721   4.369   5.769
 2676SOL     OW 8926   5.184   1.840   2.705
 2676SOL    HW1 8927   5.190   1.767   2.636
 2676SOL    HW2 8928   5.143   1.804   2.788
 2677SOL     OW 8929   1.955   4.908   1.856
 2677SOL    HW1 8930   1.948   4.846   1.777
 2677SOL    HW2 8931   1.988   4.997   1.826
 2678SOL     OW 8932   1.230   4.892   0.046
 2678SOL    HW1 8933   1.194   4.800   0.062
 2678SOL    HW2 8934   1.170   4.959   0.090
 2679SOL     OW 8935   3.930   5.046   0.949
 2679SOL    HW1 8936   3.896   5.069   0.858
 2679SOL    HW2 8937   3.967   5.129   0.992
 2680SOL     OW 8938   2.228   1.341   0.650
 2680SOL    HW1 8939   2.254   1.245   0.639
 2680SOL    HW2 8940   2.129   1.348   0.659
 2681SOL     OW 8941   1.346   3.706   4.017
 2681SOL    HW1 8942   1.407   3.769   4.065
 2681SOL    HW2 8943   1.316   3.634   4.080
 2682SOL     OW 8944   5.622   2.997   2.274
 2682SOL    HW1 8945   5.635   2.904   2.310
 2682SOL    HW2 8946   5.706   3.027   2.229
 2683SOL     OW 8947   0.775   4.799   1.239
 2683SOL    HW1 8948   0.685   4.783   1.279
 2683SOL    HW2 8949   0.812   4.713   1.204
 2684SOL     OW 8950   4.135   6.300   2.356
 2684SOL    HW1 8951   4.106   6.393   2.332
 2684SOL    HW2 8952   4.071   6.261   2.421
 2685SOL     OW 8953   6.080   6.623   4.006
 2685SOL    HW1 8954   6.042   6.537   4.041
 2685SOL    HW2 8955   6.036   6.700   4.052
 2686SOL     OW 8956   1.756   2.420   4.359
 2686SOL    HW1 8957   1.850   2.387   4.360
 2686SOL    HW2 8958   1.756   2.520   4.360
 2687SOL     OW 8959   4.090   4.936   2.566
 2687SOL    HW1 8960   4.103   4.848   2.613
 2687SOL    HW2 8961   4.067   5.006   2.633
 2688SOL     OW 8962   3.793   5.217   5.735
 2688SOL    HW1 8963   3.834   5.308   5.739
 2688SOL    HW2 8964   3.742   5.207   5.650
 2689SOL     OW 8965   1.349   1.721   3.445
 2689SOL    HW1 8966   1.264   1.679   3.479
 2689SOL    HW2 8967   1.424   1.698   3.507
 2690SOL     OW 8968   3.874   3.006   3.587
 2690SOL    HW1 8969   3.817   3.087   3.573
 2690SOL    HW2 8970   3.926   3.016   3.671
 2691SOL     OW 8971   1.977   5.867   1.960
 2691SOL    HW1 8972   2.006   5.924   1.883
 2691SOL    HW2 8973   1.937   5.925   2.031
 2692SOL     OW 8974   6.267   5.025   4.059
 2692SOL    HW1 8975   6.269   4.979   3.971
 2692SOL    HW2 8976   6.307   4.965   4.129
 2693SOL     OW 8977   2.067   4.225   3.247
 2693SOL    HW1 8978   2.136   4.273   3.301
 2693SOL    HW2 8979   2.100   4.214   3.153
 2694SOL     OW 8980   2.855   0.343   3.062
 2694SOL    HW1 8981   2.771   0.394   3.076
 2694SOL    HW2 8982   2.892   0.362   2.971
 2695SOL     OW 8983   5.134   2.272   2.726
 2695SOL    HW1 8984   5.064   2.342   2.711
 2695SOL    HW2 8985   5.128   2.203   2.653
 2696SOL     OW 8986   4.095   3.376   5.600
 2696SOL    HW1 8987   4.066   3.408   5.510
 2696SOL    HW2 8988   4.110   3.454   5.661
 2697SOL     OW 8989   3.555   2.107   4.141
 2697SOL    HW1 8990   3.497   2.039   4.186
 2697SOL    HW2 8991   3.646   2.069   4.127
 2698SOL     OW 8992   1.149   4.859   0.794
 2698SOL    HW1 8993   1.111   4.828   0.707
 2698SOL    HW2 8994   1.249   4.864   0.787
 2699SOL     OW 8995   3.169   5.533   0.588
 2699SOL    HW1 8996   3.252   5.589   0.587
 2699SOL    HW2 8997   3.193   5.436   0.589
 2700SOL     OW 8998   2.136   3.382   3.022
 2700SOL    HW1 8999   2.112   3.419   3.112
 2700SOL    HW2 9000   2.157   3.285   3.030
 2701SOL     OW 9001   3.994   0.637   6.667
 2701SOL    HW1 9002   3.962   0.607   6.757
 2701SOL    HW2 9003   3.924   0.692   6.623
 2702SOL     OW 9004   6.524   1.955   3.379
 2702SOL    HW1 9005   6.424   1.964   3.383
 2702SOL    HW2 9006   6.566   2.029   3.432
 2703SOL     OW 9007   2.803   1.332   2.885
 2703SOL    HW1 9008   2.826   1.235   2.889
 2703SOL    HW2 9009   2.752   1.351   2.800
 2704SOL     OW 9010   2.118   5.737   2.133
 2704SOL    HW1 9011   2.046   5.696   2.189
 2704SOL    HW2 9012   2.077   5.780   2.052
 2705SOL     OW 9013   6.927   4.987   3.681
 2705SOL    HW1 9014   6.900   4.941   3.766
 2705SOL    HW2 9015   6.845   5.012   3.630
 2706SOL     OW 9016   6.512   1.608   1.758
 2706SOL    HW1 9017   6.435   1.550   1.732
 2706SOL    HW2 9018   6.579   1.610   1.683
 2707SOL     OW 9019   2.034   1.039   6.745
 2707SOL    HW1 9020   2.000   1.110   6.682
 2707SOL    HW2 9021   2.119   1.071   6.787
 2708SOL     OW 9022   2.478   2.630   2.116
 2708SOL    HW1 9023   2.520   2.548   2.156
 2708SOL    HW2 9024   2.413   2.669   2.181
 2709SOL     OW 9025   4.722   6.162   1.361
 2709SOL    HW1 9026   4.624   6.181   1.363
 2709SOL    HW2 9027   4.773   6.243   1.391
 2710SOL     OW 9028   6.818   3.466   2.769
 2710SOL    HW1 9029   6.852   3.472   2.676
 2710SOL    HW2 9030   6.883   3.511   2.831
 2711SOL     OW 9031   1.581   0.306   2.562
 2711SOL    HW1 9032   1.560   0.400   2.536
 2711SOL    HW2 9033   1.520   0.243   2.513
 2712SOL     OW 9034   3.117   4.926   0.255
 2712SOL    HW1 9035   3.074   5.012   0.227
 2712SOL    HW2 9036   3.056   4.875   0.315
 2713SOL     OW 9037   2.242   2.878   4.825
 2713SOL    HW1 9038   2.296   2.913   4.902
 2713SOL    HW2 9039   2.170   2.818   4.859
 2714SOL     OW 9040   5.608   1.449   6.126
 2714SOL    HW1 9041   5.641   1.503   6.204
 2714SOL    HW2 9042   5.634   1.495   6.041
 2715SOL     OW 9043   5.805   0.407   0.032
 2715SOL    HW1 9044   5.793   0.490   6.999
 2715SOL    HW2 9045   5.886   0.358   7.020
 2716SOL     OW 9046   6.919   5.263   1.308
 2716SOL    HW1 9047   6.943   5.179   1.259
 2716SOL    HW2 9048   6.880   5.329   1.244
 2717SOL     OW 9049   1.074   5.777   1.932
 2717SOL    HW1 9050   1.065   5.714   1.855
 2717SOL    HW2 9051   1.008   5.852   1.921
 2718SOL     OW 9052   1.820   3.803   4.260
 2718SOL    HW1 9053   1.785   3.715   4.228
 2718SOL    HW2 9054   1.813   3.808   4.359
 2719SOL     OW 9055   4.397   4.776   2.244
 2719SOL    HW1 9056   4.388   4.807   2.150
 2719SOL    HW2 9057   4.474   4.712   2.250
 2720SOL     OW 9058   1.859   5.917   3.229
 2720SOL    HW1 9059   1.802   5.974   3.170
 2720SOL    HW2 9060   1.953   5.950   3.226
 2721SOL     OW 9061   2.585   0.248   4.635
 2721SOL    HW1 9062   2.682   0.229   4.616
 2721SOL    HW2 9063   2.575   0.344   4.661
 2722SOL     OW 9064   0.076   5.666   2.886
 2722SOL    HW1 9065   0.128   5.657   2.971
 2722SOL    HW2 9066   0.034   5.757   2.882
 2723SOL     OW 9067   2.351   0.835   5.832
 2723SOL    HW1 9068   2.370   0.878   5.921
 2723SOL    HW2 9069   2.292   0.755   5.846
 2724SOL     OW 9070   3.447   5.146   6.086
 2724SOL    HW1 9071   3.375   5.202   6.046
 2724SOL    HW2 9072   3.516   5.125   6.016
 2725SOL     OW 9073   5.048   4.563   3.148
 2725SOL    HW1 9074   5.129   4.570   3.206
 2725SOL    HW2 9075   4.967   4.550   3.205
 2726SOL     OW 9076   5.035   4.798   1.832
 2726SOL    HW1 9077   4.996   4.730   1.771
 2726SOL    HW2 9078   5.015   4.773   1.927
 2727SOL     OW 9079   0.798   4.980   2.776
 2727SOL    HW1 9080   0.854   5.044   2.725
 2727SOL    HW2 9081   0.701   4.996   2.754
 2728SOL     OW 9082   3.174   0.345   5.121
 2728SOL    HW1 9083   3.157   0.281   5.196
 2728SOL    HW2 9084   3.164   0.439   5.154
 2729SOL     OW 9085   6.541   5.468   2.701
 2729SOL    HW1 9086   6.523   5.534   2.774
 2729SOL    HW2 9087   6.471   5.396   2.704
 2730SOL     OW 9088   2.288   0.119   0.609
 2730SOL    HW1 9089   2.344   0.043   0.575
 2730SOL    HW2 9090   2.257   0.175   0.532
 2731SOL     OW 9091   2.868   3.747   1.600
 2731SOL    HW1 9092   2.851   3.846   1.601
 2731SOL    HW2 9093   2.789   3.701   1.558
 2732SOL     OW 9094   5.950   3.191   2.587
 2732SOL    HW1 9095   5.955   3.137   2.671
 2732SOL    HW2 9096   5.880   3.262   2.597
 2733SOL     OW 9097   0.979   0.099   5.925
 2733SOL    HW1 9098   0.920   0.178   5.912
 2733SOL    HW2 9099   1.011   0.097   6.020
 2734SOL     OW 9100   1.628   6.225   3.619
 2734SOL    HW1 9101   1.668   6.179   3.698
 2734SOL    HW2 9102   1.670   6.316   3.608
 2735SOL     OW 9103   0.944   4.028   2.788
 2735SOL    HW1 9104   0.939   4.073   2.699
 2735SOL    HW2 9105   0.912   4.091   2.859
 2736SOL     OW 9106   4.979   0.894   5.733
 2736SOL    HW1 9107   4.899   0.849   5.771
 2736SOL    HW2 9108   5.037   0.929   5.807
 2737SOL     OW 9109   3.341   3.450   6.421
 2737SOL    HW1 9110   3.378   3.535   6.381
 2737SOL    HW2 9111   3.393   3.427   6.503
 2738SOL     OW 9112   5.004   5.589   3.876
 2738SOL    HW1 9113   5.088   5.559   3.832
 2738SOL    HW2 9114   4.932   5.521   3.860
 2739SOL     OW 9115   5.842   4.404   1.108
 2739SOL    HW1 9116   5.892   4.371   1.028
 2739SOL    HW2 9117   5.859   4.342   1.185
 2740SOL     OW 9118   6.456   1.806   2.358
 2740SOL    HW1 9119   6.467   1.862   2.276
 2740SOL    HW2 9120   6.380   1.841   2.413
 2741SOL     OW 9121   0.348   1.811   5.974
 2741SOL    HW1 9122   0.390   1.785   6.061
 2741SOL    HW2 9123   0.399   1.769   5.899
 2742SOL     OW 9124   1.227   5.524   6.392
 2742SOL    HW1 9125   1.144   5.468   6.380
 2742SOL    HW2 9126   1.306   5.465   6.406
 2743SOL     OW 9127   5.622   5.544   1.289
 2743SOL    HW1 9128   5.527   5.536   1.322
 2743SOL    HW2 9129   5.634   5.633   1.245
 2744SOL     OW 9130   4.145   2.427   6.548
 2744SOL    HW1 9131   4.103   2.512   6.578
 2744SOL    HW2 9132   4.153   2.426   6.449
 2745SOL     OW 9133   1.910   6.397   0.658
 2745SOL    HW1 9134   1.885   6.479   0.607
 2745SOL    HW2 9135   1.987   6.417   0.719
 2746SOL     OW 9136   1.795   2.866   5.058
 2746SOL    HW1 9137   1.715   2.832   5.108
 2746SOL    HW2 9138   1.876   2.856   5.116
 2747SOL     OW 9139   5.797   5.296   4.936
 2747SOL    HW1 9140   5.785   5.361   4.861
 2747SOL    HW2 9141   5.714   5.241   4.947
 2748SOL     OW 9142   3.696   1.283   3.237
 2748SOL    HW1 9143   3.711   1.197   3.188
 2748SOL    HW2 9144   3.784   1.322   3.263
 2749SOL     OW 9145   5.577   4.591   4.284
 2749SOL    HW1 9146   5.652   4.538   4.245
 2749SOL    HW2 9147   5.564   4.565   4.380
 2750SOL     OW 9148   0.557   5.726   1.675
 2750SOL    HW1 9149   0.548   5.753   1.580
 2750SOL    HW2 9150   0.610   5.642   1.682
 2751SOL     OW 9151   1.885   6.915   0.734
 2751SOL    HW1 9152   1.940   6.999   0.736
 2751SOL    HW2 9153   1.795   6.935   0.695
 2752SOL     OW 9154   4.925   6.601   5.244
 2752SOL    HW1 9155   5.019   6.633   5.234
 2752SOL    HW2 9156   4.924   6.501   5.246
 2753SOL     OW 9157   3.443   5.877   6.098
 2753SOL    HW1 9158   3.507   5.895   6.172
 2753SOL    HW2 9159   3.482   5.807   6.037
 2754SOL     OW 9160   0.386   0.099   4.179
 2754SOL    HW1 9161   0.312   0.064   4.236
 2754SOL    HW2 9162   0.395   0.198   4.193
 2755SOL     OW 9163   2.491   6.167   3.100
 2755SOL    HW1 9164   2.530   6.095   3.043
 2755SOL    HW2 9165   2.558   6.241   3.110
 2756SOL     OW 9166   5.875   4.007   4.511
 2756SOL    HW1 9167   5.903   3.916   4.542
 2756SOL    HW2 9168   5.860   4.004   4.412
 2757SOL     OW 9169   4.179   2.116   6.873
 2757SOL    HW1 9170   4.104   2.085   6.932
 2757SOL    HW2 9171   4.263   2.069   6.898
 2758SOL     OW 9172   5.112   4.896   3.320
 2758SOL    HW1 9173   5.075   4.849   3.400
 2758SOL    HW2 9174   5.105   4.837   3.240
 2759SOL     OW 9175   3.337   4.534   6.027
 2759SOL    HW1 9176   3.313   4.631   6.020
 2759SOL    HW2 9177   3.325   4.503   6.122
 2760SOL     OW 9178   5.839   6.013   3.422
 2760SOL    HW1 9179   5.821   5.951   3.499
 2760SOL    HW2 9180   5.871   6.101   3.457
 2761SOL     OW 9181   1.720   3.850   2.834
 2761SOL    HW1 9182   1.631   3.885   2.807
 2761SOL    HW2 9183   1.769   3.919   2.887
 2762SOL     OW 9184   1.512   2.261   0.001
 2762SOL    HW1 9185   1.475   2.285   6.932
 2762SOL    HW2 9186   1.587   2.323   0.023
 2763SOL     OW 9187   4.841   1.617   5.648
 2763SOL    HW1 9188   4.820   1.637   5.743
 2763SOL    HW2 9189   4.937   1.638   5.630
 2764SOL     OW 9190   0.886   4.427   2.612
 2764SOL    HW1 9191   0.881   4.500   2.544
 2764SOL    HW2 9192   0.840   4.456   2.696
 2765SOL     OW 9193   6.315   6.825   6.901
 2765SOL    HW1 9194   6.328   6.767   6.982
 2765SOL    HW2 9195   6.217   6.838   6.885
 2766SOL     OW 9196   4.589   1.243   6.902
 2766SOL    HW1 9197   4.644   1.251   6.819
 2766SOL    HW2 9198   4.648   1.238   6.982
 2767SOL     OW 9199   5.887   5.512   6.144
 2767SOL    HW1 9200   5.891   5.588   6.208
 2767SOL    HW2 9201   5.979   5.475   6.130
 2768SOL     OW 9202   4.237   0.430   0.997
 2768SOL    HW1 9203   4.240   0.431   0.897
 2768SOL    HW2 9204   4.330   0.419   1.032
 2769SOL     OW 9205   1.704   4.065   5.854
 2769SOL    HW1 9206   1.785   4.123   5.859
 2769SOL    HW2 9207   1.727   3.981   5.806
 2770SOL     OW 9208   3.232   6.724   6.321
 2770SOL    HW1 9209   3.132   6.723   6.328
 2770SOL    HW2 9210   3.260   6.671   6.241
 2771SOL     OW 9211   4.441   0.102   4.548
 2771SOL    HW1 9212   4.478   0.137   4.634
 2771SOL    HW2 9213   4.487   0.147   4.471
 2772SOL     OW 9214   3.681   0.816   2.618
 2772SOL    HW1 9215   3.748   0.764   2.670
 2772SOL    HW2 9216   3.636   0.882   2.679
 2773SOL     OW 9217   0.563   2.798   4.726
 2773SOL    HW1 9218   0.510   2.872   4.767
 2773SOL    HW2 9219   0.507   2.716   4.719
 2774SOL     OW 9220   4.751   1.999   3.240
 2774SOL    HW1 9221   4.778   1.914   3.286
 2774SOL    HW2 9222   4.822   2.068   3.254
 2775SOL     OW 9223   0.121   4.046   4.296
 2775SOL    HW1 9224   0.067   3.974   4.340
 2775SOL    HW2 9225   0.119   4.129   4.352
 2776SOL     OW 9226   4.779   4.963   6.113
 2776SOL    HW1 9227   4.728   5.039   6.072
 2776SOL    HW2 9228   4.831   4.916   6.042
 2777SOL     OW 9229   3.337   2.232   5.897
 2777SOL    HW1 9230   3.432   2.225   5.866
 2777SOL    HW2 9231   3.277   2.242   5.818
 2778SOL     OW 9232   2.575   5.724   6.683
 2778SOL    HW1 9233   2.569   5.816   6.644
 2778SOL    HW2 9234   2.618   5.663   6.616
 2779SOL     OW 9235   5.721   6.427   2.096
 2779SOL    HW1 9236   5.812   6.435   2.055
 2779SOL    HW2 9237   5.664   6.367   2.039
 2780SOL     OW 9238   0.328   1.113   6.479
 2780SOL    HW1 9239   0.285   1.024   6.496
 2780SOL    HW2 9240   0.426   1.099   6.463
 2781SOL     OW 9241   6.814   0.673   2.298
 2781SOL    HW1 9242   6.751   0.661   2.221
 2781SOL    HW2 9243   6.763   0.701   2.379
 2782SOL     OW 9244   4.207   1.386   6.666
 2782SOL    HW1 9245   4.239   1.359   6.757
 2782SOL    HW2 9246   4.142   1.461   6.675
 2783SOL     OW 9247   5.755   3.813   2.163
 2783SOL    HW1 9248   5.662   3.829   2.131
 2783SOL    HW2 9249   5.817   3.806   2.085
 2784SOL     OW 9250   1.864   1.742   1.679
 2784SOL    HW1 9251   1.827   1.683   1.751
 2784SOL    HW2 9252   1.915   1.687   1.614
 2785SOL     OW 9253   5.022   2.811   1.694
 2785SOL    HW1 9254   4.978   2.731   1.735
 2785SOL    HW2 9255   4.953   2.878   1.669
 2786SOL     OW 9256   7.009   5.222   0.492
 2786SOL    HW1 9257   6.923   5.216   0.543
 2786SOL    HW2 9258   0.063   5.235   0.556
 2787SOL     OW 9259   6.135   5.886   5.633
 2787SOL    HW1 9260   6.233   5.906   5.626
 2787SOL    HW2 9261   6.086   5.931   5.558
 2788SOL     OW 9262   3.456   6.430   5.675
 2788SOL    HW1 9263   3.556   6.435   5.677
 2788SOL    HW2 9264   3.422   6.422   5.769
 2789SOL     OW 9265   0.958   2.832   4.314
 2789SOL    HW1 9266   0.865   2.858   4.338
 2789SOL    HW2 9267   0.959   2.789   4.224
 2790SOL     OW 9268   2.325   5.686   0.774
 2790SOL    HW1 9269   2.287   5.716   0.686
 2790SOL    HW2 9270   2.286   5.741   0.847
 2791SOL     OW 9271   6.894   3.517   2.510
 2791SOL    HW1 9272   6.854   3.440   2.460
 2791SOL    HW2 9273   6.992   3.521   2.493
 2792SOL     OW 9274   3.252   1.061   5.103
 2792SOL    HW1 9275   3.195   1.090   5.180
 2792SOL    HW2 9276   3.208   0.984   5.056
 2793SOL     OW 9277   4.172   4.300   1.195
 2793SOL    HW1 9278   4.087   4.353   1.190
 2793SOL    HW2 9279   4.192   4.279   1.291
 2794SOL     OW 9280   0.106   1.481   6.185
 2794SOL    HW1 9281   0.012   1.483   6.218
 2794SOL    HW2 9282   0.115   1.544   6.107
 2795SOL     OW 9283   0.635   4.678   1.527
 2795SOL    HW1 9284   0.697   4.600   1.530
 2795SOL    HW2 9285   0.685   4.761   1.553
 2796SOL     OW 9286   0.647   5.951   5.582
 2796SOL    HW1 9287   0.597   6.031   5.617
 2796SOL    HW2 9288   0.708   5.981   5.509
 2797SOL     OW 9289   5.602   6.609   4.386
 2797SOL    HW1 9290   5.596   6.522   4.434
 2797SOL    HW2 9291   5.547   6.678   4.434
 2798SOL     OW 9292   6.602   6.582   1.841
 2798SOL    HW1 9293   6.685   6.529   1.828
 2798SOL    HW2 9294   6.616   6.650   1.913
 2799SOL     OW 9295   4.301   6.058   4.573
 2799SOL    HW1 9296   4.230   6.080   4.641
 2799SOL    HW2 9297   4.332   5.964   4.587
 2800SOL     OW 9298   6.322   0.415   6.960
 2800SOL    HW1 9299   6.223   0.400   6.955
 2800SOL    HW2 9300   6.349   0.482   6.891
 2801SOL     OW 9301   0.519   5.143   5.997
 2801SOL    HW1 9302   0.480   5.222   5.950
 2801SOL    HW2 9303   0.528   5.067   5.932
 2802SOL     OW 9304   6.546   6.257   5.297
 2802SOL    HW1 9305   6.503   6.172   5.266
 2802SOL    HW2 9306   6.534   6.328   5.228
 2803SOL     OW 9307   3.620   3.122   5.920
 2803SOL    HW1 9308   3.560   3.122   5.839
 2803SOL    HW2 9309   3.631   3.216   5.953
 2804SOL     OW 9310   0.670   2.614   3.955
 2804SOL    HW1 9311   0.692   2.526   3.998
 2804SOL    HW2 9312   0.672   2.604   3.856
 2805SOL     OW 9313   4.606   3.816   1.656
 2805SOL    HW1 9314   4.534   3.755   1.627
 2805SOL    HW2 9315   4.679   3.764   1.701
 2806SOL     OW 9316   1.074   4.245   5.804
 2806SOL    HW1 9317   1.151   4.245   5.868
 2806SOL    HW2 9318   1.108   4.259   5.711
 2807SOL     OW 9319   2.611   0.470   3.098
 2807SOL    HW1 9320   2.607   0.559   3.054
 2807SOL    HW2 9321   2.536   0.412   3.065
 2808SOL     OW 9322   6.350   5.665   0.634
 2808SOL    HW1 9323   6.396   5.583   0.600
 2808SOL    HW2 9324   6.410   5.744   0.624
 2809SOL     OW 9325   6.634   4.964   2.416
 2809SOL    HW1 9326   6.581   4.958   2.501
 2809SOL    HW2 9327   6.630   5.057   2.380
 2810SOL     OW 9328   2.617   5.742   3.699
 2810SOL    HW1 9329   2.550   5.766   3.629
 2810SOL    HW2 9330   2.592   5.654   3.740
 2811SOL     OW 9331   0.903   0.182   2.533
 2811SOL    HW1 9332   0.992   0.227   2.522
 2811SOL    HW2 9333   0.843   0.208   2.457
 2812SOL     OW 9334   0.693   3.416   1.208
 2812SOL    HW1 9335   0.630   3.386   1.136
 2812SOL    HW2 9336   0.784   3.432   1.168
 2813SOL     OW 9337   0.232   1.855   1.008
 2813SOL    HW1 9338   0.137   1.845   0.980
 2813SOL    HW2 9339   0.270   1.940   0.970
 2814SOL     OW 9340   2.535   4.460   0.179
 2814SOL    HW1 9341   2.610   4.458   0.112
 2814SOL    HW2 9342   2.569   4.499   0.265
 2815SOL     OW 9343   0.243   5.726   4.725
 2815SOL    HW1 9344   0.289   5.717   4.813
 2815SOL    HW2 9345   0.303   5.691   4.653
 2816SOL     OW 9346   0.230   6.028   5.439
 2816SOL    HW1 9347   0.188   6.104   5.490
 2816SOL    HW2 9348   0.254   6.059   5.347
 2817SOL     OW 9349   4.053   0.684   2.095
 2817SOL    HW1 9350   4.145   0.646   2.104
 2817SOL    HW2 9351   4.059   0.783   2.085
 2818SOL     OW 9352   1.462   0.602   1.400
 2818SOL    HW1 9353   1.483   0.676   1.465
 2818SOL    HW2 9354   1.434   0.521   1.451
 2819SOL     OW 9355   0.628   6.960   0.859
 2819SOL    HW1 9356   0.548   6.984   0.805
 2819SOL    HW2 9357   0.711   6.973   0.804
 2820SOL     OW 9358   1.195   2.427   1.923
 2820SOL    HW1 9359   1.163   2.482   2.000
 2820SOL    HW2 9360   1.261   2.480   1.870
 2821SOL     OW 9361   3.605   4.142   6.694
 2821SOL    HW1 9362   3.661   4.215   6.654
 2821SOL    HW2 9363   3.538   4.111   6.626
 2822SOL     OW 9364   3.930   2.562   0.560
 2822SOL    HW1 9365   3.840   2.587   0.595
 2822SOL    HW2 9366   3.998   2.626   0.595
 2823SOL     OW 9367   5.073   1.270   0.538
 2823SOL    HW1 9368   5.014   1.208   0.487
 2823SOL    HW2 9369   5.023   1.307   0.616
 2824SOL     OW 9370   1.170   3.658   5.670
 2824SOL    HW1 9371   1.114   3.728   5.626
 2824SOL    HW2 9372   1.259   3.653   5.624
 2825SOL     OW 9373   5.109   1.705   6.044
 2825SOL    HW1 9374   5.186   1.666   6.093
 2825SOL    HW2 9375   5.143   1.762   5.969
 2826SOL     OW 9376   0.987   3.819   6.090
 2826SOL    HW1 9377   0.996   3.725   6.056
 2826SOL    HW2 9378   1.036   3.828   6.176
 2827SOL     OW 9379   0.051   1.134   6.492
 2827SOL    HW1 9380   6.979   1.169   6.478
 2827SOL    HW2 9381   0.089   1.106   6.404
 2828SOL     OW 9382   1.264   3.803   0.846
 2828SOL    HW1 9383   1.329   3.825   0.920
 2828SOL    HW2 9384   1.230   3.887   0.805
 2829SOL     OW 9385   3.879   3.935   3.537
 2829SOL    HW1 9386   3.935   3.874   3.482
 2829SOL    HW2 9387   3.926   3.955   3.623
 2830SOL     OW 9388   3.848   5.349   6.037
 2830SOL    HW1 9389   3.868   5.434   6.086
 2830SOL    HW2 9390   3.753   5.350   6.007
 2831SOL     OW 9391   6.979   2.257   2.060
 2831SOL    HW1 9392   7.019   2.321   2.125
 2831SOL    HW2 9393   6.942   2.307   1.982
 2832SOL     OW 9394   0.657   3.243   1.473
 2832SOL    HW1 9395   0.658   3.246   1.373
 2832SOL    HW2 9396   0.750   3.260   1.507
 2833SOL     OW 9397   2.142   1.580   2.314
 2833SOL    HW1 9398   2.103   1.568   2.222
 2833SOL    HW2 9399   2.079   1.544   2.382
 2834SOL     OW 9400   4.582   5.937   5.100
 2834SOL    HW1 9401   4.552   5.979   5.014
 2834SOL    HW2 9402   4.584   5.837   5.089
 2835SOL     OW 9403   1.160   6.444   0.392
 2835SOL    HW1 9404   1.080   6.502   0.413
 2835SOL    HW2 9405   1.158   6.363   0.451
 2836SOL     OW 9406   3.268   6.575   3.312
 2836SOL    HW1 9407   3.283   6.492   3.366
 2836SOL    HW2 9408   3.204   6.634   3.360
 2837SOL     OW 9409   5.847   3.894   2.401
 2837SOL    HW1 9410   5.816   3.840   2.322
 2837SOL    HW2 9411   5.884   3.833   2.470
 2838SOL     OW 9412   5.093   3.776   6.094
 2838SOL    HW1 9413   5.060   3.804   6.184
 2838SOL    HW2 9414   5.034   3.815   6.023
 2839SOL     OW 9415   6.213   3.453   4.598
 2839SOL    HW1 9416   6.241   3.530   4.656
 2839SOL    HW2 9417   6.275   3.445   4.520
 2840SOL     OW 9418   0.548   5.858   2.541
 2840SOL    HW1 9419   0.457   5.868   2.582
 2840SOL    HW2 9420   0.549   5.903   2.452
 2841SOL     OW 9421   5.964   2.291   1.637
 2841SOL    HW1 9422   6.024   2.215   1.663
 2841SOL    HW2 9423   5.982   2.315   1.541
 2842SOL     OW 9424   1.616   6.398   4.003
 2842SOL    HW1 9425   1.571   6.389   4.092
 2842SOL    HW2 9426   1.694   6.461   4.012
 2843SOL     OW 9427   2.193   3.020   3.225
 2843SOL    HW1 9428   2.189   3.067   3.136
 2843SOL    HW2 9429   2.114   2.960   3.234
 2844SOL     OW 9430   4.863   4.708   0.698
 2844SOL    HW1 9431   4.888   4.660   0.781
 2844SOL    HW2 9432   4.945   4.747   0.656
 2845SOL     OW 9433   4.079   2.180   2.853
 2845SOL    HW1 9434   4.090   2.196   2.755
 2845SOL    HW2 9435   4.108   2.086   2.874
 2846SOL     OW 9436   4.910   0.532   0.231
 2846SOL    HW1 9437   4.814   0.547   0.254
 2846SOL    HW2 9438   4.922   0.440   0.194
 2847SOL     OW 9439   4.785   4.106   2.107
 2847SOL    HW1 9440   4.862   4.139   2.053
 2847SOL    HW2 9441   4.701   4.113   2.053
 2848SOL     OW 9442   0.594   3.149   5.112
 2848SOL    HW1 9443   0.623   3.086   5.041
 2848SOL    HW2 9444   0.671   3.205   5.142
 2849SOL     OW 9445   3.704   0.637   2.370
 2849SOL    HW1 9446   3.622   0.672   2.414
 2849SOL    HW2 9447   3.728   0.549   2.410
 2850SOL     OW 9448   2.416   0.298   3.002
 2850SOL    HW1 9449   2.398   0.266   3.095
 2850SOL    HW2 9450   2.365   0.243   2.937
 2851SOL     OW 9451   4.474   3.384   1.100
 2851SOL    HW1 9452   4.509   3.477   1.098
 2851SOL    HW2 9453   4.374   3.385   1.099
 2852SOL     OW 9454   6.879   4.461   6.044
 2852SOL    HW1 9455   6.848   4.512   6.124
 2852SOL    HW2 9456   6.978   4.450   6.048
 2853SOL     OW 9457   0.355   3.767   0.436
 2853SOL    HW1 9458   0.416   3.823   0.379
 2853SOL    HW2 9459   0.271   3.817   0.453
 2854SOL     OW 9460   3.110   1.365   6.003
 2854SOL    HW1 9461   3.158   1.440   6.049
 2854SOL    HW2 9462   3.065   1.401   5.921
 2855SOL     OW 9463   1.617   1.603   4.188
 2855SOL    HW1 9464   1.555   1.564   4.256
 2855SOL    HW2 9465   1.585   1.694   4.162
 2856SOL     OW 9466   1.255   4.291   2.910
 2856SOL    HW1 9467   1.293   4.380   2.934
 2856SOL    HW2 9468   1.158   4.288   2.934
 2857SOL     OW 9469   0.506   2.988   1.053
 2857SOL    HW1 9470   0.498   2.959   0.958
 2857SOL    HW2 9471   0.445   2.933   1.110
 2858SOL     OW 9472   4.479   4.536   2.857
 2858SOL    HW1 9473   4.499   4.566   2.950
 2858SOL    HW2 9474   4.557   4.486   2.820
 2859SOL     OW 9475   5.352   5.539   1.340
 2859SOL    HW1 9476   5.309   5.625   1.368
 2859SOL    HW2 9477   5.281   5.472   1.318
 2860SOL     OW 9478   1.470   6.226   1.342
 2860SOL    HW1 9479   1.559   6.245   1.384
 2860SOL    HW2 9480   1.421   6.159   1.397
 2861SOL     OW 9481   4.552   4.730   6.598
 2861SOL    HW1 9482   4.579   4.636   6.618
 2861SOL    HW2 9483   4.633   4.785   6.576
 2862SOL     OW 9484   4.496   3.031   1.485
 2862SOL    HW1 9485   4.479   3.058   1.580
 2862SOL    HW2 9486   4.450   3.095   1.424
 2863SOL     OW 9487   6.175   6.842   5.939
 2863SOL    HW1 9488   6.096   6.867   5.995
 2863SOL    HW2 9489   6.215   6.925   5.899
 2864SOL     OW 9490   3.740   3.405   0.941
 2864SOL    HW1 9491   3.779   3.488   0.982
 2864SOL    HW2 9492   3.770   3.398   0.846
 2865SOL     OW 9493   5.273   6.086   4.428
 2865SOL    HW1 9494   5.245   6.129   4.514
 2865SOL    HW2 9495   5.226   5.998   4.418
 2866SOL     OW 9496   5.052   4.315   6.522
 2866SOL    HW1 9497   5.148   4.322   6.493
 2866SOL    HW2 9498   5.007   4.241   6.472
 2867SOL     OW 9499   6.135   6.602   1.801
 2867SOL    HW1 9500   6.216   6.562   1.758
 2867SOL    HW2 9501   6.111   6.548   1.882
 2868SOL     OW 9502   1.649   0.857   5.925
 2868SOL    HW1 9503   1.741   0.818   5.920
 2868SOL    HW2 9504   1.656   0.956   5.940
 2869SOL     OW 9505   5.251   5.882   3.855
 2869SOL    HW1 9506   5.329   5.922   3.807
 2869SOL    HW2 9507   5.183   5.953   3.875
 2870SOL     OW 9508   1.006   1.423   1.359
 2870SOL    HW1 9509   1.000   1.508   1.306
 2870SOL    HW2 9510   1.057   1.439   1.443
 2871SOL     OW 9511   6.445   2.076   1.361
 2871SOL    HW1 9512   6.373   2.140   1.333
 2871SOL    HW2 9513   6.530   2.126   1.377
 2872SOL     OW 9514   2.735   1.608   2.357
 2872SOL    HW1 9515   2.823   1.587   2.401
 2872SOL    HW2 9516   2.673   1.530   2.370
 2873SOL     OW 9517   0.775   6.190   1.251
 2873SOL    HW1 9518   0.803   6.113   1.194
 2873SOL    HW2 9519   0.687   6.170   1.294
 2874SOL     OW 9520   2.302   0.696   3.127
 2874SOL    HW1 9521   2.372   0.765   3.107
 2874SOL    HW2 9522   2.211   0.736   3.114
 2875SOL     OW 9523   3.492   0.014   2.183
 2875SOL    HW1 9524   3.481   0.044   2.278
 2875SOL    HW2 9525   3.589   0.015   2.159
 2876SOL     OW 9526   1.786   6.103   1.721
 2876SOL    HW1 9527   1.849   6.155   1.778
 2876SOL    HW2 9528   1.837   6.039   1.664
 2877SOL     OW 9529   1.803   1.023   5.746
 2877SOL    HW1 9530   1.765   0.931   5.752
 2877SOL    HW2 9531   1.761   1.081   5.815
 2878SOL     OW 9532   3.996   3.150   4.802
 2878SOL    HW1 9533   3.928   3.078   4.791
 2878SOL    HW2 9534   4.085   3.109   4.821
 2879SOL     OW 9535   3.771   4.375   6.217
 2879SOL    HW1 9536   3.766   4.365   6.317
 2879SOL    HW2 9537   3.861   4.411   6.192
 2880SOL     OW 9538   1.157   1.587   4.285
 2880SOL    HW1 9539   1.177   1.616   4.191
 2880SOL    HW2 9540   1.199   1.652   4.349
 2881SOL     OW 9541   3.248   6.387   6.717
 2881SOL    HW1 9542   3.309   6.466   6.725
 2881SOL    HW2 9543   3.160   6.417   6.680
 2882SOL     OW 9544   4.256   6.215   0.344
 2882SOL    HW1 9545   4.315   6.249   0.271
 2882SOL    HW2 9546   4.173   6.174   0.304
 2883SOL     OW 9547   6.013   6.337   3.444
 2883SOL    HW1 9548   5.965   6.353   3.358
 2883SOL    HW2 9549   6.048   6.424   3.480
 2884SOL     OW 9550   0.127   5.475   2.492
 2884SOL    HW1 9551   0.202   5.454   2.428
 2884SOL    HW2 9552   0.162   5.473   2.586
 2885SOL     OW 9553   1.176   3.436   2.890
 2885SOL    HW1 9554   1.230   3.360   2.855
 2885SOL    HW2 9555   1.144   3.415   2.983
 2886SOL     OW 9556   3.029   4.487   6.546
 2886SOL    HW1 9557   2.956   4.484   6.615
 2886SOL    HW2 9558   3.107   4.434   6.579
 2887SOL     OW 9559   1.032   6.334   4.061
 2887SOL    HW1 9560   1.002   6.273   3.988
 2887SOL    HW2 9561   0.969   6.412   4.067
 2888SOL     OW 9562   6.666   6.470   0.143
 2888SOL    HW1 9563   6.641   6.562   0.173
 2888SOL    HW2 9564   6.764   6.467   0.123
 2889SOL     OW 9565   2.959   6.687   3.089
 2889SOL    HW1 9566   2.966   6.618   3.161
 2889SOL    HW2 9567   2.864   6.694   3.059
 2890SOL     OW 9568   1.995   0.108   0.972
 2890SOL    HW1 9569   2.066   0.085   1.039
 2890SOL    HW2 9570   2.018   0.068   0.884
 2891SOL     OW 9571   6.903   3.315   3.398
 2891SOL    HW1 9572   6.809   3.295   3.371
 2891SOL    HW2 9573   6.906   3.331   3.497
 2892SOL     OW 9574   6.115   3.918   0.928
 2892SOL    HW1 9575   6.203   3.887   0.893
 2892SOL    HW2 9576   6.130   3.990   0.996
 2893SOL     OW 9577   7.010   5.350   4.677
 2893SOL    HW1 9578   6.995   5.294   4.595
 2893SOL    HW2 9579   7.021   5.446   4.651
 2894SOL     OW 9580   1.417   5.107   2.123
 2894SOL    HW1 9581   1.501   5.134   2.169
 2894SOL    HW2 9582   1.438   5.040   2.052
 2895SOL     OW 9583   4.001   6.770   6.193
 2895SOL    HW1 9584   3.915   6.718   6.197
 2895SOL    HW2 9585   4.042   6.759   6.103
 2896SOL     OW 9586   5.328   6.251   4.767
 2896SOL    HW1 9587   5.315   6.153   4.782
 2896SOL    HW2 9588   5.244   6.300   4.790
 2897SOL     OW 9589   2.967   4.821   3.418
 2897SOL    HW1 9590   3.031   4.858   3.351
 2897SOL    HW2 9591   2.886   4.786   3.372
 2898SOL     OW 9592   5.806   4.313   2.400
 2898SOL    HW1 9593   5.901   4.335   2.423
 2898SOL    HW2 9594   5.774   4.236   2.456
 2899SOL     OW 9595   6.811   2.597   0.589
 2899SOL    HW1 9596   6.898   2.548   0.582
 2899SOL    HW2 9597   6.746   2.542   0.641
 2900SOL     OW 9598   2.978   3.958   0.015
 2900SOL    HW1 9599   2.959   3.859   0.019
 2900SOL    HW2 9600   2.965   3.990   6.942
 2901SOL     OW 9601   1.642   4.159   3.117
 2901SOL    HW1 9602   1.670   4.105   3.196
 2901SOL    HW2 9603   1.569   4.222   3.142
 2902SOL     OW 9604   0.343   5.776   3.901
 2902SOL    HW1 9605   0.366   5.716   3.824
 2902SOL    HW2 9606   0.257   5.745   3.942
 2903SOL     OW 9607   4.173   5.769   0.808
 2903SOL    HW1 9608   4.108   5.831   0.853
 2903SOL    HW2 9609   4.263   5.814   0.804
 2904SOL     OW 9610   2.645   4.652   5.214
 2904SOL    HW1 9611   2.693   4.584   5.269
 2904SOL    HW2 9612   2.688   4.658   5.124
 2905SOL     OW 9613   0.770   4.285   2.161
 2905SOL    HW1 9614   0.748   4.251   2.252
 2905SOL    HW2 9615   0.753   4.383   2.156
 2906SOL     OW 9616   5.689   5.670   3.032
 2906SOL    HW1 9617   5.611   5.668   2.969
 2906SOL    HW2 9618   5.686   5.754   3.086
 2907SOL     OW 9619   0.737   0.433   3.627
 2907SOL    HW1 9620   0.764   0.393   3.715
 2907SOL    HW2 9621   0.816   0.434   3.566
 2908SOL     OW 9622   5.013   6.767   3.174
 2908SOL    HW1 9623   5.009   6.672   3.143
 2908SOL    HW2 9624   4.999   6.771   3.272
 2909SOL     OW 9625   1.550   5.837   1.998
 2909SOL    HW1 9626   1.462   5.804   2.032
 2909SOL    HW2 9627   1.544   5.852   1.899
 2910SOL     OW 9628   0.095   0.761   3.383
 2910SOL    HW1 9629   0.178   0.761   3.327
 2910SOL    HW2 9630   0.091   0.846   3.436
 2911SOL     OW 9631   6.503   4.317   3.877
 2911SOL    HW1 9632   6.565   4.271   3.813
 2911SOL    HW2 9633   6.550   4.336   3.963
 2912SOL     OW 9634   6.779   6.346   0.586
 2912SOL    HW1 9635   6.866   6.341   0.635
 2912SOL    HW2 9636   6.735   6.434   0.607
 2913SOL     OW 9637   1.883   5.707   1.369
 2913SOL    HW1 9638   1.887   5.681   1.465
 2913SOL    HW2 9639   1.846   5.631   1.315
 2914SOL     OW 9640   5.490   5.111   0.489
 2914SOL    HW1 9641   5.549   5.040   0.451
 2914SOL    HW2 9642   5.515   5.199   0.449
 2915SOL     OW 9643   3.420   1.712   3.023
 2915SOL    HW1 9644   3.475   1.630   3.008
 2915SOL    HW2 9645   3.347   1.717   2.954
 2916SOL     OW 9646   2.104   5.759   0.480
 2916SOL    HW1 9647   2.093   5.712   0.393
 2916SOL    HW2 9648   2.194   5.803   0.484
 2917SOL     OW 9649   2.421   0.155   3.235
 2917SOL    HW1 9650   2.482   0.092   3.283
 2917SOL    HW2 9651   2.342   0.176   3.294
 2918SOL     OW 9652   6.020   3.603   0.746
 2918SOL    HW1 9653   6.008   3.516   0.697
 2918SOL    HW2 9654   6.116   3.630   0.743
 2919SOL     OW 9655   0.796   6.336   4.584
 2919SOL    HW1 9656   0.772   6.433   4.589
 2919SOL    HW2 9657   0.863   6.322   4.511
 2920SOL     OW 9658   1.236   0.758   2.147
 2920SOL    HW1 9659   1.204   0.793   2.058
 2920SOL    HW2 9660   1.218   0.660   2.153
 2921SOL     OW 9661   0.364   0.092   5.520
 2921SOL    HW1 9662   0.344   0.140   5.435
 2921SOL    HW2 9663   0.329   0.145   5.598
 2922SOL     OW 9664   4.253   0.852   3.404
 2922SOL    HW1 9665   4.250   0.952   3.406
 2922SOL    HW2 9666   4.348   0.821   3.407
 2923SOL     OW 9667   6.005   4.712   5.163
 2923SOL    HW1 9668   6.005   4.807   5.194
 2923SOL    HW2 9669   6.018   4.709   5.063
 2924SOL     OW 9670   6.925   2.553   5.696
 2924SOL    HW1 9671   6.998   2.518   5.637
 2924SOL    HW2 9672   6.875   2.625   5.648
 2925SOL     OW 9673   5.809   1.033   5.648
 2925SOL    HW1 9674   5.718   1.067   5.671
 2925SOL    HW2 9675   5.825   0.945   5.693
 2926SOL     OW 9676   0.333   1.291   4.816
 2926SOL    HW1 9677   0.375   1.232   4.885
 2926SOL    HW2 9678   0.239   1.260   4.800
 2927SOL     OW 9679   1.821   2.427   1.912
 2927SOL    HW1 9680   1.904   2.410   1.964
 2927SOL    HW2 9681   1.822   2.521   1.878
 2928SOL     OW 9682   6.459   2.313   6.866
 2928SOL    HW1 9683   6.378   2.302   6.924
 2928SOL    HW2 9684   6.431   2.305   6.770
 2929SOL     OW 9685   1.897   2.387   4.760
 2929SOL    HW1 9686   1.925   2.408   4.853
 2929SOL    HW2 9687   1.803   2.415   4.746
 2930SOL     OW 9688   0.012   5.623   4.641
 2930SOL    HW1 9689   0.088   5.678   4.676
 2930SOL    HW2 9690   6.950   5.645   4.692
 2931SOL     OW 9691   3.918   4.017   6.350
 2931SOL    HW1 9692   3.966   3.964   6.280
 2931SOL    HW2 9693   3.820   4.022   6.326
 2932SOL     OW 9694   6.514   5.241   0.753
 2932SOL    HW1 9695   6.512   5.315   0.820
 2932SOL    HW2 9696   6.424   5.198   0.748
 2933SOL     OW 9697   1.014   6.777   0.826
 2933SOL    HW1 9698   1.108   6.804   0.806
 2933SOL    HW2 9699   1.002   6.681   0.800
 2934SOL     OW 9700   4.041   3.643   0.627
 2934SOL    HW1 9701   3.981   3.704   0.679
 2934SOL    HW2 9702   4.116   3.613   0.685
 2935SOL     OW 9703   0.503   2.662   6.362
 2935SOL    HW1 9704   0.409   2.665   6.328
 2935SOL    HW2 9705   0.543   2.753   6.356
 2936SOL     OW 9706   4.702   0.358   0.694
 2936SOL    HW1 9707   4.676   0.444   0.650
 2936SOL    HW2 9708   4.801   0.350   0.695
 2937SOL     OW 9709   4.188   5.751   1.879
 2937SOL    HW1 9710   4.146   5.785   1.796
 2937SOL    HW2 9711   4.129   5.770   1.958
 2938SOL     OW 9712   6.478   5.952   6.082
 2938SOL    HW1 9713   6.446   5.878   6.140
 2938SOL    HW2 9714   6.517   6.025   6.138
 2939SOL     OW 9715   0.049   5.422   1.494
 2939SOL    HW1 9716   0.034   5.376   1.582
 2939SOL    HW2 9717   0.010   5.366   1.421
 2940SOL     OW 9718   5.446   5.707   3.798
 2940SOL    HW1 9719   5.349   5.731   3.801
 2940SOL    HW2 9720   5.482   5.725   3.706
 2941SOL     OW 9721   2.069   3.334   3.942
 2941SOL    HW1 9722   1.971   3.315   3.935
 2941SOL    HW2 9723   2.101   3.377   3.857
 2942SOL     OW 9724   2.919   1.500   0.395
 2942SOL    HW1 9725   2.846   1.461   0.452
 2942SOL    HW2 9726   2.888   1.587   0.356
 2943SOL     OW 9727   6.044   4.270   3.643
 2943SOL    HW1 9728   6.059   4.308   3.734
 2943SOL    HW2 9729   6.087   4.328   3.575
 2944SOL     OW 9730   2.584   6.007   3.882
 2944SOL    HW1 9731   2.654   5.996   3.952
 2944SOL    HW2 9732   2.623   5.986   3.792
 2945SOL     OW 9733   5.278   4.399   1.422
 2945SOL    HW1 9734   5.277   4.302   1.399
 2945SOL    HW2 9735   5.196   4.444   1.387
 2946SOL     OW 9736   2.880   3.997   6.106
 2946SOL    HW1 9737   2.855   3.916   6.053
 2946SOL    HW2 9738   2.965   3.979   6.155
 2947SOL     OW 9739   6.070   6.329   0.620
 2947SOL    HW1 9740   6.086   6.345   0.523
 2947SOL    HW2 9741   6.018   6.245   0.632
 2948SOL     OW 9742   5.849   4.243   2.754
 2948SOL    HW1 9743   5.826   4.148   2.776
 2948SOL    HW2 9744   5.923   4.274   2.814
 2949SOL     OW 9745   1.446   6.994   1.260
 2949SOL    HW1 9746   1.460   6.897   1.283
 2949SOL    HW2 9747   1.517   0.002   1.195
 2950SOL     OW 9748   4.917   4.671   2.574
 2950SOL    HW1 9749   4.852   4.612   2.526
 2950SOL    HW2 9750   5.010   4.638   2.560
 2951SOL     OW 9751   5.936   0.923   1.358
 2951SOL    HW1 9752   5.883   0.842   1.331
 2951SOL    HW2 9753   5.883   0.979   1.421
 2952SOL     OW 9754   5.404   0.757   4.060
 2952SOL    HW1 9755   5.426   0.855   4.062
 2952SOL    HW2 9756   5.484   0.706   4.030
 2953SOL     OW 9757   0.816   6.308   3.203
 2953SOL    HW1 9758   0.794   6.405   3.193
 2953SOL    HW2 9759   0.791   6.277   3.295
 2954SOL     OW 9760   0.609   4.690   6.188
 2954SOL    HW1 9761   0.630   4.599   6.154
 2954SOL    HW2 9762   0.674   4.715   6.260
 2955SOL     OW 9763   1.573   4.065   6.803
 2955SOL    HW1 9764   1.579   3.993   6.871
 2955SOL    HW2 9765   1.639   4.138   6.824
 2956SOL     OW 9766   6.177   4.431   3.464
 2956SOL    HW1 9767   6.245   4.373   3.509
 2956SOL    HW2 9768   6.211   4.524   3.458
 2957SOL     OW 9769   2.889   5.148   1.646
 2957SOL    HW1 9770   2.885   5.160   1.745
 2957SOL    HW2 9771   2.908   5.236   1.603
 2958SOL     OW 9772   2.200   4.869   3.312
 2958SOL    HW1 9773   2.230   4.819   3.393
 2958SOL    HW2 9774   2.237   4.962   3.314
 2959SOL     OW 9775   6.701   1.998   2.771
 2959SOL    HW1 9776   6.657   2.086   2.751
 2959SOL    HW2 9777   6.649   1.924   2.728
 2960SOL     OW 9778   4.400   0.629   0.815
 2960SOL    HW1 9779   4.343   0.620   0.733
 2960SOL    HW2 9780   4.354   0.689   0.881
 2961SOL     OW 9781   5.219   4.274   2.142
 2961SOL    HW1 9782   5.224   4.174   2.133
 2961SOL    HW2 9783   5.292   4.306   2.202
 2962SOL     OW 9784   6.759   6.156   2.025
 2962SOL    HW1 9785   6.715   6.117   2.107
 2962SOL    HW2 9786   6.857   6.141   2.030
 2963SOL     OW 9787   1.363   0.886   5.367
 2963SOL    HW1 9788   1.448   0.855   5.410
 2963SOL    HW2 9789   1.347   0.982   5.391
 2964SOL     OW 9790   0.939   3.014   6.758
 2964SOL    HW1 9791   1.024   2.967   6.732
 2964SOL    HW2 9792   0.863   2.976   6.706
 2965SOL     OW 9793   0.474   0.613   5.188
 2965SOL    HW1 9794   0.431   0.667   5.260
 2965SOL    HW2 9795   0.407   0.593   5.117
 2966SOL     OW 9796   4.274   5.836   3.612
 2966SOL    HW1 9797   4.353   5.892   3.586
 2966SOL    HW2 9798   4.206   5.839   3.539
 2967SOL     OW 9799   6.466   1.342   5.648
 2967SOL    HW1 9800   6.482   1.276   5.574
 2967SOL    HW2 9801   6.512   1.428   5.627
 2968SOL     OW 9802   1.458   1.960   1.163
 2968SOL    HW1 9803   1.486   1.954   1.067
 2968SOL    HW2 9804   1.535   1.936   1.222
 2969SOL     OW 9805   5.606   3.681   4.221
 2969SOL    HW1 9806   5.617   3.705   4.318
 2969SOL    HW2 9807   5.585   3.763   4.169
 2970SOL     OW 9808   2.239   2.986   4.561
 2970SOL    HW1 9809   2.303   3.063   4.551
 2970SOL    HW2 9810   2.254   2.942   4.649
 2971SOL     OW 9811   5.735   3.800   6.739
 2971SOL    HW1 9812   5.735   3.843   6.649
 2971SOL    HW2 9813   5.728   3.701   6.729
 2972SOL     OW 9814   5.869   5.014   6.367
 2972SOL    HW1 9815   5.880   4.989   6.463
 2972SOL    HW2 9816   5.854   5.113   6.360
 2973SOL     OW 9817   5.223   6.895   2.172
 2973SOL    HW1 9818   5.202   6.991   2.192
 2973SOL    HW2 9819   5.162   6.835   2.224
 2974SOL     OW 9820   5.307   5.106   3.582
 2974SOL    HW1 9821   5.318   5.117   3.681
 2974SOL    HW2 9822   5.309   5.009   3.559
 2975SOL     OW 9823   4.509   4.832   4.088
 2975SOL    HW1 9824   4.475   4.738   4.082
 2975SOL    HW2 9825   4.598   4.833   4.133
 2976SOL     OW 9826   4.728   2.198   2.434
 2976SOL    HW1 9827   4.729   2.110   2.480
 2976SOL    HW2 9828   4.674   2.191   2.350
 2977SOL     OW 9829   0.350   0.173   1.454
 2977SOL    HW1 9830   0.257   0.181   1.417
 2977SOL    HW2 9831   0.350   0.106   1.529
 2978SOL     OW 9832   3.824   4.561   5.919
 2978SOL    HW1 9833   3.795   4.634   5.982
 2978SOL    HW2 9834   3.744   4.510   5.889
 2979SOL     OW 9835   2.215   1.781   4.639
 2979SOL    HW1 9836   2.257   1.853   4.584
 2979SOL    HW2 9837   2.135   1.745   4.591
 2980SOL     OW 9838   4.033   3.845   6.183
 2980SOL    HW1 9839   4.047   3.775   6.252
 2980SOL    HW2 9840   4.092   3.827   6.104
 2981SOL     OW 9841   1.827   1.123   0.498
 2981SOL    HW1 9842   1.897   1.070   0.450
 2981SOL    HW2 9843   1.773   1.062   0.556
 2982SOL     OW 9844   1.301   0.175   2.154
 2982SOL    HW1 9845   1.213   0.204   2.193
 2982SOL    HW2 9846   1.290   0.162   2.056
 2983SOL     OW 9847   6.266   3.118   6.894
 2983SOL    HW1 9848   6.241   3.034   6.845
 2983SOL    HW2 9849   6.300   3.186   6.829
 2984SOL     OW 9850   6.460   4.847   7.017
 2984SOL    HW1 9851   6.375   4.897   0.015
 2984SOL    HW2 9852   6.449   4.794   6.932
 2985SOL     OW 9853   0.296   0.548   4.950
 2985SOL    HW1 9854   0.317   0.570   4.855
 2985SOL    HW2 9855   0.197   0.545   4.963
 2986SOL     OW 9856   3.685   4.090   2.706
 2986SOL    HW1 9857   3.713   4.140   2.624
 2986SOL    HW2 9858   3.751   4.017   2.725
 2987SOL     OW 9859   0.832   1.661   4.543
 2987SOL    HW1 9860   0.862   1.745   4.498
 2987SOL    HW2 9861   0.732   1.657   4.545
 2988SOL     OW 9862   0.742   1.445   0.760
 2988SOL    HW1 9863   0.671   1.378   0.735
 2988SOL    HW2 9864   0.708   1.504   0.832
 2989SOL     OW 9865   5.311   3.033   5.009
 2989SOL    HW1 9866   5.282   2.974   4.934
 2989SOL    HW2 9867   5.381   3.096   4.978
 2990SOL     OW 9868   4.896   1.825   4.589
 2990SOL    HW1 9869   4.976   1.885   4.590
 2990SOL    HW2 9870   4.925   1.732   4.613
 2991SOL     OW 9871   5.398   3.162   0.872
 2991SOL    HW1 9872   5.384   3.229   0.945
 2991SOL    HW2 9873   5.318   3.102   0.866
 2992SOL     OW 9874   0.585   3.724   5.535
 2992SOL    HW1 9875   0.612   3.807   5.584
 2992SOL    HW2 9876   0.583   3.743   5.437
 2993SOL     OW 9877   1.003   4.719   6.847
 2993SOL    HW1 9878   0.935   4.791   6.843
 2993SOL    HW2 9879   0.983   4.658   6.924
 2994SOL     OW 9880   4.389   6.290   0.144
 2994SOL    HW1 9881   4.488   6.294   0.151
 2994SOL    HW2 9882   4.359   6.338   0.061
 2995SOL     OW 9883   4.917   0.252   0.468
 2995SOL    HW1 9884   4.932   0.331   0.527
 2995SOL    HW2 9885   4.851   0.190   0.511
 2996SOL     OW 9886   1.384   2.137   4.865
 2996SOL    HW1 9887   1.446   2.065   4.896
 2996SOL    HW2 9888   1.437   2.216   4.835
 2997SOL     OW 9889   5.031   0.552   3.960
 2997SOL    HW1 9890   5.076   0.634   3.926
 2997SOL    HW2 9891   4.947   0.578   4.009
 2998SOL     OW 9892   2.734   1.033   2.953
 2998SOL    HW1 9893   2.798   1.025   2.877
 2998SOL    HW2 9894   2.640   1.024   2.919
 2999SOL     OW 9895   2.381   4.621   0.520
 2999SOL    HW1 9896   2.304   4.566   0.552
 2999SOL    HW2 9897   2.457   4.561   0.497
 3000SOL     OW 9898   2.808   3.799   5.378
 3000SOL    HW1 9899   2.827   3.895   5.396
 3000SOL    HW2 9900   2.859   3.768   5.298
 3001SOL     OW 9901   6.163   1.827   6.212
 3001SOL    HW1 9902   6.165   1.855   6.116
 3001SOL    HW2 9903   6.168   1.907   6.271
 3002SOL     OW 9904   2.706   1.106   1.579
 3002SOL    HW1 9905   2.742   1.184   1.630
 3002SOL    HW2 9906   2.616   1.129   1.542
 3003SOL     OW 9907   1.141   5.891   0.222
 3003SOL    HW1 9908   1.183   5.860   0.308
 3003SOL    HW2 9909   1.101   5.813   0.175
 3004SOL     OW 9910   2.483   5.322   4.134
 3004SOL    HW1 9911   2.440   5.374   4.208
 3004SOL    HW2 9912   2.566   5.369   4.104
 3005SOL     OW 9913   1.573   2.816   5.845
 3005SOL    HW1 9914   1.645   2.884   5.835
 3005SOL    HW2 9915   1.521   2.810   5.759
 3006SOL     OW 9916   4.848   2.063   5.027
 3006SOL    HW1 9917   4.921   2.011   5.073
 3006SOL    HW2 9918   4.882   2.096   4.939
 3007SOL     OW 9919   5.505   5.526   0.159
 3007SOL    HW1 9920   5.579   5.463   0.183
 3007SOL    HW2 9921   5.437   5.477   0.104
 3008SOL     OW 9922   4.275   2.353   5.863
 3008SOL    HW1 9923   4.188   2.339   5.910
 3008SOL    HW2 9924   4.274   2.440   5.814
 3009SOL     OW 9925   0.643   2.782   2.855
 3009SOL    HW1 9926   0.592   2.792   2.770
 3009SOL    HW2 9927   0.656   2.685   2.876
 3010SOL     OW 9928   4.143   5.716   6.122
 3010SOL    HW1 9929   4.188   5.642   6.073
 3010SOL    HW2 9930   4.139   5.694   6.220
 3011SOL     OW 9931   5.837   0.130   1.267
 3011SOL    HW1 9932   5.864   0.101   1.359
 3011SOL    HW2 9933   5.880   0.218   1.247
 3012SOL     OW 9934   2.797   3.154   6.007
 3012SOL    HW1 9935   2.865   3.186   5.941
 3012SOL    HW2 9936   2.844   3.125   6.091
 3013SOL     OW 9937   0.506   5.981   3.891
 3013SOL    HW1 9938   0.551   5.980   3.980
 3013SOL    HW2 9939   0.448   5.900   3.882
 3014SOL     OW 9940   4.647   0.950   5.235
 3014SOL    HW1 9941   4.684   0.860   5.212
 3014SOL    HW2 9942   4.627   0.955   5.332
 3015SOL     OW 9943   1.321   1.083   0.591
 3015SOL    HW1 9944   1.258   1.106   0.665
 3015SOL    HW2 9945   1.304   1.143   0.513
 3016SOL     OW 9946   2.763   6.432   4.688
 3016SOL    HW1 9947   2.664   6.417   4.684
 3016SOL    HW2 9948   2.783   6.501   4.758
 3017SOL     OW 9949   6.465   5.600   1.894
 3017SOL    HW1 9950   6.380   5.616   1.843
 3017SOL    HW2 9951   6.531   5.670   1.870
 3018SOL     OW 9952   3.548   0.505   0.223
 3018SOL    HW1 9953   3.483   0.449   0.275
 3018SOL    HW2 9954   3.606   0.556   0.287
 3019SOL     OW 9955   1.354   6.982   6.360
 3019SOL    HW1 9956   1.338   6.909   6.294
 3019SOL    HW2 9957   1.266   0.000   6.389
 3020SOL     OW 9958   5.186   3.455   0.252
 3020SOL    HW1 9959   5.211   3.391   0.180
 3020SOL    HW2 9960   5.147   3.538   0.212
 3021SOL     OW 9961   3.733   6.396   4.906
 3021SOL    HW1 9962   3.824   6.415   4.869
 3021SOL    HW2 9963   3.698   6.311   4.866
 3022SOL     OW 9964   4.040   6.092   3.503
 3022SOL    HW1 9965   4.044   6.005   3.454
 3022SOL    HW2 9966   3.956   6.141   3.478
 3023SOL     OW 9967   4.126   6.657   2.908
 3023SOL    HW1 9968   4.095   6.653   2.813
 3023SOL    HW2 9969   4.220   6.624   2.913
 3024SOL     OW 9970   0.130   6.699   6.113
 3024SOL    HW1 9971   0.099   6.614   6.070
 3024SOL    HW2 9972   0.123   6.691   6.213
 3025SOL     OW 9973   3.887   5.866   0.952
 3025SOL    HW1 9974   3.829   5.847   0.873
 3025SOL    HW2 9975   3.874   5.962   0.980
 3026SOL     OW 9976   5.572   1.620   0.056
 3026SOL    HW1 9977   5.488   1.672   0.073
 3026SOL    HW2 9978   5.553   1.522   0.064
 3027SOL     OW 9979   5.289   1.402   1.565
 3027SOL    HW1 9980   5.205   1.412   1.512
 3027SOL    HW2 9981   5.369   1.413   1.505
 3028SOL     OW 9982   2.657   4.416   6.389
 3028SOL    HW1 9983   2.631   4.509   6.363
 3028SOL    HW2 9984   2.667   4.360   6.307
 3029SOL     OW 9985   0.906   2.067   4.586
 3029SOL    HW1 9986   0.928   2.021   4.672
 3029SOL    HW2 9987   0.960   2.150   4.578
 3030SOL     OW 9988   1.384   3.614   1.740
 3030SOL    HW1 9989   1.304   3.630   1.798
 3030SOL    HW2 9990   1.461   3.585   1.796
 3031SOL     OW 9991   1.489   5.646   1.114
 3031SOL    HW1 9992   1.439   5.564   1.084
 3031SOL    HW2 9993   1.443   5.728   1.081
 3032SOL     OW 9994   1.570   0.482   2.872
 3032SOL    HW1 9995   1.550   0.385   2.858
 3032SOL    HW2 9996   1.540   0.534   2.792
 3033SOL     OW 9997   6.667   2.417   4.424
 3033SOL    HW1 9998   6.751   2.375   4.456
 3033SOL    HW2 9999   6.688   2.486   4.355
 3034SOL     OW10000   0.579   5.879   3.616
 3034SOL    HW110001   0.670   5.898   3.652
 3034SOL    HW210002   0.544   5.795   3.658
 3035SOL     OW10003   1.275   2.187   6.384
 3035SOL    HW110004   1.190   2.224   6.345
 3035SOL    HW210005   1.352   2.212   6.325
 3036SOL     OW10006   2.271   1.804   6.513
 3036SOL    HW110007   2.237   1.868   6.581
 3036SOL    HW210008   2.362   1.771   6.541
 3037SOL     OW10009   0.744   5.620   6.451
 3037SOL    HW110010   0.679   5.686   6.487
 3037SOL    HW210011   0.808   5.594   6.523
 3038SOL     OW10012   5.198   4.981   6.197
 3038SOL    HW110013   5.247   4.955   6.114
 3038SOL    HW210014   5.194   4.903   6.259
 3039SOL     OW10015   6.338   4.066   6.831
 3039SOL    HW110016   6.239   4.066   6.848
 3039SOL    HW210017   6.386   4.051   6.918
 3040SOL     OW10018   3.708   4.229   5.821
 3040SOL    HW110019   3.636   4.160   5.816
 3040SOL    HW210020   3.687   4.292   5.896
 3041SOL     OW10021   2.122   4.200   4.975
 3041SOL    HW110022   2.039   4.145   4.967
 3041SOL    HW210023   2.201   4.140   4.986
 3042SOL     OW10024   0.270   5.140   3.155
 3042SOL    HW110025   0.336   5.210   3.128
 3042SOL    HW210026   0.178   5.176   3.145
 3043SOL     OW10027   3.095   4.009   1.018
 3043SOL    HW110028   3.052   4.090   0.976
 3043SOL    HW210029   3.156   3.966   0.952
 3044SOL     OW10030   3.391   3.696   5.069
 3044SOL    HW110031   3.436   3.708   5.157
 3044SOL    HW210032   3.417   3.607   5.030
 3045SOL     OW10033   5.013   1.514   3.111
 3045SOL    HW110034   5.070   1.571   3.170
 3045SOL    HW210035   5.071   1.463   3.048
 3046SOL     OW10036   5.669   5.568   0.583
 3046SOL    HW110037   5.671   5.519   0.671
 3046SOL    HW210038   5.604   5.524   0.522
 3047SOL     OW10039   6.132   0.611   6.728
 3047SOL    HW110040   6.117   0.540   6.660
 3047SOL    HW210041   6.068   0.600   6.804
 3048SOL     OW10042   4.043   3.555   1.311
 3048SOL    HW110043   4.073   3.629   1.371
 3048SOL    HW210044   4.055   3.467   1.357
 3049SOL     OW10045   1.111   0.391   4.367
 3049SOL    HW110046   1.066   0.432   4.287
 3049SOL    HW210047   1.067   0.424   4.451
 3050SOL     OW10048   3.007   2.368   1.389
 3050SOL    HW110049   3.063   2.329   1.316
 3050SOL    HW210050   2.911   2.345   1.373
 3051SOL     OW10051   2.695   6.725   4.617
 3051SOL    HW110052   2.762   6.784   4.662
 3051SOL    HW210053   2.741   6.645   4.579
 3052SOL     OW10054   5.755   6.290   2.554
 3052SOL    HW110055   5.706   6.374   2.579
 3052SOL    HW210056   5.809   6.307   2.472
 3053SOL     OW10057   1.726   3.938   0.511
 3053SOL    HW110058   1.670   3.958   0.592
 3053SOL    HW210059   1.788   3.862   0.532
 3054SOL     OW10060   5.593   1.786   3.002
 3054SOL    HW110061   5.641   1.741   3.077
 3054SOL    HW210062   5.651   1.788   2.921
 3055SOL     OW10063   6.232   6.047   6.434
 3055SOL    HW110064   6.201   5.952   6.434
 3055SOL    HW210065   6.224   6.085   6.526
 3056SOL     OW10066   4.872   1.581   6.093
 3056SOL    HW110067   4.869   1.482   6.107
 3056SOL    HW210068   4.963   1.608   6.062
 3057SOL     OW10069   6.182   5.508   3.228
 3057SOL    HW110070   6.088   5.542   3.232
 3057SOL    HW210071   6.232   5.537   3.310
 3058SOL     OW10072   6.157   4.173   0.244
 3058SOL    HW110073   6.092   4.118   0.297
 3058SOL    HW210074   6.241   4.120   0.230
 3059SOL     OW10075   2.342   2.620   4.630
 3059SOL    HW110076   2.340   2.664   4.540
 3059SOL    HW210077   2.285   2.538   4.628
 3060SOL     OW10078   4.125   5.241   5.462
 3060SOL    HW110079   4.075   5.159   5.435
 3060SOL    HW210080   4.218   5.237   5.426
 3061SOL     OW10081   4.990   4.782   5.320
 3061SOL    HW110082   5.065   4.833   5.279
 3061SOL    HW210083   4.923   4.759   5.250
 3062SOL     OW10084   4.537   4.458   1.724
 3062SOL    HW110085   4.514   4.379   1.782
 3062SOL    HW210086   4.547   4.539   1.782
 3063SOL     OW10087   6.938   4.145   1.323
 3063SOL    HW110088   6.917   4.058   1.369
 3063SOL    HW210089   6.985   4.205   1.387
 3064SOL     OW10090   3.805   2.110   6.892
 3064SOL    HW110091   3.797   2.208   6.910
 3064SOL    HW210092   3.872   2.070   6.954
 3065SOL     OW10093   1.003   0.624   0.360
 3065SOL    HW110094   0.980   0.712   0.317
 3065SOL    HW210095   0.978   0.549   0.299
 3066SOL     OW10096   4.883   5.906   6.042
 3066SOL    HW110097   4.941   5.864   6.111
 3066SOL    HW210098   4.800   5.851   6.030
 3067SOL     OW10099   2.906   1.951   0.064
 3067SOL    HW110100   2.878   2.042   0.094
 3067SOL    HW210101   2.886   1.940   6.988
 3068SOL     OW10102   0.402   0.900   0.734
 3068SOL    HW110103   0.339   0.857   0.799
 3068SOL    HW210104   0.496   0.876   0.757
 3069SOL     OW10105   5.134   6.868   2.738
 3069SOL    HW110106   5.214   6.858   2.680
 3069SOL    HW210107   5.115   6.966   2.751
 3070SOL     OW10108   2.963   1.532   1.042
 3070SOL    HW110109   3.016   1.577   1.114
 3070SOL    HW210110   2.883   1.489   1.083
 3071SOL     OW10111   0.296   2.991   3.455
 3071SOL    HW110112   0.276   3.006   3.551
 3071SOL    HW210113   0.394   2.975   3.443
 3072SOL     OW10114   2.128   6.708   6.618
 3072SOL    HW110115   2.068   6.686   6.695
 3072SOL    HW210116   2.078   6.692   6.533
 3073SOL     OW10117   5.878   4.772   0.897
 3073SOL    HW110118   5.849   4.866   0.914
 3073SOL    HW210119   5.887   4.757   0.798
 3074SOL     OW10120   1.276   3.661   1.137
 3074SOL    HW110121   1.307   3.587   1.077
 3074SOL    HW210122   1.337   3.739   1.127
 3075SOL     OW10123   2.286   5.147   3.337
 3075SOL    HW110124   2.229   5.187   3.409
 3075SOL    HW210125   2.359   5.093   3.379
 3076SOL     OW10126   0.092   1.148   4.768
 3076SOL    HW110127   0.062   1.147   4.863
 3076SOL    HW210128   0.012   1.137   4.708
 3077SOL     OW10129   6.664   3.898   1.253
 3077SOL    HW110130   6.733   3.956   1.210
 3077SOL    HW210131   6.674   3.903   1.352
 3078SOL     OW10132   6.394   2.834   1.656
 3078SOL    HW110133   6.447   2.917   1.672
 3078SOL    HW210134   6.385   2.819   1.558
 3079SOL     OW10135   2.031   2.861   5.179
 3079SOL    HW110136   2.075   2.822   5.259
 3079SOL    HW210137   2.071   2.951   5.160
 3080SOL     OW10138   4.641   4.929   0.928
 3080SOL    HW110139   4.729   4.887   0.904
 3080SOL    HW210140   4.570   4.859   0.931
 3081SOL     OW10141   1.338   4.043   0.762
 3081SOL    HW110142   1.330   4.129   0.812
 3081SOL    HW210143   1.257   4.030   0.705
 3082SOL     OW10144   3.743   4.989   4.449
 3082SOL    HW110145   3.840   4.990   4.427
 3082SOL    HW210146   3.728   5.036   4.536
 3083SOL     OW10147   2.217   5.727   2.791
 3083SOL    HW110148   2.243   5.760   2.700
 3083SOL    HW210149   2.193   5.805   2.849
 3084SOL     OW10150   1.025   3.768   3.365
 3084SOL    HW110151   1.073   3.814   3.440
 3084SOL    HW210152   1.091   3.742   3.295
 3085SOL     OW10153   4.574   4.747   0.663
 3085SOL    HW110154   4.577   4.845   0.680
 3085SOL    HW210155   4.668   4.711   0.658
 3086SOL     OW10156   6.673   1.180   6.291
 3086SOL    HW110157   6.620   1.258   6.259
 3086SOL    HW210158   6.612   1.116   6.339
 3087SOL     OW10159   3.055   6.774   1.954
 3087SOL    HW110160   2.990   6.795   2.027
 3087SOL    HW210161   3.054   6.849   1.887
 3088SOL     OW10162   0.566   2.905   5.411
 3088SOL    HW110163   0.512   2.855   5.478
 3088SOL    HW210164   0.662   2.906   5.439
 3089SOL     OW10165   5.024   6.984   5.277
 3089SOL    HW110166   5.094   0.018   5.231
 3089SOL    HW210167   5.010   7.019   5.370
 3090SOL     OW10168   0.855   1.984   1.624
 3090SOL    HW110169   0.952   1.972   1.606
 3090SOL    HW210170   0.802   1.923   1.564
 3091SOL     OW10171   1.351   1.724   0.936
 3091SOL    HW110172   1.265   1.770   0.954
 3091SOL    HW210173   1.422   1.791   0.914
 3092SOL     OW10174   6.276   6.886   2.436
 3092SOL    HW110175   6.324   6.973   2.424
 3092SOL    HW210176   6.305   6.822   2.365
 3093SOL     OW10177   5.508   5.131   5.881
 3093SOL    HW110178   5.501   5.226   5.852
 3093SOL    HW210179   5.553   5.127   5.971
 3094SOL     OW10180   2.660   1.100   5.751
 3094SOL    HW110181   2.654   1.003   5.726
 3094SOL    HW210182   2.664   1.155   5.668
 3095SOL     OW10183   2.163   3.106   5.051
 3095SOL    HW110184   2.248   3.054   5.042
 3095SOL    HW210185   2.119   3.113   4.961
 3096SOL     OW10186   0.723   3.160   4.853
 3096SOL    HW110187   0.744   3.256   4.867
 3096SOL    HW210188   0.807   3.106   4.853
 3097SOL     OW10189   5.374   2.398   6.390
 3097SOL    HW110190   5.448   2.464   6.400
 3097SOL    HW210191   5.289   2.447   6.370
 3098SOL     OW10192   1.802   1.648   2.009
 3098SOL    HW110193   1.823   1.745   2.003
 3098SOL    HW210194   1.884   1.598   2.041
 3099SOL     OW10195   0.766   6.649   3.863
 3099SOL    HW110196   0.723   6.703   3.791
 3099SOL    HW210197   0.840   6.594   3.824
 3100SOL     OW10198   6.393   6.069   2.763
 3100SOL    HW110199   6.353   6.159   2.748
 3100SOL    HW210200   6.371   6.037   2.855
 3101SOL     OW10201   4.154   6.712   5.974
 3101SOL    HW110202   4.254   6.713   5.984
 3101SOL    HW210203   4.129   6.654   5.896
 3102SOL     OW10204   0.270   4.932   0.449
 3102SOL    HW110205   0.212   4.910   0.527
 3102SOL    HW210206   0.220   4.989   0.384
 3103SOL     OW10207   3.108   0.271   1.151
 3103SOL    HW110208   3.044   0.340   1.185
 3103SOL    HW210209   3.132   0.209   1.226
 3104SOL     OW10210   4.777   0.719   5.821
 3104SOL    HW110211   4.683   0.686   5.811
 3104SOL    HW210212   4.840   0.641   5.823
 3105SOL     OW10213   5.269   3.071   0.183
 3105SOL    HW110214   5.247   2.987   0.133
 3105SOL    HW210215   5.221   3.148   0.142
 3106SOL     OW10216   5.707   0.976   4.550
 3106SOL    HW110217   5.663   0.954   4.637
 3106SOL    HW210218   5.668   0.918   4.478
 3107SOL     OW10219   4.064   1.299   4.977
 3107SOL    HW110220   4.138   1.234   4.965
 3107SOL    HW210221   4.084   1.359   5.055
 3108SOL     OW10222   2.175   4.211   4.416
 3108SOL    HW110223   2.210   4.219   4.509
 3108SOL    HW210224   2.170   4.115   4.389
 3109SOL     OW10225   6.711   6.717   3.995
 3109SOL    HW110226   6.639   6.651   3.974
 3109SOL    HW210227   6.799   6.670   4.004
 3110SOL     OW10228   2.146   4.689   3.967
 3110SOL    HW110229   2.073   4.631   4.001
 3110SOL    HW210230   2.136   4.700   3.868
 3111SOL     OW10231   6.636   4.270   5.026
 3111SOL    HW110232   6.631   4.323   5.111
 3111SOL    HW210233   6.667   4.329   4.952
 3112SOL     OW10234   3.574   2.306   0.050
 3112SOL    HW110235   3.523   2.306   6.985
 3112SOL    HW210236   3.672   2.311   0.031
 3113SOL     OW10237   2.195   5.470   3.300
 3113SOL    HW110238   2.287   5.433   3.286
 3113SOL    HW210239   2.180   5.547   3.238
 3114SOL     OW10240   3.919   1.493   0.351
 3114SOL    HW110241   3.889   1.421   0.413
 3114SOL    HW210242   3.967   1.451   0.273
 3115SOL     OW10243   4.001   4.712   5.761
 3115SOL    HW110244   4.058   4.775   5.815
 3115SOL    HW210245   3.959   4.645   5.822
 3116SOL     OW10246   0.320   2.458   0.616
 3116SOL    HW110247   0.274   2.454   0.705
 3116SOL    HW210248   0.373   2.374   0.603
 3117SOL     OW10249   4.868   2.029   5.500
 3117SOL    HW110250   4.914   1.961   5.442
 3117SOL    HW210251   4.933   2.063   5.568
 3118SOL     OW10252   1.620   1.092   2.581
 3118SOL    HW110253   1.580   1.172   2.627
 3118SOL    HW210254   1.548   1.041   2.535
 3119SOL     OW10255   4.095   3.605   5.767
 3119SOL    HW110256   4.131   3.685   5.720
 3119SOL    HW210257   4.140   3.595   5.856
 3120SOL     OW10258   2.735   6.594   5.461
 3120SOL    HW110259   2.645   6.627   5.487
 3120SOL    HW210260   2.768   6.644   5.381
 3121SOL     OW10261   4.891   1.548   4.388
 3121SOL    HW110262   4.938   1.548   4.476
 3121SOL    HW210263   4.799   1.586   4.399
 3122SOL     OW10264   4.245   4.819   4.403
 3122SOL    HW110265   4.310   4.879   4.356
 3122SOL    HW210266   4.272   4.809   4.499
 3123SOL     OW10267   2.833   2.125   3.223
 3123SOL    HW110268   2.911   2.064   3.206
 3123SOL    HW210269   2.828   2.193   3.150
 3124SOL     OW10270   4.937   6.408   4.420
 3124SOL    HW110271   4.837   6.412   4.418
 3124SOL    HW210272   4.974   6.454   4.339
 3125SOL     OW10273   1.552   2.860   5.187
 3125SOL    HW110274   1.483   2.842   5.117
 3125SOL    HW210275   1.536   2.950   5.228
 3126SOL     OW10276   5.523   5.346   4.287
 3126SOL    HW110277   5.518   5.247   4.279
 3126SOL    HW210278   5.537   5.387   4.197
 3127SOL     OW10279   0.565   1.879   4.649
 3127SOL    HW110280   0.520   1.968   4.648
 3127SOL    HW210281   0.604   1.862   4.740
 3128SOL     OW10282   4.302   0.125   0.331
 3128SOL    HW110283   4.384   0.112   0.276
 3128SOL    HW210284   4.223   0.136   0.271
 3129SOL     OW10285   4.794   3.359   1.137
 3129SOL    HW110286   4.752   3.270   1.123
 3129SOL    HW210287   4.825   3.367   1.232
 3130SOL     OW10288   1.678   4.030   1.208
 3130SOL    HW110289   1.693   4.068   1.299
 3130SOL    HW210290   1.643   3.937   1.216
 3131SOL     OW10291   6.685   3.867   1.935
 3131SOL    HW110292   6.594   3.887   1.969
 3131SOL    HW210293   6.740   3.951   1.934
 3132SOL     OW10294   3.963   3.802   0.222
 3132SOL    HW110295   3.968   3.808   0.122
 3132SOL    HW210296   4.025   3.870   0.263
 3133SOL     OW10297   4.254   0.269   3.265
 3133SOL    HW110298   4.327   0.337   3.269
 3133SOL    HW210299   4.199   0.285   3.183
 3134SOL     OW10300   3.448   5.304   2.192
 3134SOL    HW110301   3.490   5.302   2.101
 3134SOL    HW210302   3.442   5.211   2.228
 3135SOL     OW10303   5.691   6.746   6.031
 3135SOL    HW110304   5.601   6.763   6.071
 3135SOL    HW210305   5.697   6.789   5.941
 3136SOL     OW10306   6.354   1.535   2.709
 3136SOL    HW110307   6.263   1.496   2.725
 3136SOL    HW210308   6.423   1.478   2.753
 3137SOL     OW10309   6.610   6.865   0.497
 3137SOL    HW110310   6.625   6.936   0.565
 3137SOL    HW210311   6.553   6.902   0.423
 3138SOL     OW10312   5.508   5.071   4.282
 3138SOL    HW110313   5.478   5.031   4.368
 3138SOL    HW210314   5.429   5.109   4.234
 3139SOL     OW10315   2.158   5.519   1.309
 3139SOL    HW110316   2.158   5.615   1.281
 3139SOL    HW210317   2.135   5.513   1.406
 3140SOL     OW10318   6.709   6.337   5.500
 3140SOL    HW110319   6.648   6.349   5.579
 3140SOL    HW210320   6.657   6.298   5.424
 3141SOL     OW10321   6.949   3.067   6.556
 3141SOL    HW110322   6.865   3.050   6.504
 3141SOL    HW210323   6.947   3.016   6.641
 3142SOL     OW10324   5.367   0.880   2.328
 3142SOL    HW110325   5.286   0.883   2.387
 3142SOL    HW210326   5.338   0.885   2.232
 3143SOL     OW10327   5.847   1.553   6.828
 3143SOL    HW110328   5.800   1.640   6.809
 3143SOL    HW210329   5.938   1.555   6.788
 3144SOL     OW10330   4.296   3.823   6.476
 3144SOL    HW110331   4.216   3.855   6.526
 3144SOL    HW210332   4.376   3.877   6.503
 3145SOL     OW10333   2.437   5.915   1.846
 3145SOL    HW110334   2.460   5.833   1.899
 3145SOL    HW210335   2.499   5.990   1.872
 3146SOL     OW10336   0.390   1.025   5.409
 3146SOL    HW110337   0.402   0.974   5.494
 3146SOL    HW210338   0.473   1.017   5.354
 3147SOL     OW10339   3.733   4.662   6.403
 3147SOL    HW110340   3.733   4.754   6.363
 3147SOL    HW210341   3.666   4.606   6.355
 3148SOL     OW10342   0.771   6.203   2.698
 3148SOL    HW110343   0.675   6.230   2.707
 3148SOL    HW210344   0.823   6.239   2.775
 3149SOL     OW10345   3.212   1.305   1.023
 3149SOL    HW110346   3.219   1.387   1.080
 3149SOL    HW210347   3.173   1.330   0.934
 3150SOL     OW10348   6.331   6.563   5.238
 3150SOL    HW110349   6.306   6.472   5.271
 3150SOL    HW210350   6.352   6.622   5.316
 3151SOL     OW10351   6.100   2.073   5.998
 3151SOL    HW110352   6.142   1.991   5.959
 3151SOL    HW210353   6.001   2.070   5.984
 3152SOL     OW10354   1.544   3.961   6.560
 3152SOL    HW110355   1.594   3.875   6.563
 3152SOL    HW210356   1.527   3.993   6.654
 3153SOL     OW10357   6.790   5.175   0.676
 3153SOL    HW110358   6.700   5.198   0.714
 3153SOL    HW210359   6.861   5.202   0.741
 3154SOL     OW10360   5.617   1.628   1.826
 3154SOL    HW110361   5.710   1.592   1.830
 3154SOL    HW210362   5.552   1.560   1.859
 3155SOL     OW10363   6.665   4.741   0.160
 3155SOL    HW110364   6.680   4.642   0.154
 3155SOL    HW210365   6.606   4.771   0.086
 3156SOL     OW10366   3.605   4.139   2.043
 3156SOL    HW110367   3.629   4.042   2.047
 3156SOL    HW210368   3.664   4.190   2.106
 3157SOL     OW10369   1.017   1.934   5.394
 3157SOL    HW110370   1.082   1.964   5.464
 3157SOL    HW210371   1.055   1.954   5.303
 3158SOL     OW10372   2.700   1.888   5.584
 3158SOL    HW110373   2.729   1.962   5.523
 3158SOL    HW210374   2.746   1.897   5.672
 3159SOL     OW10375   4.708   0.033   0.309
 3159SOL    HW110376   4.800   0.005   0.335
 3159SOL    HW210377   4.711   0.080   0.221
 3160SOL     OW10378   2.690   6.856   6.230
 3160SOL    HW110379   2.787   6.869   6.209
 3160SOL    HW210380   2.635   6.923   6.180
 3161SOL     OW10381   1.842   2.883   3.136
 3161SOL    HW110382   1.795   2.847   3.216
 3161SOL    HW210383   1.872   2.807   3.078
 3162SOL     OW10384   1.971   5.322   0.560
 3162SOL    HW110385   1.975   5.297   0.464
 3162SOL    HW210386   2.046   5.384   0.582
 3163SOL     OW10387   4.140   3.859   0.488
 3163SOL    HW110388   4.209   3.862   0.561
 3163SOL    HW210389   4.071   3.790   0.510
 3164SOL     OW10390   3.211   5.725   3.553
 3164SOL    HW110391   3.235   5.697   3.646
 3164SOL    HW210392   3.116   5.755   3.551
 3165SOL     OW10393   0.792   5.126   0.398
 3165SOL    HW110394   0.694   5.128   0.377
 3165SOL    HW210395   0.812   5.051   0.460
 3166SOL     OW10396   4.215   0.950   4.947
 3166SOL    HW110397   4.266   1.036   4.950
 3166SOL    HW210398   4.164   0.939   5.032
 3167SOL     OW10399   4.696   4.105   0.736
 3167SOL    HW110400   4.671   4.122   0.831
 3167SOL    HW210401   4.618   4.124   0.677
 3168SOL     OW10402   4.589   2.519   0.498
 3168SOL    HW110403   4.599   2.438   0.556
 3168SOL    HW210404   4.521   2.580   0.538
 3169SOL     OW10405   1.580   4.566   2.410
 3169SOL    HW110406   1.498   4.579   2.354
 3169SOL    HW210407   1.609   4.471   2.405
 3170SOL     OW10408   3.706   5.705   3.060
 3170SOL    HW110409   3.622   5.712   3.007
 3170SOL    HW210410   3.692   5.644   3.138
 3171SOL     OW10411   5.610   2.876   3.187
 3171SOL    HW110412   5.557   2.792   3.189
 3171SOL    HW210413   5.672   2.880   3.266
 3172SOL     OW10414   6.953   4.703   0.503
 3172SOL    HW110415   6.941   4.675   0.408
 3172SOL    HW210416   6.885   4.772   0.526
 3173SOL     OW10417   3.098   1.523   0.162
 3173SOL    HW110418   3.062   1.531   0.255
 3173SOL    HW210419   3.186   1.475   0.164
 3174SOL     OW10420   2.672   3.177   5.763
 3174SOL    HW110421   2.699   3.181   5.859
 3174SOL    HW210422   2.687   3.266   5.720
 3175SOL     OW10423   6.299   1.418   3.656
 3175SOL    HW110424   6.290   1.436   3.754
 3175SOL    HW210425   6.231   1.473   3.607
 3176SOL     OW10426   0.342   4.340   4.949
 3176SOL    HW110427   0.412   4.269   4.946
 3176SOL    HW210428   0.337   4.386   4.861
 3177SOL     OW10429   5.959   3.868   3.249
 3177SOL    HW110430   5.977   3.774   3.220
 3177SOL    HW210431   5.863   3.877   3.276
 3178SOL     OW10432   5.778   1.366   7.015
 3178SOL    HW110433   5.681   1.359   6.995
 3178SOL    HW210434   5.816   1.448   6.971
 3179SOL     OW10435   0.656   2.067   2.070
 3179SOL    HW110436   0.606   2.153   2.081
 3179SOL    HW210437   0.592   1.990   2.079
 3180SOL     OW10438   6.191   6.100   6.135
 3180SOL    HW110439   6.170   6.006   6.107
 3180SOL    HW210440   6.252   6.099   6.214
 3181SOL     OW10441   0.671   1.321   4.409
 3181SOL    HW110442   0.769   1.339   4.402
 3181SOL    HW210443   0.657   1.226   4.438
 3182SOL     OW10444   3.399   0.355   0.414
 3182SOL    HW110445   3.352   0.283   0.363
 3182SOL    HW210446   3.360   0.360   0.507
 3183SOL     OW10447   4.594   4.369   2.303
 3183SOL    HW110448   4.590   4.331   2.395
 3183SOL    HW210449   4.616   4.297   2.238
 3184SOL     OW10450   0.596   2.217   3.823
 3184SOL    HW110451   0.586   2.124   3.859
 3184SOL    HW210452   0.520   2.274   3.857
 3185SOL     OW10453   6.902   6.987   5.611
 3185SOL    HW110454   6.912   6.888   5.626
 3185SOL    HW210455   6.942   7.011   5.523
 3186SOL     OW10456   1.401   1.114   0.167
 3186SOL    HW110457   1.486   1.151   0.205
 3186SOL    HW210458   1.420   1.028   0.119
 3187SOL     OW10459   3.770   5.628   2.430
 3187SOL    HW110460   3.847   5.691   2.438
 3187SOL    HW210461   3.696   5.656   2.491
 3188SOL     OW10462   2.321   4.815   5.092
 3188SOL    HW110463   2.417   4.814   5.062
 3188SOL    HW210464   2.313   4.767   5.179
 3189SOL     OW10465   2.233   1.186   0.279
 3189SOL    HW110466   2.168   1.214   0.208
 3189SOL    HW210467   2.322   1.229   0.260
 3190SOL     OW10468   6.435   5.959   4.759
 3190SOL    HW110469   6.418   5.898   4.681
 3190SOL    HW210470   6.347   5.994   4.793
 3191SOL     OW10471   4.380   5.477   2.223
 3191SOL    HW110472   4.372   5.377   2.226
 3191SOL    HW210473   4.436   5.503   2.144
 3192SOL     OW10474   6.511   2.525   1.419
 3192SOL    HW110475   6.606   2.555   1.422
 3192SOL    HW210476   6.508   2.426   1.402
 3193SOL     OW10477   4.547   1.293   4.832
 3193SOL    HW110478   4.483   1.335   4.767
 3193SOL    HW210479   4.620   1.247   4.782
 3194SOL     OW10480   1.046   1.194   5.605
 3194SOL    HW110481   1.095   1.108   5.595
 3194SOL    HW210482   1.045   1.243   5.518
 3195SOL     OW10483   0.254   1.109   1.869
 3195SOL    HW110484   0.187   1.183   1.872
 3195SOL    HW210485   0.339   1.143   1.828
 3196SOL     OW10486   6.525   0.737   5.091
 3196SOL    HW110487   6.611   0.741   5.143
 3196SOL    HW210488   6.485   0.829   5.087
 3197SOL     OW10489   2.117   6.831   6.166
 3197SOL    HW110490   2.197   6.875   6.206
 3197SOL    HW210491   2.147   6.753   6.111
 3198SOL     OW10492   6.693   2.235   4.171
 3198SOL    HW110493   6.609   2.242   4.118
 3198SOL    HW210494   6.677   2.182   4.254
 3199SOL     OW10495   5.458   4.812   2.623
 3199SOL    HW110496   5.371   4.857   2.603
 3199SOL    HW210497   5.442   4.734   2.684
 3200SOL     OW10498   6.089   2.930   4.029
 3200SOL    HW110499   5.997   2.897   4.006
 3200SOL    HW210500   6.109   3.011   3.973
 3201SOL     OW10501   6.096   4.608   2.807
 3201SOL    HW110502   6.018   4.559   2.845
 3201SOL    HW210503   6.078   4.630   2.711
 3202SOL     OW10504   1.201   5.103   0.556
 3202SOL    HW110505   1.264   5.083   0.631
 3202SOL    HW210506   1.253   5.126   0.474
 3203SOL     OW10507   4.292   0.035   1.343
 3203SOL    HW110508   4.233   0.053   1.421
 3203SOL    HW210509   4.242   7.001   1.275
 3204SOL     OW10510   2.675   1.410   3.587
 3204SOL    HW110511   2.719   1.460   3.661
 3204SOL    HW210512   2.684   1.312   3.602
 3205SOL     OW10513   5.748   3.594   5.967
 3205SOL    HW110514   5.803   3.511   5.975
 3205SOL    HW210515   5.653   3.569   5.950
 3206SOL     OW10516   2.647   2.861   1.722
 3206SOL    HW110517   2.731   2.807   1.732
 3206SOL    HW210518   2.577   2.827   1.785
 3207SOL     OW10519   0.620   1.093   6.060
 3207SOL    HW110520   0.638   1.006   6.106
 3207SOL    HW210521   0.523   1.100   6.039
 3208SOL     OW10522   6.170   5.883   5.210
 3208SOL    HW110523   6.135   5.796   5.176
 3208SOL    HW210524   6.234   5.921   5.144
 3209SOL     OW10525   4.464   5.241   5.822
 3209SOL    HW110526   4.368   5.252   5.798
 3209SOL    HW210527   4.517   5.214   5.742
 3210SOL     OW10528   0.602   5.319   1.452
 3210SOL    HW110529   0.535   5.393   1.449
 3210SOL    HW210530   0.556   5.231   1.442
 3211SOL     OW10531   1.497   5.229   0.664
 3211SOL    HW110532   1.455   5.318   0.648
 3211SOL    HW210533   1.577   5.240   0.722
 3212SOL     OW10534   3.250   0.266   2.471
 3212SOL    HW110535   3.165   0.221   2.444
 3212SOL    HW210536   3.262   0.261   2.570
 3213SOL     OW10537   1.987   0.444   6.307
 3213SOL    HW110538   2.042   0.361   6.291
 3213SOL    HW210539   1.937   0.434   6.392
 3214SOL     OW10540   4.130   6.945   3.438
 3214SOL    HW110541   4.037   6.932   3.403
 3214SOL    HW210542   4.145   0.021   3.458
 3215SOL     OW10543   1.255   3.391   0.546
 3215SOL    HW110544   1.261   3.325   0.471
 3215SOL    HW210545   1.347   3.411   0.580
 3216SOL     OW10546   5.108   4.641   1.349
 3216SOL    HW110547   5.134   4.628   1.254
 3216SOL    HW210548   5.153   4.722   1.386
 3217SOL     OW10549   0.117   5.281   2.814
 3217SOL    HW110550   0.020   5.305   2.814
 3217SOL    HW210551   0.171   5.357   2.778
 3218SOL     OW10552   6.289   2.306   3.242
 3218SOL    HW110553   6.281   2.342   3.335
 3218SOL    HW210554   6.386   2.289   3.222
 3219SOL     OW10555   6.719   0.809   4.808
 3219SOL    HW110556   6.625   0.786   4.782
 3219SOL    HW210557   6.749   0.888   4.755
 3220SOL     OW10558   0.368   6.078   6.282
 3220SOL    HW110559   0.378   5.979   6.275
 3220SOL    HW210560   0.457   6.122   6.270
 3221SOL     OW10561   4.075   0.431   2.375
 3221SOL    HW110562   3.982   0.394   2.377
 3221SOL    HW210563   4.072   0.527   2.349
 3222SOL     OW10564   3.124   1.372   3.301
 3222SOL    HW110565   3.183   1.448   3.330
 3222SOL    HW210566   3.154   1.341   3.211
 3223SOL     OW10567   1.648   6.681   0.559
 3223SOL    HW110568   1.728   6.635   0.522
 3223SOL    HW210569   1.674   6.772   0.593
 3224SOL     OW10570   4.800   3.078   4.643
 3224SOL    HW110571   4.810   3.163   4.591
 3224SOL    HW210572   4.741   3.095   4.722
 3225SOL     OW10573   4.371   1.198   3.950
 3225SOL    HW110574   4.282   1.167   3.984
 3225SOL    HW210575   4.357   1.270   3.882
 3226SOL     OW10576   1.401   6.939   2.040
 3226SOL    HW110577   1.340   7.006   1.997
 3226SOL    HW210578   1.407   6.858   1.982
 3227SOL     OW10579   3.720   2.611   6.385
 3227SOL    HW110580   3.729   2.523   6.433
 3227SOL    HW210581   3.635   2.655   6.412
 3228SOL     OW10582   0.424   4.124   0.805
 3228SOL    HW110583   0.498   4.057   0.794
 3228SOL    HW210584   0.378   4.137   0.717
 3229SOL     OW10585   2.952   0.574   5.640
 3229SOL    HW110586   2.917   0.612   5.555
 3229SOL    HW210587   3.051   0.565   5.635
 3230SOL     OW10588   2.733   5.532   6.173
 3230SOL    HW110589   2.667   5.464   6.203
 3230SOL    HW210590   2.809   5.536   6.237
 3231SOL     OW10591   3.267   1.121   2.668
 3231SOL    HW110592   3.305   1.200   2.715
 3231SOL    HW210593   3.284   1.039   2.722
 3232SOL     OW10594   3.917   6.033   4.242
 3232SOL    HW110595   3.880   5.944   4.269
 3232SOL    HW210596   3.846   6.103   4.254
 3233SOL     OW10597   0.026   2.478   0.089
 3233SOL    HW110598   0.055   2.493   0.183
 3233SOL    HW210599   0.019   2.566   0.042
 3234SOL     OW10600   1.609   3.033   0.143
 3234SOL    HW110601   1.613   3.116   0.198
 3234SOL    HW210602   1.626   3.056   0.047
 3235SOL     OW10603   5.994   5.663   2.193
 3235SOL    HW110604   6.031   5.582   2.239
 3235SOL    HW210605   5.980   5.736   2.261
 3236SOL     OW10606   2.716   3.618   0.368
 3236SOL    HW110607   2.806   3.599   0.329
 3236SOL    HW210608   2.706   3.716   0.384
 3237SOL     OW10609   6.409   1.568   4.364
 3237SOL    HW110610   6.382   1.527   4.451
 3237SOL    HW210611   6.503   1.542   4.343
 3238SOL     OW10612   6.093   5.390   0.495
 3238SOL    HW110613   6.144   5.419   0.415
 3238SOL    HW210614   6.134   5.429   0.578
 3239SOL     OW10615   0.054   0.039   3.444
 3239SOL    HW110616   0.133   0.045   3.382
 3239SOL    HW210617   0.081   0.067   3.536
 3240SOL     OW10618   0.023   0.754   6.252
 3240SOL    HW110619   0.078   0.677   6.285
 3240SOL    HW210620   6.953   0.749   6.293
 3241SOL     OW10621   4.996   1.750   6.664
 3241SOL    HW110622   5.060   1.770   6.590
 3241SOL    HW210623   4.917   1.700   6.628
 3242SOL     OW10624   5.208   4.132   5.617
 3242SOL    HW110625   5.282   4.195   5.593
 3242SOL    HW210626   5.239   4.038   5.606
 3243SOL     OW10627   3.917   5.561   6.503
 3243SOL    HW110628   3.915   5.514   6.591
 3243SOL    HW210629   3.850   5.519   6.441
 3244SOL     OW10630   5.907   6.339   0.146
 3244SOL    HW110631   5.823   6.384   0.117
 3244SOL    HW210632   5.943   6.284   0.070
 3245SOL     OW10633   4.695   2.206   4.196
 3245SOL    HW110634   4.698   2.270   4.119
 3245SOL    HW210635   4.693   2.257   4.281
 3246SOL     OW10636   0.026   6.994   2.307
 3246SOL    HW110637   0.070   0.015   2.227
 3246SOL    HW210638   0.081   7.012   2.389
 3247SOL     OW10639   0.190   4.371   2.694
 3247SOL    HW110640   0.103   4.418   2.708
 3247SOL    HW210641   0.214   4.372   2.597
 3248SOL     OW10642   5.690   2.724   2.931
 3248SOL    HW110643   5.608   2.668   2.938
 3248SOL    HW210644   5.664   2.821   2.926
 3249SOL     OW10645   3.998   3.077   3.293
 3249SOL    HW110646   3.951   2.991   3.310
 3249SOL    HW210647   4.035   3.112   3.378
 3250SOL     OW10648   5.003   6.463   3.366
 3250SOL    HW110649   4.985   6.545   3.419
 3250SOL    HW210650   4.968   6.383   3.416
 3251SOL     OW10651   2.757   0.759   4.788
 3251SOL    HW110652   2.708   0.734   4.871
 3251SOL    HW210653   2.694   0.756   4.710
 3252SOL     OW10654   2.883   1.233   3.342
 3252SOL    HW110655   2.981   1.254   3.341
 3252SOL    HW210656   2.856   1.205   3.434
 3253SOL     OW10657   5.326   3.640   1.007
 3253SOL    HW110658   5.407   3.654   0.950
 3253SOL    HW210659   5.350   3.655   1.103
 3254SOL     OW10660   5.060   0.344   6.836
 3254SOL    HW110661   5.062   0.283   6.757
 3254SOL    HW210662   5.154   0.357   6.870
 3255SOL     OW10663   5.915   5.954   0.761
 3255SOL    HW110664   5.891   5.974   0.666
 3255SOL    HW210665   6.007   5.915   0.766
 3256SOL     OW10666   4.210   2.132   1.356
 3256SOL    HW110667   4.163   2.102   1.439
 3256SOL    HW210668   4.197   2.230   1.344
 3257SOL     OW10669   2.992   2.082   2.001
 3257SOL    HW110670   2.962   2.073   1.906
 3257SOL    HW210671   2.979   2.176   2.032
 3258SOL     OW10672   3.327   5.455   4.236
 3258SOL    HW110673   3.337   5.411   4.147
 3258SOL    HW210674   3.415   5.453   4.284
 3259SOL     OW10675   5.692   4.852   4.213
 3259SOL    HW110676   5.634   4.932   4.231
 3259SOL    HW210677   5.665   4.777   4.272
 3260SOL     OW10678   1.543   3.926   2.196
 3260SOL    HW110679   1.637   3.951   2.219
 3260SOL    HW210680   1.503   3.873   2.271
 3261SOL     OW10681   5.593   0.762   2.641
 3261SOL    HW110682   5.551   0.683   2.597
 3261SOL    HW210683   5.652   0.733   2.716
 3262SOL     OW10684   4.248   2.072   2.358
 3262SOL    HW110685   4.205   1.996   2.407
 3262SOL    HW210686   4.347   2.056   2.351
 3263SOL     OW10687   3.171   1.073   3.451
 3263SOL    HW110688   3.259   1.121   3.454
 3263SOL    HW210689   3.184   0.981   3.415
 3264SOL     OW10690   1.880   4.811   0.750
 3264SOL    HW110691   1.866   4.909   0.734
 3264SOL    HW210692   1.918   4.769   0.667
 3265SOL     OW10693   6.119   6.426   5.578
 3265SOL    HW110694   6.128   6.517   5.618
 3265SOL    HW210695   6.136   6.356   5.647
 3266SOL     OW10696   2.766   4.487   0.051
 3266SOL    HW110697   2.778   4.420   6.999
 3266SOL    HW210698   2.854   4.531   0.071
 3267SOL     OW10699   3.990   0.758   1.363
 3267SOL    HW110700   3.992   0.748   1.462
 3267SOL    HW210701   3.896   0.767   1.331
 3268SOL     OW10702   1.185   4.721   1.545
 3268SOL    HW110703   1.120   4.761   1.480
 3268SOL    HW210704   1.181   4.772   1.631
 3269SOL     OW10705   0.569   5.431   2.009
 3269SOL    HW110706   0.471   5.415   2.003
 3269SOL    HW210707   0.586   5.524   2.042
 3270SOL     OW10708   0.877   3.096   6.123
 3270SOL    HW110709   0.905   3.055   6.037
 3270SOL    HW210710   0.951   3.091   6.190
 3271SOL     OW10711   6.479   3.426   1.656
 3271SOL    HW110712   6.447   3.518   1.677
 3271SOL    HW210713   6.512   3.422   1.562
 3272SOL     OW10714   3.884   5.351   7.012
 3272SOL    HW110715   3.928   5.426   0.041
 3272SOL    HW210716   3.816   5.307   0.050
 3273SOL     OW10717   4.789   4.311   6.098
 3273SOL    HW110718   4.764   4.214   6.099
 3273SOL    HW210719   4.887   4.319   6.079
 3274SOL     OW10720   5.989   0.857   0.053
 3274SOL    HW110721   5.972   0.928   0.122
 3274SOL    HW210722   6.085   0.831   0.055
 3275SOL     OW10723   4.980   0.658   0.837
 3275SOL    HW110724   4.908   0.714   0.879
 3275SOL    HW210725   5.027   0.711   0.766
 3276SOL     OW10726   4.565   6.552   6.880
 3276SOL    HW110727   4.525   6.495   6.809
 3276SOL    HW210728   4.505   6.552   6.961
 3277SOL     OW10729   3.340   1.580   1.142
 3277SOL    HW110730   3.266   1.641   1.171
 3277SOL    HW210731   3.405   1.632   1.086
 3278SOL     OW10732   6.855   0.807   6.012
 3278SOL    HW110733   6.927   0.785   6.077
 3278SOL    HW210734   6.892   0.805   5.919
 3279SOL     OW10735   4.240   6.059   0.894
 3279SOL    HW110736   4.326   6.096   0.859
 3279SOL    HW210737   4.168   6.072   0.825
 3280SOL     OW10738   5.620   3.947   4.044
 3280SOL    HW110739   5.581   3.880   3.981
 3280SOL    HW210740   5.547   3.986   4.100
 3281SOL     OW10741   6.750   4.728   1.527
 3281SOL    HW110742   6.659   4.695   1.503
 3281SOL    HW210743   6.744   4.801   1.594
 3282SOL     OW10744   0.740   3.978   5.087
 3282SOL    HW110745   0.765   3.893   5.040
 3282SOL    HW210746   0.700   4.042   5.021
 3283SOL     OW10747   3.867   1.501   1.465
 3283SOL    HW110748   3.886   1.579   1.523
 3283SOL    HW210749   3.860   1.418   1.521
 3284SOL     OW10750   1.234   5.139   4.371
 3284SOL    HW110751   1.194   5.209   4.431
 3284SOL    HW210752   1.193   5.050   4.393
 3285SOL     OW10753   5.859   1.978   4.593
 3285SOL    HW110754   5.760   1.981   4.605
 3285SOL    HW210755   5.881   1.944   4.502
 3286SOL     OW10756   3.580   2.054   1.698
 3286SOL    HW110757   3.481   2.050   1.681
 3286SOL    HW210758   3.601   2.133   1.754
 3287SOL     OW10759   0.859   0.433   6.712
 3287SOL    HW110760   0.910   0.486   6.645
 3287SOL    HW210761   0.831   0.346   6.672
 3288SOL     OW10762   1.872   6.595   0.461
 3288SOL    HW110763   1.943   6.665   0.457
 3288SOL    HW210764   1.863   6.552   0.371
 3289SOL     OW10765   3.184   1.913   0.010
 3289SOL    HW110766   3.089   1.915   0.042
 3289SOL    HW210767   3.198   1.833   6.973
 3290SOL     OW10768   6.770   5.445   0.446
 3290SOL    HW110769   6.842   5.463   0.379
 3290SOL    HW210770   6.803   5.469   0.537
 3291SOL     OW10771   4.035   0.500   6.418
 3291SOL    HW110772   4.005   0.534   6.507
 3291SOL    HW210773   4.112   0.438   6.430
 3292SOL     OW10774   0.238   1.124   0.740
 3292SOL    HW110775   0.244   1.183   0.660
 3292SOL    HW210776   0.311   1.055   0.737
 3293SOL     OW10777   6.668   4.686   2.576
 3293SOL    HW110778   6.596   4.736   2.528
 3293SOL    HW210779   6.657   4.588   2.560
 3294SOL     OW10780   5.376   2.785   5.820
 3294SOL    HW110781   5.376   2.744   5.911
 3294SOL    HW210782   5.295   2.843   5.810
 3295SOL     OW10783   1.866   2.966   0.341
 3295SOL    HW110784   1.769   2.980   0.317
 3295SOL    HW210785   1.888   2.869   0.336
 3296SOL     OW10786   6.292   0.066   5.501
 3296SOL    HW110787   6.349   7.017   5.455
 3296SOL    HW210788   6.208   0.080   5.448
 3297SOL     OW10789   3.274   1.815   5.057
 3297SOL    HW110790   3.216   1.890   5.087
 3297SOL    HW210791   3.254   1.793   4.962
 3298SOL     OW10792   6.302   3.477   5.383
 3298SOL    HW110793   6.263   3.445   5.297
 3298SOL    HW210794   6.394   3.514   5.366
 3299SOL     OW10795   4.374   5.442   3.305
 3299SOL    HW110796   4.279   5.438   3.273
 3299SOL    HW210797   4.382   5.512   3.377
 3300SOL     OW10798   1.921   0.283   5.358
 3300SOL    HW110799   1.937   0.219   5.283
 3300SOL    HW210800   1.964   0.370   5.337
 3301SOL     OW10801   1.271   3.107   3.111
 3301SOL    HW110802   1.342   3.175   3.127
 3301SOL    HW210803   1.306   3.036   3.049
 3302SOL     OW10804   0.977   4.587   6.437
 3302SOL    HW110805   0.932   4.498   6.443
 3302SOL    HW210806   0.908   4.658   6.424
 3303SOL     OW10807   3.620   3.276   0.327
 3303SOL    HW110808   3.662   3.355   0.284
 3303SOL    HW210809   3.522   3.291   0.335
 3304SOL     OW10810   2.272   4.291   6.367
 3304SOL    HW110811   2.209   4.305   6.444
 3304SOL    HW210812   2.363   4.270   6.403
 3305SOL     OW10813   3.390   0.679   1.050
 3305SOL    HW110814   3.398   0.742   0.973
 3305SOL    HW210815   3.456   0.605   1.041
 3306SOL     OW10816   1.253   5.628   6.656
 3306SOL    HW110817   1.222   5.584   6.572
 3306SOL    HW210818   1.312   5.705   6.634
 3307SOL     OW10819   1.111   0.116   6.159
 3307SOL    HW110820   1.137   0.065   6.241
 3307SOL    HW210821   1.193   0.137   6.106
 3308SOL     OW10822   4.083   4.723   1.278
 3308SOL    HW110823   4.034   4.802   1.313
 3308SOL    HW210824   4.018   4.652   1.252
 3309SOL     OW10825   5.381   4.294   4.071
 3309SOL    HW110826   5.286   4.323   4.068
 3309SOL    HW210827   5.397   4.241   4.154
 3310SOL     OW10828   0.990   4.340   4.640
 3310SOL    HW110829   0.962   4.295   4.725
 3310SOL    HW210830   0.928   4.417   4.623
 3311SOL     OW10831   3.599   3.558   1.212
 3311SOL    HW110832   3.522   3.549   1.276
 3311SOL    HW210833   3.656   3.475   1.217
 3312SOL     OW10834   4.124   2.926   5.829
 3312SOL    HW110835   4.205   2.950   5.883
 3312SOL    HW210836   4.113   2.992   5.755
 3313SOL     OW10837   0.542   0.727   3.356
 3313SOL    HW110838   0.462   0.714   3.298
 3313SOL    HW210839   0.513   0.764   3.445
 3314SOL     OW10840   2.283   0.507   3.329
 3314SOL    HW110841   2.301   0.602   3.303
 3314SOL    HW210842   2.210   0.470   3.272
 3315SOL     OW10843   1.089   4.255   5.122
 3315SOL    HW110844   1.102   4.352   5.140
 3315SOL    HW210845   1.169   4.219   5.073
 3316SOL     OW10846   3.535   0.571   6.120
 3316SOL    HW110847   3.510   0.491   6.067
 3316SOL    HW210848   3.620   0.553   6.170
 3317SOL     OW10849   5.668   1.863   2.749
 3317SOL    HW110850   5.756   1.911   2.738
 3317SOL    HW210851   5.661   1.791   2.680
 3318SOL     OW10852   2.569   1.697   6.861
 3318SOL    HW110853   2.504   1.629   6.896
 3318SOL    HW210854   2.658   1.684   6.904
 3319SOL     OW10855   6.984   0.056   2.586
 3319SOL    HW110856   6.962   6.982   2.563
 3319SOL    HW210857   0.050   0.059   2.635
 3320SOL     OW10858   6.511   0.244   0.014
 3320SOL    HW110859   6.485   0.148   0.001
 3320SOL    HW210860   6.433   0.302   7.015
 3321SOL     OW10861   5.748   1.977   0.819
 3321SOL    HW110862   5.710   1.889   0.791
 3321SOL    HW210863   5.700   2.010   0.901
 3322SOL     OW10864   6.775   3.251   0.819
 3322SOL    HW110865   6.779   3.185   0.894
 3322SOL    HW210866   6.809   3.340   0.851
 3323SOL     OW10867   2.713   1.354   1.035
 3323SOL    HW110868   2.626   1.352   1.084
 3323SOL    HW210869   2.702   1.405   0.950
 3324SOL     OW10870   4.398   5.620   5.742
 3324SOL    HW110871   4.429   5.525   5.744
 3324SOL    HW210872   4.476   5.681   5.731
 3325SOL     OW10873   0.729   3.425   6.613
 3325SOL    HW110874   0.735   3.346   6.675
 3325SOL    HW210875   0.820   3.462   6.597
 3326SOL     OW10876   4.847   0.869   2.393
 3326SOL    HW110877   4.748   0.881   2.397
 3326SOL    HW210878   4.884   0.916   2.313
 3327SOL     OW10879   2.217   5.904   2.331
 3327SOL    HW110880   2.316   5.910   2.317
 3327SOL    HW210881   2.181   5.824   2.282
 3328SOL     OW10882   3.777   1.898   1.782
 3328SOL    HW110883   3.809   1.936   1.869
 3328SOL    HW210884   3.705   1.957   1.745
 3329SOL     OW10885   6.021   0.097   5.804
 3329SOL    HW110886   6.050   0.080   5.898
 3329SOL    HW210887   6.083   0.051   5.741
 3330SOL     OW10888   6.949   3.540   1.974
 3330SOL    HW110889   6.985   3.503   2.060
 3330SOL    HW210890   6.992   3.629   1.956
 3331SOL     OW10891   2.244   2.489   1.389
 3331SOL    HW110892   2.250   2.588   1.373
 3331SOL    HW210893   2.165   2.469   1.447
 3332SOL     OW10894   5.110   5.683   6.915
 3332SOL    HW110895   5.171   5.758   6.888
 3332SOL    HW210896   5.072   5.701   7.006
 3333SOL     OW10897   4.576   5.199   6.838
 3333SOL    HW110898   4.557   5.253   6.755
 3333SOL    HW210899   4.553   5.254   6.919
 3334SOL     OW10900   3.374   3.536   1.339
 3334SOL    HW110901   3.319   3.514   1.420
 3334SOL    HW210902   3.345   3.625   1.303
 3335SOL     OW10903   4.964   5.483   5.562
 3335SOL    HW110904   4.867   5.499   5.542
 3335SOL    HW210905   5.020   5.525   5.491
 3336SOL     OW10906   2.903   5.357   5.621
 3336SOL    HW110907   2.813   5.315   5.624
 3336SOL    HW210908   2.957   5.326   5.699
 3337SOL     OW10909   3.702   2.587   1.309
 3337SOL    HW110910   3.641   2.509   1.324
 3337SOL    HW210911   3.713   2.638   1.394
 3338SOL     OW10912   6.046   3.820   1.258
 3338SOL    HW110913   6.030   3.863   1.170
 3338SOL    HW210914   5.970   3.840   1.320
 3339SOL     OW10915   6.832   6.173   6.691
 3339SOL    HW110916   6.764   6.209   6.627
 3339SOL    HW210917   6.916   6.226   6.685
 3340SOL     OW10918   3.879   6.858   2.097
 3340SOL    HW110919   3.942   6.785   2.073
 3340SOL    HW210920   3.817   6.875   2.020
 3341SOL     OW10921   0.451   0.251   3.189
 3341SOL    HW110922   0.393   0.306   3.250
 3341SOL    HW210923   0.406   0.163   3.171
 3342SOL     OW10924   1.896   0.114   3.993
 3342SOL    HW110925   1.937   0.048   3.930
 3342SOL    HW210926   1.952   0.197   3.996
 3343SOL     OW10927   5.064   3.241   0.562
 3343SOL    HW110928   5.030   3.225   0.470
 3343SOL    HW210929   5.075   3.340   0.577
 3344SOL     OW10930   5.501   3.955   4.855
 3344SOL    HW110931   5.557   3.882   4.818
 3344SOL    HW210932   5.461   3.926   4.942
 3345SOL     OW10933   2.908   3.456   6.107
 3345SOL    HW110934   2.850   3.530   6.073
 3345SOL    HW210935   2.916   3.384   6.038
 3346SOL     OW10936   0.607   0.964   2.226
 3346SOL    HW110937   0.619   0.865   2.212
 3346SOL    HW210938   0.682   0.999   2.282
 3347SOL     OW10939   6.856   4.545   2.977
 3347SOL    HW110940   6.822   4.524   3.068
 3347SOL    HW210941   6.866   4.461   2.924
 3348SOL     OW10942   3.387   2.920   3.867
 3348SOL    HW110943   3.402   2.822   3.860
 3348SOL    HW210944   3.370   2.957   3.775
 3349SOL     OW10945   6.943   4.708   4.198
 3349SOL    HW110946   6.886   4.654   4.259
 3349SOL    HW210947   7.019   4.653   4.166
 3350SOL     OW10948   1.346   1.271   6.962
 3350SOL    HW110949   1.415   1.233   6.900
 3350SOL    HW210950   1.350   1.224   0.029
 3351SOL     OW10951   5.563   0.324   1.510
 3351SOL    HW110952   5.501   0.402   1.512
 3351SOL    HW210953   5.645   0.346   1.563
 3352SOL     OW10954   0.493   3.880   0.225
 3352SOL    HW110955   0.449   3.843   0.144
 3352SOL    HW210956   0.579   3.831   0.241
 3353SOL     OW10957   1.635   0.096   1.104
 3353SOL    HW110958   1.668   0.189   1.121
 3353SOL    HW210959   1.711   0.040   1.071
 3354SOL     OW10960   6.660   2.580   3.547
 3354SOL    HW110961   6.676   2.677   3.527
 3354SOL    HW210962   6.748   2.532   3.551
 3355SOL     OW10963   0.564   2.249   0.260
 3355SOL    HW110964   0.624   2.268   0.338
 3355SOL    HW210965   0.530   2.155   0.267
 3356SOL     OW10966   2.836   2.873   0.292
 3356SOL    HW110967   2.882   2.954   0.255
 3356SOL    HW210968   2.828   2.882   0.391
 3357SOL     OW10969   2.294   5.118   1.360
 3357SOL    HW110970   2.233   5.145   1.286
 3357SOL    HW210971   2.316   5.021   1.352
 3358SOL     OW10972   4.954   6.536   2.063
 3358SOL    HW110973   4.961   6.436   2.059
 3358SOL    HW210974   4.916   6.563   2.152
 3359SOL     OW10975   0.114   0.507   3.086
 3359SOL    HW110976   0.080   0.602   3.089
 3359SOL    HW210977   0.048   0.451   3.036
 3360SOL     OW10978   0.344   0.980   0.448
 3360SOL    HW110979   0.379   0.945   0.534
 3360SOL    HW210980   0.420   0.995   0.384
 3361SOL     OW10981   6.325   5.755   3.091
 3361SOL    HW110982   6.296   5.665   3.122
 3361SOL    HW210983   6.386   5.745   3.012
 3362SOL     OW10984   2.767   1.467   4.885
 3362SOL    HW110985   2.806   1.545   4.934
 3362SOL    HW210986   2.830   1.438   4.813
 3363SOL     OW10987   0.377   0.700   6.272
 3363SOL    HW110988   0.353   0.727   6.179
 3363SOL    HW210989   0.333   0.761   6.338
 3364SOL     OW10990   0.991   5.845   5.883
 3364SOL    HW110991   0.996   5.794   5.969
 3364SOL    HW210992   0.914   5.812   5.829
 3365SOL     OW10993   0.658   2.022   4.359
 3365SOL    HW110994   0.591   1.947   4.353
 3365SOL    HW210995   0.694   2.026   4.452
 3366SOL     OW10996   5.408   1.072   4.663
 3366SOL    HW110997   5.486   1.061   4.724
 3366SOL    HW210998   5.413   1.002   4.591
 3367SOL     OW10999   1.917   2.541   1.434
 3367SOL    HW111000   1.840   2.511   1.490
 3367SOL    HW211001   1.915   2.640   1.424
 3368SOL     OW11002   6.843   5.365   6.107
 3368SOL    HW111003   6.871   5.450   6.151
 3368SOL    HW211004   6.745   5.349   6.124
 3369SOL     OW11005   3.426   1.600   0.329
 3369SOL    HW111006   3.513   1.598   0.379
 3369SOL    HW211007   3.350   1.609   0.393
 3370SOL     OW11008   6.214   6.958   5.027
 3370SOL    HW111009   6.271   6.984   4.950
 3370SOL    HW211010   6.198   6.860   5.025
 3371SOL     OW11011   1.706   4.322   2.274
 3371SOL    HW111012   1.784   4.263   2.257
 3371SOL    HW211013   1.636   4.272   2.323
 3372SOL     OW11014   0.353   1.499   1.985
 3372SOL    HW111015   0.380   1.415   1.939
 3372SOL    HW211016   0.390   1.501   2.078
 3373SOL     OW11017   6.264   1.093   4.427
 3373SOL    HW111018   6.232   1.015   4.374
 3373SOL    HW211019   6.346   1.067   4.479
 3374SOL     OW11020   3.834   5.983   5.149
 3374SOL    HW111021   3.897   6.052   5.114
 3374SOL    HW211022   3.883   5.922   5.211
 3375SOL     OW11023   4.419   4.773   4.926
 3375SOL    HW111024   4.509   4.816   4.924
 3375SOL    HW211025   4.429   4.677   4.951
 3376SOL     OW11026   4.054   3.427   2.950
 3376SOL    HW111027   4.082   3.361   3.020
 3376SOL    HW211028   4.079   3.391   2.860
 3377SOL     OW11029   1.402   6.411   4.913
 3377SOL    HW111030   1.392   6.510   4.905
 3377SOL    HW211031   1.347   6.367   4.842
 3378SOL     OW11032   6.375   1.107   0.693
 3378SOL    HW111033   6.290   1.148   0.727
 3378SOL    HW211034   6.442   1.105   0.766
 3379SOL     OW11035   0.405   4.311   6.093
 3379SOL    HW111036   0.392   4.386   6.158
 3379SOL    HW211037   0.445   4.346   6.009
 3380SOL     OW11038   6.951   5.501   5.694
 3380SOL    HW111039   6.961   5.403   5.676
 3380SOL    HW211040   0.017   5.548   5.677
 3381SOL     OW11041   2.464   1.787   0.538
 3381SOL    HW111042   2.385   1.753   0.590
 3381SOL    HW211043   2.517   1.849   0.596
 3382SOL     OW11044   0.162   1.610   0.211
 3382SOL    HW111045   0.198   1.554   0.286
 3382SOL    HW211046   0.136   1.550   0.135
 3383SOL     OW11047   6.070   5.225   2.608
 3383SOL    HW111048   6.055   5.236   2.510
 3383SOL    HW211049   6.013   5.151   2.642
 3384SOL     OW11050   2.969   3.239   4.985
 3384SOL    HW111051   2.883   3.188   4.974
 3384SOL    HW211052   3.045   3.175   4.995
 3385SOL     OW11053   0.096   4.165   3.773
 3385SOL    HW111054   0.013   4.109   3.775
 3385SOL    HW211055   0.171   4.112   3.733
 3386SOL     OW11056   6.036   3.842   5.227
 3386SOL    HW111057   6.099   3.811   5.298
 3386SOL    HW211058   5.953   3.877   5.270
 3387SOL     OW11059   2.683   2.008   2.888
 3387SOL    HW111060   2.660   2.105   2.893
 3387SOL    HW211061   2.600   1.954   2.879
 3388SOL     OW11062   5.812   3.256   0.855
 3388SOL    HW111063   5.880   3.255   0.782
 3388SOL    HW211064   5.813   3.345   0.901
 3389SOL     OW11065   4.487   4.508   4.617
 3389SOL    HW111066   4.434   4.591   4.635
 3389SOL    HW211067   4.511   4.504   4.521
 3390SOL     OW11068   5.120   3.478   5.628
 3390SOL    HW111069   5.079   3.558   5.672
 3390SOL    HW211070   5.100   3.397   5.684
 3391SOL     OW11071   4.125   1.935   4.535
 3391SOL    HW111072   4.055   1.864   4.535
 3391SOL    HW211073   4.106   2.001   4.608
 3392SOL     OW11074   2.392   0.827   4.231
 3392SOL    HW111075   2.468   0.853   4.292
 3392SOL    HW211076   2.307   0.827   4.283
 3393SOL     OW11077   6.670   6.591   0.619
 3393SOL    HW111078   6.571   6.600   0.631
 3393SOL    HW211079   6.706   6.672   0.572
 3394SOL     OW11080   5.480   3.136   1.267
 3394SOL    HW111081   5.562   3.090   1.233
 3394SOL    HW211082   5.458   3.214   1.208
 3395SOL     OW11083   6.428   3.438   3.988
 3395SOL    HW111084   6.379   3.520   4.019
 3395SOL    HW211085   6.406   3.421   3.892
 3396SOL     OW11086   0.199   3.097   3.686
 3396SOL    HW111087   0.247   3.054   3.763
 3396SOL    HW211088   0.145   3.174   3.719
 3397SOL     OW11089   3.833   1.277   5.304
 3397SOL    HW111090   3.784   1.216   5.242
 3397SOL    HW211091   3.922   1.237   5.327
 3398SOL     OW11092   0.833   0.169   4.280
 3398SOL    HW111093   0.800   0.214   4.197
 3398SOL    HW211094   0.929   0.142   4.267
 3399SOL     OW11095   4.429   4.546   4.072
 3399SOL    HW111096   4.410   4.502   3.984
 3399SOL    HW211097   4.346   4.589   4.106
 3400SOL     OW11098   4.238   1.662   5.955
 3400SOL    HW111099   4.300   1.637   5.882
 3400SOL    HW211100   4.197   1.580   5.995
 3401SOL     OW11101   6.878   4.095   0.536
 3401SOL    HW111102   6.906   4.088   0.440
 3401SOL    HW211103   6.956   4.071   0.594
 3402SOL     OW11104   5.575   5.756   1.121
 3402SOL    HW111105   5.495   5.700   1.099
 3402SOL    HW211106   5.637   5.756   1.043
 3403SOL     OW11107   3.950   0.464   5.217
 3403SOL    HW111108   3.892   0.539   5.186
 3403SOL    HW211109   4.020   0.500   5.278
 3404SOL     OW11110   4.035   1.534   0.834
 3404SOL    HW111111   3.941   1.509   0.859
 3404SOL    HW211112   4.048   1.518   0.736
 3405SOL     OW11113   6.532   3.598   5.334
 3405SOL    HW111114   6.528   3.695   5.357
 3405SOL    HW211115   6.600   3.583   5.262
 3406SOL     OW11116   2.080   4.335   1.912
 3406SOL    HW111117   2.012   4.361   1.980
 3406SOL    HW211118   2.144   4.270   1.953
 3407SOL     OW11119   1.827   5.342   1.316
 3407SOL    HW111120   1.839   5.294   1.403
 3407SOL    HW211121   1.732   5.371   1.307
 3408SOL     OW11122   4.886   4.183   4.195
 3408SOL    HW111123   4.847   4.260   4.245
 3408SOL    HW211124   4.890   4.103   4.255
 3409SOL     OW11125   4.174   6.878   5.607
 3409SOL    HW111126   4.136   6.808   5.547
 3409SOL    HW211127   4.252   6.841   5.657
 3410SOL     OW11128   6.185   6.175   6.672
 3410SOL    HW111129   6.166   6.271   6.692
 3410SOL    HW211130   6.122   6.117   6.725
 3411SOL     OW11131   6.286   2.722   2.291
 3411SOL    HW111132   6.230   2.792   2.335
 3411SOL    HW211133   6.371   2.710   2.343
 3412SOL     OW11134   4.086   2.921   0.044
 3412SOL    HW111135   4.021   2.857   0.087
 3412SOL    HW211136   4.048   2.953   6.979
 3413SOL     OW11137   3.976   1.200   2.789
 3413SOL    HW111138   3.977   1.217   2.691
 3413SOL    HW211139   3.931   1.277   2.836
 3414SOL     OW11140   3.113   1.455   5.163
 3414SOL    HW111141   3.049   1.489   5.095
 3414SOL    HW211142   3.189   1.519   5.171
 3415SOL     OW11143   1.280   4.157   4.399
 3415SOL    HW111144   1.333   4.178   4.316
 3415SOL    HW211145   1.271   4.240   4.454
 3416SOL     OW11146   0.158   4.730   5.954
 3416SOL    HW111147   0.246   4.733   6.001
 3416SOL    HW211148   0.126   4.636   5.950
 3417SOL     OW11149   6.109   6.080   2.612
 3417SOL    HW111150   6.207   6.073   2.626
 3417SOL    HW211151   6.066   6.117   2.695
 3418SOL     OW11152   4.354   1.233   4.289
 3418SOL    HW111153   4.339   1.269   4.197
 3418SOL    HW211154   4.436   1.275   4.328
 3419SOL     OW11155   3.600   5.484   5.932
 3419SOL    HW111156   3.567   5.425   5.859
 3419SOL    HW211157   3.536   5.482   6.008
 3420SOL     OW11158   4.920   2.250   3.801
 3420SOL    HW111159   4.947   2.169   3.852
 3420SOL    HW211160   4.849   2.300   3.851
 3421SOL     OW11161   6.365   0.774   5.368
 3421SOL    HW111162   6.314   0.859   5.355
 3421SOL    HW211163   6.428   0.761   5.292
 3422SOL     OW11164   3.466   0.131   0.922
 3422SOL    HW111165   3.369   0.156   0.918
 3422SOL    HW211166   3.476   0.035   0.898
 3423SOL     OW11167   1.990   0.661   0.655
 3423SOL    HW111168   2.087   0.637   0.664
 3423SOL    HW211169   1.962   0.653   0.560
 3424SOL     OW11170   3.767   1.004   2.419
 3424SOL    HW111171   3.689   1.064   2.435
 3424SOL    HW211172   3.758   0.921   2.475
 3425SOL     OW11173   5.207   4.015   2.076
 3425SOL    HW111174   5.255   3.974   2.154
 3425SOL    HW211175   5.233   3.967   1.992
 3426SOL     OW11176   3.408   3.482   0.482
 3426SOL    HW111177   3.427   3.412   0.551
 3426SOL    HW211178   3.364   3.440   0.403
 3427SOL     OW11179   6.444   6.413   6.968
 3427SOL    HW111180   6.533   6.428   7.012
 3427SOL    HW211181   6.455   6.347   6.893
 3428SOL     OW11182   3.850   5.111   1.524
 3428SOL    HW111183   3.763   5.073   1.494
 3428SOL    HW211184   3.834   5.173   1.601
 3429SOL     OW11185   0.637   2.173   6.844
 3429SOL    HW111186   0.672   2.188   6.751
 3429SOL    HW211187   0.647   2.077   6.868
 3430SOL     OW11188   0.885   6.712   6.254
 3430SOL    HW111189   0.810   6.758   6.302
 3430SOL    HW211190   0.949   6.674   6.320
 3431SOL     OW11191   2.524   6.607   0.986
 3431SOL    HW111192   2.475   6.538   0.933
 3431SOL    HW211193   2.622   6.601   0.966
 3432SOL     OW11194   2.825   2.586   5.339
 3432SOL    HW111195   2.835   2.516   5.268
 3432SOL    HW211196   2.728   2.608   5.349
 3433SOL     OW11197   2.552   0.619   6.651
 3433SOL    HW111198   2.493   0.555   6.701
 3433SOL    HW211199   2.591   0.685   6.716
 3434SOL     OW11200   3.338   2.704   0.887
 3434SOL    HW111201   3.352   2.800   0.911
 3434SOL    HW211202   3.286   2.698   0.802
 3435SOL     OW11203   0.036   1.932   1.498
 3435SOL    HW111204   0.036   1.837   1.468
 3435SOL    HW211205   0.125   1.973   1.478
 3436SOL     OW11206   4.350   6.973   5.323
 3436SOL    HW111207   4.426   6.927   5.275
 3436SOL    HW211208   4.356   0.051   5.307
 3437SOL     OW11209   4.388   1.123   6.216
 3437SOL    HW111210   4.397   1.217   6.182
 3437SOL    HW211211   4.385   1.124   6.316
 3438SOL     OW11212   1.540   2.700   6.288
 3438SOL    HW111213   1.467   2.724   6.223
 3438SOL    HW211214   1.582   2.784   6.322
 3439SOL     OW11215   2.993   6.877   5.431
 3439SOL    HW111216   3.007   6.964   5.384
 3439SOL    HW211217   2.924   6.889   5.503
 3440SOL     OW11218   4.979   3.250   1.677
 3440SOL    HW111219   5.066   3.295   1.698
 3440SOL    HW211220   4.989   3.152   1.694
 3441SOL     OW11221   4.900   0.569   3.000
 3441SOL    HW111222   4.907   0.668   3.013
 3441SOL    HW211223   4.805   0.544   2.982
 3442SOL     OW11224   2.346   4.417   3.226
 3442SOL    HW111225   2.269   4.444   3.169
 3442SOL    HW211226   2.428   4.465   3.196
 3443SOL     OW11227   5.271   0.800   2.912
 3443SOL    HW111228   5.226   0.849   2.987
 3443SOL    HW211229   5.324   0.724   2.950
 3444SOL     OW11230   5.249   5.538   6.713
 3444SOL    HW111231   5.205   5.592   6.784
 3444SOL    HW211232   5.180   5.488   6.660
 3445SOL     OW11233   6.198   4.222   4.022
 3445SOL    HW111234   6.239   4.312   4.036
 3445SOL    HW211235   6.098   4.231   4.019
 3446SOL     OW11236   5.481   0.414   3.058
 3446SOL    HW111237   5.553   0.357   3.097
 3446SOL    HW211238   5.500   0.510   3.077
 3447SOL     OW11239   5.110   5.091   6.984
 3447SOL    HW111240   5.158   5.071   0.049
 3447SOL    HW211241   5.073   5.006   6.947
 3448SOL     OW11242   3.942   6.771   0.971
 3448SOL    HW111243   3.864   6.748   1.030
 3448SOL    HW211244   3.986   6.687   0.940
 3449SOL     OW11245   5.879   6.279   3.190
 3449SOL    HW111246   5.877   6.201   3.127
 3449SOL    HW211247   5.810   6.346   3.162
 3450SOL     OW11248   0.903   2.614   0.857
 3450SOL    HW111249   0.955   2.666   0.925
 3450SOL    HW211250   0.815   2.658   0.842
 3451SOL     OW11251   0.649   5.860   2.837
 3451SOL    HW111252   0.688   5.888   2.749
 3451SOL    HW211253   0.650   5.938   2.900
 3452SOL     OW11254   6.290   1.281   0.084
 3452SOL    HW111255   6.350   1.335   0.143
 3452SOL    HW211256   6.336   1.263   7.018
 3453SOL     OW11257   5.694   5.878   5.571
 3453SOL    HW111258   5.732   5.797   5.616
 3453SOL    HW211259   5.758   5.954   5.580
 3454SOL     OW11260   1.899   0.754   5.890
 3454SOL    HW111261   1.931   0.787   5.979
 3454SOL    HW211262   1.978   0.740   5.829
 3455SOL     OW11263   1.160   3.075   4.571
 3455SOL    HW111264   1.244   3.053   4.620
 3455SOL    HW211265   1.170   3.050   4.475
 3456SOL     OW11266   5.790   6.083   2.188
 3456SOL    HW111267   5.824   6.014   2.124
 3456SOL    HW211268   5.695   6.065   2.211
 3457SOL     OW11269   2.543   5.036   4.162
 3457SOL    HW111270   2.643   5.036   4.168
 3457SOL    HW211271   2.511   5.129   4.145
 3458SOL     OW11272   5.526   6.634   6.601
 3458SOL    HW111273   5.566   6.551   6.562
 3458SOL    HW211274   5.466   6.610   6.677
 3459SOL     OW11275   0.382   4.219   3.192
 3459SOL    HW111276   0.394   4.134   3.141
 3459SOL    HW211277   0.287   4.229   3.220
 3460SOL     OW11278   3.357   3.070   0.701
 3460SOL    HW111279   3.401   3.159   0.685
 3460SOL    HW211280   3.360   3.016   0.617
 3461SOL     OW11281   4.471   5.193   4.403
 3461SOL    HW111282   4.568   5.192   4.427
 3461SOL    HW211283   4.454   5.127   4.329
 3462SOL     OW11284   5.948   3.676   1.949
 3462SOL    HW111285   5.902   3.687   1.861
 3462SOL    HW211286   6.022   3.610   1.940
 3463SOL     OW11287   0.774   3.356   2.726
 3463SOL    HW111288   0.740   3.418   2.796
 3463SOL    HW211289   0.847   3.401   2.675
 3464SOL     OW11290   5.726   2.422   6.870
 3464SOL    HW111291   5.782   2.344   6.842
 3464SOL    HW211292   5.638   2.390   6.903
 3465SOL     OW11293   1.693   3.322   1.993
 3465SOL    HW111294   1.716   3.343   1.898
 3465SOL    HW211295   1.666   3.406   2.040
 3466SOL     OW11296   5.491   5.211   5.584
 3466SOL    HW111297   5.452   5.120   5.564
 3466SOL    HW211298   5.445   5.250   5.664
 3467SOL     OW11299   2.537   1.555   0.960
 3467SOL    HW111300   2.547   1.584   1.055
 3467SOL    HW211301   2.441   1.535   0.940
 3468SOL     OW11302   5.869   2.091   2.823
 3468SOL    HW111303   5.941   2.119   2.886
 3468SOL    HW211304   5.780   2.106   2.865
 3469SOL     OW11305   5.292   1.075   5.877
 3469SOL    HW111306   5.247   1.009   5.936
 3469SOL    HW211307   5.322   1.154   5.930
 3470SOL     OW11308   0.353   2.817   2.188
 3470SOL    HW111309   0.381   2.850   2.098
 3470SOL    HW211310   0.301   2.888   2.235
 3471SOL     OW11311   4.478   4.563   3.749
 3471SOL    HW111312   4.560   4.522   3.790
 3471SOL    HW211313   4.454   4.514   3.666
 3472SOL     OW11314   3.887   1.100   1.578
 3472SOL    HW111315   3.823   1.029   1.606
 3472SOL    HW211316   3.972   1.091   1.631
 3473SOL     OW11317   6.265   3.343   3.452
 3473SOL    HW111318   6.276   3.442   3.441
 3473SOL    HW211319   6.260   3.300   3.361
 3474SOL     OW11320   1.075   4.198   3.579
 3474SOL    HW111321   1.143   4.237   3.642
 3474SOL    HW211322   1.081   4.244   3.491
 3475SOL     OW11323   1.294   4.627   4.440
 3475SOL    HW111324   1.199   4.634   4.471
 3475SOL    HW211325   1.340   4.555   4.492
 3476SOL     OW11326   1.157   1.841   3.079
 3476SOL    HW111327   1.130   1.746   3.064
 3476SOL    HW211328   1.085   1.901   3.045
 3477SOL     OW11329   0.668   4.070   0.548
 3477SOL    HW111330   0.604   3.994   0.552
 3477SOL    HW211331   0.756   4.042   0.588
 3478SOL     OW11332   3.019   6.488   6.952
 3478SOL    HW111333   3.030   6.576   6.905
 3478SOL    HW211334   2.921   6.466   6.958
 3479SOL     OW11335   0.643   1.088   3.425
 3479SOL    HW111336   0.612   1.169   3.375
 3479SOL    HW211337   0.665   1.016   3.360
 3480SOL     OW11338   1.239   6.247   5.804
 3480SOL    HW111339   1.312   6.197   5.851
 3480SOL    HW211340   1.266   6.343   5.795
 3481SOL     OW11341   4.946   0.246   0.178
 3481SOL    HW111342   5.044   0.261   0.192
 3481SOL    HW211343   4.903   0.230   0.267
 3482SOL     OW11344   6.077   1.417   2.441
 3482SOL    HW111345   6.175   1.395   2.435
 3482SOL    HW211346   6.065   1.516   2.431
 3483SOL     OW11347   5.618   2.174   2.870
 3483SOL    HW111348   5.564   2.100   2.832
 3483SOL    HW211349   5.569   2.217   2.945
 3484SOL     OW11350   1.411   2.959   6.734
 3484SOL    HW111351   1.491   3.010   6.703
 3484SOL    HW211352   1.429   2.861   6.725
 3485SOL     OW11353   1.151   1.992   5.005
 3485SOL    HW111354   1.199   2.022   5.088
 3485SOL    HW211355   1.206   2.017   4.925
 3486SOL     OW11356   2.073   0.336   3.950
 3486SOL    HW111357   2.153   0.290   3.910
 3486SOL    HW211358   2.095   0.366   4.043
 3487SOL     OW11359   6.448   2.576   6.831
 3487SOL    HW111360   6.467   2.478   6.843
 3487SOL    HW211361   6.423   2.616   6.919
 3488SOL     OW11362   5.590   0.873   4.787
 3488SOL    HW111363   5.650   0.818   4.844
 3488SOL    HW211364   5.497   0.836   4.790
 3489SOL     OW11365   3.570   0.522   1.737
 3489SOL    HW111366   3.497   0.590   1.734
 3489SOL    HW211367   3.620   0.524   1.650
 3490SOL     OW11368   3.291   4.562   1.291
 3490SOL    HW111369   3.315   4.624   1.216
 3490SOL    HW211370   3.195   4.574   1.316
 3491SOL     OW11371   3.921   3.190   5.939
 3491SOL    HW111372   3.849   3.127   5.966
 3491SOL    HW211373   3.895   3.237   5.855
 3492SOL     OW11374   5.855   4.002   1.015
 3492SOL    HW111375   5.822   4.089   0.977
 3492SOL    HW211376   5.936   3.972   0.965
 3493SOL     OW11377   5.989   3.889   3.960
 3493SOL    HW111378   6.025   3.930   4.043
 3493SOL    HW211379   5.960   3.795   3.979
 3494SOL     OW11380   2.782   0.550   1.720
 3494SOL    HW111381   2.736   0.624   1.672
 3494SOL    HW211382   2.879   0.548   1.694
 3495SOL     OW11383   0.628   3.809   2.609
 3495SOL    HW111384   0.666   3.819   2.517
 3495SOL    HW211385   0.537   3.768   2.604
 3496SOL     OW11386   5.923   5.417   1.546
 3496SOL    HW111387   5.980   5.340   1.575
 3496SOL    HW211388   5.923   5.423   1.446
 3497SOL     OW11389   2.282   1.473   4.075
 3497SOL    HW111390   2.230   1.480   4.160
 3497SOL    HW211391   2.219   1.467   3.997
 3498SOL     OW11392   3.104   1.123   2.447
 3498SOL    HW111393   3.175   1.109   2.517
 3498SOL    HW211394   3.043   1.197   2.475
 3499SOL     OW11395   6.459   4.863   4.156
 3499SOL    HW111396   6.499   4.886   4.067
 3499SOL    HW211397   6.527   4.875   4.228
 3500SOL     OW11398   1.811   3.081   3.407
 3500SOL    HW111399   1.767   2.994   3.384
 3500SOL    HW211400   1.780   3.111   3.497
 3501SOL     OW11401   3.410   6.858   6.749
 3501SOL    HW111402   3.401   6.864   6.849
 3501SOL    HW211403   3.453   6.941   6.714
 3502SOL     OW11404   6.734   2.921   1.434
 3502SOL    HW111405   6.653   2.958   1.479
 3502SOL    HW211406   6.816   2.952   1.483
 3503SOL     OW11407   0.170   6.551   5.333
 3503SOL    HW111408   0.269   6.559   5.344
 3503SOL    HW211409   0.125   6.585   5.416
 3504SOL     OW11410   1.909   0.861   2.097
 3504SOL    HW111411   1.836   0.814   2.047
 3504SOL    HW211412   1.949   0.799   2.165
 3505SOL     OW11413   5.492   5.236   5.093
 3505SOL    HW111414   5.435   5.184   5.030
 3505SOL    HW211415   5.525   5.319   5.048
 3506SOL     OW11416   5.381   4.907   4.921
 3506SOL    HW111417   5.324   4.986   4.898
 3506SOL    HW211418   5.349   4.828   4.869
 3507SOL     OW11419   2.635   0.561   0.453
 3507SOL    HW111420   2.661   0.513   0.370
 3507SOL    HW211421   2.685   0.648   0.459
 3508SOL     OW11422   2.855   1.856   6.566
 3508SOL    HW111423   2.879   1.901   6.481
 3508SOL    HW211424   2.873   1.758   6.558
 3509SOL     OW11425   5.748   7.005   6.959
 3509SOL    HW111426   5.670   0.043   6.976
 3509SOL    HW211427   5.816   0.034   6.904
 3510SOL     OW11428   1.488   0.378   2.160
 3510SOL    HW111429   1.556   0.376   2.087
 3510SOL    HW211430   1.469   0.285   2.191
 3511SOL     OW11431   1.865   4.193   1.708
 3511SOL    HW111432   1.948   4.240   1.681
 3511SOL    HW211433   1.882   4.141   1.792
 3512SOL     OW11434   0.387   4.244   1.038
 3512SOL    HW111435   0.472   4.287   1.067
 3512SOL    HW211436   0.403   4.191   0.954
 3513SOL     OW11437   5.993   2.143   0.475
 3513SOL    HW111438   5.894   2.129   0.478
 3513SOL    HW211439   6.030   2.142   0.568
 3514SOL     OW11440   6.487   0.928   1.410
 3514SOL    HW111441   6.389   0.908   1.417
 3514SOL    HW211442   6.539   0.847   1.438
 3515SOL     OW11443   5.329   6.181   3.107
 3515SOL    HW111444   5.282   6.257   3.062
 3515SOL    HW211445   5.404   6.150   3.049
 3516SOL     OW11446   4.452   6.326   0.971
 3516SOL    HW111447   4.540   6.370   0.990
 3516SOL    HW211448   4.453   6.289   0.878
 3517SOL     OW11449   0.087   1.558   1.018
 3517SOL    HW111450   0.062   1.483   0.957
 3517SOL    HW211451   0.178   1.543   1.055
 3518SOL     OW11452   5.025   2.919   5.064
 3518SOL    HW111453   5.099   2.985   5.057
 3518SOL    HW211454   5.062   2.832   5.099
 3519SOL     OW11455   1.775   0.371   5.752
 3519SOL    HW111456   1.857   0.325   5.718
 3519SOL    HW211457   1.782   0.385   5.850
 3520SOL     OW11458   3.552   6.568   0.425
 3520SOL    HW111459   3.473   6.625   0.445
 3520SOL    HW211460   3.634   6.625   0.417
 3521SOL     OW11461   4.392   2.655   0.612
 3521SOL    HW111462   4.326   2.595   0.567
 3521SOL    HW211463   4.348   2.743   0.632
 3522SOL     OW11464   6.924   5.854   6.494
 3522SOL    HW111465   6.988   5.916   6.449
 3522SOL    HW211466   6.849   5.907   6.533
 3523SOL     OW11467   1.863   4.461   5.211
 3523SOL    HW111468   1.831   4.514   5.289
 3523SOL    HW211469   1.813   4.489   5.129
 3524SOL     OW11470   4.925   2.055   1.916
 3524SOL    HW111471   4.864   2.131   1.938
 3524SOL    HW211472   4.874   1.969   1.919
 3525SOL     OW11473   6.689   3.335   4.104
 3525SOL    HW111474   6.696   3.374   4.196
 3525SOL    HW211475   6.600   3.358   4.065
 3526SOL     OW11476   2.125   6.669   3.770
 3526SOL    HW111477   2.104   6.767   3.765
 3526SOL    HW211478   2.085   6.622   3.691
 3527SOL     OW11479   5.799   3.750   6.369
 3527SOL    HW111480   5.811   3.651   6.375
 3527SOL    HW211481   5.775   3.776   6.275
 3528SOL     OW11482   2.387   6.738   4.980
 3528SOL    HW111483   2.461   6.671   4.969
 3528SOL    HW211484   2.413   6.824   4.937
 3529SOL     OW11485   4.101   6.374   0.704
 3529SOL    HW111486   4.035   6.380   0.628
 3529SOL    HW211487   4.192   6.358   0.667
 3530SOL     OW11488   6.798   5.518   1.509
 3530SOL    HW111489   6.808   5.493   1.412
 3530SOL    HW211490   6.888   5.523   1.552
 3531SOL     OW11491   5.316   2.373   0.476
 3531SOL    HW111492   5.324   2.276   0.498
 3531SOL    HW211493   5.220   2.395   0.460
 3532SOL     OW11494   2.762   0.477   1.415
 3532SOL    HW111495   2.844   0.437   1.456
 3532SOL    HW211496   2.784   0.511   1.323
 3533SOL     OW11497   6.996   1.053   2.516
 3533SOL    HW111498   0.058   1.000   2.503
 3533SOL    HW211499   6.954   1.072   2.428
 3534SOL     OW11500   0.618   2.048   0.693
 3534SOL    HW111501   0.710   2.087   0.698
 3534SOL    HW211502   0.568   2.091   0.619
 3535SOL     OW11503   2.055   5.274   6.148
 3535SOL    HW111504   1.959   5.284   6.173
 3535SOL    HW211505   2.070   5.183   6.109
 3536SOL     OW11506   3.145   1.737   2.837
 3536SOL    HW111507   3.229   1.742   2.784
 3536SOL    HW211508   3.092   1.820   2.824
 3537SOL     OW11509   2.395   5.352   2.606
 3537SOL    HW111510   2.301   5.327   2.629
 3537SOL    HW211511   2.427   5.423   2.668
 3538SOL     OW11512   2.579   6.111   5.302
 3538SOL    HW111513   2.628   6.025   5.288
 3538SOL    HW211514   2.501   6.096   5.363
 3539SOL     OW11515   3.775   3.578   5.045
 3539SOL    HW111516   3.829   3.499   5.018
 3539SOL    HW211517   3.829   3.661   5.033
 3540SOL     OW11518   2.240   2.791   4.362
 3540SOL    HW111519   2.150   2.775   4.321
 3540SOL    HW211520   2.231   2.859   4.435
 3541SOL     OW11521   2.995   2.751   5.926
 3541SOL    HW111522   2.932   2.742   5.849
 3541SOL    HW211523   3.055   2.830   5.910
 3542SOL     OW11524   1.131   5.540   3.107
 3542SOL    HW111525   1.100   5.634   3.124
 3542SOL    HW211526   1.137   5.492   3.195
 3543SOL     OW11527   0.067   2.670   5.054
 3543SOL    HW111528   0.158   2.685   5.093
 3543SOL    HW211529   0.055   2.728   4.974
 3544SOL     OW11530   1.265   4.061   6.193
 3544SOL    HW111531   1.243   4.156   6.171
 3544SOL    HW211532   1.363   4.053   6.211
 3545SOL     OW11533   3.787   6.111   6.805
 3545SOL    HW111534   3.701   6.065   6.784
 3545SOL    HW211535   3.848   6.048   6.853
 3546SOL     OW11536   0.922   4.832   3.628
 3546SOL    HW111537   0.912   4.831   3.728
 3546SOL    HW211538   0.835   4.858   3.586
 3547SOL     OW11539   5.376   4.355   3.759
 3547SOL    HW111540   5.377   4.319   3.852
 3547SOL    HW211541   5.304   4.423   3.750
 3548SOL     OW11542   5.921   1.238   5.923
 3548SOL    HW111543   5.823   1.244   5.906
 3548SOL    HW211544   5.955   1.327   5.953
 3549SOL     OW11545   6.749   4.449   4.811
 3549SOL    HW111546   6.688   4.512   4.861
 3549SOL    HW211547   6.842   4.461   4.845
 3550SOL     OW11548   5.361   2.176   2.559
 3550SOL    HW111549   5.396   2.270   2.556
 3550SOL    HW211550   5.376   2.138   2.651
 3551SOL     OW11551   3.938   6.254   2.759
 3551SOL    HW111552   3.848   6.228   2.725
 3551SOL    HW211553   3.995   6.172   2.767
 3552SOL     OW11554   4.958   6.242   2.020
 3552SOL    HW111555   5.036   6.279   1.969
 3552SOL    HW211556   4.978   6.149   2.050
 3553SOL     OW11557   5.825   3.135   1.309
 3553SOL    HW111558   5.782   3.067   1.250
 3553SOL    HW211559   5.775   3.141   1.395
 3554SOL     OW11560   3.735   2.975   1.281
 3554SOL    HW111561   3.703   2.933   1.367
 3554SOL    HW211562   3.683   2.938   1.205
 3555SOL     OW11563   1.019   3.420   3.341
 3555SOL    HW111564   0.929   3.452   3.369
 3555SOL    HW211565   1.087   3.448   3.409
 3556SOL     OW11566   4.188   0.812   4.650
 3556SOL    HW111567   4.229   0.850   4.732
 3556SOL    HW211568   4.259   0.795   4.582
 3557SOL     OW11569   0.223   0.352   3.328
 3557SOL    HW111570   0.208   0.440   3.283
 3557SOL    HW211571   0.196   0.359   3.424
 3558SOL     OW11572   0.950   5.772   0.973
 3558SOL    HW111573   0.913   5.686   0.936
 3558SOL    HW211574   0.997   5.821   0.900
 3559SOL     OW11575   0.298   6.821   4.691
 3559SOL    HW111576   0.323   6.893   4.626
 3559SOL    HW211577   0.243   6.752   4.644
 3560SOL     OW11578   1.163   5.288   0.894
 3560SOL    HW111579   1.130   5.308   0.802
 3560SOL    HW211580   1.114   5.209   0.931
 3561SOL     OW11581   3.768   4.929   5.485
 3561SOL    HW111582   3.863   4.954   5.504
 3561SOL    HW211583   3.742   4.850   5.541
 3562SOL     OW11584   5.065   0.726   4.363
 3562SOL    HW111585   5.097   0.813   4.325
 3562SOL    HW211586   5.068   0.730   4.463
 3563SOL     OW11587   5.302   0.328   1.681
 3563SOL    HW111588   5.400   0.341   1.693
 3563SOL    HW211589   5.274   0.365   1.592
 3564SOL     OW11590   1.418   5.274   4.226
 3564SOL    HW111591   1.426   5.360   4.277
 3564SOL    HW211592   1.358   5.212   4.276
 3565SOL     OW11593   3.975   6.575   4.709
 3565SOL    HW111594   3.947   6.588   4.614
 3565SOL    HW211595   3.996   6.478   4.724
 3566SOL     OW11596   6.744   3.585   6.462
 3566SOL    HW111597   6.798   3.635   6.395
 3566SOL    HW211598   6.805   3.535   6.523
 3567SOL     OW11599   0.983   2.730   0.050
 3567SOL    HW111600   1.070   2.765   0.017
 3567SOL    HW211601   0.971   2.636   0.021
 3568SOL     OW11602   5.081   5.417   3.260
 3568SOL    HW111603   5.056   5.324   3.288
 3568SOL    HW211604   5.149   5.413   3.187
 3569SOL     OW11605   2.761   2.686   5.736
 3569SOL    HW111606   2.665   2.662   5.725
 3569SOL    HW211607   2.818   2.611   5.702
 3570SOL     OW11608   5.440   0.368   5.052
 3570SOL    HW111609   5.493   0.288   5.025
 3570SOL    HW211610   5.495   0.425   5.113
 3571SOL     OW11611   2.280   1.127   5.154
 3571SOL    HW111612   2.266   1.128   5.253
 3571SOL    HW211613   2.260   1.218   5.117
 3572SOL     OW11614   5.590   3.600   2.835
 3572SOL    HW111615   5.576   3.504   2.857
 3572SOL    HW211616   5.619   3.608   2.739
 3573SOL     OW11617   6.575   4.720   2.282
 3573SOL    HW111618   6.485   4.698   2.245
 3573SOL    HW211619   6.571   4.810   2.327
 3574SOL     OW11620   1.605   3.801   6.998
 3574SOL    HW111621   1.697   3.816   6.963
 3574SOL    HW211622   1.610   3.754   0.065
 3575SOL     OW11623   5.075   5.678   1.732
 3575SOL    HW111624   4.978   5.658   1.723
 3575SOL    HW211625   5.122   5.600   1.773
 3576SOL     OW11626   0.151   2.240   7.003
 3576SOL    HW111627   0.244   2.277   6.998
 3576SOL    HW211628   0.089   2.309   0.017
 3577SOL     OW11629   2.674   2.894   5.914
 3577SOL    HW111630   2.712   2.831   5.846
 3577SOL    HW211631   2.721   2.982   5.908
 3578SOL     OW11632   4.212   2.737   1.088
 3578SOL    HW111633   4.240   2.820   1.038
 3578SOL    HW211634   4.163   2.763   1.171
 3579SOL     OW11635   0.129   2.712   2.891
 3579SOL    HW111636   0.035   2.700   2.924
 3579SOL    HW211637   0.153   2.809   2.893
 3580SOL     OW11638   6.502   3.641   0.863
 3580SOL    HW111639   6.484   3.551   0.903
 3580SOL    HW211640   6.599   3.647   0.837
 3581SOL     OW11641   0.393   6.199   2.502
 3581SOL    HW111642   0.314   6.252   2.473
 3581SOL    HW211643   0.469   6.261   2.522
 3582SOL     OW11644   2.466   5.039   5.790
 3582SOL    HW111645   2.428   4.987   5.714
 3582SOL    HW211646   2.394   5.092   5.834
 3583SOL     OW11647   1.261   4.199   0.261
 3583SOL    HW111648   1.266   4.102   0.237
 3583SOL    HW211649   1.194   4.213   0.334
 3584SOL     OW11650   5.392   4.765   5.618
 3584SOL    HW111651   5.406   4.700   5.692
 3584SOL    HW211652   5.472   4.764   5.558
 3585SOL     OW11653   3.146   1.860   4.657
 3585SOL    HW111654   3.130   1.866   4.559
 3585SOL    HW211655   3.219   1.922   4.684
 3586SOL     OW11656   6.880   2.610   5.226
 3586SOL    HW111657   6.963   2.587   5.175
 3586SOL    HW211658   6.834   2.687   5.183
 3587SOL     OW11659   3.432   5.312   6.283
 3587SOL    HW111660   3.495   5.277   6.353
 3587SOL    HW211661   3.443   5.258   6.199
 3588SOL     OW11662   6.944   3.839   4.414
 3588SOL    HW111663   6.939   3.748   4.454
 3588SOL    HW211664   6.894   3.840   4.327
 3589SOL     OW11665   6.134   6.372   6.365
 3589SOL    HW111666   6.106   6.291   6.314
 3589SOL    HW211667   6.227   6.397   6.339
 3590SOL     OW11668   0.356   3.479   1.084
 3590SOL    HW111669   0.409   3.403   1.045
 3590SOL    HW211670   0.284   3.506   1.020
 3591SOL     OW11671   5.647   3.053   0.907
 3591SOL    HW111672   5.711   3.122   0.874
 3591SOL    HW211673   5.554   3.091   0.910
 3592SOL     OW11674   0.269   0.112   2.484
 3592SOL    HW111675   0.261   0.086   2.580
 3592SOL    HW211676   0.334   0.051   2.438
 3593SOL     OW11677   0.743   4.701   5.772
 3593SOL    HW111678   0.836   4.719   5.739
 3593SOL    HW211679   0.740   4.612   5.817
 3594SOL     OW11680   4.842   0.016   4.671
 3594SOL    HW111681   4.806   6.997   4.756
 3594SOL    HW211682   4.844   0.116   4.680
 3595SOL     OW11683   6.310   5.859   0.212
 3595SOL    HW111684   6.352   5.933   0.265
 3595SOL    HW211685   6.236   5.818   0.265
 3596SOL     OW11686   4.356   2.362   3.457
 3596SOL    HW111687   4.374   2.338   3.552
 3596SOL    HW211688   4.306   2.288   3.412
 3597SOL     OW11689   1.900   3.192   5.735
 3597SOL    HW111690   1.994   3.166   5.761
 3597SOL    HW211691   1.902   3.278   5.685
 3598SOL     OW11692   1.953   6.048   5.790
 3598SOL    HW111693   1.858   6.059   5.817
 3598SOL    HW211694   1.958   5.995   5.706
 3599SOL     OW11695   4.767   1.764   6.393
 3599SOL    HW111696   4.733   1.847   6.438
 3599SOL    HW211697   4.837   1.789   6.326
 3600SOL     OW11698   1.555   3.374   1.488
 3600SOL    HW111699   1.593   3.457   1.530
 3600SOL    HW211700   1.564   3.380   1.389
 3601SOL     OW11701   5.514   1.934   5.790
 3601SOL    HW111702   5.563   2.019   5.771
 3601SOL    HW211703   5.431   1.955   5.841
 3602SOL     OW11704   1.930   3.089   0.600
 3602SOL    HW111705   1.874   3.064   0.521
 3602SOL    HW211706   1.880   3.068   0.684
 3603SOL     OW11707   3.529   0.969   5.989
 3603SOL    HW111708   3.535   1.045   5.924
 3603SOL    HW211709   3.512   0.884   5.939
 3604SOL     OW11710   5.986   0.828   3.625
 3604SOL    HW111711   6.061   0.893   3.634
 3604SOL    HW211712   6.023   0.735   3.625
 3605SOL     OW11713   0.747   5.133   3.869
 3605SOL    HW111714   0.697   5.199   3.925
 3605SOL    HW211715   0.708   5.042   3.881
 3606SOL     OW11716   1.630   6.391   2.099
 3606SOL    HW111717   1.632   6.448   2.017
 3606SOL    HW211718   1.583   6.305   2.078
 3607SOL     OW11719   4.969   2.489   2.632
 3607SOL    HW111720   4.948   2.585   2.651
 3607SOL    HW211721   4.885   2.437   2.621
 3608SOL     OW11722   5.267   1.620   3.927
 3608SOL    HW111723   5.176   1.650   3.954
 3608SOL    HW211724   5.296   1.544   3.985
 3609SOL     OW11725   2.231   6.383   4.500
 3609SOL    HW111726   2.212   6.446   4.576
 3609SOL    HW211727   2.251   6.435   4.418
 3610SOL     OW11728   1.636   0.321   5.332
 3610SOL    HW111729   1.734   0.338   5.322
 3610SOL    HW211730   1.598   0.384   5.400
 3611SOL     OW11731   4.553   4.557   4.345
 3611SOL    HW111732   4.498   4.528   4.267
 3611SOL    HW211733   4.616   4.630   4.317
 3612SOL     OW11734   6.630   1.811   6.788
 3612SOL    HW111735   6.622   1.807   6.887
 3612SOL    HW211736   6.580   1.734   6.747
 3613SOL     OW11737   4.339   5.171   2.221
 3613SOL    HW111738   4.247   5.141   2.245
 3613SOL    HW211739   4.375   5.111   2.149
 3614SOL     OW11740   3.192   3.356   6.865
 3614SOL    HW111741   3.208   3.455   6.874
 3614SOL    HW211742   3.103   3.333   6.905
 3615SOL     OW11743   6.115   3.104   6.026
 3615SOL    HW111744   6.181   3.037   6.061
 3615SOL    HW211745   6.091   3.082   5.932
 3616SOL     OW11746   1.762   1.518   6.577
 3616SOL    HW111747   1.790   1.427   6.607
 3616SOL    HW211748   1.802   1.538   6.488
 3617SOL     OW11749   4.787   0.102   5.861
 3617SOL    HW111750   4.735   0.162   5.799
 3617SOL    HW211751   4.768   0.129   5.955
 3618SOL     OW11752   2.128   3.208   5.319
 3618SOL    HW111753   2.124   3.205   5.219
 3618SOL    HW211754   2.224   3.202   5.348
 3619SOL     OW11755   5.463   3.272   0.625
 3619SOL    HW111756   5.421   3.248   0.713
 3619SOL    HW211757   5.451   3.196   0.561
 3620SOL     OW11758   6.245   5.850   4.530
 3620SOL    HW111759   6.319   5.799   4.487
 3620SOL    HW211760   6.192   5.789   4.589
 3621SOL     OW11761   3.142   3.025   3.903
 3621SOL    HW111762   3.127   3.076   3.988
 3621SOL    HW211763   3.230   2.976   3.909
 3622SOL     OW11764   0.881   0.286   1.285
 3622SOL    HW111765   0.888   0.381   1.315
 3622SOL    HW211766   0.830   0.233   1.353
 3623SOL     OW11767   0.754   5.872   5.127
 3623SOL    HW111768   0.765   5.839   5.033
 3623SOL    HW211769   0.823   5.830   5.185
 3624SOL     OW11770   1.414   0.071   1.735
 3624SOL    HW111771   1.387   0.087   1.640
 3624SOL    HW211772   1.511   0.046   1.738
 3625SOL     OW11773   0.360   3.301   6.839
 3625SOL    HW111774   0.280   3.252   6.805
 3625SOL    HW211775   0.391   3.367   6.771
 3626SOL     OW11776   0.538   3.706   4.745
 3626SOL    HW111777   0.618   3.670   4.696
 3626SOL    HW211778   0.556   3.800   4.774
 3627SOL     OW11779   5.208   2.896   1.437
 3627SOL    HW111780   5.178   2.906   1.341
 3627SOL    HW211781   5.156   2.823   1.481
 3628SOL     OW11782   1.385   1.603   1.945
 3628SOL    HW111783   1.473   1.614   1.991
 3628SOL    HW211784   1.316   1.575   2.013
 3629SOL     OW11785   1.268   0.441   3.990
 3629SOL    HW111786   1.291   0.506   4.061
 3629SOL    HW211787   1.280   0.483   3.900
 3630SOL     OW11788   6.935   2.664   3.028
 3630SOL    HW111789   6.968   2.632   3.117
 3630SOL    HW211790   6.836   2.678   3.032
 3631SOL     OW11791   2.115   6.616   4.071
 3631SOL    HW111792   2.140   6.618   3.975
 3631SOL    HW211793   2.125   6.707   4.111
 3632SOL     OW11794   4.509   4.192   1.276
 3632SOL    HW111795   4.452   4.225   1.352
 3632SOL    HW211796   4.605   4.192   1.304
 3633SOL     OW11797   3.505   2.491   5.361
 3633SOL    HW111798   3.598   2.527   5.357
 3633SOL    HW211799   3.451   2.531   5.287
 3634SOL     OW11800   2.004   6.487   6.182
 3634SOL    HW111801   2.084   6.473   6.124
 3634SOL    HW211802   1.921   6.465   6.131
 3635SOL     OW11803   2.252   1.617   1.589
 3635SOL    HW111804   2.320   1.691   1.585
 3635SOL    HW211805   2.176   1.639   1.527
 3636SOL     OW11806   6.900   5.290   0.911
 3636SOL    HW111807   6.942   5.201   0.928
 3636SOL    HW211808   6.840   5.313   0.988
 3637SOL     OW11809   0.993   2.602   0.311
 3637SOL    HW111810   0.977   2.653   0.227
 3637SOL    HW211811   1.020   2.666   0.384
 3638SOL     OW11812   6.855   3.767   2.704
 3638SOL    HW111813   6.831   3.681   2.660
 3638SOL    HW211814   6.879   3.750   2.800
 3639SOL     OW11815   3.657   4.085   5.468
 3639SOL    HW111816   3.641   4.017   5.397
 3639SOL    HW211817   3.575   4.142   5.479
 3640SOL     OW11818   5.484   2.575   0.571
 3640SOL    HW111819   5.440   2.665   0.577
 3640SOL    HW211820   5.426   2.512   0.519
 3641SOL     OW11821   5.345   4.312   1.013
 3641SOL    HW111822   5.326   4.229   1.065
 3641SOL    HW211823   5.444   4.328   1.010
 3642SOL     OW11824   5.364   2.164   6.194
 3642SOL    HW111825   5.359   2.242   6.257
 3642SOL    HW211826   5.446   2.172   6.137
 3643SOL     OW11827   4.373   6.666   6.318
 3643SOL    HW111828   4.439   6.617   6.261
 3643SOL    HW211829   4.354   6.756   6.279
 3644SOL     OW11830   3.236   1.118   1.618
 3644SOL    HW111831   3.314   1.092   1.561
 3644SOL    HW211832   3.193   1.036   1.654
 3645SOL     OW11833   1.692   3.624   3.970
 3645SOL    HW111834   1.751   3.703   3.956
 3645SOL    HW211835   1.707   3.588   4.063
 3646SOL     OW11836   2.815   5.025   4.807
 3646SOL    HW111837   2.715   5.033   4.801
 3646SOL    HW211838   2.844   5.037   4.902
 3647SOL     OW11839   2.745   0.237   6.906
 3647SOL    HW111840   2.826   0.211   6.958
 3647SOL    HW211841   2.772   0.297   6.831
 3648SOL     OW11842   5.102   6.061   3.166
 3648SOL    HW111843   5.181   6.118   3.143
 3648SOL    HW211844   5.133   5.976   3.209
 3649SOL     OW11845   5.441   3.733   6.786
 3649SOL    HW111846   5.395   3.820   6.803
 3649SOL    HW211847   5.515   3.746   6.721
 3650SOL     OW11848   5.364   4.105   0.755
 3650SOL    HW111849   5.270   4.073   0.768
 3650SOL    HW211850   5.374   4.197   0.794
 3651SOL     OW11851   2.248   1.595   5.698
 3651SOL    HW111852   2.179   1.645   5.645
 3651SOL    HW211853   2.207   1.560   5.782
 3652SOL     OW11854   5.595   1.023   2.442
 3652SOL    HW111855   5.571   1.023   2.539
 3652SOL    HW211856   5.522   0.978   2.390
 3653SOL     OW11857   0.900   0.983   2.655
 3653SOL    HW111858   0.877   1.074   2.687
 3653SOL    HW211859   0.991   0.957   2.687
 3654SOL     OW11860   4.637   5.907   0.956
 3654SOL    HW111861   4.668   5.817   0.924
 3654SOL    HW211862   4.647   5.912   1.055
 3655SOL     OW11863   2.712   1.189   4.184
 3655SOL    HW111864   2.617   1.215   4.201
 3655SOL    HW211865   2.772   1.268   4.198
 3656SOL     OW11866   0.937   5.618   1.701
 3656SOL    HW111867   0.850   5.569   1.689
 3656SOL    HW211868   1.011   5.552   1.710
 3657SOL     OW11869   4.639   5.768   5.669
 3657SOL    HW111870   4.616   5.846   5.611
 3657SOL    HW211871   4.733   5.775   5.700
 3658SOL     OW11872   1.443   5.343   6.415
 3658SOL    HW111873   1.491   5.272   6.467
 3658SOL    HW211874   1.503   5.421   6.403
 3659SOL     OW11875   0.253   1.340   6.594
 3659SOL    HW111876   0.252   1.247   6.557
 3659SOL    HW211877   0.164   1.362   6.633
 3660SOL     OW11878   5.568   6.456   5.976
 3660SOL    HW111879   5.555   6.362   5.943
 3660SOL    HW211880   5.655   6.462   6.024
 3661SOL     OW11881   6.913   0.591   4.010
 3661SOL    HW111882   6.947   0.563   3.920
 3661SOL    HW211883   6.909   0.690   4.015
 3662SOL     OW11884   4.027   0.875   5.690
 3662SOL    HW111885   4.102   0.817   5.722
 3662SOL    HW211886   3.957   0.881   5.761
 3663SOL     OW11887   2.186   2.570   6.793
 3663SOL    HW111888   2.194   2.603   6.699
 3663SOL    HW211889   2.198   2.471   6.795
 3664SOL     OW11890   4.384   1.525   2.258
 3664SOL    HW111891   4.343   1.555   2.344
 3664SOL    HW211892   4.381   1.599   2.192
 3665SOL     OW11893   0.703   6.178   5.229
 3665SOL    HW111894   0.753   6.092   5.222
 3665SOL    HW211895   0.646   6.190   5.148
 3666SOL     OW11896   1.455   2.568   3.313
 3666SOL    HW111897   1.381   2.539   3.374
 3666SOL    HW211898   1.447   2.666   3.295
 3667SOL     OW11899   1.085   1.578   3.054
 3667SOL    HW111900   1.174   1.533   3.052
 3667SOL    HW211901   1.048   1.583   2.961
 3668SOL     OW11902   1.218   0.096   1.894
 3668SOL    HW111903   1.292   0.104   1.828
 3668SOL    HW211904   1.130   0.101   1.848
 3669SOL     OW11905   6.185   1.851   4.513
 3669SOL    HW111906   6.151   1.757   4.515
 3669SOL    HW211907   6.259   1.861   4.579
 3670SOL     OW11908   3.323   4.913   1.503
 3670SOL    HW111909   3.290   4.973   1.575
 3670SOL    HW211910   3.358   4.828   1.543
 3671SOL     OW11911   6.259   1.152   3.258
 3671SOL    HW111912   6.229   1.061   3.286
 3671SOL    HW211913   6.183   1.201   3.215
 3672SOL     OW11914   5.792   1.158   2.692
 3672SOL    HW111915   5.702   1.168   2.734
 3672SOL    HW211916   5.812   1.061   2.678
 3673SOL     OW11917   4.849   5.861   0.304
 3673SOL    HW111918   4.878   5.947   0.346
 3673SOL    HW211919   4.784   5.815   0.363
 3674SOL     OW11920   1.472   6.226   6.123
 3674SOL    HW111921   1.404   6.188   6.186
 3674SOL    HW211922   1.564   6.200   6.153
 3675SOL     OW11923   0.553   1.959   3.898
 3675SOL    HW111924   0.595   1.906   3.825
 3675SOL    HW211925   0.454   1.944   3.897
 3676SOL     OW11926   4.856   2.977   3.305
 3676SOL    HW111927   4.768   2.934   3.327
 3676SOL    HW211928   4.870   2.975   3.206
 3677SOL     OW11929   2.099   1.202   4.705
 3677SOL    HW111930   2.084   1.104   4.706
 3677SOL    HW211931   2.198   1.220   4.702
 3678SOL     OW11932   1.598   0.245   3.828
 3678SOL    HW111933   1.527   0.315   3.819
 3678SOL    HW211934   1.688   0.287   3.812
 3679SOL     OW11935   6.073   0.362   2.962
 3679SOL    HW111936   6.085   0.458   2.986
 3679SOL    HW211937   6.077   0.353   2.862
 3680SOL     OW11938   4.589   1.675   2.982
 3680SOL    HW111939   4.633   1.672   3.072
 3680SOL    HW211940   4.505   1.621   2.984
 3681SOL     OW11941   0.861   0.956   5.599
 3681SOL    HW111942   0.815   1.024   5.542
 3681SOL    HW211943   0.937   0.999   5.647
 3682SOL     OW11944   5.614   2.155   1.179
 3682SOL    HW111945   5.516   2.174   1.168
 3682SOL    HW211946   5.626   2.069   1.228
 3683SOL     OW11947   0.111   0.757   4.363
 3683SOL    HW111948   0.043   0.702   4.411
 3683SOL    HW211949   0.093   0.854   4.381
 3684SOL     OW11950   1.865   6.947   6.135
 3684SOL    HW111951   1.862   0.025   6.119
 3684SOL    HW211952   1.958   6.914   6.122
 3685SOL     OW11953   2.520   5.671   5.245
 3685SOL    HW111954   2.510   5.688   5.343
 3685SOL    HW211955   2.613   5.637   5.226
 3686SOL     OW11956   0.046   3.609   3.648
 3686SOL    HW111957   0.087   3.664   3.575
 3686SOL    HW211958   6.968   3.608   3.637
 3687SOL     OW11959   4.956   6.480   3.105
 3687SOL    HW111960   4.927   6.397   3.057
 3687SOL    HW211961   4.974   6.459   3.201
 3688SOL     OW11962   6.282   3.389   0.004
 3688SOL    HW111963   6.257   3.326   6.952
 3688SOL    HW211964   6.208   3.395   0.071
 3689SOL     OW11965   1.914   1.641   5.343
 3689SOL    HW111966   1.977   1.592   5.283
 3689SOL    HW211967   1.822   1.601   5.334
 3690SOL     OW11968   5.197   5.546   0.671
 3690SOL    HW111969   5.278   5.604   0.660
 3690SOL    HW211970   5.117   5.594   0.637
 3691SOL     OW11971   3.013   1.935   6.075
 3691SOL    HW111972   2.982   1.847   6.040
 3691SOL    HW211973   2.953   2.008   6.041
 3692SOL     OW11974   6.767   4.221   5.984
 3692SOL    HW111975   6.811   4.310   5.998
 3692SOL    HW211976   6.760   4.173   6.071
 3693SOL     OW11977   0.735   1.686   2.785
 3693SOL    HW111978   0.731   1.785   2.800
 3693SOL    HW211979   0.830   1.656   2.791
 3694SOL     OW11980   1.043   0.799   1.605
 3694SOL    HW111981   1.093   0.842   1.530
 3694SOL    HW211982   0.948   0.784   1.577
 3695SOL     OW11983   6.695   2.510   2.515
 3695SOL    HW111984   6.766   2.509   2.585
 3695SOL    HW211985   6.738   2.517   2.425
 3696SOL     OW11986   5.104   1.010   4.905
 3696SOL    HW111987   5.147   1.007   4.995
 3696SOL    HW211988   5.087   0.917   4.873
 3697SOL     OW11989   6.526   5.915   3.199
 3697SOL    HW111990   6.455   5.863   3.152
 3697SOL    HW211991   6.539   5.878   3.291
 3698SOL     OW11992   1.852   0.974   3.686
 3698SOL    HW111993   1.838   0.906   3.759
 3698SOL    HW211994   1.874   1.062   3.727
 3699SOL     OW11995   2.262   2.094   4.008
 3699SOL    HW111996   2.271   2.192   4.026
 3699SOL    HW211997   2.332   2.065   3.943
 3700SOL     OW11998   1.750   5.331   5.067
 3700SOL    HW111999   1.767   5.402   5.136
 3700SOL    HW212000   1.690   5.368   4.996
 3701SOL     OW12001   1.118   6.313   1.824
 3701SOL    HW112002   1.133   6.328   1.922
 3701SOL    HW212003   1.022   6.292   1.807
 3702SOL     OW12004   5.956   6.411   4.114
 3702SOL    HW112005   5.880   6.348   4.102
 3702SOL    HW212006   6.025   6.370   4.174
 3703SOL     OW12007   1.275   1.279   6.390
 3703SOL    HW112008   1.327   1.326   6.319
 3703SOL    HW212009   1.181   1.265   6.358
 3704SOL     OW12010   5.699   2.943   1.150
 3704SOL    HW112011   5.726   2.847   1.151
 3704SOL    HW212012   5.692   2.975   1.056
 3705SOL     OW12013   5.098   4.863   3.745
 3705SOL    HW112014   5.101   4.944   3.804
 3705SOL    HW212015   5.174   4.866   3.680
 3706SOL     OW12016   0.529   3.835   0.635
 3706SOL    HW112017   0.510   3.824   0.733
 3706SOL    HW212018   0.451   3.804   0.582
 3707SOL     OW12019   3.420   5.105   3.911
 3707SOL    HW112020   3.339   5.056   3.880
 3707SOL    HW212021   3.397   5.165   3.987
 3708SOL     OW12022   4.130   6.626   1.380
 3708SOL    HW112023   4.181   6.549   1.420
 3708SOL    HW212024   4.131   6.618   1.281
 3709SOL     OW12025   1.690   0.197   1.545
 3709SOL    HW112026   1.753   0.216   1.470
 3709SOL    HW212027   1.743   0.170   1.626
 3710SOL     OW12028   0.793   4.828   5.156
 3710SOL    HW112029   0.758   4.753   5.099
 3710SOL    HW212030   0.740   4.832   5.241
 3711SOL     OW12031   1.633   6.260   4.851
 3711SOL    HW112032   1.680   6.196   4.911
 3711SOL    HW212033   1.568   6.315   4.905
 3712SOL     OW12034   2.443   5.299   6.931
 3712SOL    HW112035   2.532   5.285   6.889
 3712SOL    HW212036   2.391   5.213   6.928
 3713SOL     OW12037   6.727   6.937   4.754
 3713SOL    HW112038   6.799   7.001   4.780
 3713SOL    HW212039   6.750   6.845   4.787
 3714SOL     OW12040   0.831   4.932   6.843
 3714SOL    HW112041   0.750   4.885   6.809
 3714SOL    HW212042   0.821   4.949   6.942
 3715SOL     OW12043   0.591   5.817   3.316
 3715SOL    HW112044   0.653   5.860   3.251
 3715SOL    HW212045   0.594   5.867   3.403
 3716SOL     OW12046   6.418   5.875   3.937
 3716SOL    HW112047   6.477   5.954   3.926
 3716SOL    HW212048   6.415   5.822   3.853
 3717SOL     OW12049   4.902   1.402   0.282
 3717SOL    HW112050   4.919   1.398   0.381
 3717SOL    HW212051   4.932   1.317   0.239
 3718SOL     OW12052   0.374   7.000   6.775
 3718SOL    HW112053   0.284   6.992   6.817
 3718SOL    HW212054   0.426   0.050   6.823
 3719SOL     OW12055   4.251   3.252   6.378
 3719SOL    HW112056   4.193   3.183   6.335
 3719SOL    HW212057   4.344   3.217   6.386
 3720SOL     OW12058   5.759   3.428   1.321
 3720SOL    HW112059   5.791   3.334   1.315
 3720SOL    HW212060   5.660   3.429   1.334
 3721SOL     OW12061   6.455   5.599   6.928
 3721SOL    HW112062   6.521   5.672   6.907
 3721SOL    HW212063   6.502   5.511   6.924
 3722SOL     OW12064   4.655   6.903   1.747
 3722SOL    HW112065   4.591   6.872   1.677
 3722SOL    HW212066   4.651   7.002   1.755
 3723SOL     OW12067   4.598   5.199   0.150
 3723SOL    HW112068   4.569   5.135   0.221
 3723SOL    HW212069   4.520   5.257   0.124
 3724SOL     OW12070   1.702   5.446   5.553
 3724SOL    HW112071   1.757   5.362   5.555
 3724SOL    HW212072   1.730   5.506   5.628
 3725SOL     OW12073   0.279   6.394   7.018
 3725SOL    HW112074   0.282   6.403   6.918
 3725SOL    HW212075   0.263   6.298   0.020
 3726SOL     OW12076   5.476   4.516   4.534
 3726SOL    HW112077   5.531   4.479   4.608
 3726SOL    HW212078   5.407   4.578   4.571
 3727SOL     OW12079   0.184   3.508   4.645
 3727SOL    HW112080   0.233   3.423   4.665
 3727SOL    HW212081   0.243   3.586   4.665
 3728SOL     OW12082   3.049   3.107   0.259
 3728SOL    HW112083   3.114   3.032   0.273
 3728SOL    HW212084   3.033   3.155   0.345
 3729SOL     OW12085   0.409   0.327   5.043
 3729SOL    HW112086   0.368   0.417   5.028
 3729SOL    HW212087   0.336   0.258   5.047
 3730SOL     OW12088   4.663   6.854   5.783
 3730SOL    HW112089   4.678   6.951   5.765
 3730SOL    HW212090   4.566   6.837   5.800
 3731SOL     OW12091   0.513   1.170   0.058
 3731SOL    HW112092   0.604   1.168   0.016
 3731SOL    HW212093   0.489   1.078   0.090
 3732SOL     OW12094   1.528   1.924   0.894
 3732SOL    HW112095   1.627   1.914   0.898
 3732SOL    HW212096   1.505   2.017   0.864
 3733SOL     OW12097   1.746   3.004   3.732
 3733SOL    HW112098   1.708   2.913   3.721
 3733SOL    HW212099   1.841   3.004   3.700
 3734SOL     OW12100   4.291   0.400   1.411
 3734SOL    HW112101   4.257   0.480   1.362
 3734SOL    HW212102   4.241   0.388   1.496
 3735SOL     OW12103   4.131   6.608   2.395
 3735SOL    HW112104   4.158   6.576   2.486
 3735SOL    HW212105   4.067   6.684   2.404
 3736SOL     OW12106   6.309   0.638   0.653
 3736SOL    HW112107   6.385   0.596   0.703
 3736SOL    HW212108   6.345   0.707   0.589
 3737SOL     OW12109   6.140   2.606   3.510
 3737SOL    HW112110   6.234   2.600   3.477
 3737SOL    HW212111   6.121   2.530   3.572
 3738SOL     OW12112   6.753   5.818   0.986
 3738SOL    HW112113   6.782   5.901   0.938
 3738SOL    HW212114   6.789   5.820   1.079
 3739SOL     OW12115   2.896   4.677   1.687
 3739SOL    HW112116   2.983   4.714   1.718
 3739SOL    HW212117   2.855   4.624   1.762
 3740SOL     OW12118   6.051   5.946   6.764
 3740SOL    HW112119   6.124   5.878   6.774
 3740SOL    HW212120   5.963   5.904   6.786
 3741SOL     OW12121   5.054   2.649   0.113
 3741SOL    HW112122   5.028   2.567   0.164
 3741SOL    HW212123   4.973   2.705   0.095
 3742SOL     OW12124   5.035   5.759   0.158
 3742SOL    HW112125   4.955   5.792   0.207
 3742SOL    HW212126   5.115   5.765   0.217
 3743SOL     OW12127   4.708   4.205   1.465
 3743SOL    HW112128   4.666   4.242   1.548
 3743SOL    HW212129   4.801   4.242   1.455
 3744SOL     OW12130   1.374   6.662   1.887
 3744SOL    HW112131   1.300   6.730   1.884
 3744SOL    HW212132   1.378   6.621   1.978
 3745SOL     OW12133   5.079   3.554   2.494
 3745SOL    HW112134   5.090   3.580   2.398
 3745SOL    HW212135   5.011   3.480   2.501
 3746SOL     OW12136   6.754   0.369   3.574
 3746SOL    HW112137   6.664   0.351   3.613
 3746SOL    HW212138   6.745   0.434   3.499
 3747SOL     OW12139   4.413   6.710   5.985
 3747SOL    HW112140   4.451   6.802   5.980
 3747SOL    HW212141   4.475   6.651   6.035
 3748SOL     OW12142   6.073   0.978   2.489
 3748SOL    HW112143   6.139   1.012   2.422
 3748SOL    HW212144   5.981   0.985   2.450
 3749SOL     OW12145   1.301   5.424   2.736
 3749SOL    HW112146   1.286   5.523   2.747
 3749SOL    HW212147   1.391   5.399   2.772
 3750SOL     OW12148   5.635   4.587   0.791
 3750SOL    HW112149   5.717   4.639   0.815
 3750SOL    HW212150   5.620   4.594   0.692
 3751SOL     OW12151   1.239   3.044   1.139
 3751SOL    HW112152   1.314   3.017   1.079
 3751SOL    HW212153   1.152   3.031   1.092
 3752SOL     OW12154   0.375   0.362   6.574
 3752SOL    HW112155   0.430   0.389   6.653
 3752SOL    HW212156   0.281   0.345   6.603
 3753SOL     OW12157   0.745   6.430   4.981
 3753SOL    HW112158   0.790   6.486   4.911
 3753SOL    HW212159   0.659   6.473   5.008
 3754SOL     OW12160   5.453   6.205   1.293
 3754SOL    HW112161   5.413   6.116   1.268
 3754SOL    HW212162   5.419   6.275   1.230
 3755SOL     OW12163   5.455   5.485   3.993
 3755SOL    HW112164   5.448   5.582   3.966
 3755SOL    HW212165   5.512   5.437   3.927
 3756SOL     OW12166   2.300   0.639   6.031
 3756SOL    HW112167   2.390   0.626   5.990
 3756SOL    HW212168   2.309   0.690   6.117
 3757SOL     OW12169   3.572   5.741   5.902
 3757SOL    HW112170   3.591   5.643   5.912
 3757SOL    HW212171   3.637   5.781   5.838
 3758SOL     OW12172   2.006   1.708   4.397
 3758SOL    HW112173   1.946   1.726   4.319
 3758SOL    HW212174   1.961   1.735   4.482
 3759SOL     OW12175   4.670   5.199   5.399
 3759SOL    HW112176   4.612   5.264   5.349
 3759SOL    HW212177   4.667   5.221   5.497
 3760SOL     OW12178   1.184   3.680   3.179
 3760SOL    HW112179   1.224   3.597   3.217
 3760SOL    HW212180   1.257   3.737   3.140
 3761SOL     OW12181   0.560   6.799   4.974
 3761SOL    HW112182   0.577   6.835   4.882
 3761SOL    HW212183   0.463   6.809   4.996
 3762SOL     OW12184   1.023   4.421   6.755
 3762SOL    HW112185   1.105   4.370   6.783
 3762SOL    HW212186   1.044   4.519   6.753
 3763SOL     OW12187   6.695   4.435   6.849
 3763SOL    HW112188   6.673   4.530   6.826
 3763SOL    HW212189   6.650   4.374   6.785
 3764SOL     OW12190   2.037   0.928   4.744
 3764SOL    HW112191   2.078   0.920   4.835
 3764SOL    HW212192   2.060   0.847   4.690
 3765SOL     OW12193   4.805   0.830   3.281
 3765SOL    HW112194   4.751   0.746   3.276
 3765SOL    HW212195   4.744   0.909   3.281
 3766SOL     OW12196   0.655   0.506   4.085
 3766SOL    HW112197   0.699   0.486   4.173
 3766SOL    HW212198   0.713   0.474   4.010
 3767SOL     OW12199   1.898   4.717   0.460
 3767SOL    HW112200   1.908   4.770   0.376
 3767SOL    HW212201   1.816   4.661   0.455
 3768SOL     OW12202   3.564   6.534   6.511
 3768SOL    HW112203   3.663   6.538   6.502
 3768SOL    HW212204   3.526   6.484   6.433
 3769SOL     OW12205   5.177   6.070   5.589
 3769SOL    HW112206   5.184   6.137   5.515
 3769SOL    HW212207   5.257   6.009   5.586
 3770SOL     OW12208   2.529   0.810   6.146
 3770SOL    HW112209   2.506   0.808   6.243
 3770SOL    HW212210   2.465   0.870   6.098
 3771SOL     OW12211   5.308   2.081   0.464
 3771SOL    HW112212   5.291   2.048   0.371
 3771SOL    HW212213   5.369   2.018   0.511
 3772SOL     OW12214   6.115   1.123   0.753
 3772SOL    HW112215   6.105   1.024   0.746
 3772SOL    HW212216   6.097   1.164   0.663
 3773SOL     OW12217   5.677   3.257   6.076
 3773SOL    HW112218   5.741   3.328   6.047
 3773SOL    HW212219   5.721   3.198   6.143
 3774SOL     OW12220   1.339   6.783   6.656
 3774SOL    HW112221   1.424   6.835   6.662
 3774SOL    HW212222   1.261   6.845   6.661
 3775SOL     OW12223   5.516   3.746   2.349
 3775SOL    HW112224   5.480   3.786   2.265
 3775SOL    HW212225   5.476   3.656   2.362
 3776SOL     OW12226   2.432   1.388   2.214
 3776SOL    HW112227   2.425   1.305   2.158
 3776SOL    HW212228   2.433   1.468   2.154
 3777SOL     OW12229   3.016   4.861   4.720
 3777SOL    HW112230   2.957   4.933   4.757
 3777SOL    HW212231   3.092   4.844   4.783
 3778SOL     OW12232   2.460   5.559   2.779
 3778SOL    HW112233   2.506   5.640   2.744
 3778SOL    HW212234   2.366   5.582   2.804
 3779SOL     OW12235   2.723   4.959   6.800
 3779SOL    HW112236   2.754   4.986   6.709
 3779SOL    HW212237   2.784   4.889   6.837
 3780SOL     OW12238   3.768   5.147   4.678
 3780SOL    HW112239   3.670   5.153   4.696
 3780SOL    HW212240   3.814   5.228   4.717
 3781SOL     OW12241   2.011   6.195   3.920
 3781SOL    HW112242   2.044   6.104   3.945
 3781SOL    HW212243   2.046   6.220   3.830
 3782SOL     OW12244   2.598   2.407   4.433
 3782SOL    HW112245   2.649   2.359   4.362
 3782SOL    HW212246   2.557   2.490   4.395
 3783SOL     OW12247   6.545   7.003   5.019
 3783SOL    HW112248   6.619   6.935   5.014
 3783SOL    HW212249   6.548   0.040   4.937
 3784SOL     OW12250   5.376   1.648   3.695
 3784SOL    HW112251   5.350   1.619   3.787
 3784SOL    HW212252   5.309   1.715   3.661
 3785SOL     OW12253   2.514   1.425   0.701
 3785SOL    HW112254   2.571   1.361   0.751
 3785SOL    HW212255   2.429   1.380   0.673
 3786SOL     OW12256   3.000   4.940   4.011
 3786SOL    HW112257   2.983   4.883   4.091
 3786SOL    HW212258   3.090   4.918   3.973
 3787SOL     OW12259   5.187   0.164   3.897
 3787SOL    HW112260   5.129   0.227   3.846
 3787SOL    HW212261   5.185   0.074   3.853
 3788SOL     OW12262   6.322   3.367   3.756
 3788SOL    HW112263   6.291   3.461   3.752
 3788SOL    HW212264   6.347   3.335   3.665
 3789SOL     OW12265   1.712   4.490   4.262
 3789SOL    HW112266   1.638   4.556   4.247
 3789SOL    HW212267   1.719   4.429   4.182
 3790SOL     OW12268   2.144   3.776   4.666
 3790SOL    HW112269   2.137   3.766   4.567
 3790SOL    HW212270   2.179   3.868   4.688
 3791SOL     OW12271   5.462   6.662   1.276
 3791SOL    HW112272   5.414   6.733   1.225
 3791SOL    HW212273   5.510   6.703   1.354
 3792SOL     OW12274   6.817   0.242   4.828
 3792SOL    HW112275   6.720   0.222   4.838
 3792SOL    HW212276   6.836   0.272   4.735
 3793SOL     OW12277   2.179   1.079   2.805
 3793SOL    HW112278   2.173   0.980   2.794
 3793SOL    HW212279   2.180   1.123   2.715
 3794SOL     OW12280   3.826   5.290   1.718
 3794SOL    HW112281   3.767   5.370   1.730
 3794SOL    HW212282   3.874   5.271   1.804
 3795SOL     OW12283   4.499   6.714   6.590
 3795SOL    HW112284   4.548   6.801   6.595
 3795SOL    HW212285   4.428   6.719   6.520
 3796SOL     OW12286   1.691   1.944   1.289
 3796SOL    HW112287   1.725   2.013   1.354
 3796SOL    HW212288   1.760   1.873   1.276
 3797SOL     OW12289   6.524   5.333   2.108
 3797SOL    HW112290   6.569   5.261   2.055
 3797SOL    HW212291   6.471   5.392   2.047
 3798SOL     OW12292   2.683   4.995   3.084
 3798SOL    HW112293   2.585   4.976   3.097
 3798SOL    HW212294   2.731   4.910   3.066
 3799SOL     OW12295   1.228   1.741   4.493
 3799SOL    HW112296   1.236   1.684   4.575
 3799SOL    HW212297   1.138   1.786   4.493
 3800SOL     OW12298   5.171   2.557   4.937
 3800SOL    HW112299   5.111   2.591   5.009
 3800SOL    HW212300   5.190   2.629   4.871
 3801SOL     OW12301   6.309   5.653   5.357
 3801SOL    HW112302   6.309   5.590   5.279
 3801SOL    HW212303   6.262   5.737   5.331
 3802SOL     OW12304   1.220   2.379   5.190
 3802SOL    HW112305   1.218   2.345   5.095
 3802SOL    HW212306   1.153   2.452   5.201
 3803SOL     OW12307   4.360   0.968   2.617
 3803SOL    HW112308   4.403   0.952   2.528
 3803SOL    HW212309   4.325   0.881   2.652
 3804SOL     OW12310   4.388   1.986   4.696
 3804SOL    HW112311   4.338   2.015   4.614
 3804SOL    HW212312   4.473   1.941   4.670
 3805SOL     OW12313   3.391   4.111   1.666
 3805SOL    HW112314   3.372   4.032   1.723
 3805SOL    HW212315   3.447   4.176   1.717
 3806SOL     OW12316   2.955   2.479   0.051
 3806SOL    HW112317   2.920   2.462   6.980
 3806SOL    HW212318   3.055   2.487   0.047
 3807SOL     OW12319   1.545   0.734   4.375
 3807SOL    HW112320   1.595   0.807   4.422
 3807SOL    HW212321   1.487   0.686   4.441
 3808SOL     OW12322   3.174   0.038   2.181
 3808SOL    HW112323   3.176   0.136   2.158
 3808SOL    HW212324   3.263   7.018   2.161
 3809SOL     OW12325   5.946   2.015   6.939
 3809SOL    HW112326   5.959   1.940   6.873
 3809SOL    HW212327   5.869   1.993   6.999
 3810SOL     OW12328   4.000   3.049   5.345
 3810SOL    HW112329   3.974   2.967   5.294
 3810SOL    HW212330   3.958   3.129   5.303
 3811SOL     OW12331   0.371   3.867   4.304
 3811SOL    HW112332   0.291   3.897   4.252
 3811SOL    HW212333   0.441   3.834   4.241
 3812SOL     OW12334   5.978   1.506   5.981
 3812SOL    HW112335   6.073   1.501   5.950
 3812SOL    HW212336   5.972   1.566   6.060
 3813SOL     OW12337   4.133   4.938   1.091
 3813SOL    HW112338   4.103   4.896   1.176
 3813SOL    HW212339   4.053   4.962   1.035
 3814SOL     OW12340   6.942   5.665   1.159
 3814SOL    HW112341   6.983   5.683   1.070
 3814SOL    HW212342   6.970   5.736   1.223
 3815SOL     OW12343   4.790   2.274   0.666
 3815SOL    HW112344   4.726   2.238   0.734
 3815SOL    HW212345   4.882   2.275   0.705
 3816SOL     OW12346   0.183   6.020   1.801
 3816SOL    HW112347   0.193   6.115   1.770
 3816SOL    HW212348   0.115   5.973   1.744
 3817SOL     OW12349   4.688   2.649   4.471
 3817SOL    HW112350   4.671   2.616   4.378
 3817SOL    HW212351   4.623   2.607   4.534
 3818SOL     OW12352   4.277   6.518   1.955
 3818SOL    HW112353   4.328   6.580   2.015
 3818SOL    HW212354   4.323   6.511   1.867
 3819SOL     OW12355   5.553   5.731   0.373
 3819SOL    HW112356   5.569   5.694   0.464
 3819SOL    HW212357   5.535   5.657   0.309
 3820SOL     OW12358   6.142   5.915   3.470
 3820SOL    HW112359   6.098   5.960   3.392
 3820SOL    HW212360   6.235   5.888   3.446
 3821SOL     OW12361   1.863   3.288   1.675
 3821SOL    HW112362   1.833   3.315   1.583
 3821SOL    HW212363   1.933   3.351   1.708
 3822SOL     OW12364   1.663   5.627   2.152
 3822SOL    HW112365   1.617   5.695   2.095
 3822SOL    HW212366   1.595   5.576   2.205
 3823SOL     OW12367   4.067   2.144   4.980
 3823SOL    HW112368   3.973   2.150   5.011
 3823SOL    HW212369   4.114   2.230   4.999
 3824SOL     OW12370   6.226   2.355   5.872
 3824SOL    HW112371   6.273   2.274   5.907
 3824SOL    HW212372   6.286   2.404   5.809
 3825SOL     OW12373   6.756   7.017   6.906
 3825SOL    HW112374   6.798   0.016   6.818
 3825SOL    HW212375   6.748   0.081   6.959
 3826SOL     OW12376   0.023   3.543   0.348
 3826SOL    HW112377   0.092   3.542   0.275
 3826SOL    HW212378   0.045   3.471   0.414
 3827SOL     OW12379   3.860   4.412   0.908
 3827SOL    HW112380   3.833   4.374   0.819
 3827SOL    HW212381   3.848   4.511   0.907
 3828SOL     OW12382   4.609   2.021   0.627
 3828SOL    HW112383   4.516   2.056   0.639
 3828SOL    HW212384   4.646   2.055   0.540
 3829SOL     OW12385   2.482   5.057   3.510
 3829SOL    HW112386   2.562   5.014   3.469
 3829SOL    HW212387   2.491   5.056   3.609
 3830SOL     OW12388   1.586   0.050   5.525
 3830SOL    HW112389   1.656   0.060   5.454
 3830SOL    HW212390   1.499   0.027   5.481
 3831SOL     OW12391   3.963   1.801   2.250
 3831SOL    HW112392   3.900   1.725   2.270
 3831SOL    HW212393   3.917   1.869   2.194
 3832SOL     OW12394   6.460   1.179   1.499
 3832SOL    HW112395   6.502   1.260   1.459
 3832SOL    HW212396   6.505   1.096   1.465
 3833SOL     OW12397   0.558   4.938   0.280
 3833SOL    HW112398   0.528   4.912   0.188
 3833SOL    HW212399   0.480   4.937   0.343
 3834SOL     OW12400   2.759   2.174   0.759
 3834SOL    HW112401   2.737   2.245   0.692
 3834SOL    HW212402   2.859   2.161   0.761
 3835SOL     OW12403   3.856   5.580   5.531
 3835SOL    HW112404   3.933   5.567   5.469
 3835SOL    HW212405   3.873   5.530   5.616
 3836SOL     OW12406   1.768   3.537   5.988
 3836SOL    HW112407   1.847   3.557   5.929
 3836SOL    HW212408   1.741   3.442   5.976
 3837SOL     OW12409   4.550   3.569   0.152
 3837SOL    HW112410   4.595   3.481   0.166
 3837SOL    HW212411   4.467   3.574   0.207
 3838SOL     OW12412   5.133   2.930   4.309
 3838SOL    HW112413   5.223   2.900   4.278
 3838SOL    HW212414   5.128   3.029   4.309
 3839SOL     OW12415   5.584   6.921   5.376
 3839SOL    HW112416   5.678   6.902   5.348
 3839SOL    HW212417   5.583   6.959   5.468
 3840SOL     OW12418   1.256   1.023   4.863
 3840SOL    HW112419   1.242   1.013   4.764
 3840SOL    HW212420   1.350   1.052   4.880
 3841SOL     OW12421   0.857   4.168   4.843
 3841SOL    HW112422   0.920   4.162   4.921
 3841SOL    HW212423   0.877   4.095   4.778
 3842SOL     OW12424   0.576   5.510   0.025
 3842SOL    HW112425   0.524   5.589   0.056
 3842SOL    HW212426   0.545   5.428   0.072
 3843SOL     OW12427   6.608   3.185   0.613
 3843SOL    HW112428   6.659   3.216   0.693
 3843SOL    HW212429   6.665   3.193   0.532
 3844SOL     OW12430   1.433   5.467   5.949
 3844SOL    HW112431   1.429   5.515   5.861
 3844SOL    HW212432   1.461   5.372   5.933
 3845SOL     OW12433   3.251   2.901   2.625
 3845SOL    HW112434   3.179   2.832   2.624
 3845SOL    HW212435   3.214   2.989   2.595
 3846SOL     OW12436   6.529   4.613   3.698
 3846SOL    HW112437   6.568   4.669   3.625
 3846SOL    HW212438   6.600   4.556   3.739
 3847SOL     OW12439   6.515   1.009   6.475
 3847SOL    HW112440   6.451   0.961   6.415
 3847SOL    HW212441   6.464   1.067   6.539
 3848SOL     OW12442   2.142   5.286   2.650
 3848SOL    HW112443   2.149   5.204   2.593
 3848SOL    HW212444   2.050   5.324   2.643
 3849SOL     OW12445   0.696   1.540   5.728
 3849SOL    HW112446   0.709   1.441   5.727
 3849SOL    HW212447   0.739   1.578   5.809
 3850SOL     OW12448   3.077   4.028   1.759
 3850SOL    HW112449   3.114   3.938   1.736
 3850SOL    HW212450   3.012   4.019   1.835
 3851SOL     OW12451   2.161   3.922   3.395
 3851SOL    HW112452   2.247   3.965   3.425
 3851SOL    HW212453   2.149   3.936   3.297
 3852SOL     OW12454   4.865   1.112   4.910
 3852SOL    HW112455   4.857   1.206   4.942
 3852SOL    HW212456   4.959   1.080   4.923
 3853SOL     OW12457   0.857   3.114   2.441
 3853SOL    HW112458   0.912   3.185   2.485
 3853SOL    HW212459   0.842   3.040   2.506
 3854SOL     OW12460   0.985   3.479   3.867
 3854SOL    HW112461   0.938   3.437   3.790
 3854SOL    HW212462   0.931   3.468   3.950
 3855SOL     OW12463   6.019   4.729   5.791
 3855SOL    HW112464   6.063   4.732   5.701
 3855SOL    HW212465   6.036   4.640   5.833
 3856SOL     OW12466   7.011   0.470   6.046
 3856SOL    HW112467   0.037   0.410   5.981
 3856SOL    HW212468   7.016   0.564   6.014
 3857SOL     OW12469   0.986   6.549   5.096
 3857SOL    HW112470   0.918   6.519   5.163
 3857SOL    HW212471   1.060   6.482   5.091
 3858SOL     OW12472   1.166   5.788   6.306
 3858SOL    HW112473   1.081   5.790   6.252
 3858SOL    HW212474   1.182   5.694   6.337
 3859SOL     OW12475   6.818   2.823   3.507
 3859SOL    HW112476   6.873   2.785   3.581
 3859SOL    HW212477   6.867   2.900   3.465
 3860SOL     OW12478   2.197   5.618   5.520
 3860SOL    HW112479   2.236   5.607   5.611
 3860SOL    HW212480   2.263   5.589   5.451
 3861SOL     OW12481   5.034   4.623   1.602
 3861SOL    HW112482   5.026   4.638   1.504
 3861SOL    HW212483   5.015   4.527   1.623
 3862SOL     OW12484   0.461   6.960   5.861
 3862SOL    HW112485   0.555   6.966   5.826
 3862SOL    HW212486   0.462   6.914   5.950
 3863SOL     OW12487   3.503   3.605   0.967
 3863SOL    HW112488   3.406   3.617   0.989
 3863SOL    HW212489   3.553   3.583   1.051
 3864SOL     OW12490   3.610   1.912   6.876
 3864SOL    HW112491   3.661   1.997   6.883
 3864SOL    HW212492   3.672   1.834   6.891
 3865SOL     OW12493   3.991   0.422   1.958
 3865SOL    HW112494   3.964   0.517   1.975
 3865SOL    HW212495   3.967   0.366   2.037
 3866SOL     OW12496   4.090   6.981   1.145
 3866SOL    HW112497   4.098   6.889   1.107
 3866SOL    HW212498   4.006   6.986   1.200
 3867SOL     OW12499   1.953   3.546   3.242
 3867SOL    HW112500   1.930   3.637   3.275
 3867SOL    HW212501   1.910   3.477   3.300
 3868SOL     OW12502   2.708   6.731   1.925
 3868SOL    HW112503   2.778   6.746   1.994
 3868SOL    HW212504   2.709   6.807   1.859
 3869SOL     OW12505   0.264   2.475   3.450
 3869SOL    HW112506   0.302   2.424   3.373
 3869SOL    HW212507   0.189   2.422   3.491
 3870SOL     OW12508   3.140   5.270   6.930
 3870SOL    HW112509   3.176   5.307   7.015
 3870SOL    HW212510   3.075   5.197   6.949
 3871SOL     OW12511   3.263   0.243   2.736
 3871SOL    HW112512   3.226   0.177   2.801
 3871SOL    HW212513   3.348   0.282   2.773
 3872SOL     OW12514   4.361   3.943   1.471
 3872SOL    HW112515   4.367   4.013   1.542
 3872SOL    HW212516   4.325   3.984   1.387
 3873SOL     OW12517   5.767   5.102   1.587
 3873SOL    HW112518   5.850   5.157   1.597
 3873SOL    HW212519   5.698   5.133   1.653
 3874SOL     OW12520   3.927   6.601   0.307
 3874SOL    HW112521   4.014   6.605   0.257
 3874SOL    HW212522   3.859   6.553   0.251
 3875SOL     OW12523   1.562   4.549   1.293
 3875SOL    HW112524   1.478   4.498   1.281
 3875SOL    HW212525   1.600   4.530   1.384
 3876SOL     OW12526   5.805   4.725   4.869
 3876SOL    HW112527   5.766   4.789   4.935
 3876SOL    HW212528   5.771   4.747   4.777
 3877SOL     OW12529   6.325   1.359   2.488
 3877SOL    HW112530   6.385   1.289   2.527
 3877SOL    HW212531   6.363   1.449   2.507
 3878SOL     OW12532   4.067   6.683   6.431
 3878SOL    HW112533   4.034   6.734   6.352
 3878SOL    HW212534   4.156   6.642   6.409
 3879SOL     OW12535   4.099   5.474   1.810
 3879SOL    HW112536   4.019   5.519   1.771
 3879SOL    HW212537   4.162   5.543   1.847
 3880SOL     OW12538   5.833   3.309   2.991
 3880SOL    HW112539   5.868   3.224   3.030
 3880SOL    HW212540   5.827   3.302   2.892
 3881SOL     OW12541   0.888   4.575   0.530
 3881SOL    HW112542   0.873   4.659   0.478
 3881SOL    HW212543   0.986   4.562   0.544
 3882SOL     OW12544   6.572   1.544   5.481
 3882SOL    HW112545   6.648   1.485   5.456
 3882SOL    HW212546   6.600   1.640   5.475
 3883SOL     OW12547   4.249   1.042   3.655
 3883SOL    HW112548   4.320   1.004   3.714
 3883SOL    HW212549   4.290   1.093   3.580
 3884SOL     OW12550   1.625   6.322   5.232
 3884SOL    HW112551   1.626   6.366   5.321
 3884SOL    HW212552   1.541   6.269   5.222
 3885SOL     OW12553   6.448   1.162   3.692
 3885SOL    HW112554   6.428   1.256   3.665
 3885SOL    HW212555   6.459   1.105   3.611
 3886SOL     OW12556   6.776   6.851   5.065
 3886SOL    HW112557   6.814   6.822   5.154
 3886SOL    HW212558   6.839   6.915   5.022
 3887SOL     OW12559   3.973   1.956   5.319
 3887SOL    HW112560   3.894   1.940   5.259
 3887SOL    HW212561   3.964   2.045   5.363
 3888SOL     OW12562   6.328   1.430   0.880
 3888SOL    HW112563   6.395   1.461   0.813
 3888SOL    HW212564   6.369   1.426   0.971
 3889SOL     OW12565   0.762   5.958   6.616
 3889SOL    HW112566   0.668   5.940   6.587
 3889SOL    HW212567   0.785   5.898   6.693
 3890SOL     OW12568   5.592   4.778   3.086
 3890SOL    HW112569   5.691   4.784   3.100
 3890SOL    HW212570   5.568   4.820   2.998
 3891SOL     OW12571   5.246   5.195   4.892
 3891SOL    HW112572   5.178   5.164   4.958
 3891SOL    HW212573   5.264   5.292   4.905
 3892SOL     OW12574   5.887   6.768   2.754
 3892SOL    HW112575   5.882   6.826   2.672
 3892SOL    HW212576   5.872   6.824   2.835
 3893SOL     OW12577   3.145   5.743   4.642
 3893SOL    HW112578   3.223   5.686   4.667
 3893SOL    HW212579   3.173   5.811   4.574
 3894SOL     OW12580   4.556   3.761   0.470
 3894SOL    HW112581   4.641   3.726   0.432
 3894SOL    HW212582   4.554   3.860   0.462
 3895SOL     OW12583   2.490   1.293   5.878
 3895SOL    HW112584   2.549   1.231   5.826
 3895SOL    HW212585   2.395   1.263   5.869
 3896SOL     OW12586   0.144   2.948   5.157
 3896SOL    HW112587   0.196   2.863   5.169
 3896SOL    HW212588   0.120   2.985   5.247
 3897SOL     OW12589   3.654   0.488   1.979
 3897SOL    HW112590   3.648   0.579   2.018
 3897SOL    HW212591   3.614   0.488   1.887
 3898SOL     OW12592   4.104   3.309   3.885
 3898SOL    HW112593   4.193   3.338   3.922
 3898SOL    HW212594   4.030   3.348   3.940
 3899SOL     OW12595   4.527   1.899   5.736
 3899SOL    HW112596   4.533   1.886   5.835
 3899SOL    HW212597   4.563   1.989   5.712
 3900SOL     OW12598   6.359   2.675   2.966
 3900SOL    HW112599   6.308   2.602   3.011
 3900SOL    HW212600   6.331   2.681   2.870
 3901SOL     OW12601   1.490   6.835   5.358
 3901SOL    HW112602   1.424   6.812   5.429
 3901SOL    HW212603   1.447   6.893   5.289
 3902SOL     OW12604   4.686   5.287   1.398
 3902SOL    HW112605   4.683   5.209   1.335
 3902SOL    HW212606   4.599   5.292   1.447
 3903SOL     OW12607   4.609   2.672   6.528
 3903SOL    HW112608   4.541   2.615   6.574
 3903SOL    HW212609   4.692   2.676   6.585
 3904SOL     OW12610   1.146   6.223   0.533
 3904SOL    HW112611   1.083   6.177   0.472
 3904SOL    HW212612   1.133   6.190   0.626
 3905SOL     OW12613   6.769   0.750   5.232
 3905SOL    HW112614   6.849   0.810   5.230
 3905SOL    HW212615   6.782   0.680   5.302
 3906SOL     OW12616   2.006   5.159   4.285
 3906SOL    HW112617   2.029   5.225   4.356
 3906SOL    HW212618   2.052   5.072   4.304
 3907SOL     OW12619   6.667   1.133   3.855
 3907SOL    HW112620   6.679   1.215   3.910
 3907SOL    HW212621   6.586   1.143   3.798
 3908SOL     OW12622   1.140   0.369   4.853
 3908SOL    HW112623   1.227   0.321   4.867
 3908SOL    HW212624   1.112   0.412   4.940
 3909SOL     OW12625   5.729   3.192   6.343
 3909SOL    HW112626   5.796   3.119   6.328
 3909SOL    HW212627   5.637   3.154   6.341
 3910SOL     OW12628   3.437   2.287   0.481
 3910SOL    HW112629   3.431   2.187   0.483
 3910SOL    HW212630   3.387   2.324   0.560
 3911SOL     OW12631   6.495   0.986   1.126
 3911SOL    HW112632   6.486   0.964   1.223
 3911SOL    HW212633   6.411   0.961   1.078
 3912SOL     OW12634   4.512   1.526   0.404
 3912SOL    HW112635   4.611   1.543   0.408
 3912SOL    HW212636   4.494   1.447   0.345
 3913SOL     OW12637   4.848   5.472   0.410
 3913SOL    HW112638   4.918   5.537   0.442
 3913SOL    HW212639   4.893   5.394   0.366
 3914SOL     OW12640   5.711   1.110   0.503
 3914SOL    HW112641   5.733   1.147   0.413
 3914SOL    HW212642   5.657   1.026   0.493
 3915SOL     OW12643   4.402   5.366   0.073
 3915SOL    HW112644   4.386   5.431   7.019
 3915SOL    HW212645   4.396   5.415   0.160
 3916SOL     OW12646   1.686   1.163   2.032
 3916SOL    HW112647   1.782   1.140   2.046
 3916SOL    HW212648   1.663   1.244   2.085
 3917SOL     OW12649   2.774   5.370   0.728
 3917SOL    HW112650   2.697   5.426   0.758
 3917SOL    HW212651   2.838   5.357   0.803
 3918SOL     OW12652   5.527   0.648   0.577
 3918SOL    HW112653   5.612   0.624   0.623
 3918SOL    HW212654   5.479   0.565   0.548
 3919SOL     OW12655   3.450   0.236   1.723
 3919SOL    HW112656   3.538   0.192   1.704
 3919SOL    HW212657   3.446   0.325   1.677
 3920SOL     OW12658   3.102   1.053   5.865
 3920SOL    HW112659   3.137   0.968   5.825
 3920SOL    HW212660   3.042   1.098   5.799
 3921SOL     OW12661   0.634   2.905   6.318
 3921SOL    HW112662   0.669   2.996   6.297
 3921SOL    HW212663   0.690   2.836   6.271
 3922SOL     OW12664   5.067   4.834   2.748
 3922SOL    HW112665   5.136   4.856   2.680
 3922SOL    HW212666   5.002   4.767   2.710
 3923SOL     OW12667   5.641   1.106   1.245
 3923SOL    HW112668   5.671   1.181   1.186
 3923SOL    HW212669   5.650   1.019   1.196
 3924SOL     OW12670   6.026   4.480   4.582
 3924SOL    HW112671   6.091   4.528   4.523
 3924SOL    HW212672   6.041   4.381   4.574
 3925SOL     OW12673   4.628   3.906   0.925
 3925SOL    HW112674   4.704   3.882   0.865
 3925SOL    HW212675   4.661   3.909   1.020
 3926SOL     OW12676   0.420   6.835   5.541
 3926SOL    HW112677   0.377   6.868   5.625
 3926SOL    HW212678   0.445   6.914   5.484
 3927SOL     OW12679   5.854   3.248   5.250
 3927SOL    HW112680   5.768   3.201   5.232
 3927SOL    HW212681   5.837   3.331   5.303
 3928SOL     OW12682   2.534   6.297   2.664
 3928SOL    HW112683   2.469   6.318   2.590
 3928SOL    HW212684   2.542   6.198   2.674
 3929SOL     OW12685   0.358   1.976   5.314
 3929SOL    HW112686   0.386   1.933   5.228
 3929SOL    HW212687   0.260   1.991   5.313
 3930SOL     OW12688   0.626   4.294   3.626
 3930SOL    HW112689   0.601   4.240   3.707
 3930SOL    HW212690   0.703   4.353   3.648
 3931SOL     OW12691   1.568   2.580   1.294
 3931SOL    HW112692   1.646   2.543   1.346
 3931SOL    HW212693   1.485   2.570   1.349
 3932SOL     OW12694   1.887   5.454   4.167
 3932SOL    HW112695   1.904   5.377   4.105
 3932SOL    HW212696   1.974   5.489   4.201
 3933SOL     OW12697   1.990   5.090   1.023
 3933SOL    HW112698   1.905   5.038   1.010
 3933SOL    HW212699   2.060   5.057   0.960
 3934SOL     OW12700   0.489   1.365   1.269
 3934SOL    HW112701   0.529   1.292   1.325
 3934SOL    HW212702   0.560   1.408   1.214
 3935SOL     OW12703   6.034   3.674   6.767
 3935SOL    HW112704   6.052   3.750   6.704
 3935SOL    HW212705   5.943   3.637   6.750
 3936SOL     OW12706   0.525   5.368   5.262
 3936SOL    HW112707   0.499   5.286   5.210
 3936SOL    HW212708   0.443   5.423   5.281
 3937SOL     OW12709   6.849   0.428   1.736
 3937SOL    HW112710   6.773   0.367   1.714
 3937SOL    HW212711   6.859   0.435   1.836
 3938SOL     OW12712   0.555   4.603   2.569
 3938SOL    HW112713   0.551   4.521   2.626
 3938SOL    HW212714   0.646   4.644   2.575
 3939SOL     OW12715   1.403   0.914   2.426
 3939SOL    HW112716   1.322   0.971   2.426
 3939SOL    HW212717   1.429   0.891   2.332
 3940SOL     OW12718   3.521   5.401   1.705
 3940SOL    HW112719   3.432   5.416   1.748
 3940SOL    HW212720   3.575   5.486   1.708
 3941SOL     OW12721   5.562   6.683   3.658
 3941SOL    HW112722   5.547   6.623   3.737
 3941SOL    HW212723   5.660   6.698   3.646
 3942SOL     OW12724   6.827   5.842   5.431
 3942SOL    HW112725   6.913   5.799   5.404
 3942SOL    HW212726   6.814   5.830   5.530
 3943SOL     OW12727   1.259   2.757   0.112
 3943SOL    HW112728   1.216   2.780   0.200
 3943SOL    HW212729   1.302   2.667   0.118
 3944SOL     OW12730   5.897   2.233   6.780
 3944SOL    HW112731   5.920   2.176   6.859
 3944SOL    HW212732   5.957   2.314   6.779
 3945SOL     OW12733   6.520   0.362   3.697
 3945SOL    HW112734   6.437   0.312   3.724
 3945SOL    HW212735   6.524   0.448   3.747
 3946SOL     OW12736   1.154   2.876   0.736
 3946SOL    HW112737   1.139   2.805   0.668
 3946SOL    HW212738   1.066   2.917   0.761
 3947SOL     OW12739   5.552   4.928   1.779
 3947SOL    HW112740   5.475   4.866   1.794
 3947SOL    HW212741   5.629   4.877   1.742
 3948SOL     OW12742   1.361   2.767   6.077
 3948SOL    HW112743   1.285   2.709   6.048
 3948SOL    HW212744   1.419   2.787   5.999
 3949SOL     OW12745   6.278   6.318   2.713
 3949SOL    HW112746   6.241   6.332   2.621
 3949SOL    HW212747   6.227   6.374   2.778
 3950SOL     OW12748   3.005   4.580   1.452
 3950SOL    HW112749   2.977   4.588   1.547
 3950SOL    HW212750   3.044   4.489   1.436
 3951SOL     OW12751   0.704   2.524   5.541
 3951SOL    HW112752   0.610   2.491   5.535
 3951SOL    HW212753   0.748   2.484   5.621
 3952SOL     OW12754   6.187   3.791   5.437
 3952SOL    HW112755   6.191   3.822   5.531
 3952SOL    HW212756   6.252   3.716   5.423
 3953SOL     OW12757   3.444   4.049   6.512
 3953SOL    HW112758   3.486   3.958   6.509
 3953SOL    HW212759   3.427   4.080   6.418
 3954SOL     OW12760   0.829   2.880   5.244
 3954SOL    HW112761   0.775   2.804   5.207
 3954SOL    HW212762   0.870   2.851   5.330
 3955SOL     OW12763   6.034   4.710   0.025
 3955SOL    HW112764   6.122   4.680   7.010
 3955SOL    HW212765   6.045   4.738   0.120
 3956SOL     OW12766   1.150   2.507   5.642
 3956SOL    HW112767   1.158   2.591   5.588
 3956SOL    HW212768   1.234   2.453   5.633
 3957SOL     OW12769   1.302   0.708   3.210
 3957SOL    HW112770   1.213   0.752   3.215
 3957SOL    HW212771   1.372   0.768   3.248
 3958SOL     OW12772   5.295   6.254   5.127
 3958SOL    HW112773   5.367   6.301   5.074
 3958SOL    HW212774   5.213   6.246   5.070
 3959SOL     OW12775   2.728   4.952   0.610
 3959SOL    HW112776   2.799   4.999   0.662
 3959SOL    HW212777   2.679   5.017   0.552
 3960SOL     OW12778   4.211   3.244   0.494
 3960SOL    HW112779   4.173   3.294   0.416
 3960SOL    HW212780   4.251   3.158   0.462
 3961SOL     OW12781   5.656   0.698   2.152
 3961SOL    HW112782   5.690   0.759   2.081
 3961SOL    HW212783   5.563   0.725   2.178
 3962SOL     OW12784   0.326   0.377   6.151
 3962SOL    HW112785   0.367   0.290   6.127
 3962SOL    HW212786   0.256   0.400   6.083
 3963SOL     OW12787   5.214   5.834   3.336
 3963SOL    HW112788   5.176   5.812   3.426
 3963SOL    HW212789   5.170   5.776   3.267
 3964SOL     OW12790   5.675   6.269   5.226
 3964SOL    HW112791   5.727   6.326   5.163
 3964SOL    HW212792   5.657   6.180   5.183
 3965SOL     OW12793   3.908   3.582   0.380
 3965SOL    HW112794   3.915   3.588   0.479
 3965SOL    HW212795   3.924   3.672   0.340
 3966SOL     OW12796   5.819   3.912   4.963
 3966SOL    HW112797   5.779   3.834   4.916
 3966SOL    HW212798   5.919   3.908   4.955
 3967SOL     OW12799   0.488   5.812   6.246
 3967SOL    HW112800   0.573   5.852   6.212
 3967SOL    HW212801   0.448   5.753   6.176
 3968SOL     OW12802   6.165   0.453   1.828
 3968SOL    HW112803   6.127   0.374   1.876
 3968SOL    HW212804   6.090   0.515   1.802
 3969SOL     OW12805   0.536   5.273   2.219
 3969SOL    HW112806   0.558   5.339   2.146
 3969SOL    HW212807   0.606   5.202   2.222
 3970SOL     OW12808   5.286   4.581   3.257
 3970SOL    HW112809   5.317   4.675   3.273
 3970SOL    HW212810   5.356   4.532   3.205
 3971SOL     OW12811   1.230   5.862   3.182
 3971SOL    HW112812   1.224   5.939   3.118
 3971SOL    HW212813   1.325   5.834   3.192
 3972SOL     OW12814   1.612   6.710   0.082
 3972SOL    HW112815   1.609   6.680   7.008
 3972SOL    HW212816   1.699   6.758   0.099
 3973SOL     OW12817   2.958   3.839   3.826
 3973SOL    HW112818   2.987   3.893   3.905
 3973SOL    HW212819   3.024   3.765   3.811
 3974SOL     OW12820   6.006   1.836   6.759
 3974SOL    HW112821   5.946   1.887   6.698
 3974SOL    HW212822   6.023   1.745   6.720
 3975SOL     OW12823   0.025   1.200   5.577
 3975SOL    HW112824   0.087   1.121   5.569
 3975SOL    HW212825   0.066   1.279   5.532
 3976SOL     OW12826   0.951   3.034   0.483
 3976SOL    HW112827   0.976   3.086   0.402
 3976SOL    HW212828   0.980   3.084   0.565
 3977SOL     OW12829   3.680   5.919   6.294
 3977SOL    HW112830   3.710   5.880   6.381
 3977SOL    HW212831   3.755   5.971   6.253
 3978SOL     OW12832   6.111   3.441   6.203
 3978SOL    HW112833   6.169   3.393   6.138
 3978SOL    HW212834   6.020   3.454   6.162
 3979SOL     OW12835   0.562   0.016   2.827
 3979SOL    HW112836   0.490   6.973   2.803
 3979SOL    HW212837   0.523   0.106   2.845
 3980SOL     OW12838   5.223   3.083   4.037
 3980SOL    HW112839   5.136   3.100   4.083
 3980SOL    HW212840   5.211   3.096   3.938
 3981SOL     OW12841   6.819   2.594   6.670
 3981SOL    HW112842   6.807   2.614   6.767
 3981SOL    HW212843   6.873   2.511   6.659
 3982SOL     OW12844   2.250   1.730   3.788
 3982SOL    HW112845   2.279   1.635   3.775
 3982SOL    HW212846   2.218   1.743   3.882
 3983SOL     OW12847   3.761   6.254   4.266
 3983SOL    HW112848   3.708   6.292   4.342
 3983SOL    HW212849   3.846   6.306   4.255
 3984SOL     OW12850   1.892   6.822   1.716
 3984SOL    HW112851   1.935   6.842   1.805
 3984SOL    HW212852   1.916   6.894   1.651
 3985SOL     OW12853   1.982   2.807   1.526
 3985SOL    HW112854   1.920   2.866   1.578
 3985SOL    HW212855   2.058   2.779   1.585
 3986SOL     OW12856   0.576   2.539   1.771
 3986SOL    HW112857   0.536   2.454   1.805
 3986SOL    HW212858   0.514   2.580   1.704
 3987SOL     OW12859   2.908   4.722   6.477
 3987SOL    HW112860   2.823   4.727   6.529
 3987SOL    HW212861   2.951   4.633   6.494
 3988SOL     OW12862   4.018   3.059   0.695
 3988SOL    HW112863   4.117   3.060   0.704
 3988SOL    HW212864   3.993   3.037   0.600
 3989SOL     OW12865   5.006   6.842   6.719
 3989SOL    HW112866   5.028   6.834   6.817
 3989SOL    HW212867   5.052   6.768   6.669
 3990SOL     OW12868   0.684   3.395   3.450
 3990SOL    HW112869   0.587   3.373   3.434
 3990SOL    HW212870   0.710   3.472   3.393
 3991SOL     OW12871   0.415   1.864   4.203
 3991SOL    HW112872   0.352   1.812   4.261
 3991SOL    HW212873   0.363   1.921   4.140
 3992SOL     OW12874   4.359   3.585   6.598
 3992SOL    HW112875   4.328   3.664   6.545
 3992SOL    HW212876   4.325   3.501   6.556
 3993SOL     OW12877   2.458   2.565   2.783
 3993SOL    HW112878   2.400   2.600   2.856
 3993SOL    HW212879   2.482   2.470   2.802
 3994SOL     OW12880   2.280   2.855   3.681
 3994SOL    HW112881   2.285   2.783   3.611
 3994SOL    HW212882   2.287   2.813   3.771
 3995SOL     OW12883   2.032   3.698   2.734
 3995SOL    HW112884   2.014   3.717   2.830
 3995SOL    HW212885   2.046   3.600   2.722
 3996SOL     OW12886   6.394   0.636   3.081
 3996SOL    HW112887   6.424   0.545   3.111
 3996SOL    HW212888   6.453   0.706   3.121
 3997SOL     OW12889   5.638   4.027   2.716
 3997SOL    HW112890   5.573   3.953   2.735
 3997SOL    HW212891   5.731   3.996   2.737
 3998SOL     OW12892   6.447   1.697   3.024
 3998SOL    HW112893   6.471   1.606   2.990
 3998SOL    HW212894   6.361   1.727   2.982
 3999SOL     OW12895   5.711   3.016   2.774
 3999SOL    HW112896   5.810   3.009   2.760
 3999SOL    HW212897   5.664   3.007   2.686
 4000SOL     OW12898   2.637   6.046   2.436
 4000SOL    HW112899   2.651   6.139   2.402
 4000SOL    HW212900   2.720   6.016   2.483
 4001SOL     OW12901   2.598   4.073   5.358
 4001SOL    HW112902   2.572   4.169   5.344
 4001SOL    HW212903   2.532   4.013   5.312
 4002SOL     OW12904   3.287   3.340   4.324
 4002SOL    HW112905   3.379   3.377   4.338
 4002SOL    HW212906   3.222   3.415   4.316
 4003SOL     OW12907   2.439   0.932   5.314
 4003SOL    HW112908   2.372   0.911   5.385
 4003SOL    HW212909   2.401   0.998   5.250
 4004SOL     OW12910   0.692   4.004   3.507
 4004SOL    HW112911   0.775   4.011   3.452
 4004SOL    HW212912   0.672   4.093   3.548
 4005SOL     OW12913   4.452   3.614   1.496
 4005SOL    HW112914   4.365   3.640   1.453
 4005SOL    HW212915   4.523   3.607   1.426
 4006SOL     OW12916   5.009   5.499   3.529
 4006SOL    HW112917   5.082   5.479   3.464
 4006SOL    HW212918   5.016   5.437   3.608
 4007SOL     OW12919   0.199   1.580   2.846
 4007SOL    HW112920   0.209   1.528   2.761
 4007SOL    HW212921   0.103   1.601   2.861
 4008SOL     OW12922   2.374   6.863   0.616
 4008SOL    HW112923   2.289   6.879   0.666
 4008SOL    HW212924   2.452   6.879   0.676
 4009SOL     OW12925   4.334   2.040   0.733
 4009SOL    HW112926   4.277   2.062   0.812
 4009SOL    HW212927   4.307   1.950   0.698
 4010SOL     OW12928   2.708   4.940   1.360
 4010SOL    HW112929   2.797   4.895   1.373
 4010SOL    HW212930   2.644   4.906   1.429
 4011SOL     OW12931   6.455   6.096   0.349
 4011SOL    HW112932   6.529   6.164   0.349
 4011SOL    HW212933   6.369   6.141   0.323
 4012SOL     OW12934   3.916   6.426   2.123
 4012SOL    HW112935   3.910   6.339   2.074
 4012SOL    HW212936   3.953   6.496   2.063
 4013SOL     OW12937   1.466   1.145   1.228
 4013SOL    HW112938   1.549   1.091   1.233
 4013SOL    HW212939   1.452   1.193   1.315
 4014SOL     OW12940   2.551   5.479   3.805
 4014SOL    HW112941   2.607   5.410   3.851
 4014SOL    HW212942   2.522   5.443   3.716
 4015SOL     OW12943   4.597   5.041   6.546
 4015SOL    HW112944   4.632   4.982   6.473
 4015SOL    HW212945   4.592   5.135   6.514
 4016SOL     OW12946   3.871   5.632   6.081
 4016SOL    HW112947   3.954   5.687   6.070
 4016SOL    HW212948   3.819   5.634   5.996
 4017SOL     OW12949   0.309   5.509   5.341
 4017SOL    HW112950   0.216   5.546   5.335
 4017SOL    HW212951   0.350   5.539   5.428
 4018SOL     OW12952   3.865   6.240   1.952
 4018SOL    HW112953   3.819   6.289   1.878
 4018SOL    HW212954   3.963   6.237   1.935
 4019SOL     OW12955   5.265   3.352   3.046
 4019SOL    HW112956   5.292   3.395   3.133
 4019SOL    HW212957   5.185   3.400   3.009
 4020SOL     OW12958   6.792   4.220   4.635
 4020SOL    HW112959   6.783   4.303   4.690
 4020SOL    HW212960   6.869   4.166   4.668
 4021SOL     OW12961   3.415   3.619   6.035
 4021SOL    HW112962   3.335   3.559   6.029
 4021SOL    HW212963   3.391   3.710   5.999
 4022SOL     OW12964   2.853   0.087   0.529
 4022SOL    HW112965   2.809   0.025   0.464
 4022SOL    HW212966   2.819   0.066   0.621
 4023SOL     OW12967   0.395   2.103   5.773
 4023SOL    HW112968   0.453   2.024   5.752
 4023SOL    HW212969   0.347   2.132   5.690
 4024SOL     OW12970   0.972   5.188   3.701
 4024SOL    HW112971   0.878   5.174   3.734
 4024SOL    HW212972   1.031   5.117   3.739
 4025SOL     OW12973   1.317   6.071   3.993
 4025SOL    HW112974   1.393   6.057   4.056
 4025SOL    HW212975   1.323   6.163   3.953
 4026SOL     OW12976   6.595   6.465   3.955
 4026SOL    HW112977   6.517   6.522   3.928
 4026SOL    HW212978   6.626   6.412   3.877
 4027SOL     OW12979   2.776   2.888   6.482
 4027SOL    HW112980   2.763   2.841   6.569
 4027SOL    HW212981   2.777   2.821   6.408
 4028SOL     OW12982   4.871   1.777   3.341
 4028SOL    HW112983   4.961   1.771   3.298
 4028SOL    HW212984   4.811   1.706   3.304
 4029SOL     OW12985   2.928   3.941   6.750
 4029SOL    HW112986   2.945   3.861   6.692
 4029SOL    HW212987   2.830   3.954   6.762
 4030SOL     OW12988   6.834   0.997   1.748
 4030SOL    HW112989   6.893   1.035   1.678
 4030SOL    HW212990   6.821   0.899   1.732
 4031SOL     OW12991   5.549   0.094   2.167
 4031SOL    HW112992   5.511   0.034   2.096
 4031SOL    HW212993   5.480   0.112   2.237
 4032SOL     OW12994   6.431   6.821   1.412
 4032SOL    HW112995   6.333   6.815   1.395
 4032SOL    HW212996   6.478   6.847   1.327
 4033SOL     OW12997   3.100   2.120   2.422
 4033SOL    HW112998   3.150   2.108   2.336
 4033SOL    HW212999   3.010   2.160   2.403
 4034SOL     OW13000   6.703   2.698   4.957
 4034SOL    HW113001   6.758   2.765   5.007
 4034SOL    HW213002   6.717   2.710   4.859
 4035SOL     OW13003   6.418   2.555   1.075
 4035SOL    HW113004   6.368   2.484   1.025
 4035SOL    HW213005   6.516   2.533   1.075
 4036SOL     OW13006   3.569   5.004   2.832
 4036SOL    HW113007   3.640   5.007   2.762
 4036SOL    HW213008   3.612   4.989   2.921
 4037SOL     OW13009   2.912   0.597   5.927
 4037SOL    HW113010   2.912   0.593   5.827
 4037SOL    HW213011   2.885   0.689   5.956
 4038SOL     OW13012   3.961   3.476   6.755
 4038SOL    HW113013   3.958   3.426   6.669
 4038SOL    HW213014   3.927   3.417   6.829
 4039SOL     OW13015   5.204   5.519   1.941
 4039SOL    HW113016   5.266   5.595   1.922
 4039SOL    HW213017   5.237   5.437   1.894
 4040SOL     OW13018   3.438   5.225   5.237
 4040SOL    HW113019   3.355   5.196   5.189
 4040SOL    HW213020   3.506   5.152   5.233
 4041SOL     OW13021   2.180   6.570   1.581
 4041SOL    HW113022   2.225   6.517   1.654
 4041SOL    HW213023   2.084   6.581   1.603
 4042SOL     OW13024   6.073   6.480   2.794
 4042SOL    HW113025   5.978   6.503   2.815
 4042SOL    HW213026   6.109   6.546   2.728
 4043SOL     OW13027   6.187   2.716   6.914
 4043SOL    HW113028   6.091   2.700   6.939
 4043SOL    HW213029   6.246   2.662   6.974
 4044SOL     OW13030   4.159   4.794   3.111
 4044SOL    HW113031   4.092   4.720   3.108
 4044SOL    HW213032   4.194   4.810   3.018
 4045SOL     OW13033   5.009   0.063   6.608
 4045SOL    HW113034   4.996   6.999   6.660
 4045SOL    HW213035   5.085   0.052   6.544
 4046SOL     OW13036   0.505   1.266   3.259
 4046SOL    HW113037   0.410   1.290   3.276
 4046SOL    HW213038   0.558   1.348   3.239
 4047SOL     OW13039   1.768   3.006   6.883
 4047SOL    HW113040   1.834   2.948   6.931
 4047SOL    HW213041   1.760   2.975   6.788
 4048SOL     OW13042   5.213   1.275   2.365
 4048SOL    HW113043   5.210   1.349   2.298
 4048SOL    HW213044   5.176   1.191   2.324
 4049SOL     OW13045   3.961   5.805   6.677
 4049SOL    HW113046   4.059   5.823   6.684
 4049SOL    HW213047   3.944   5.746   6.598
 4050SOL     OW13048   1.189   5.630   2.115
 4050SOL    HW113049   1.108   5.584   2.153
 4050SOL    HW213050   1.160   5.692   2.042
 4051SOL     OW13051   5.172   1.260   6.223
 4051SOL    HW113052   5.092   1.262   6.163
 4051SOL    HW213053   5.143   1.265   6.319
 4052SOL     OW13054   6.701   2.069   3.021
 4052SOL    HW113055   6.694   1.991   3.083
 4052SOL    HW213056   6.713   2.036   2.927
 4053SOL     OW13057   1.292   6.097   4.598
 4053SOL    HW113058   1.209   6.152   4.585
 4053SOL    HW213059   1.372   6.151   4.570
 4054SOL     OW13060   5.009   4.108   1.290
 4054SOL    HW113061   5.059   4.053   1.223
 4054SOL    HW213062   5.002   4.056   1.376
 4055SOL     OW13063   1.153   3.692   1.902
 4055SOL    HW113064   1.217   3.745   1.959
 4055SOL    HW213065   1.089   3.755   1.859
 4056SOL     OW13066   5.595   3.615   0.958
 4056SOL    HW113067   5.599   3.709   0.993
 4056SOL    HW213068   5.687   3.585   0.932
 4057SOL     OW13069   6.454   3.216   6.500
 4057SOL    HW113070   6.510   3.285   6.454
 4057SOL    HW213071   6.436   3.140   6.437
 4058SOL     OW13072   2.656   6.092   4.906
 4058SOL    HW113073   2.693   6.139   4.985
 4058SOL    HW213074   2.709   6.116   4.825
 4059SOL     OW13075   0.398   2.911   3.904
 4059SOL    HW113076   0.444   2.885   3.819
 4059SOL    HW213077   0.371   2.828   3.954
 4060SOL     OW13078   6.022   5.724   4.691
 4060SOL    HW113079   6.033   5.627   4.670
 4060SOL    HW213080   5.924   5.745   4.697
 4061SOL     OW13081   2.404   4.801   2.241
 4061SOL    HW113082   2.481   4.756   2.196
 4061SOL    HW213083   2.433   4.836   2.330
 4062SOL     OW13084   3.058   1.295   1.445
 4062SOL    HW113085   3.110   1.250   1.518
 4062SOL    HW213086   2.987   1.232   1.411
 4063SOL     OW13087   5.563   6.785   0.955
 4063SOL    HW113088   5.587   6.799   1.051
 4063SOL    HW213089   5.522   6.695   0.943
 4064SOL     OW13090   2.163   1.765   4.920
 4064SOL    HW113091   2.195   1.780   4.827
 4064SOL    HW213092   2.098   1.690   4.921
 4065SOL     OW13093   1.134   0.105   0.548
 4065SOL    HW113094   1.207   0.038   0.539
 4065SOL    HW213095   1.123   0.154   0.461
 4066SOL     OW13096   6.320   4.146   2.681
 4066SOL    HW113097   6.337   4.244   2.687
 4066SOL    HW213098   6.385   4.105   2.617
 4067SOL     OW13099   6.033   4.272   3.009
 4067SOL    HW113100   6.005   4.241   3.100
 4067SOL    HW213101   5.993   4.361   2.990
 4068SOL     OW13102   1.830   2.632   4.153
 4068SOL    HW113103   1.861   2.537   4.150
 4068SOL    HW213104   1.798   2.660   4.062
 4069SOL     OW13105   3.254   5.848   6.906
 4069SOL    HW113106   3.160   5.847   6.874
 4069SOL    HW213107   3.311   5.793   6.845
 4070SOL     OW13108   1.068   3.299   3.118
 4070SOL    HW113109   1.053   3.341   3.208
 4070SOL    HW213110   1.124   3.216   3.129
 4071SOL     OW13111   1.663   0.464   4.678
 4071SOL    HW113112   1.570   0.452   4.641
 4071SOL    HW213113   1.727   0.474   4.602
 4072SOL     OW13114   1.384   5.105   4.710
 4072SOL    HW113115   1.355   5.041   4.639
 4072SOL    HW213116   1.437   5.179   4.669
 4073SOL     OW13117   2.358   5.006   6.246
 4073SOL    HW113118   2.266   5.002   6.284
 4073SOL    HW213119   2.359   4.965   6.155
 4074SOL     OW13120   1.310   4.472   1.516
 4074SOL    HW113121   1.263   4.560   1.519
 4074SOL    HW213122   1.299   4.425   1.604
 4075SOL     OW13123   5.075   1.699   0.679
 4075SOL    HW113124   5.063   1.792   0.714
 4075SOL    HW213125   4.986   1.661   0.654
 4076SOL     OW13126   3.489   3.704   5.591
 4076SOL    HW113127   3.552   3.768   5.636
 4076SOL    HW213128   3.466   3.630   5.654
 4077SOL     OW13129   4.919   0.855   1.636
 4077SOL    HW113130   4.868   0.937   1.611
 4077SOL    HW213131   4.969   0.821   1.556
 4078SOL     OW13132   2.674   5.383   2.538
 4078SOL    HW113133   2.577   5.361   2.536
 4078SOL    HW213134   2.704   5.392   2.633
 4079SOL     OW13135   1.753   1.962   3.965
 4079SOL    HW113136   1.679   1.967   4.032
 4079SOL    HW213137   1.806   2.048   3.967
 4080SOL     OW13138   5.007   2.327   4.999
 4080SOL    HW113139   5.066   2.248   5.017
 4080SOL    HW213140   5.058   2.396   4.948
 4081SOL     OW13141   1.476   2.980   4.240
 4081SOL    HW113142   1.528   2.990   4.325
 4081SOL    HW213143   1.507   3.048   4.174
 4082SOL     OW13144   1.416   3.084   0.539
 4082SOL    HW113145   1.321   3.052   0.537
 4082SOL    HW213146   1.438   3.127   0.452
 4083SOL     OW13147   5.926   3.104   3.520
 4083SOL    HW113148   5.999   3.048   3.560
 4083SOL    HW213149   5.960   3.149   3.438
 4084SOL     OW13150   6.049   1.956   3.956
 4084SOL    HW113151   6.044   2.028   4.025
 4084SOL    HW213152   5.991   1.879   3.984
 4085SOL     OW13153   4.033   6.062   0.724
 4085SOL    HW113154   3.968   6.015   0.665
 4085SOL    HW213155   3.985   6.128   0.781
 4086SOL     OW13156   2.145   5.999   1.455
 4086SOL    HW113157   2.189   5.989   1.544
 4086SOL    HW213158   2.048   5.979   1.463
 4087SOL     OW13159   2.528   2.492   3.314
 4087SOL    HW113160   2.486   2.572   3.357
 4087SOL    HW213161   2.476   2.468   3.232
 4088SOL     OW13162   6.713   1.894   0.622
 4088SOL    HW113163   6.614   1.897   0.612
 4088SOL    HW213164   6.737   1.898   0.719
 4089SOL     OW13165   6.897   6.397   2.981
 4089SOL    HW113166   6.853   6.330   3.041
 4089SOL    HW213167   6.827   6.444   2.927
 4090SOL     OW13168   2.549   3.974   5.912
 4090SOL    HW113169   2.576   4.033   5.835
 4090SOL    HW213170   2.565   3.878   5.888
 4091SOL     OW13171   6.073   6.645   0.091
 4091SOL    HW113172   6.048   6.609   0.182
 4091SOL    HW213173   6.172   6.642   0.080
 4092SOL     OW13174   6.857   2.905   5.095
 4092SOL    HW113175   6.937   2.965   5.101
 4092SOL    HW213176   6.799   2.918   5.176
 4093SOL     OW13177   4.754   0.142   3.736
 4093SOL    HW113178   4.658   0.159   3.762
 4093SOL    HW213179   4.777   0.197   3.656
 4094SOL     OW13180   2.477   5.327   5.273
 4094SOL    HW113181   2.484   5.318   5.173
 4094SOL    HW213182   2.410   5.398   5.295
 4095SOL     OW13183   0.889   3.895   6.419
 4095SOL    HW113184   0.921   3.912   6.512
 4095SOL    HW213185   0.967   3.887   6.357
 4096SOL     OW13186   4.613   5.708   0.633
 4096SOL    HW113187   4.653   5.633   0.686
 4096SOL    HW213188   4.632   5.693   0.536
 4097SOL     OW13189   3.753   3.733   6.066
 4097SOL    HW113190   3.670   3.682   6.086
 4097SOL    HW213191   3.824   3.670   6.036
 4098SOL     OW13192   0.280   3.058   2.606
 4098SOL    HW113193   0.262   3.048   2.704
 4098SOL    HW213194   0.353   3.125   2.593
 4099SOL     OW13195   2.953   4.884   1.016
 4099SOL    HW113196   2.877   4.938   0.979
 4099SOL    HW213197   2.924   4.837   1.099
 4100SOL     OW13198   5.657   6.031   4.319
 4100SOL    HW113199   5.736   6.092   4.329
 4100SOL    HW213200   5.683   5.939   4.348
 4101SOL     OW13201   5.871   0.662   6.934
 4101SOL    HW113202   5.921   0.735   6.980
 4101SOL    HW213203   5.787   0.699   6.894
 4102SOL     OW13204   6.939   0.628   1.299
 4102SOL    HW113205   6.921   0.554   1.364
 4102SOL    HW213206   6.886   0.709   1.325
 4103SOL     OW13207   0.850   0.703   1.970
 4103SOL    HW113208   0.900   0.637   1.913
 4103SOL    HW213209   0.766   0.731   1.923
 4104SOL     OW13210   1.034   4.543   2.384
 4104SOL    HW113211   1.051   4.472   2.316
 4104SOL    HW213212   1.110   4.545   2.450
 4105SOL     OW13213   4.070   5.470   0.966
 4105SOL    HW113214   4.116   5.390   1.006
 4105SOL    HW213215   4.069   5.544   1.032
 4106SOL     OW13216   0.338   3.052   4.997
 4106SOL    HW113217   0.269   3.018   5.061
 4106SOL    HW213218   0.367   3.144   5.024
 4107SOL     OW13219   0.989   6.508   0.720
 4107SOL    HW113220   1.066   6.458   0.761
 4107SOL    HW213221   0.975   6.478   0.626
 4108SOL     OW13222   0.390   4.793   6.093
 4108SOL    HW113223   0.367   4.885   6.125
 4108SOL    HW213224   0.479   4.767   6.129
 4109SOL     OW13225   4.569   6.372   4.934
 4109SOL    HW113226   4.664   6.398   4.949
 4109SOL    HW213227   4.538   6.313   5.008
 4110SOL     OW13228   4.177   3.624   6.814
 4110SOL    HW113229   4.100   3.577   6.771
 4110SOL    HW213230   4.258   3.617   6.755
 4111SOL     OW13231   3.376   2.669   6.974
 4111SOL    HW113232   3.452   2.634   6.919
 4111SOL    HW213233   3.411   2.706   0.040
 4112SOL     OW13234   5.130   1.672   5.609
 4112SOL    HW113235   5.207   1.621   5.648
 4112SOL    HW213236   5.157   1.710   5.520
 4113SOL     OW13237   4.142   6.026   4.813
 4113SOL    HW113238   4.166   6.119   4.841
 4113SOL    HW213239   4.128   5.970   4.895
 4114SOL     OW13240   3.847   2.097   3.932
 4114SOL    HW113241   3.855   2.159   3.854
 4114SOL    HW213242   3.900   2.134   4.009
 4115SOL     OW13243   4.934   5.959   2.113
 4115SOL    HW113244   4.936   5.908   2.027
 4115SOL    HW213245   4.839   5.982   2.135
 4116SOL     OW13246   4.130   2.350   1.662
 4116SOL    HW113247   4.037   2.313   1.666
 4116SOL    HW213248   4.194   2.280   1.692
 4117SOL     OW13249   0.838   4.851   1.591
 4117SOL    HW113250   0.905   4.866   1.519
 4117SOL    HW213251   0.852   4.916   1.665
 4118SOL     OW13252   1.431   6.306   0.700
 4118SOL    HW113253   1.523   6.301   0.738
 4118SOL    HW213254   1.434   6.356   0.613
 4119SOL     OW13255   3.923   1.420   3.317
 4119SOL    HW113256   3.868   1.436   3.399
 4119SOL    HW213257   4.019   1.437   3.338
 4120SOL     OW13258   4.723   6.568   1.469
 4120SOL    HW113259   4.702   6.481   1.514
 4120SOL    HW213260   4.641   6.601   1.423
 4121SOL     OW13261   6.357   1.563   4.804
 4121SOL    HW113262   6.372   1.618   4.886
 4121SOL    HW213263   6.298   1.486   4.825
 4122SOL     OW13264   0.927   6.114   5.536
 4122SOL    HW113265   0.933   6.207   5.499
 4122SOL    HW213266   0.935   6.117   5.636
 4123SOL     OW13267   4.868   4.780   5.566
 4123SOL    HW113268   4.866   4.686   5.598
 4123SOL    HW213269   4.932   4.788   5.489
 4124SOL     OW13270   6.082   5.635   5.122
 4124SOL    HW113271   6.153   5.565   5.130
 4124SOL    HW213272   5.992   5.592   5.136
 4125SOL     OW13273   4.695   0.491   1.880
 4125SOL    HW113274   4.646   0.478   1.795
 4125SOL    HW213275   4.696   0.406   1.932
 4126SOL     OW13276   1.173   4.585   3.864
 4126SOL    HW113277   1.110   4.613   3.937
 4126SOL    HW213278   1.259   4.553   3.904
 4127SOL     OW13279   5.418   4.029   4.203
 4127SOL    HW113280   5.342   3.966   4.213
 4127SOL    HW213281   5.425   4.085   4.285
 4128SOL     OW13282   1.928   3.780   2.400
 4128SOL    HW113283   1.858   3.731   2.451
 4128SOL    HW213284   1.976   3.843   2.462
 4129SOL     OW13285   5.582   1.772   6.488
 4129SOL    HW113286   5.538   1.687   6.516
 4129SOL    HW213287   5.530   1.850   6.524
 4130SOL     OW13288   0.212   3.763   5.910
 4130SOL    HW113289   0.288   3.733   5.852
 4130SOL    HW213290   0.198   3.862   5.898
 4131SOL     OW13291   0.843   5.861   3.651
 4131SOL    HW113292   0.866   5.769   3.618
 4131SOL    HW213293   0.913   5.926   3.620
 4132SOL     OW13294   5.734   4.189   3.882
 4132SOL    HW113295   5.645   4.175   3.924
 4132SOL    HW213296   5.756   4.111   3.823
 4133SOL     OW13297   2.988   6.739   1.600
 4133SOL    HW113298   2.956   6.693   1.682
 4133SOL    HW213299   2.910   6.767   1.544
 4134SOL     OW13300   1.528   2.387   0.631
 4134SOL    HW113301   1.583   2.317   0.585
 4134SOL    HW213302   1.525   2.469   0.575
 4135SOL     OW13303   2.102   0.799   2.780
 4135SOL    HW113304   2.173   0.801   2.710
 4135SOL    HW213305   2.013   0.790   2.737
 4136SOL     OW13306   0.723   2.064   4.085
 4136SOL    HW113307   0.667   2.007   4.024
 4136SOL    HW213308   0.688   2.059   4.178
 4137SOL     OW13309   2.263   3.712   1.285
 4137SOL    HW113310   2.363   3.714   1.287
 4137SOL    HW213311   2.232   3.659   1.206
 4138SOL     OW13312   3.686   4.938   3.989
 4138SOL    HW113313   3.702   4.900   3.898
 4138SOL    HW213314   3.596   4.910   4.022
 4139SOL     OW13315   2.108   2.064   6.164
 4139SOL    HW113316   2.189   2.013   6.193
 4139SOL    HW213317   2.125   2.103   6.073
 4140SOL     OW13318   3.502   0.483   5.206
 4140SOL    HW113319   3.554   0.557   5.250
 4140SOL    HW213320   3.550   0.453   5.123
 4141SOL     OW13321   5.303   5.677   1.010
 4141SOL    HW113322   5.204   5.670   1.022
 4141SOL    HW213323   5.344   5.586   1.015
 4142SOL     OW13324   6.513   5.463   0.917
 4142SOL    HW113325   6.515   5.464   1.017
 4142SOL    HW213326   6.531   5.555   0.882
 4143SOL     OW13327   6.909   3.499   0.877
 4143SOL    HW113328   6.943   3.452   0.794
 4143SOL    HW213329   6.859   3.581   0.850
 4144SOL     OW13330   5.763   2.359   0.863
 4144SOL    HW113331   5.698   2.303   0.812
 4144SOL    HW213332   5.771   2.449   0.819
 4145SOL     OW13333   6.992   5.929   1.662
 4145SOL    HW113334   6.911   5.975   1.627
 4145SOL    HW213335   7.002   5.841   1.617
 4146SOL     OW13336   5.996   0.723   5.359
 4146SOL    HW113337   6.026   0.630   5.337
 4146SOL    HW213338   6.072   0.774   5.399
 4147SOL     OW13339   3.497   1.940   5.381
 4147SOL    HW113340   3.454   1.854   5.406
 4147SOL    HW213341   3.428   2.012   5.375
 4148SOL     OW13342   0.457   6.907   3.633
 4148SOL    HW113343   0.422   6.838   3.696
 4148SOL    HW213344   0.441   6.998   3.671
 4149SOL     OW13345   0.477   3.528   0.470
 4149SOL    HW113346   0.491   3.534   0.569
 4149SOL    HW213347   0.418   3.601   0.439
 4150SOL     OW13348   6.178   0.563   5.970
 4150SOL    HW113349   6.236   0.640   5.943
 4150SOL    HW213350   6.099   0.597   6.020
 4151SOL     OW13351   5.444   6.130   6.878
 4151SOL    HW113352   5.431   6.108   6.781
 4151SOL    HW213353   5.359   6.116   6.927
 4152SOL     OW13354   3.022   5.031   1.417
 4152SOL    HW113355   2.976   5.047   1.505
 4152SOL    HW213356   3.120   5.041   1.429
 4153SOL     OW13357   5.371   5.689   6.290
 4153SOL    HW113358   5.383   5.607   6.235
 4153SOL    HW213359   5.276   5.721   6.282
 4154SOL     OW13360   6.567   4.080   5.288
 4154SOL    HW113361   6.582   4.152   5.356
 4154SOL    HW213362   6.646   4.074   5.228
 4155SOL     OW13363   0.239   3.201   3.262
 4155SOL    HW113364   0.245   3.108   3.297
 4155SOL    HW213365   0.143   3.227   3.250
 4156SOL     OW13366   5.749   6.907   5.024
 4156SOL    HW113367   5.759   6.916   4.925
 4156SOL    HW213368   5.695   6.825   5.044
 4157SOL     OW13369   3.515   0.282   3.742
 4157SOL    HW113370   3.488   0.330   3.658
 4157SOL    HW213371   3.524   0.184   3.723
 4158SOL     OW13372   1.451   5.268   3.946
 4158SOL    HW113373   1.413   5.295   4.035
 4158SOL    HW213374   1.541   5.308   3.934
 4159SOL     OW13375   1.670   3.250   4.111
 4159SOL    HW113376   1.723   3.321   4.065
 4159SOL    HW213377   1.596   3.293   4.163
 4160SOL     OW13378   5.970   0.552   0.962
 4160SOL    HW113379   5.959   0.651   0.970
 4160SOL    HW213380   5.883   0.510   0.935
 4161SOL     OW13381   1.840   0.101   6.558
 4161SOL    HW113382   1.845   0.012   6.513
 4161SOL    HW213383   1.746   0.135   6.555
 4162SOL     OW13384   6.260   0.539   4.954
 4162SOL    HW113385   6.354   0.515   4.978
 4162SOL    HW213386   6.238   0.630   4.992
 4163SOL     OW13387   6.101   1.541   3.250
 4163SOL    HW113388   6.106   1.475   3.175
 4163SOL    HW213389   6.146   1.626   3.222
 4164SOL     OW13390   1.542   0.347   6.730
 4164SOL    HW113391   1.582   0.258   6.753
 4164SOL    HW213392   1.543   0.359   6.631
 4165SOL     OW13393   4.684   6.767   1.059
 4165SOL    HW113394   4.766   6.777   1.002
 4165SOL    HW213395   4.606   6.808   1.013
 4166SOL     OW13396   4.884   2.490   1.341
 4166SOL    HW113397   4.968   2.462   1.387
 4166SOL    HW213398   4.806   2.474   1.402
 4167SOL     OW13399   2.494   3.271   1.177
 4167SOL    HW113400   2.497   3.290   1.275
 4167SOL    HW213401   2.574   3.312   1.133
 4168SOL     OW13402   0.363   4.790   1.035
 4168SOL    HW113403   0.293   4.745   0.979
 4168SOL    HW213404   0.444   4.731   1.041
 4169SOL     OW13405   5.175   3.980   4.550
 4169SOL    HW113406   5.190   3.972   4.451
 4169SOL    HW213407   5.077   3.979   4.569
 4170SOL     OW13408   3.781   3.007   4.742
 4170SOL    HW113409   3.813   2.949   4.668
 4170SOL    HW213410   3.688   2.980   4.768
 4171SOL     OW13411   5.448   4.047   1.130
 4171SOL    HW113412   5.502   3.963   1.123
 4171SOL    HW213413   5.505   4.126   1.107
 4172SOL     OW13414   0.041   2.485   6.732
 4172SOL    HW113415   0.020   2.554   6.801
 4172SOL    HW213416   0.140   2.472   6.727
 4173SOL     OW13417   5.440   3.391   5.290
 4173SOL    HW113418   5.453   3.468   5.353
 4173SOL    HW213419   5.347   3.355   5.301
 4174SOL     OW13420   4.884   0.902   4.006
 4174SOL    HW113421   4.980   0.876   4.015
 4174SOL    HW213422   4.837   0.888   4.094
 4175SOL     OW13423   3.068   6.680   4.629
 4175SOL    HW113424   3.064   6.719   4.537
 4175SOL    HW213425   3.043   6.583   4.626
 4176SOL     OW13426   3.886   0.259   2.143
 4176SOL    HW113427   3.867   0.278   2.239
 4176SOL    HW213428   3.802   0.231   2.097
 4177SOL     OW13429   0.511   5.132   5.138
 4177SOL    HW113430   0.569   5.093   5.066
 4177SOL    HW213431   0.524   5.081   5.223
 4178SOL     OW13432   3.804   0.985   5.115
 4178SOL    HW113433   3.813   1.058   5.046
 4178SOL    HW213434   3.879   0.992   5.180
 4179SOL     OW13435   5.533   3.461   3.963
 4179SOL    HW113436   5.539   3.394   4.037
 4179SOL    HW213437   5.437   3.471   3.935
 4180SOL     OW13438   5.220   4.539   1.882
 4180SOL    HW113439   5.158   4.608   1.845
 4180SOL    HW213440   5.240   4.560   1.977
 4181SOL     OW13441   1.653   2.053   6.246
 4181SOL    HW113442   1.714   2.036   6.169
 4181SOL    HW213443   1.621   1.965   6.283
 4182SOL     OW13444   0.015   0.702   2.629
 4182SOL    HW113445   6.943   0.668   2.616
 4182SOL    HW213446   0.037   0.767   2.557
 4183SOL     OW13447   2.681   1.493   1.875
 4183SOL    HW113448   2.623   1.559   1.922
 4183SOL    HW213449   2.645   1.476   1.783
 4184SOL     OW13450   3.921   4.961   1.305
 4184SOL    HW113451   3.918   5.061   1.310
 4184SOL    HW213452   3.880   4.922   1.386
 4185SOL     OW13453   0.284   5.574   3.079
 4185SOL    HW113454   0.349   5.633   3.031
 4185SOL    HW213455   0.316   5.480   3.076
 4186SOL     OW13456   2.085   4.293   0.085
 4186SOL    HW113457   2.001   4.328   0.125
 4186SOL    HW213458   2.066   4.259   7.014
 4187SOL     OW13459   3.800   3.301   5.706
 4187SOL    HW113460   3.855   3.330   5.627
 4187SOL    HW213461   3.727   3.241   5.674
 4188SOL     OW13462   4.799   0.959   4.456
 4188SOL    HW113463   4.792   0.880   4.395
 4188SOL    HW213464   4.724   0.957   4.522
 4189SOL     OW13465   2.709   1.922   4.169
 4189SOL    HW113466   2.786   1.859   4.181
 4189SOL    HW213467   2.629   1.872   4.139
 4190SOL     OW13468   3.023   0.143   6.232
 4190SOL    HW113469   3.064   0.180   6.315
 4190SOL    HW213470   2.941   0.196   6.208
 4191SOL     OW13471   5.807   3.446   3.252
 4191SOL    HW113472   5.768   3.392   3.327
 4191SOL    HW213473   5.796   3.396   3.166
 4192SOL     OW13474   6.650   1.830   3.159
 4192SOL    HW113475   6.608   1.853   3.247
 4192SOL    HW213476   6.578   1.806   3.093
 4193SOL     OW13477   2.353   6.593   2.067
 4193SOL    HW113478   2.431   6.546   2.107
 4193SOL    HW213479   2.380   6.686   2.041
 4194SOL     OW13480   6.724   1.893   4.489
 4194SOL    HW113481   6.822   1.899   4.508
 4194SOL    HW213482   6.683   1.822   4.547
 4195SOL     OW13483   4.203   0.641   1.258
 4195SOL    HW113484   4.116   0.682   1.285
 4195SOL    HW213485   4.234   0.681   1.172
 4196SOL     OW13486   5.701   2.657   4.091
 4196SOL    HW113487   5.769   2.591   4.123
 4196SOL    HW213488   5.651   2.618   4.013
 4197SOL     OW13489   5.139   4.385   4.045
 4197SOL    HW113490   5.055   4.409   3.996
 4197SOL    HW213491   5.145   4.438   4.130
 4198SOL     OW13492   6.406   3.749   6.703
 4198SOL    HW113493   6.370   3.807   6.776
 4198SOL    HW213494   6.359   3.660   6.704
 4199SOL     OW13495   2.923   3.273   5.397
 4199SOL    HW113496   2.861   3.345   5.366
 4199SOL    HW213497   2.943   3.211   5.320
 4200SOL     OW13498   2.601   6.427   6.490
 4200SOL    HW113499   2.637   6.517   6.512
 4200SOL    HW213500   2.634   6.399   6.399
 4201SOL     OW13501   6.292   6.573   3.336
 4201SOL    HW113502   6.203   6.615   3.358
 4201SOL    HW213503   6.360   6.604   3.402
 4202SOL     OW13504   4.875   4.773   5.926
 4202SOL    HW113505   4.826   4.715   5.861
 4202SOL    HW213506   4.883   4.727   6.014
 4203SOL     OW13507   4.460   6.004   2.953
 4203SOL    HW113508   4.523   6.068   2.995
 4203SOL    HW213509   4.503   5.914   2.945
 4204SOL     OW13510   3.230   2.838   1.999
 4204SOL    HW113511   3.224   2.747   1.958
 4204SOL    HW213512   3.292   2.836   2.077
 4205SOL     OW13513   3.295   4.968   4.240
 4205SOL    HW113514   3.296   4.897   4.310
 4205SOL    HW213515   3.229   4.943   4.169
 4206SOL     OW13516   4.726   0.963   5.948
 4206SOL    HW113517   4.739   0.960   6.047
 4206SOL    HW213518   4.729   0.871   5.911
 4207SOL     OW13519   1.764   1.081   1.630
 4207SOL    HW113520   1.680   1.110   1.675
 4207SOL    HW213521   1.760   1.105   1.533
 4208SOL     OW13522   1.626   2.476   0.939
 4208SOL    HW113523   1.543   2.520   0.972
 4208SOL    HW213524   1.632   2.486   0.839
 4209SOL     OW13525   1.642   0.781   5.179
 4209SOL    HW113526   1.678   0.717   5.248
 4209SOL    HW213527   1.660   0.874   5.209
 4210SOL     OW13528   3.586   3.456   1.703
 4210SOL    HW113529   3.544   3.374   1.741
 4210SOL    HW213530   3.522   3.502   1.642
 4211SOL     OW13531   4.725   5.059   5.117
 4211SOL    HW113532   4.788   5.133   5.140
 4211SOL    HW213533   4.685   5.021   5.200
 4212SOL     OW13534   6.752   1.615   2.108
 4212SOL    HW113535   6.697   1.587   2.187
 4212SOL    HW213536   6.730   1.709   2.084
 4213SOL     OW13537   2.290   0.784   2.592
 4213SOL    HW113538   2.381   0.825   2.599
 4213SOL    HW213539   2.286   0.725   2.511
 4214SOL     OW13540   0.443   3.514   6.634
 4214SOL    HW113541   0.408   3.606   6.649
 4214SOL    HW213542   0.543   3.515   6.639
 4215SOL     OW13543   0.567   5.692   4.287
 4215SOL    HW113544   0.654   5.660   4.249
 4215SOL    HW213545   0.546   5.783   4.250
 4216SOL     OW13546   1.198   2.126   4.096
 4216SOL    HW113547   1.248   2.052   4.052
 4216SOL    HW213548   1.216   2.211   4.048
 4217SOL     OW13549   0.203   6.792   2.495
 4217SOL    HW113550   0.290   6.826   2.460
 4217SOL    HW213551   0.220   6.716   2.558
 4218SOL     OW13552   4.928   0.101   1.696
 4218SOL    HW113553   4.976   0.036   1.755
 4218SOL    HW213554   4.839   0.123   1.737
 4219SOL     OW13555   3.374   4.823   5.142
 4219SOL    HW113556   3.410   4.748   5.198
 4219SOL    HW213557   3.278   4.839   5.164
 4220SOL     OW13558   6.675   3.913   3.145
 4220SOL    HW113559   6.578   3.931   3.126
 4220SOL    HW213560   6.725   4.000   3.149
 4221SOL     OW13561   5.405   6.018   6.640
 4221SOL    HW113562   5.382   6.059   6.552
 4221SOL    HW213563   5.441   5.926   6.625
 4222SOL     OW13564   6.190   2.241   2.274
 4222SOL    HW113565   6.157   2.325   2.317
 4222SOL    HW213566   6.290   2.238   2.280
 4223SOL     OW13567   3.371   3.359   2.991
 4223SOL    HW113568   3.280   3.385   2.958
 4223SOL    HW213569   3.411   3.291   2.930
 4224SOL     OW13570   4.731   2.924   4.437
 4224SOL    HW113571   4.764   2.968   4.521
 4224SOL    HW213572   4.682   2.840   4.462
 4225SOL     OW13573   5.688   1.010   5.004
 4225SOL    HW113574   5.650   0.949   4.935
 4225SOL    HW213575   5.715   0.956   5.084
 4226SOL     OW13576   1.685   1.084   3.991
 4226SOL    HW113577   1.675   1.146   4.069
 4226SOL    HW213578   1.771   1.104   3.943
 4227SOL     OW13579   4.094   4.877   6.950
 4227SOL    HW113580   3.996   4.864   6.966
 4227SOL    HW213581   4.146   4.815   7.009
 4228SOL     OW13582   5.487   6.415   4.108
 4228SOL    HW113583   5.504   6.335   4.050
 4228SOL    HW213584   5.466   6.384   4.201
 4229SOL     OW13585   4.006   4.701   6.399
 4229SOL    HW113586   4.058   4.617   6.415
 4229SOL    HW213587   3.910   4.686   6.419
 4230SOL     OW13588   2.807   0.102   5.154
 4230SOL    HW113589   2.762   0.188   5.180
 4230SOL    HW213590   2.885   0.086   5.215
 4231SOL     OW13591   4.904   6.318   5.309
 4231SOL    HW113592   4.827   6.309   5.373
 4231SOL    HW213593   4.990   6.300   5.358
 4232SOL     OW13594   1.290   5.609   1.756
 4232SOL    HW113595   1.378   5.561   1.755
 4232SOL    HW213596   1.224   5.558   1.701
 4233SOL     OW13597   6.140   0.408   6.574
 4233SOL    HW113598   6.197   0.326   6.581
 4233SOL    HW213599   6.135   0.436   6.478
 4234SOL     OW13600   2.424   4.870   6.005
 4234SOL    HW113601   2.336   4.852   5.959
 4234SOL    HW213602   2.493   4.892   5.937
 4235SOL     OW13603   6.309   4.523   5.654
 4235SOL    HW113604   6.273   4.464   5.727
 4235SOL    HW213605   6.301   4.476   5.566
 4236SOL     OW13606   0.111   2.309   3.645
 4236SOL    HW113607   0.208   2.287   3.657
 4236SOL    HW213608   0.069   2.324   3.734
 4237SOL     OW13609   6.052   4.188   4.624
 4237SOL    HW113610   5.969   4.145   4.588
 4237SOL    HW213611   6.131   4.133   4.600
 4238SOL     OW13612   4.047   5.318   3.498
 4238SOL    HW113613   4.101   5.357   3.573
 4238SOL    HW213614   4.087   5.230   3.471
 4239SOL     OW13615   4.542   0.145   4.810
 4239SOL    HW113616   4.620   0.138   4.872
 4239SOL    HW213617   4.468   0.086   4.842
 4240SOL     OW13618   2.892   5.617   6.707
 4240SOL    HW113619   2.877   5.628   6.805
 4240SOL    HW213620   2.829   5.548   6.671
 4241SOL     OW13621   5.155   0.150   1.308
 4241SOL    HW113622   5.083   0.101   1.358
 4241SOL    HW213623   5.175   0.236   1.353
 4242SOL     OW13624   2.435   6.891   2.706
 4242SOL    HW113625   2.495   6.934   2.638
 4242SOL    HW213626   2.484   6.881   2.792
 4243SOL     OW13627   0.623   3.454   2.360
 4243SOL    HW113628   0.648   3.548   2.384
 4243SOL    HW213629   0.704   3.406   2.326
 4244SOL     OW13630   4.893   6.201   1.101
 4244SOL    HW113631   4.886   6.133   1.028
 4244SOL    HW213632   4.872   6.159   1.189
 4245SOL     OW13633   6.413   3.128   0.113
 4245SOL    HW113634   6.355   3.141   0.193
 4245SOL    HW213635   6.357   3.126   0.031
 4246SOL     OW13636   5.446   2.597   2.948
 4246SOL    HW113637   5.399   2.664   2.891
 4246SOL    HW213638   5.390   2.514   2.954
 4247SOL     OW13639   2.194   5.335   4.755
 4247SOL    HW113640   2.252   5.257   4.777
 4247SOL    HW213641   2.166   5.381   4.839
 4248SOL     OW13642   1.793   0.801   2.760
 4248SOL    HW113643   1.702   0.822   2.795
 4248SOL    HW213644   1.830   0.883   2.715
 4249SOL     OW13645   0.148   1.370   4.431
 4249SOL    HW113646   0.215   1.325   4.489
 4249SOL    HW213647   0.178   1.366   4.336
 4250SOL     OW13648   0.456   5.631   3.678
 4250SOL    HW113649   0.528   5.561   3.683
 4250SOL    HW213650   0.434   5.650   3.582
 4251SOL     OW13651   5.888   2.830   6.839
 4251SOL    HW113652   5.892   2.910   6.898
 4251SOL    HW213653   5.913   2.855   6.746
 4252SOL     OW13654   6.208   6.338   5.332
 4252SOL    HW113655   6.138   6.268   5.320
 4252SOL    HW213656   6.194   6.385   5.419
 4253SOL     OW13657   3.702   6.092   2.109
 4253SOL    HW113658   3.700   5.997   2.077
 4253SOL    HW213659   3.776   6.141   2.063
 4254SOL     OW13660   2.396   2.998   0.177
 4254SOL    HW113661   2.325   2.956   0.233
 4254SOL    HW213662   2.472   2.934   0.165
 4255SOL     OW13663   0.806   4.539   2.863
 4255SOL    HW113664   0.721   4.563   2.911
 4255SOL    HW213665   0.852   4.623   2.833
 4256SOL     OW13666   0.897   4.494   1.827
 4256SOL    HW113667   0.988   4.458   1.849
 4256SOL    HW213668   0.835   4.418   1.806
 4257SOL     OW13669   6.075   1.740   5.206
 4257SOL    HW113670   5.997   1.778   5.156
 4257SOL    HW213671   6.100   1.652   5.165
 4258SOL     OW13672   2.936   5.615   0.710
 4258SOL    HW113673   2.885   5.534   0.681
 4258SOL    HW213674   3.033   5.605   0.685
 4259SOL     OW13675   1.694   6.726   1.393
 4259SOL    HW113676   1.713   6.645   1.338
 4259SOL    HW213677   1.624   6.704   1.461
 4260SOL     OW13678   4.824   6.721   4.762
 4260SOL    HW113679   4.879   6.712   4.845
 4260SOL    HW213680   4.882   6.755   4.688
 4261SOL     OW13681   2.521   0.122   4.905
 4261SOL    HW113682   2.473   0.076   4.830
 4261SOL    HW213683   2.605   0.164   4.871
 4262SOL     OW13684   1.328   4.867   6.332
 4262SOL    HW113685   1.288   4.804   6.399
 4262SOL    HW213686   1.256   4.901   6.271
 4263SOL     OW13687   2.761   2.376   3.350
 4263SOL    HW113688   2.753   2.279   3.327
 4263SOL    HW213689   2.678   2.424   3.322
 4264SOL     OW13690   5.393   1.217   4.368
 4264SOL    HW113691   5.459   1.253   4.433
 4264SOL    HW213692   5.302   1.214   4.410
 4265SOL     OW13693   2.801   0.088   1.234
 4265SOL    HW113694   2.744   0.166   1.207
 4265SOL    HW213695   2.847   0.052   1.153
 4266SOL     OW13696   1.098   0.232   0.307
 4266SOL    HW113697   1.148   0.311   0.271
 4266SOL    HW213698   1.082   0.166   0.234
 4267SOL     OW13699   2.251   4.061   3.973
 4267SOL    HW113700   2.200   4.048   3.888
 4267SOL    HW213701   2.262   4.159   3.990
 4268SOL     OW13702   1.408   5.023   6.569
 4268SOL    HW113703   1.377   5.005   6.663
 4268SOL    HW213704   1.348   4.976   6.505
 4269SOL     OW13705   3.063   1.911   4.163
 4269SOL    HW113706   3.098   2.004   4.153
 4269SOL    HW213707   3.113   1.850   4.102
 4270SOL     OW13708   3.463   3.093   1.252
 4270SOL    HW113709   3.391   3.152   1.214
 4270SOL    HW213710   3.539   3.089   1.187
 4271SOL     OW13711   6.212   0.378   0.928
 4271SOL    HW113712   6.242   0.469   0.901
 4271SOL    HW213713   6.112   0.377   0.934
 4272SOL     OW13714   0.052   3.072   5.375
 4272SOL    HW113715   0.108   3.150   5.402
 4272SOL    HW213716   6.983   3.078   5.420
 4273SOL     OW13717   4.596   6.204   4.691
 4273SOL    HW113718   4.520   6.192   4.627
 4273SOL    HW213719   4.574   6.275   4.757
 4274SOL     OW13720   6.929   6.215   1.503
 4274SOL    HW113721   6.944   6.301   1.552
 4274SOL    HW213722   7.012   6.159   1.507
 4275SOL     OW13723   0.742   2.447   3.731
 4275SOL    HW113724   0.839   2.457   3.753
 4275SOL    HW213725   0.704   2.370   3.782
 4276SOL     OW13726   2.791   5.542   4.215
 4276SOL    HW113727   2.786   5.588   4.304
 4276SOL    HW213728   2.706   5.558   4.164
 4277SOL     OW13729   6.549   5.484   4.093
 4277SOL    HW113730   6.516   5.392   4.113
 4277SOL    HW213731   6.648   5.487   4.103
 4278SOL     OW13732   0.220   6.438   2.481
 4278SOL    HW113733   0.242   6.450   2.577
 4278SOL    HW213734   0.121   6.432   2.470
 4279SOL     OW13735   1.278   1.861   2.462
 4279SOL    HW113736   1.214   1.849   2.538
 4279SOL    HW213737   1.255   1.945   2.413
 4280SOL     OW13738   6.660   6.841   6.471
 4280SOL    HW113739   6.607   6.840   6.556
 4280SOL    HW213740   6.683   6.936   6.448
 4281SOL     OW13741   4.484   5.725   4.008
 4281SOL    HW113742   4.573   5.771   4.000
 4281SOL    HW213743   4.413   5.785   3.972
 4282SOL     OW13744   3.027   4.089   1.284
 4282SOL    HW113745   3.061   4.024   1.352
 4282SOL    HW213746   3.072   4.072   1.197
 4283SOL     OW13747   4.977   0.720   3.455
 4283SOL    HW113748   5.065   0.768   3.450
 4283SOL    HW213749   4.909   0.771   3.402
 4284SOL     OW13750   5.006   5.356   7.014
 4284SOL    HW113751   5.024   5.276   6.956
 4284SOL    HW213752   4.910   5.356   0.020
 4285SOL     OW13753   3.530   0.865   6.396
 4285SOL    HW113754   3.614   0.850   6.343
 4285SOL    HW213755   3.490   0.777   6.420
 4286SOL     OW13756   6.428   1.162   6.675
 4286SOL    HW113757   6.406   1.257   6.698
 4286SOL    HW213758   6.402   1.103   6.752
 4287SOL     OW13759   4.695   1.016   0.072
 4287SOL    HW113760   4.749   1.045   7.013
 4287SOL    HW213761   4.726   0.926   0.103
 4288SOL     OW13762   6.325   6.009   1.750
 4288SOL    HW113763   6.317   6.107   1.769
 4288SOL    HW213764   6.235   5.971   1.730
 4289SOL     OW13765   0.817   2.804   5.523
 4289SOL    HW113766   0.780   2.711   5.533
 4289SOL    HW213767   0.820   2.849   5.612
 4290SOL     OW13768   0.198   0.822   2.819
 4290SOL    HW113769   0.178   0.905   2.872
 4290SOL    HW213770   0.113   0.784   2.783
 4291SOL     OW13771   5.127   3.305   6.014
 4291SOL    HW113772   5.049   3.356   5.978
 4291SOL    HW213773   5.187   3.279   5.938
 4292SOL     OW13774   5.089   1.933   0.514
 4292SOL    HW113775   5.084   1.889   0.603
 4292SOL    HW213776   5.150   2.011   0.518
 4293SOL     OW13777   4.919   3.742   6.540
 4293SOL    HW113778   4.961   3.653   6.523
 4293SOL    HW213779   4.843   3.756   6.476
 4294SOL     OW13780   3.095   2.481   6.358
 4294SOL    HW113781   3.092   2.390   6.399
 4294SOL    HW213782   3.139   2.476   6.268
 4295SOL     OW13783   4.531   6.749   2.036
 4295SOL    HW113784   4.465   6.802   1.982
 4295SOL    HW213785   4.492   6.728   2.125
 4296SOL     OW13786   2.768   6.420   1.203
 4296SOL    HW113787   2.848   6.460   1.157
 4296SOL    HW213788   2.702   6.492   1.223
 4297SOL     OW13789   6.392   5.168   1.204
 4297SOL    HW113790   6.468   5.104   1.200
 4297SOL    HW213791   6.332   5.154   1.126
 4298SOL     OW13792   3.419   6.395   1.403
 4298SOL    HW113793   3.406   6.296   1.395
 4298SOL    HW213794   3.344   6.434   1.455
 4299SOL     OW13795   0.507   2.628   6.865
 4299SOL    HW113796   0.497   2.697   6.936
 4299SOL    HW213797   0.604   2.613   6.846
 4300SOL     OW13798   4.081   0.863   0.846
 4300SOL    HW113799   4.049   0.870   0.941
 4300SOL    HW213800   4.057   0.772   0.811
 4301SOL     OW13801   3.234   6.179   1.726
 4301SOL    HW113802   3.330   6.156   1.738
 4301SOL    HW213803   3.206   6.245   1.795
 4302SOL     OW13804   1.480   6.363   6.470
 4302SOL    HW113805   1.554   6.391   6.410
 4302SOL    HW213806   1.402   6.332   6.416
 4303SOL     OW13807   6.655   4.370   4.455
 4303SOL    HW113808   6.730   4.322   4.500
 4303SOL    HW213809   6.569   4.323   4.477
 4304SOL     OW13810   3.238   3.791   1.657
 4304SOL    HW113811   3.330   3.759   1.635
 4304SOL    HW213812   3.178   3.713   1.677
 4305SOL     OW13813   6.769   0.369   5.843
 4305SOL    HW113814   6.730   0.283   5.811
 4305SOL    HW213815   6.844   0.396   5.784
 4306SOL     OW13816   4.928   3.942   4.621
 4306SOL    HW113817   4.943   3.846   4.644
 4306SOL    HW213818   4.904   3.993   4.703
 4307SOL     OW13819   6.360   2.620   5.168
 4307SOL    HW113820   6.345   2.659   5.077
 4307SOL    HW213821   6.272   2.614   5.215
 4308SOL     OW13822   5.323   4.761   1.489
 4308SOL    HW113823   5.322   4.710   1.575
 4308SOL    HW213824   5.412   4.750   1.445
 4309SOL     OW13825   1.012   3.306   0.648
 4309SOL    HW113826   1.093   3.353   0.613
 4309SOL    HW213827   1.022   3.291   0.746
 4310SOL     OW13828   0.248   1.743   2.399
 4310SOL    HW113829   0.274   1.804   2.474
 4310SOL    HW213830   0.200   1.796   2.328
 4311SOL     OW13831   1.147   6.313   2.083
 4311SOL    HW113832   1.173   6.219   2.103
 4311SOL    HW213833   1.058   6.333   2.122
 4312SOL     OW13834   1.104   5.106   1.856
 4312SOL    HW113835   1.024   5.090   1.799
 4312SOL    HW213836   1.110   5.203   1.879
 4313SOL     OW13837   5.550   1.912   0.470
 4313SOL    HW113838   5.601   1.862   0.399
 4313SOL    HW213839   5.608   1.983   0.509
 4314SOL     OW13840   6.712   2.935   5.360
 4314SOL    HW113841   6.616   2.931   5.330
 4314SOL    HW213842   6.731   3.024   5.401
 4315SOL     OW13843   2.158   1.436   3.795
 4315SOL    HW113844   2.082   1.481   3.748
 4315SOL    HW213845   2.244   1.464   3.752
 4316SOL     OW13846   5.678   0.426   2.316
 4316SOL    HW113847   5.599   0.420   2.376
 4316SOL    HW213848   5.685   0.518   2.278
 4317SOL     OW13849   4.424   1.010   5.694
 4317SOL    HW113850   4.430   1.034   5.791
 4317SOL    HW213851   4.352   1.064   5.651
 4318SOL     OW13852   0.553   0.847   3.848
 4318SOL    HW113853   0.646   0.860   3.883
 4318SOL    HW213854   0.516   0.760   3.880
 4319SOL     OW13855   1.504   3.072   1.978
 4319SOL    HW113856   1.523   3.061   2.075
 4319SOL    HW213857   1.547   3.156   1.945
 4320SOL     OW13858   3.477   6.279   0.814
 4320SOL    HW113859   3.384   6.284   0.850
 4320SOL    HW213860   3.480   6.318   0.722
 4321SOL     OW13861   6.422   5.988   2.327
 4321SOL    HW113862   6.429   5.974   2.228
 4321SOL    HW213863   6.409   5.900   2.373
 4322SOL     OW13864   0.549   2.165   5.335
 4322SOL    HW113865   0.578   2.214   5.252
 4322SOL    HW213866   0.506   2.079   5.309
 4323SOL     OW13867   4.123   5.525   0.042
 4323SOL    HW113868   4.113   5.621   0.068
 4323SOL    HW213869   4.206   5.514   7.009
 4324SOL     OW13870   0.231   3.921   5.501
 4324SOL    HW113871   0.210   3.826   5.523
 4324SOL    HW213872   0.251   3.971   5.585
 4325SOL     OW13873   2.913   0.674   2.983
 4325SOL    HW113874   2.815   0.694   2.977
 4325SOL    HW213875   2.934   0.592   2.930
 4326SOL     OW13876   5.066   2.448   2.379
 4326SOL    HW113877   5.044   2.465   2.475
 4326SOL    HW213878   5.129   2.371   2.372
 4327SOL     OW13879   3.594   5.466   4.347
 4327SOL    HW113880   3.579   5.563   4.361
 4327SOL    HW213881   3.602   5.420   4.435
 4328SOL     OW13882   6.300   5.464   5.164
 4328SOL    HW113883   6.353   5.413   5.096
 4328SOL    HW213884   6.263   5.401   5.232
 4329SOL     OW13885   5.770   3.079   5.870
 4329SOL    HW113886   5.739   3.162   5.916
 4329SOL    HW213887   5.709   3.058   5.793
 4330SOL     OW13888   2.614   5.790   5.507
 4330SOL    HW113889   2.586   5.853   5.580
 4330SOL    HW213890   2.647   5.705   5.547
 4331SOL     OW13891   6.260   0.601   1.458
 4331SOL    HW113892   6.318   0.552   1.524
 4331SOL    HW213893   6.267   0.556   1.369
 4332SOL     OW13894   6.558   3.984   2.572
 4332SOL    HW113895   6.485   3.916   2.573
 4332SOL    HW213896   6.636   3.949   2.519
 4333SOL     OW13897   4.260   1.967   4.932
 4333SOL    HW113898   4.177   2.020   4.942
 4333SOL    HW213899   4.294   1.975   4.837
 4334SOL     OW13900   1.372   2.844   2.923
 4334SOL    HW113901   1.381   2.910   2.848
 4334SOL    HW213902   1.276   2.825   2.940
 4335SOL     OW13903   3.375   2.993   0.971
 4335SOL    HW113904   3.355   3.004   0.874
 4335SOL    HW213905   3.435   3.067   1.001
 4336SOL     OW13906   1.856   5.628   6.388
 4336SOL    HW113907   1.830   5.652   6.294
 4336SOL    HW213908   1.951   5.655   6.403
 4337SOL     OW13909   1.148   6.034   2.145
 4337SOL    HW113910   1.077   6.046   2.075
 4337SOL    HW213911   1.216   5.969   2.112
 4338SOL     OW13912   5.880   0.457   5.343
 4338SOL    HW113913   5.841   0.546   5.364
 4338SOL    HW213914   5.852   0.391   5.412
 4339SOL     OW13915   4.116   2.831   6.250
 4339SOL    HW113916   4.172   2.827   6.332
 4339SOL    HW213917   4.111   2.740   6.208
 4340SOL     OW13918   6.432   4.108   0.974
 4340SOL    HW113919   6.513   4.128   1.030
 4340SOL    HW213920   6.384   4.029   1.012
 4341SOL     OW13921   0.886   5.893   1.742
 4341SOL    HW113922   0.890   5.802   1.701
 4341SOL    HW213923   0.875   5.961   1.670
 4342SOL     OW13924   5.166   3.675   2.721
 4342SOL    HW113925   5.105   3.633   2.654
 4342SOL    HW213926   5.241   3.613   2.741
 4343SOL     OW13927   4.733   0.501   5.504
 4343SOL    HW113928   4.647   0.504   5.453
 4343SOL    HW213929   4.806   0.473   5.442
 4344SOL     OW13930   0.180   2.787   4.267
 4344SOL    HW113931   0.152   2.821   4.177
 4344SOL    HW213932   0.241   2.854   4.310
 4345SOL     OW13933   2.967   3.566   2.378
 4345SOL    HW113934   2.967   3.659   2.415
 4345SOL    HW213935   2.893   3.558   2.310
 4346SOL     OW13936   2.368   2.756   2.612
 4346SOL    HW113937   2.369   2.707   2.525
 4346SOL    HW213938   2.414   2.700   2.682
 4347SOL     OW13939   6.009   5.181   1.627
 4347SOL    HW113940   6.002   5.194   1.726
 4347SOL    HW213941   6.070   5.104   1.608
 4348SOL     OW13942   6.964   6.053   3.674
 4348SOL    HW113943   6.960   5.954   3.661
 4348SOL    HW213944   0.036   6.086   3.655
 4349SOL     OW13945   0.289   4.070   3.633
 4349SOL    HW113946   0.330   4.111   3.714
 4349SOL    HW213947   0.331   4.107   3.551
 4350SOL     OW13948   5.444   1.541   4.763
 4350SOL    HW113949   5.358   1.514   4.807
 4350SOL    HW213950   5.468   1.472   4.694
 4351SOL     OW13951   1.266   6.990   1.065
 4351SOL    HW113952   1.330   6.997   1.141
 4351SOL    HW213953   1.180   0.015   1.089
 4352SOL     OW13954   4.407   4.007   1.019
 4352SOL    HW113955   4.490   3.970   0.978
 4352SOL    HW213956   4.417   4.011   1.118
 4353SOL     OW13957   2.939   3.693   7.018
 4353SOL    HW113958   2.973   3.651   0.081
 4353SOL    HW213959   2.930   3.624   6.947
 4354SOL     OW13960   6.680   0.016   3.811
 4354SOL    HW113961   6.728   0.096   3.847
 4354SOL    HW213962   6.598   7.020   3.866
 4355SOL     OW13963   1.084   0.259   3.866
 4355SOL    HW113964   1.082   0.164   3.896
 4355SOL    HW213965   1.158   0.308   3.913
 4356SOL     OW13966   5.039   2.737   5.996
 4356SOL    HW113967   4.982   2.711   5.918
 4356SOL    HW213968   5.059   2.835   5.992
 4357SOL     OW13969   6.409   0.771   2.117
 4357SOL    HW113970   6.384   0.802   2.209
 4357SOL    HW213971   6.502   0.802   2.096
 4358SOL     OW13972   0.641   0.813   0.423
 4358SOL    HW113973   0.734   0.816   0.386
 4358SOL    HW213974   0.639   0.860   0.511
 4359SOL     OW13975   2.728   0.775   6.847
 4359SOL    HW113976   2.752   0.872   6.854
 4359SOL    HW213977   2.788   0.730   6.781
 4360SOL     OW13978   1.407   2.847   3.305
 4360SOL    HW113979   1.354   2.873   3.385
 4360SOL    HW213980   1.382   2.906   3.228
 4361SOL     OW13981   1.218   2.009   1.264
 4361SOL    HW113982   1.316   2.010   1.241
 4361SOL    HW213983   1.193   1.920   1.301
 4362SOL     OW13984   0.668   6.025   4.095
 4362SOL    HW113985   0.703   5.980   4.178
 4362SOL    HW213986   0.730   6.099   4.069
 4363SOL     OW13987   4.330   0.715   2.728
 4363SOL    HW113988   4.415   0.746   2.770
 4363SOL    HW213989   4.340   0.621   2.696
 4364SOL     OW13990   3.344   3.742   2.589
 4364SOL    HW113991   3.393   3.689   2.659
 4364SOL    HW213992   3.367   3.838   2.598
 4365SOL     OW13993   2.721   2.205   1.849
 4365SOL    HW113994   2.787   2.244   1.914
 4365SOL    HW213995   2.766   2.134   1.795
 4366SOL     OW13996   4.868   5.704   5.341
 4366SOL    HW113997   4.864   5.647   5.259
 4366SOL    HW213998   4.932   5.779   5.326
 4367SOL     OW13999   2.978   5.456   4.039
 4367SOL    HW114000   2.903   5.508   4.079
 4367SOL    HW214001   3.065   5.486   4.079
 4368SOL     OW14002   4.946   5.460   2.650
 4368SOL    HW114003   4.879   5.389   2.630
 4368SOL    HW214004   4.902   5.550   2.647
 4369SOL     OW14005   4.736   5.292   2.834
 4369SOL    HW114006   4.776   5.370   2.882
 4369SOL    HW214007   4.793   5.211   2.848
 4370SOL     OW14008   3.833   4.755   1.470
 4370SOL    HW114009   3.816   4.658   1.486
 4370SOL    HW214010   3.828   4.805   1.557
 4371SOL     OW14011   2.276   0.657   1.497
 4371SOL    HW114012   2.199   0.617   1.447
 4371SOL    HW214013   2.342   0.586   1.520
 4372SOL     OW14014   1.626   2.494   4.773
 4372SOL    HW114015   1.556   2.433   4.737
 4372SOL    HW214016   1.592   2.540   4.855
 4373SOL     OW14017   4.433   1.041   5.953
 4373SOL    HW114018   4.432   1.093   6.039
 4373SOL    HW214019   4.523   1.000   5.940
 4374SOL     OW14020   2.775   1.774   1.249
 4374SOL    HW114021   2.837   1.728   1.313
 4374SOL    HW214022   2.680   1.756   1.275
 4375SOL     OW14023   3.430   0.436   3.297
 4375SOL    HW114024   3.357   0.498   3.324
 4375SOL    HW214025   3.395   0.371   3.230
 4376SOL     OW14026   6.607   6.495   1.512
 4376SOL    HW114027   6.570   6.544   1.434
 4376SOL    HW214028   6.665   6.557   1.565
 4377SOL     OW14029   5.836   6.330   6.770
 4377SOL    HW114030   5.905   6.332   6.698
 4377SOL    HW214031   5.850   6.407   6.832
 4378SOL     OW14032   2.076   5.976   2.618
 4378SOL    HW114033   2.099   6.037   2.542
 4378SOL    HW214034   2.140   5.990   2.693
 4379SOL     OW14035   1.201   0.738   1.835
 4379SOL    HW114036   1.148   0.740   1.751
 4379SOL    HW214037   1.266   0.814   1.836
 4380SOL     OW14038   2.045   5.866   5.562
 4380SOL    HW114039   2.118   5.797   5.555
 4380SOL    HW214040   2.045   5.923   5.480
 4381SOL     OW14041   4.375   6.218   4.372
 4381SOL    HW114042   4.316   6.182   4.444
 4381SOL    HW214043   4.351   6.175   4.285
 4382SOL     OW14044   4.796   3.992   4.381
 4382SOL    HW114045   4.701   4.019   4.398
 4382SOL    HW214046   4.845   3.990   4.468
 4383SOL     OW14047   1.696   1.960   5.866
 4383SOL    HW114048   1.731   1.876   5.908
 4383SOL    HW214049   1.766   2.031   5.870
 4384SOL     OW14050   3.714   6.646   1.116
 4384SOL    HW114051   3.659   6.582   1.062
 4384SOL    HW214052   3.690   6.639   1.212
 4385SOL     OW14053   6.994   1.454   3.564
 4385SOL    HW114054   7.009   1.517   3.640
 4385SOL    HW214055   6.985   1.360   3.598
 4386SOL     OW14056   0.696   3.847   6.962
 4386SOL    HW114057   0.688   3.774   6.894
 4386SOL    HW214058   0.714   3.807   0.031
 4387SOL     OW14059   6.461   3.091   1.324
 4387SOL    HW114060   6.536   3.108   1.261
 4387SOL    HW214061   6.374   3.105   1.277
 4388SOL     OW14062   3.451   0.339   5.990
 4388SOL    HW114063   3.389   0.274   6.033
 4388SOL    HW214064   3.423   0.356   5.896
 4389SOL     OW14065   5.573   2.874   1.679
 4389SOL    HW114066   5.491   2.836   1.723
 4389SOL    HW214067   5.577   2.842   1.584
 4390SOL     OW14068   4.966   2.017   1.617
 4390SOL    HW114069   4.961   2.007   1.717
 4390SOL    HW214070   5.054   2.058   1.592
 4391SOL     OW14071   0.929   5.577   0.367
 4391SOL    HW114072   0.874   5.520   0.307
 4391SOL    HW214073   0.903   5.672   0.357
 4392SOL     OW14074   5.102   3.212   4.307
 4392SOL    HW114075   5.107   3.278   4.382
 4392SOL    HW214076   5.011   3.170   4.305
 4393SOL     OW14077   5.285   0.061   3.277
 4393SOL    HW114078   5.304   7.001   3.222
 4393SOL    HW214079   5.307   0.042   3.373
 4394SOL     OW14080   5.920   6.237   2.771
 4394SOL    HW114081   5.989   6.309   2.775
 4394SOL    HW214082   5.858   6.254   2.694
 4395SOL     OW14083   4.587   1.609   1.948
 4395SOL    HW114084   4.619   1.702   1.929
 4395SOL    HW214085   4.488   1.605   1.939
 4396SOL     OW14086   0.933   1.431   4.412
 4396SOL    HW114087   0.893   1.509   4.462
 4396SOL    HW214088   1.020   1.459   4.372
 4397SOL     OW14089   6.961   1.210   4.483
 4397SOL    HW114090   0.008   1.282   4.475
 4397SOL    HW214091   6.983   1.135   4.421
 4398SOL     OW14092   1.183   3.900   4.267
 4398SOL    HW114093   1.166   3.923   4.363
 4398SOL    HW214094   1.281   3.891   4.251
 4399SOL     OW14095   2.358   0.623   0.392
 4399SOL    HW114096   2.325   0.566   0.467
 4399SOL    HW214097   2.458   0.633   0.399
 4400SOL     OW14098   2.511   6.643   4.210
 4400SOL    HW114099   2.503   6.682   4.118
 4400SOL    HW214100   2.589   6.581   4.214
 4401SOL     OW14101   5.397   5.979   4.844
 4401SOL    HW114102   5.349   5.908   4.792
 4401SOL    HW214103   5.489   5.991   4.808
 4402SOL     OW14104   1.137   5.782   2.748
 4402SOL    HW114105   1.111   5.703   2.803
 4402SOL    HW214106   1.054   5.824   2.710
 4403SOL     OW14107   6.760   7.015   3.059
 4403SOL    HW114108   6.833   6.971   3.110
 4403SOL    HW214109   6.778   0.092   3.053
 4404SOL     OW14110   0.824   4.552   3.674
 4404SOL    HW114111   0.804   4.593   3.762
 4404SOL    HW214112   0.916   4.578   3.645
 4405SOL     OW14113   3.319   4.438   6.289
 4405SOL    HW114114   3.242   4.376   6.305
 4405SOL    HW214115   3.289   4.533   6.301
 4406SOL     OW14116   4.732   4.716   1.617
 4406SOL    HW114117   4.765   4.696   1.525
 4406SOL    HW214118   4.769   4.648   1.681
 4407SOL     OW14119   6.906   6.060   0.378
 4407SOL    HW114120   6.822   6.113   0.366
 4407SOL    HW214121   6.924   6.047   0.475
 4408SOL     OW14122   4.592   0.598   0.588
 4408SOL    HW114123   4.540   0.598   0.674
 4408SOL    HW214124   4.667   0.663   0.595
 4409SOL     OW14125   4.090   1.950   1.812
 4409SOL    HW114126   4.061   1.961   1.717
 4409SOL    HW214127   4.076   1.855   1.841
 4410SOL     OW14128   2.397   4.849   0.924
 4410SOL    HW114129   2.478   4.809   0.880
 4410SOL    HW214130   2.421   4.881   1.016
 4411SOL     OW14131   3.821   3.206   2.839
 4411SOL    HW114132   3.806   3.173   2.932
 4411SOL    HW214133   3.888   3.148   2.793
 4412SOL     OW14134   3.870   1.303   5.902
 4412SOL    HW114135   3.798   1.345   5.958
 4412SOL    HW214136   3.928   1.375   5.864
 4413SOL     OW14137   3.936   5.638   3.753
 4413SOL    HW114138   3.912   5.620   3.849
 4413SOL    HW214139   3.945   5.736   3.739
 4414SOL     OW14140   4.145   4.735   2.162
 4414SOL    HW114141   4.099   4.653   2.195
 4414SOL    HW214142   4.224   4.754   2.220
 4415SOL     OW14143   5.629   4.032   6.007
 4415SOL    HW114144   5.589   4.091   6.078
 4415SOL    HW214145   5.591   4.057   5.918
 4416SOL     OW14146   2.779   1.578   4.529
 4416SOL    HW114147   2.840   1.525   4.469
 4416SOL    HW214148   2.787   1.675   4.507
 4417SOL     OW14149   0.395   4.660   1.859
 4417SOL    HW114150   0.478   4.705   1.893
 4417SOL    HW214151   0.390   4.671   1.759
 4418SOL     OW14152   4.336   6.531   3.677
 4418SOL    HW114153   4.245   6.551   3.641
 4418SOL    HW214154   4.350   6.432   3.679
 4419SOL     OW14155   6.200   5.444   0.737
 4419SOL    HW114156   6.262   5.520   0.719
 4419SOL    HW214157   6.213   5.413   0.831
 4420SOL     OW14158   4.721   0.781   0.981
 4420SOL    HW114159   4.787   0.856   0.976
 4420SOL    HW214160   4.648   0.797   0.915
 4421SOL     OW14161   1.770   1.423   2.491
 4421SOL    HW114162   1.825   1.433   2.573
 4421SOL    HW214163   1.689   1.368   2.511
 4422SOL     OW14164   3.068   3.736   6.195
 4422SOL    HW114165   3.110   3.651   6.164
 4422SOL    HW214166   3.065   3.736   6.295
 4423SOL     OW14167   1.155   1.815   6.268
 4423SOL    HW114168   1.187   1.833   6.361
 4423SOL    HW214169   1.231   1.822   6.204
 4424SOL     OW14170   5.391   6.059   3.376
 4424SOL    HW114171   5.308   6.009   3.400
 4424SOL    HW214172   5.367   6.134   3.314
 4425SOL     OW14173   3.374   5.694   5.545
 4425SOL    HW114174   3.457   5.718   5.495
 4425SOL    HW214175   3.356   5.596   5.536
 4426SOL     OW14176   6.647   0.995   5.010
 4426SOL    HW114177   6.732   1.002   5.061
 4426SOL    HW214178   6.642   0.906   4.965
 4427SOL     OW14179   0.303   0.795   3.200
 4427SOL    HW114180   0.304   0.734   3.121
 4427SOL    HW214181   0.352   0.880   3.176
 4428SOL     OW14182   2.989   4.871   4.301
 4428SOL    HW114183   2.903   4.834   4.336
 4428SOL    HW214184   3.057   4.873   4.374
 4429SOL     OW14185   2.928   6.881   3.381
 4429SOL    HW114186   2.857   6.814   3.361
 4429SOL    HW214187   2.920   6.959   3.319
 4430SOL     OW14188   4.020   1.869   2.686
 4430SOL    HW114189   3.921   1.878   2.676
 4430SOL    HW214190   4.059   1.835   2.600
 4431SOL     OW14191   3.042   1.880   3.495
 4431SOL    HW114192   3.134   1.849   3.520
 4431SOL    HW214193   3.022   1.851   3.401
 4432SOL     OW14194   3.347   3.196   3.190
 4432SOL    HW114195   3.371   3.106   3.155
 4432SOL    HW214196   3.360   3.265   3.118
 4433SOL     OW14197   5.636   6.758   3.219
 4433SOL    HW114198   5.643   6.834   3.282
 4433SOL    HW214199   5.667   6.787   3.128
 4434SOL     OW14200   5.336   1.938   3.946
 4434SOL    HW114201   5.359   2.022   3.898
 4434SOL    HW214202   5.331   1.956   4.044
 4435SOL     OW14203   3.548   3.116   1.513
 4435SOL    HW114204   3.531   3.100   1.415
 4435SOL    HW214205   3.633   3.167   1.524
 4436SOL     OW14206   3.077   2.165   0.405
 4436SOL    HW114207   3.155   2.120   0.363
 4436SOL    HW214208   3.012   2.193   0.334
 4437SOL     OW14209   4.332   0.759   4.435
 4437SOL    HW114210   4.357   0.843   4.387
 4437SOL    HW214211   4.263   0.710   4.382
 4438SOL     OW14212   4.099   2.331   0.136
 4438SOL    HW114213   4.077   2.235   0.157
 4438SOL    HW214214   4.063   2.390   0.208
 4439SOL     OW14215   0.707   5.470   1.690
 4439SOL    HW114216   0.701   5.454   1.789
 4439SOL    HW214217   0.661   5.396   1.642
 4440SOL     OW14218   1.886   5.870   0.086
 4440SOL    HW114219   1.869   5.815   0.004
 4440SOL    HW214220   1.983   5.894   0.090
 4441SOL     OW14221   6.490   2.669   2.482
 4441SOL    HW114222   6.564   2.603   2.498
 4441SOL    HW214223   6.408   2.639   2.531
 4442SOL     OW14224   3.846   6.270   3.478
 4442SOL    HW114225   3.756   6.276   3.435
 4442SOL    HW214226   3.910   6.331   3.431
 4443SOL     OW14227   2.317   1.925   6.254
 4443SOL    HW114228   2.314   1.895   6.350
 4443SOL    HW214229   2.412   1.922   6.222
 4444SOL     OW14230   4.685   6.407   1.102
 4444SOL    HW114231   4.770   6.354   1.109
 4444SOL    HW214232   4.639   6.408   1.191
 4445SOL     OW14233   1.501   1.129   6.519
 4445SOL    HW114234   1.425   1.182   6.483
 4445SOL    HW214235   1.571   1.118   6.448
 4446SOL     OW14236   5.809   0.301   1.930
 4446SOL    HW114237   5.812   0.394   1.964
 4446SOL    HW214238   5.716   0.280   1.899
 4447SOL     OW14239   5.405   3.315   5.918
 4447SOL    HW114240   5.423   3.407   5.882
 4447SOL    HW214241   5.467   3.297   5.994
 4448SOL     OW14242   2.996   3.594   0.591
 4448SOL    HW114243   3.091   3.626   0.592
 4448SOL    HW214244   2.994   3.495   0.605
 4449SOL     OW14245   2.759   0.388   5.477
 4449SOL    HW114246   2.733   0.370   5.572
 4449SOL    HW214247   2.858   0.378   5.466
 4450SOL     OW14248   2.937   3.335   2.530
 4450SOL    HW114249   2.854   3.387   2.506
 4450SOL    HW214250   3.012   3.363   2.470
 4451SOL     OW14251   6.087   4.361   2.477
 4451SOL    HW114252   6.166   4.350   2.537
 4451SOL    HW214253   6.108   4.320   2.388
 4452SOL     OW14254   6.105   6.678   5.713
 4452SOL    HW114255   6.022   6.653   5.763
 4452SOL    HW214256   6.166   6.729   5.773
 4453SOL     OW14257   5.886   2.932   1.589
 4453SOL    HW114258   5.882   2.902   1.685
 4453SOL    HW214259   5.971   2.983   1.574
 4454SOL     OW14260   5.351   2.219   1.088
 4454SOL    HW114261   5.346   2.318   1.082
 4454SOL    HW214262   5.270   2.184   1.135
 4455SOL     OW14263   3.435   6.598   2.188
 4455SOL    HW114264   3.455   6.508   2.148
 4455SOL    HW214265   3.444   6.593   2.288
 4456SOL     OW14266   2.449   5.500   2.359
 4456SOL    HW114267   2.548   5.510   2.373
 4456SOL    HW214268   2.407   5.467   2.444
 4457SOL     OW14269   4.210   2.133   6.269
 4457SOL    HW114270   4.215   2.040   6.305
 4457SOL    HW214271   4.243   2.198   6.338
 4458SOL     OW14272   2.532   3.127   6.515
 4458SOL    HW114273   2.611   3.070   6.492
 4458SOL    HW214274   2.553   3.182   6.596
 4459SOL     OW14275   4.584   6.861   4.588
 4459SOL    HW114276   4.670   6.874   4.637
 4459SOL    HW214277   4.567   6.938   4.528
 4460SOL     OW14278   2.378   3.223   6.995
 4460SOL    HW114279   2.384   3.161   0.052
 4460SOL    HW214280   2.283   3.249   6.981
 4461SOL     OW14281   1.037   0.006   2.323
 4461SOL    HW114282   1.099   6.963   2.277
 4461SOL    HW214283   1.028   7.000   2.419
 4462SOL     OW14284   6.286   5.055   0.942
 4462SOL    HW114285   6.209   5.024   0.999
 4462SOL    HW214286   6.253   5.119   0.873
 4463SOL     OW14287   1.876   3.085   6.512
 4463SOL    HW114288   1.904   3.115   6.421
 4463SOL    HW214289   1.788   3.126   6.535
 4464SOL     OW14290   5.791   4.681   6.356
 4464SOL    HW114291   5.801   4.761   6.416
 4464SOL    HW214292   5.833   4.701   6.268
 4465SOL     OW14293   2.167   6.456   2.249
 4465SOL    HW114294   2.112   6.532   2.283
 4465SOL    HW214295   2.236   6.491   2.186
 4466SOL     OW14296   0.880   1.349   2.284
 4466SOL    HW114297   0.954   1.284   2.264
 4466SOL    HW214298   0.918   1.441   2.289
 4467SOL     OW14299   1.330   6.612   2.966
 4467SOL    HW114300   1.341   6.629   3.064
 4467SOL    HW214301   1.249   6.556   2.951
 4468SOL     OW14302   0.999   2.116   6.772
 4468SOL    HW114303   1.098   2.120   6.785
 4468SOL    HW214304   0.974   2.026   6.735
 4469SOL     OW14305   3.212   0.184   1.823
 4469SOL    HW114306   3.191   0.180   1.921
 4469SOL    HW214307   3.310   0.199   1.810
 4470SOL     OW14308   5.237   3.752   1.894
 4470SOL    HW114309   5.316   3.692   1.903
 4470SOL    HW214310   5.261   3.831   1.837
 4471SOL     OW14311   0.718   2.668   1.110
 4471SOL    HW114312   0.647   2.666   1.039
 4471SOL    HW214313   0.752   2.761   1.121
 4472SOL     OW14314   1.783   4.002   2.320
 4472SOL    HW114315   1.836   3.919   2.338
 4472SOL    HW214316   1.832   4.059   2.255
 4473SOL     OW14317   0.114   0.322   4.640
 4473SOL    HW114318   0.096   0.334   4.542
 4473SOL    HW214319   0.113   0.411   4.685
 4474SOL     OW14320   3.664   0.216   1.997
 4474SOL    HW114321   3.699   0.187   1.907
 4474SOL    HW214322   3.657   0.316   1.999
 4475SOL     OW14323   1.501   3.855   0.991
 4475SOL    HW114324   1.509   3.833   1.088
 4475SOL    HW214325   1.566   3.800   0.938
 4476SOL     OW14326   5.141   6.615   2.841
 4476SOL    HW114327   5.171   6.604   2.936
 4476SOL    HW214328   5.127   6.712   2.822
 4477SOL     OW14329   2.167   0.589   6.694
 4477SOL    HW114330   2.232   0.524   6.655
 4477SOL    HW214331   2.196   0.613   6.787
 4478SOL     OW14332   2.622   6.941   2.493
 4478SOL    HW114333   2.718   6.922   2.473
 4478SOL    HW214334   2.564   6.904   2.420
 4479SOL     OW14335   0.862   0.192   6.380
 4479SOL    HW114336   0.852   0.184   6.479
 4479SOL    HW214337   0.813   0.273   6.348
 4480SOL     OW14338   1.559   3.982   4.531
 4480SOL    HW114339   1.531   4.043   4.457
 4480SOL    HW214340   1.619   4.031   4.594
 4481SOL     OW14341   1.550   6.378   4.259
 4481SOL    HW114342   1.487   6.352   4.332
 4481SOL    HW214343   1.630   6.423   4.298
 4482SOL     OW14344   1.221   4.339   4.154
 4482SOL    HW114345   1.306   4.289   4.137
 4482SOL    HW214346   1.144   4.275   4.154
 4483SOL     OW14347   6.721   2.846   1.130
 4483SOL    HW114348   6.628   2.824   1.099
 4483SOL    HW214349   6.719   2.868   1.227
 4484SOL     OW14350   3.761   2.652   5.330
 4484SOL    HW114351   3.803   2.721   5.272
 4484SOL    HW214352   3.826   2.579   5.349
 4485SOL     OW14353   4.939   2.192   6.526
 4485SOL    HW114354   5.001   2.114   6.522
 4485SOL    HW214355   4.977   2.262   6.586
 4486SOL     OW14356   0.187   4.155   5.175
 4486SOL    HW114357   0.238   4.095   5.112
 4486SOL    HW214358   0.246   4.231   5.202
 4487SOL     OW14359   2.620   3.695   6.578
 4487SOL    HW114360   2.615   3.658   6.485
 4487SOL    HW214361   2.711   3.733   6.593
 4488SOL     OW14362   5.953   2.678   5.461
 4488SOL    HW114363   5.987   2.657   5.369
 4488SOL    HW214364   5.919   2.772   5.462
 4489SOL     OW14365   5.711   5.637   4.436
 4489SOL    HW114366   5.640   5.685   4.384
 4489SOL    HW214367   5.701   5.659   4.533
 4490SOL     OW14368   6.133   1.415   1.533
 4490SOL    HW114369   6.059   1.472   1.498
 4490SOL    HW214370   6.121   1.321   1.501
 4491SOL     OW14371   1.511   3.514   2.553
 4491SOL    HW114372   1.599   3.560   2.566
 4491SOL    HW214373   1.487   3.464   2.636
 4492SOL     OW14374   4.869   2.328   0.053
 4492SOL    HW114375   4.948   2.310   7.015
 4492SOL    HW214376   4.819   2.243   0.069
 4493SOL     OW14377   4.535   5.287   4.843
 4493SOL    HW114378   4.528   5.380   4.880
 4493SOL    HW214379   4.631   5.257   4.846
 4494SOL     OW14380   0.277   3.146   5.701
 4494SOL    HW114381   0.221   3.076   5.744
 4494SOL    HW214382   0.245   3.162   5.607
 4495SOL     OW14383   5.367   6.609   2.697
 4495SOL    HW114384   5.283   6.593   2.748
 4495SOL    HW214385   5.422   6.678   2.744
 4496SOL     OW14386   5.591   4.799   6.863
 4496SOL    HW114387   5.561   4.814   6.957
 4496SOL    HW214388   5.550   4.714   6.828
 4497SOL     OW14389   5.265   6.163   6.427
 4497SOL    HW114390   5.207   6.132   6.351
 4497SOL    HW214391   5.207   6.189   6.504
 4498SOL     OW14392   0.345   4.251   6.742
 4498SOL    HW114393   0.261   4.211   6.705
 4498SOL    HW214394   0.384   4.189   6.810
 4499SOL     OW14395   6.862   3.174   4.364
 4499SOL    HW114396   6.906   3.120   4.436
 4499SOL    HW214397   6.820   3.113   4.297
 4500SOL     OW14398   3.162   4.033   3.954
 4500SOL    HW114399   3.150   4.121   3.908
 4500SOL    HW214400   3.220   3.973   3.899
 4501SOL     OW14401   1.284   3.979   5.526
 4501SOL    HW114402   1.219   3.904   5.538
 4501SOL    HW214403   1.347   3.982   5.603
 4502SOL     OW14404   1.639   2.452   6.282
 4502SOL    HW114405   1.599   2.543   6.276
 4502SOL    HW214406   1.724   2.457   6.335
 4503SOL     OW14407   2.283   1.018   3.382
 4503SOL    HW114408   2.201   1.014   3.324
 4503SOL    HW214409   2.271   0.956   3.460
 4504SOL     OW14410   6.085   2.575   5.668
 4504SOL    HW114411   6.028   2.615   5.596
 4504SOL    HW214412   6.027   2.548   5.745
 4505SOL     OW14413   0.681   6.120   4.685
 4505SOL    HW114414   0.722   6.204   4.649
 4505SOL    HW214415   0.727   6.041   4.646
 4506SOL     OW14416   3.435   1.426   4.805
 4506SOL    HW114417   3.475   1.376   4.882
 4506SOL    HW214418   3.497   1.499   4.776
 4507SOL     OW14419   4.882   4.896   1.253
 4507SOL    HW114420   4.874   4.888   1.353
 4507SOL    HW214421   4.925   4.983   1.229
 4508SOL     OW14422   1.867   3.826   6.942
 4508SOL    HW114423   1.911   3.860   0.005
 4508SOL    HW214424   1.936   3.818   6.870
 4509SOL     OW14425   4.266   1.876   4.287
 4509SOL    HW114426   4.209   1.805   4.245
 4509SOL    HW214427   4.215   1.920   4.361
 4510SOL     OW14428   5.730   0.684   5.000
 4510SOL    HW114429   5.765   0.739   5.076
 4510SOL    HW214430   5.767   0.591   5.006
 4511SOL     OW14431   0.187   3.269   0.421
 4511SOL    HW114432   0.105   3.232   0.379
 4511SOL    HW214433   0.248   3.304   0.350
 4512SOL     OW14434   2.611   7.007   6.902
 4512SOL    HW114435   2.668   0.068   6.897
 4512SOL    HW214436   2.597   6.982   6.998
 4513SOL     OW14437   4.511   6.400   1.317
 4513SOL    HW114438   4.496   6.318   1.262
 4513SOL    HW214439   4.430   6.419   1.371
 4514SOL     OW14440   3.822   1.079   4.671
 4514SOL    HW114441   3.903   1.034   4.632
 4514SOL    HW214442   3.742   1.019   4.661
 4515SOL     OW14443   6.682   4.700   6.784
 4515SOL    HW114444   6.583   4.704   6.771
 4515SOL    HW214445   6.718   4.792   6.796
 4516SOL     OW14446   1.167   0.962   5.617
 4516SOL    HW114447   1.171   0.933   5.712
 4516SOL    HW214448   1.180   0.882   5.557
 4517SOL     OW14449   3.209   0.153   6.710
 4517SOL    HW114450   3.188   0.116   6.620
 4517SOL    HW214451   3.244   0.246   6.700
 4518SOL     OW14452   0.972   2.049   3.957
 4518SOL    HW114453   0.882   2.081   3.987
 4518SOL    HW214454   1.033   2.043   4.035
 4519SOL     OW14455   0.374   1.690   3.736
 4519SOL    HW114456   0.311   1.613   3.734
 4519SOL    HW214457   0.440   1.682   3.661
 4520SOL     OW14458   6.017   4.622   2.541
 4520SOL    HW114459   6.086   4.683   2.501
 4520SOL    HW214460   6.043   4.527   2.523
 4521SOL     OW14461   4.805   2.431   5.947
 4521SOL    HW114462   4.877   2.361   5.954
 4521SOL    HW214463   4.717   2.387   5.929
 4522SOL     OW14464   5.313   6.700   4.020
 4522SOL    HW114465   5.365   6.752   3.952
 4522SOL    HW214466   5.277   6.763   4.089
 4523SOL     OW14467   2.916   5.084   0.078
 4523SOL    HW114468   2.816   5.091   0.069
 4523SOL    HW214469   2.944   4.989   0.067
 4524SOL     OW14470   5.439   1.715   5.644
 4524SOL    HW114471   5.447   1.794   5.705
 4524SOL    HW214472   5.467   1.632   5.692
 4525SOL     OW14473   6.437   1.794   4.185
 4525SOL    HW114474   6.414   1.737   4.263
 4525SOL    HW214475   6.530   1.828   4.194
 4526SOL     OW14476   5.296   6.913   1.234
 4526SOL    HW114477   5.219   6.860   1.200
 4526SOL    HW214478   5.263   7.000   1.272
 4527SOL     OW14479   4.046   0.728   3.260
 4527SOL    HW114480   3.966   0.783   3.282
 4527SOL    HW214481   4.121   0.751   3.321
 4528SOL     OW14482   5.034   6.815   7.009
 4528SOL    HW114483   4.946   6.848   0.020
 4528SOL    HW214484   5.102   6.888   7.018
 4529SOL     OW14485   2.786   0.944   3.438
 4529SOL    HW114486   2.852   0.930   3.364
 4529SOL    HW214487   2.693   0.942   3.402
 4530SOL     OW14488   0.561   2.959   5.689
 4530SOL    HW114489   0.491   2.898   5.652
 4530SOL    HW214490   0.555   2.959   5.789
 4531SOL     OW14491   1.185   3.883   2.809
 4531SOL    HW114492   1.144   3.792   2.809
 4531SOL    HW214493   1.115   3.951   2.834
 4532SOL     OW14494   6.523   1.181   0.932
 4532SOL    HW114495   6.522   1.114   1.006
 4532SOL    HW214496   6.551   1.270   0.969
 4533SOL     OW14497   1.349   0.072   3.450
 4533SOL    HW114498   1.433   0.019   3.432
 4533SOL    HW214499   1.372   0.167   3.468
 4534SOL     OW14500   5.965   3.569   5.042
 4534SOL    HW114501   6.006   3.507   5.109
 4534SOL    HW214502   5.951   3.659   5.084
 4535SOL     OW14503   4.672   2.690   2.001
 4535SOL    HW114504   4.732   2.665   1.925
 4535SOL    HW214505   4.679   2.789   2.017
 4536SOL     OW14506   5.007   0.768   4.774
 4536SOL    HW114507   5.055   0.693   4.727
 4536SOL    HW214508   5.024   0.853   4.725
 4537SOL     OW14509   3.739   3.215   6.669
 4537SOL    HW114510   3.728   3.254   6.761
 4537SOL    HW214511   3.785   3.126   6.676
 4538SOL     OW14512   3.546   1.540   3.313
 4538SOL    HW114513   3.543   1.473   3.238
 4538SOL    HW214514   3.456   1.545   3.356
 4539SOL     OW14515   2.942   2.160   3.804
 4539SOL    HW114516   2.922   2.085   3.741
 4539SOL    HW214517   3.031   2.200   3.782
 4540SOL     OW14518   3.515   3.683   4.092
 4540SOL    HW114519   3.490   3.673   3.996
 4540SOL    HW214520   3.568   3.767   4.105
 4541SOL     OW14521   5.477   0.649   0.118
 4541SOL    HW114522   5.458   0.717   0.189
 4541SOL    HW214523   5.395   0.631   0.065
 4542SOL     OW14524   6.262   5.871   1.498
 4542SOL    HW114525   6.316   5.799   1.453
 4542SOL    HW214526   6.184   5.830   1.545
 4543SOL     OW14527   4.678   1.719   0.676
 4543SOL    HW114528   4.656   1.810   0.640
 4543SOL    HW214529   4.718   1.663   0.604
 4544SOL     OW14530   2.198   6.256   6.677
 4544SOL    HW114531   2.286   6.213   6.696
 4544SOL    HW214532   2.204   6.307   6.592
 4545SOL     OW14533   4.274   2.231   5.336
 4545SOL    HW114534   4.255   2.139   5.301
 4545SOL    HW214535   4.264   2.231   5.435
 4546SOL     OW14536   0.810   6.873   5.844
 4546SOL    HW114537   0.894   6.925   5.860
 4546SOL    HW214538   0.832   6.787   5.797
 4547SOL     OW14539   5.454   2.395   1.385
 4547SOL    HW114540   5.424   2.304   1.415
 4547SOL    HW214541   5.393   2.427   1.312
 4548SOL     OW14542   0.579   4.927   3.875
 4548SOL    HW114543   0.502   4.932   3.811
 4548SOL    HW214544   0.544   4.921   3.969
 4549SOL     OW14545   6.995   3.038   3.443
 4549SOL    HW114546   6.993   3.138   3.432
 4549SOL    HW214547   0.039   2.999   3.378
 4550SOL     OW14548   1.006   6.259   3.777
 4550SOL    HW114549   0.969   6.172   3.810
 4550SOL    HW214550   1.098   6.244   3.741
 4551SOL     OW14551   0.695   2.657   5.159
 4551SOL    HW114552   0.704   2.572   5.210
 4551SOL    HW214553   0.598   2.680   5.150
 4552SOL     OW14554   0.698   3.185   5.602
 4552SOL    HW114555   0.621   3.127   5.627
 4552SOL    HW214556   0.743   3.218   5.685
 4553SOL     OW14557   4.257   4.690   0.082
 4553SOL    HW114558   4.353   4.682   0.107
 4553SOL    HW214559   4.206   4.612   0.117
 4554SOL     OW14560   4.280   0.289   2.284
 4554SOL    HW114561   4.363   0.259   2.330
 4554SOL    HW214562   4.219   0.333   2.351
 4555SOL     OW14563   4.511   2.156   6.606
 4555SOL    HW114564   4.435   2.175   6.669
 4555SOL    HW214565   4.494   2.201   6.519
 4556SOL     OW14566   3.947   0.768   3.595
 4556SOL    HW114567   3.985   0.686   3.554
 4556SOL    HW214568   3.861   0.745   3.642
 4557SOL     OW14569   5.123   0.348   5.060
 4557SOL    HW114570   5.191   0.274   5.051
 4557SOL    HW214571   5.161   0.422   5.115
 4558SOL     OW14572   6.319   3.888   6.445
 4558SOL    HW114573   6.387   3.961   6.443
 4558SOL    HW214574   6.361   3.804   6.477
 4559SOL     OW14575   1.572   6.231   1.093
 4559SOL    HW114576   1.662   6.273   1.092
 4559SOL    HW214577   1.533   6.237   1.185
 4560SOL     OW14578   5.020   3.568   3.389
 4560SOL    HW114579   5.099   3.603   3.338
 4560SOL    HW214580   4.983   3.488   3.342
 4561SOL     OW14581   2.937   1.229   0.227
 4561SOL    HW114582   2.941   1.327   0.249
 4561SOL    HW214583   2.877   1.182   0.291
 4562SOL     OW14584   3.070   5.867   5.847
 4562SOL    HW114585   3.138   5.802   5.811
 4562SOL    HW214586   3.065   5.946   5.786
 4563SOL     OW14587   5.711   2.489   0.225
 4563SOL    HW114588   5.621   2.465   0.261
 4563SOL    HW214589   5.756   2.407   0.190
 4564SOL     OW14590   0.806   5.290   0.672
 4564SOL    HW114591   0.810   5.295   0.772
 4564SOL    HW214592   0.741   5.219   0.645
 4565SOL     OW14593   0.407   1.935   5.036
 4565SOL    HW114594   0.343   1.859   5.031
 4565SOL    HW214595   0.496   1.907   5.002
 4566SOL     OW14596   6.869   0.054   6.664
 4566SOL    HW114597   6.848   0.120   6.591
 4566SOL    HW214598   6.968   0.044   6.671
 4567SOL     OW14599   0.324   0.394   0.950
 4567SOL    HW114600   0.373   0.405   1.037
 4567SOL    HW214601   0.234   0.437   0.957
 4568SOL     OW14602   2.606   4.779   5.611
 4568SOL    HW114603   2.566   4.688   5.623
 4568SOL    HW214604   2.693   4.771   5.562
 4569SOL     OW14605   0.989   1.864   4.405
 4569SOL    HW114606   0.945   1.826   4.323
 4569SOL    HW214607   0.931   1.936   4.443
 4570SOL     OW14608   6.995   5.970   3.206
 4570SOL    HW114609   0.050   5.912   3.179
 4570SOL    HW214610   6.913   5.944   3.153
 4571SOL     OW14611   3.107   3.616   4.960
 4571SOL    HW114612   3.133   3.555   5.034
 4571SOL    HW214613   3.175   3.610   4.886
 4572SOL     OW14614   0.133   6.765   0.645
 4572SOL    HW114615   0.088   6.679   0.623
 4572SOL    HW214616   0.140   6.775   0.744
 4573SOL     OW14617   5.913   6.049   1.465
 4573SOL    HW114618   5.881   6.108   1.390
 4573SOL    HW214619   5.925   6.103   1.548
 4574SOL     OW14620   0.122   4.816   1.223
 4574SOL    HW114621   0.102   4.735   1.280
 4574SOL    HW214622   0.210   4.803   1.178
 4575SOL     OW14623   6.139   1.987   0.257
 4575SOL    HW114624   6.069   1.915   0.251
 4575SOL    HW214625   6.110   2.057   0.322
 4576SOL     OW14626   3.007   5.856   6.790
 4576SOL    HW114627   2.975   5.765   6.762
 4576SOL    HW214628   3.019   5.913   6.709
 4577SOL     OW14629   0.798   3.624   3.282
 4577SOL    HW114630   0.719   3.664   3.235
 4577SOL    HW214631   0.854   3.698   3.320
 4578SOL     OW14632   0.598   3.567   3.670
 4578SOL    HW114633   0.608   3.495   3.601
 4578SOL    HW214634   0.654   3.646   3.644
 4579SOL     OW14635   4.457   1.926   2.590
 4579SOL    HW114636   4.498   1.841   2.622
 4579SOL    HW214637   4.485   2.001   2.651
 4580SOL     OW14638   5.788   5.034   0.953
 4580SOL    HW114639   5.848   5.112   0.964
 4580SOL    HW214640   5.754   5.005   1.043
 4581SOL     OW14641   3.134   4.864   3.650
 4581SOL    HW114642   3.219   4.868   3.597
 4581SOL    HW214643   3.056   4.856   3.587
 4582SOL     OW14644   5.618   6.559   3.914
 4582SOL    HW114645   5.560   6.525   3.988
 4582SOL    HW214646   5.654   6.649   3.940
 4583SOL     OW14647   3.088   2.035   5.095
 4583SOL    HW114648   3.095   2.134   5.090
 4583SOL    HW214649   3.030   2.001   5.021
 4584SOL     OW14650   0.038   5.876   5.716
 4584SOL    HW114651   0.116   5.820   5.688
 4584SOL    HW214652   6.981   5.817   5.737
 4585SOL     OW14653   3.357   6.468   2.873
 4585SOL    HW114654   3.286   6.479   2.803
 4585SOL    HW214655   3.446   6.487   2.833
 4586SOL     OW14656   3.116   5.098   1.112
 4586SOL    HW114657   3.085   5.124   1.203
 4586SOL    HW214658   3.072   5.012   1.085
 4587SOL     OW14659   4.223   3.547   1.780
 4587SOL    HW114660   4.203   3.566   1.876
 4587SOL    HW214661   4.317   3.513   1.771
 4588SOL     OW14662   4.021   3.789   4.771
 4588SOL    HW114663   4.103   3.771   4.717
 4588SOL    HW214664   3.967   3.862   4.728
 4589SOL     OW14665   6.295   1.978   2.521
 4589SOL    HW114666   6.197   1.984   2.540
 4589SOL    HW214667   6.329   2.068   2.493
 4590SOL     OW14668   4.269   6.176   2.836
 4590SOL    HW114669   4.336   6.131   2.895
 4590SOL    HW214670   4.197   6.111   2.812
 4591SOL     OW14671   6.394   5.662   5.610
 4591SOL    HW114672   6.378   5.660   5.511
 4591SOL    HW214673   6.422   5.753   5.638
 4592SOL     OW14674   4.398   3.039   0.957
 4592SOL    HW114675   4.373   3.096   0.878
 4592SOL    HW214676   4.321   3.035   1.020
 4593SOL     OW14677   4.224   5.648   3.087
 4593SOL    HW114678   4.217   5.747   3.101
 4593SOL    HW214679   4.134   5.610   3.066
 4594SOL     OW14680   3.500   1.972   2.390
 4594SOL    HW114681   3.456   2.002   2.306
 4594SOL    HW214682   3.442   1.996   2.468
 4595SOL     OW14683   3.650   2.958   6.458
 4595SOL    HW114684   3.737   2.918   6.431
 4595SOL    HW214685   3.633   2.936   6.555
 4596SOL     OW14686   5.867   6.308   2.318
 4596SOL    HW114687   5.805   6.364   2.263
 4596SOL    HW214688   5.858   6.212   2.291
 4597SOL     OW14689   5.498   5.269   6.432
 4597SOL    HW114690   5.534   5.280   6.525
 4597SOL    HW214691   5.545   5.332   6.370
 4598SOL     OW14692   1.646   5.122   6.440
 4598SOL    HW114693   1.567   5.085   6.489
 4598SOL    HW214694   1.692   5.048   6.390
 4599SOL     OW14695   0.954   3.967   1.218
 4599SOL    HW114696   0.969   3.869   1.229
 4599SOL    HW214697   1.014   4.017   1.280
 4600SOL     OW14698   2.734   5.531   6.488
 4600SOL    HW114699   2.647   5.489   6.463
 4600SOL    HW214700   2.809   5.473   6.459
 4601SOL     OW14701   1.774   0.634   5.393
 4601SOL    HW114702   1.800   0.724   5.428
 4601SOL    HW214703   1.707   0.593   5.455
 4602SOL     OW14704   1.301   6.721   1.175
 4602SOL    HW114705   1.271   6.805   1.131
 4602SOL    HW214706   1.355   6.666   1.110
 4603SOL     OW14707   3.493   6.421   1.777
 4603SOL    HW114708   3.446   6.380   1.699
 4603SOL    HW214709   3.455   6.511   1.796
 4604SOL     OW14710   3.926   0.335   1.715
 4604SOL    HW114711   3.916   0.364   1.811
 4604SOL    HW214712   4.010   0.375   1.677
 4605SOL     OW14713   4.771   0.523   4.107
 4605SOL    HW114714   4.792   0.471   4.189
 4605SOL    HW214715   4.738   0.461   4.036
 4606SOL     OW14716   0.276   6.666   3.495
 4606SOL    HW114717   0.368   6.659   3.532
 4606SOL    HW214718   0.280   6.678   3.396
 4607SOL     OW14719   2.531   2.525   1.232
 4607SOL    HW114720   2.580   2.564   1.310
 4607SOL    HW214721   2.443   2.488   1.262
 4608SOL     OW14722   1.622   5.118   5.228
 4608SOL    HW114723   1.531   5.091   5.199
 4608SOL    HW214724   1.668   5.168   5.155
 4609SOL     OW14725   4.152   5.665   6.391
 4609SOL    HW114726   4.201   5.712   6.465
 4609SOL    HW214727   4.081   5.606   6.430
 4610SOL     OW14728   6.601   2.483   0.758
 4610SOL    HW114729   6.538   2.561   0.762
 4610SOL    HW214730   6.555   2.405   0.715
 4611SOL     OW14731   6.485   4.245   0.045
 4611SOL    HW114732   6.426   4.325   0.043
 4611SOL    HW214733   6.501   4.212   6.973
 4612SOL     OW14734   1.999   5.853   6.714
 4612SOL    HW114735   2.011   5.878   6.618
 4612SOL    HW214736   2.001   5.936   6.770
 4613SOL     OW14737   2.511   5.103   2.637
 4613SOL    HW114738   2.503   5.202   2.624
 4613SOL    HW214739   2.604   5.080   2.665
 4614SOL     OW14740   1.738   5.403   6.840
 4614SOL    HW114741   1.746   5.329   6.772
 4614SOL    HW214742   1.782   5.374   6.925
 4615SOL     OW14743   1.599   1.446   0.663
 4615SOL    HW114744   1.570   1.429   0.569
 4615SOL    HW214745   1.689   1.490   0.662
 4616SOL     OW14746   6.600   0.293   6.769
 4616SOL    HW114747   6.559   0.232   6.701
 4616SOL    HW214748   6.579   0.259   6.861
 4617SOL     OW14749   0.733   2.419   2.850
 4617SOL    HW114750   0.645   2.434   2.807
 4617SOL    HW214751   0.804   2.407   2.780
 4618SOL     OW14752   1.381   2.346   5.588
 4618SOL    HW114753   1.369   2.282   5.512
 4618SOL    HW214754   1.471   2.334   5.629
 4619SOL     OW14755   4.256   0.331   3.698
 4619SOL    HW114756   4.313   0.390   3.641
 4619SOL    HW214757   4.290   0.332   3.792
 4620SOL     OW14758   3.980   4.146   0.270
 4620SOL    HW114759   4.049   4.101   0.214
 4620SOL    HW214760   4.025   4.199   0.342
 4621SOL     OW14761   6.467   1.633   5.091
 4621SOL    HW114762   6.444   1.549   5.140
 4621SOL    HW214763   6.430   1.712   5.141
 4622SOL     OW14764   1.384   2.885   0.911
 4622SOL    HW114765   1.310   2.904   0.846
 4622SOL    HW214766   1.367   2.797   0.956
 4623SOL     OW14767   0.002   5.017   0.899
 4623SOL    HW114768   0.026   5.011   0.996
 4623SOL    HW214769   6.963   4.940   0.875
 4624SOL     OW14770   4.537   0.868   3.840
 4624SOL    HW114771   4.571   0.935   3.906
 4624SOL    HW214772   4.564   0.776   3.869
 4625SOL     OW14773   1.372   4.500   6.984
 4625SOL    HW114774   1.469   4.501   6.957
 4625SOL    HW214775   1.319   4.554   6.919
 4626SOL     OW14776   6.422   4.512   1.670
 4626SOL    HW114777   6.346   4.454   1.641
 4626SOL    HW214778   6.472   4.468   1.745
 4627SOL     OW14779   3.636   6.097   5.918
 4627SOL    HW114780   3.545   6.056   5.907
 4627SOL    HW214781   3.636   6.155   5.999
 4628SOL     OW14782   6.330   4.638   2.109
 4628SOL    HW114783   6.344   4.624   2.011
 4628SOL    HW214784   6.232   4.631   2.130
 4629SOL     OW14785   1.921   4.819   6.222
 4629SOL    HW114786   1.859   4.838   6.146
 4629SOL    HW214787   1.867   4.798   6.304
 4630SOL     OW14788   3.009   5.918   3.809
 4630SOL    HW114789   2.940   5.920   3.736
 4630SOL    HW214790   2.995   5.837   3.866
 4631SOL     OW14791   2.048   6.531   3.540
 4631SOL    HW114792   2.145   6.523   3.517
 4631SOL    HW214793   2.001   6.583   3.469
 4632SOL     OW14794   4.203   5.368   3.934
 4632SOL    HW114795   4.301   5.361   3.950
 4632SOL    HW214796   4.162   5.433   3.999
 4633SOL     OW14797   6.891   2.330   5.277
 4633SOL    HW114798   6.887   2.425   5.307
 4633SOL    HW214799   6.802   2.303   5.241
 4634SOL     OW14800   2.707   4.501   0.407
 4634SOL    HW114801   2.665   4.447   0.480
 4634SOL    HW214802   2.776   4.447   0.360
 4635SOL     OW14803   5.735   3.386   2.616
 4635SOL    HW114804   5.648   3.340   2.635
 4635SOL    HW214805   5.717   3.482   2.593
 4636SOL     OW14806   2.647   5.222   6.770
 4636SOL    HW114807   2.740   5.257   6.779
 4636SOL    HW214808   2.647   5.123   6.785
 4637SOL     OW14809   1.222   0.771   0.045
 4637SOL    HW114810   1.310   0.751   0.001
 4637SOL    HW214811   1.152   0.785   6.996
 4638SOL     OW14812   3.761   2.969   6.085
 4638SOL    HW114813   3.727   3.013   6.001
 4638SOL    HW214814   3.712   2.883   6.100
 4639SOL     OW14815   0.900   4.058   5.988
 4639SOL    HW114816   0.943   3.971   6.013
 4639SOL    HW214817   0.969   4.120   5.951
 4640SOL     OW14818   4.916   4.600   4.108
 4640SOL    HW114819   4.952   4.589   4.016
 4640SOL    HW214820   4.864   4.519   4.134
 4641SOL     OW14821   2.807   5.036   4.204
 4641SOL    HW114822   2.883   4.974   4.224
 4641SOL    HW214823   2.823   5.124   4.250
 4642SOL     OW14824   6.512   5.090   4.963
 4642SOL    HW114825   6.576   5.154   4.920
 4642SOL    HW214826   6.552   4.998   4.961
 4643SOL     OW14827   4.555   2.330   0.850
 4643SOL    HW114828   4.501   2.305   0.769
 4643SOL    HW214829   4.538   2.426   0.872
 4644SOL     OW14830   1.209   5.161   4.935
 4644SOL    HW114831   1.262   5.199   5.010
 4644SOL    HW214832   1.266   5.155   4.853
 4645SOL     OW14833   2.141   6.224   4.723
 4645SOL    HW114834   2.086   6.288   4.776
 4645SOL    HW214835   2.173   6.268   4.639
 4646SOL     OW14836   2.762   0.245   2.303
 4646SOL    HW114837   2.690   0.191   2.261
 4646SOL    HW214838   2.783   0.324   2.245
 4647SOL     OW14839   0.778   6.874   3.397
 4647SOL    HW114840   0.852   6.939   3.418
 4647SOL    HW214841   0.735   6.901   3.310
 4648SOL     OW14842   3.652   6.731   2.577
 4648SOL    HW114843   3.726   6.753   2.641
 4648SOL    HW214844   3.676   6.762   2.485
 4649SOL     OW14845   4.814   1.188   5.834
 4649SOL    HW114846   4.775   1.107   5.878
 4649SOL    HW214847   4.759   1.215   5.756
 4650SOL     OW14848   3.805   6.368   2.974
 4650SOL    HW114849   3.769   6.302   3.040
 4650SOL    HW214850   3.840   6.319   2.894
 4651SOL     OW14851   0.278   2.492   1.900
 4651SOL    HW114852   0.300   2.416   1.839
 4651SOL    HW214853   0.280   2.577   1.849
 4652SOL     OW14854   0.723   0.216   3.228
 4652SOL    HW114855   0.725   0.116   3.217
 4652SOL    HW214856   0.630   0.250   3.214
 4653SOL     OW14857   6.835   6.185   6.971
 4653SOL    HW114858   6.819   6.187   6.872
 4653SOL    HW214859   6.766   6.127   7.015
 4654SOL     OW14860   0.731   0.063   0.069
 4654SOL    HW114861   0.779   0.122   0.133
 4654SOL    HW214862   0.695   0.117   7.014
 4655SOL     OW14863   0.543   5.043   2.687
 4655SOL    HW114864   0.564   5.114   2.619
 4655SOL    HW214865   0.444   5.039   2.702
 4656SOL     OW14866   0.769   0.611   3.302
 4656SOL    HW114867   0.765   0.514   3.327
 4656SOL    HW214868   0.680   0.653   3.318
 4657SOL     OW14869   4.956   0.012   1.439
 4657SOL    HW114870   4.913   6.943   1.426
 4657SOL    HW214871   4.956   0.036   1.536
 4658SOL     OW14872   3.992   0.033   2.608
 4658SOL    HW114873   3.928   0.071   2.542
 4658SOL    HW214874   4.086   0.046   2.576
 4659SOL     OW14875   1.465   3.431   5.205
 4659SOL    HW114876   1.501   3.350   5.252
 4659SOL    HW214877   1.403   3.481   5.266
 4660SOL     OW14878   1.272   2.062   5.254
 4660SOL    HW114879   1.363   2.054   5.296
 4660SOL    HW214880   1.246   2.158   5.250
 4661SOL     OW14881   3.474   4.031   4.762
 4661SOL    HW114882   3.566   4.016   4.725
 4661SOL    HW214883   3.437   3.945   4.796
 4662SOL     OW14884   5.109   0.509   5.540
 4662SOL    HW114885   5.169   0.578   5.581
 4662SOL    HW214886   5.014   0.538   5.548
 4663SOL     OW14887   0.066   1.988   1.985
 4663SOL    HW114888   0.022   1.976   1.896
 4663SOL    HW214889   0.038   2.075   2.025
 4664SOL     OW14890   2.390   2.854   6.580
 4664SOL    HW114891   2.382   2.801   6.495
 4664SOL    HW214892   2.406   2.950   6.558
 4665SOL     OW14893   4.927   0.313   6.220
 4665SOL    HW114894   4.943   0.242   6.152
 4665SOL    HW214895   4.843   0.362   6.198
 4666SOL     OW14896   2.407   1.832   0.284
 4666SOL    HW114897   2.483   1.891   0.255
 4666SOL    HW214898   2.425   1.798   0.377
 4667SOL     OW14899   0.096   4.928   6.261
 4667SOL    HW114900   0.172   4.966   6.209
 4667SOL    HW214901   0.012   4.977   6.238
 4668SOL     OW14902   0.005   1.597   4.507
 4668SOL    HW114903   6.986   1.582   4.598
 4668SOL    HW214904   0.046   1.512   4.475
 4669SOL     OW14905   2.043   6.151   0.221
 4669SOL    HW114906   2.057   6.054   0.200
 4669SOL    HW214907   1.966   6.161   0.285
 4670SOL     OW14908   3.155   1.118   4.581
 4670SOL    HW114909   3.138   1.176   4.661
 4670SOL    HW214910   3.088   1.044   4.579
 4671SOL     OW14911   6.143   2.847   1.768
 4671SOL    HW114912   6.234   2.853   1.727
 4671SOL    HW214913   6.124   2.753   1.795
 4672SOL     OW14914   1.868   3.731   5.797
 4672SOL    HW114915   1.782   3.740   5.747
 4672SOL    HW214916   1.944   3.760   5.738
 4673SOL     OW14917   3.422   0.415   1.493
 4673SOL    HW114918   3.398   0.325   1.456
 4673SOL    HW214919   3.514   0.440   1.463
 4674SOL     OW14920   5.355   5.872   5.415
 4674SOL    HW114921   5.400   5.798   5.365
 4674SOL    HW214922   5.407   5.891   5.498
 4675SOL     OW14923   1.094   3.573   0.910
 4675SOL    HW114924   1.137   3.663   0.905
 4675SOL    HW214925   1.163   3.505   0.935
 4676SOL     OW14926   1.047   6.033   3.562
 4676SOL    HW114927   1.051   6.081   3.474
 4676SOL    HW214928   1.122   6.065   3.620
 4677SOL     OW14929   1.393   1.443   0.866
 4677SOL    HW114930   1.452   1.457   0.786
 4677SOL    HW214931   1.362   1.531   0.900
 4678SOL     OW14932   2.039   3.947   2.584
 4678SOL    HW114933   2.025   3.885   2.661
 4678SOL    HW214934   2.117   4.007   2.603
 4679SOL     OW14935   5.178   6.340   1.923
 4679SOL    HW114936   5.200   6.431   1.959
 4679SOL    HW214937   5.258   6.301   1.879
 4680SOL     OW14938   3.821   1.194   1.338
 4680SOL    HW114939   3.851   1.152   1.424
 4680SOL    HW214940   3.897   1.247   1.300
 4681SOL     OW14941   4.878   4.466   7.017
 4681SOL    HW114942   4.853   4.562   7.006
 4681SOL    HW214943   4.878   4.422   6.927
 4682SOL     OW14944   4.357   3.481   6.270
 4682SOL    HW114945   4.315   3.391   6.285
 4682SOL    HW214946   4.455   3.474   6.285
 4683SOL     OW14947   5.518   4.487   3.111
 4683SOL    HW114948   5.545   4.398   3.075
 4683SOL    HW214949   5.558   4.559   3.054
 4684SOL     OW14950   4.153   6.076   6.768
 4684SOL    HW114951   4.144   6.061   6.866
 4684SOL    HW214952   4.217   6.151   6.751
 4685SOL     OW14953   1.822   3.613   6.279
 4685SOL    HW114954   1.836   3.617   6.180
 4685SOL    HW214955   1.727   3.633   6.300
 4686SOL     OW14956   3.493   6.331   0.552
 4686SOL    HW114957   3.459   6.249   0.507
 4686SOL    HW214958   3.514   6.401   0.484
 4687SOL     OW14959   3.329   1.957   3.094
 4687SOL    HW114960   3.345   2.008   3.010
 4687SOL    HW214961   3.364   1.864   3.084
 4688SOL     OW14962   5.490   2.405   5.853
 4688SOL    HW114963   5.410   2.455   5.819
 4688SOL    HW214964   5.550   2.468   5.902
 4689SOL     OW14965   5.506   0.063   1.608
 4689SOL    HW114966   5.532   0.102   1.696
 4689SOL    HW214967   5.515   0.133   1.537
 4690SOL     OW14968   1.971   1.185   0.868
 4690SOL    HW114969   2.010   1.115   0.809
 4690SOL    HW214970   1.900   1.235   0.817
 4691SOL     OW14971   5.086   4.328   0.658
 4691SOL    HW114972   5.047   4.237   0.676
 4691SOL    HW214973   5.019   4.383   0.609
 4692SOL     OW14974   6.492   4.563   2.954
 4692SOL    HW114975   6.416   4.608   3.000
 4692SOL    HW214976   6.563   4.630   2.931
 4693SOL     OW14977   1.666   1.017   4.278
 4693SOL    HW114978   1.695   0.977   4.365
 4693SOL    HW214979   1.747   1.030   4.220
 4694SOL     OW14980   2.117   1.729   0.472
 4694SOL    HW114981   2.174   1.690   0.400
 4694SOL    HW214982   2.076   1.815   0.441
 4695SOL     OW14983   1.789   5.758   0.794
 4695SOL    HW114984   1.773   5.673   0.742
 4695SOL    HW214985   1.811   5.735   0.889
 4696SOL     OW14986   0.866   4.989   5.839
 4696SOL    HW114987   0.852   4.967   5.935
 4696SOL    HW214988   0.801   5.059   5.810
 4697SOL     OW14989   0.976   3.526   2.005
 4697SOL    HW114990   1.019   3.465   2.072
 4697SOL    HW214991   1.041   3.596   1.977
 4698SOL     OW14992   4.592   0.322   3.123
 4698SOL    HW114993   4.624   0.232   3.153
 4698SOL    HW214994   4.552   0.371   3.201
 4699SOL     OW14995   0.434   0.464   2.194
 4699SOL    HW114996   0.340   0.432   2.188
 4699SOL    HW214997   0.462   0.466   2.290
 4700SOL     OW14998   6.721   1.843   2.447
 4700SOL    HW114999   6.751   1.779   2.518
 4700SOL    HW215000   6.626   1.824   2.422
 4701SOL     OW15001   3.201   1.767   2.119
 4701SOL    HW115002   3.142   1.802   2.192
 4701SOL    HW215003   3.155   1.779   2.031
 4702SOL     OW15004   4.886   4.841   0.229
 4702SOL    HW115005   4.889   4.811   0.133
 4702SOL    HW215006   4.909   4.938   0.235
 4703SOL     OW15007   1.354   5.410   2.407
 4703SOL    HW115008   1.279   5.475   2.421
 4703SOL    HW215009   1.371   5.399   2.309
 4704SOL     OW15010   0.531   6.182   5.664
 4704SOL    HW115011   0.562   6.276   5.651
 4704SOL    HW215012   0.441   6.182   5.707
 4705SOL     OW15013   3.122   2.894   1.070
 4705SOL    HW115014   3.214   2.922   1.042
 4705SOL    HW215015   3.128   2.822   1.139
 4706SOL     OW15016   1.421   6.968   0.825
 4706SOL    HW115017   1.372   6.944   0.909
 4706SOL    HW215018   1.465   0.036   0.838
 4707SOL     OW15019   1.806   6.337   1.121
 4707SOL    HW115020   1.868   6.358   1.197
 4707SOL    HW215021   1.840   6.256   1.073
 4708SOL     OW15022   1.528   1.804   5.014
 4708SOL    HW115023   1.481   1.770   4.932
 4708SOL    HW215024   1.526   1.734   5.085
 4709SOL     OW15025   5.090   5.111   5.092
 4709SOL    HW115026   5.008   5.157   5.125
 4709SOL    HW215027   5.113   5.036   5.154
 4710SOL     OW15028   5.874   6.595   4.324
 4710SOL    HW115029   5.887   6.514   4.266
 4710SOL    HW215030   5.777   6.614   4.334
 4711SOL     OW15031   6.222   3.033   3.189
 4711SOL    HW115032   6.228   2.990   3.099
 4711SOL    HW215033   6.207   2.962   3.258
 4712SOL     OW15034   4.413   4.164   6.078
 4712SOL    HW115035   4.452   4.255   6.096
 4712SOL    HW215036   4.315   4.173   6.060
 4713SOL     OW15037   4.917   5.158   1.156
 4713SOL    HW115038   4.945   5.150   1.060
 4713SOL    HW215039   4.853   5.234   1.166
 4714SOL     OW15040   6.587   2.022   6.634
 4714SOL    HW115041   6.615   1.952   6.700
 4714SOL    HW215042   6.488   2.032   6.636
 4715SOL     OW15043   6.305   1.822   1.506
 4715SOL    HW115044   6.280   1.758   1.434
 4715SOL    HW215045   6.345   1.904   1.466
 4716SOL     OW15046   4.335   5.161   5.298
 4716SOL    HW115047   4.326   5.103   5.217
 4716SOL    HW215048   4.412   5.224   5.286
 4717SOL     OW15049   2.290   5.841   6.169
 4717SOL    HW115050   2.347   5.774   6.121
 4717SOL    HW215051   2.262   5.913   6.105
 4718SOL     OW15052   5.238   2.907   1.160
 4718SOL    HW115053   5.315   2.844   1.173
 4718SOL    HW215054   5.178   2.872   1.088
 4719SOL     OW15055   5.997   3.413   3.525
 4719SOL    HW115056   5.951   3.395   3.438
 4719SOL    HW215057   6.092   3.381   3.519
 4720SOL     OW15058   2.953   4.844   6.974
 4720SOL    HW115059   2.971   4.754   7.014
 4720SOL    HW215060   3.030   4.871   6.916
 4721SOL     OW15061   6.069   3.153   1.485
 4721SOL    HW115062   5.988   3.179   1.434
 4721SOL    HW215063   6.110   3.071   1.444
 4722SOL     OW15064   1.051   4.742   0.277
 4722SOL    HW115065   1.136   4.690   0.271
 4722SOL    HW215066   0.976   4.690   0.236
 4723SOL     OW15067   3.376   4.387   5.397
 4723SOL    HW115068   3.276   4.390   5.393
 4723SOL    HW215069   3.411   4.331   5.322
 4724SOL     OW15070   0.042   6.396   3.818
 4724SOL    HW115071   0.055   6.305   3.778
 4724SOL    HW215072   0.131   6.437   3.838
 4725SOL     OW15073   5.849   5.024   0.556
 4725SOL    HW115074   5.905   4.945   0.580
 4725SOL    HW215075   5.773   5.032   0.621
 4726SOL     OW15076   1.874   2.892   5.488
 4726SOL    HW115077   1.969   2.899   5.457
 4726SOL    HW215078   1.855   2.799   5.518
 4727SOL     OW15079   0.767   5.682   0.564
 4727SOL    HW115080   0.833   5.621   0.520
 4727SOL    HW215081   0.769   5.669   0.663
 4728SOL     OW15082   5.857   1.613   2.938
 4728SOL    HW115083   5.858   1.585   3.034
 4728SOL    HW215084   5.926   1.683   2.922
 4729SOL     OW15085   4.715   0.149   0.014
 4729SOL    HW115086   4.654   0.228   7.020
 4729SOL    HW215087   4.799   0.180   0.059
 4730SOL     OW15088   3.672   6.827   4.879
 4730SOL    HW115089   3.727   6.773   4.943
 4730SOL    HW215090   3.576   6.798   4.886
 4731SOL     OW15091   3.207   0.651   0.660
 4731SOL    HW115092   3.172   0.608   0.743
 4731SOL    HW215093   3.145   0.630   0.584
 4732SOL     OW15094   0.799   3.403   5.226
 4732SOL    HW115095   0.824   3.312   5.259
 4732SOL    HW215096   0.812   3.470   5.299
 4733SOL     OW15097   1.787   4.485   3.038
 4733SOL    HW115098   1.692   4.461   3.016
 4733SOL    HW215099   1.794   4.510   3.134
 4734SOL     OW15100   5.088   3.142   6.336
 4734SOL    HW115101   5.126   3.058   6.377
 4734SOL    HW215102   5.154   3.179   6.271
 4735SOL     OW15103   0.328   6.165   3.748
 4735SOL    HW115104   0.326   6.247   3.805
 4735SOL    HW215105   0.386   6.095   3.790
 4736SOL     OW15106   6.318   2.143   3.872
 4736SOL    HW115107   6.351   2.121   3.964
 4736SOL    HW215108   6.337   2.066   3.811
 4737SOL     OW15109   2.033   4.254   0.528
 4737SOL    HW115110   1.960   4.211   0.474
 4737SOL    HW215111   2.049   4.199   0.611
 4738SOL     OW15112   3.239   6.932   3.681
 4738SOL    HW115113   3.319   6.990   3.692
 4738SOL    HW215114   3.255   6.845   3.728
 4739SOL     OW15115   6.514   2.550   4.594
 4739SOL    HW115116   6.432   2.577   4.545
 4739SOL    HW215117   6.574   2.499   4.532
 4740SOL     OW15118   0.777   0.770   1.504
 4740SOL    HW115119   0.807   0.686   1.458
 4740SOL    HW215120   0.775   0.845   1.438
 4741SOL     OW15121   4.535   4.668   0.973
 4741SOL    HW115122   4.527   4.617   0.887
 4741SOL    HW215123   4.506   4.610   1.049
 4742SOL     OW15124   2.887   5.401   1.538
 4742SOL    HW115125   2.824   5.464   1.584
 4742SOL    HW215126   2.981   5.435   1.547
 4743SOL     OW15127   2.608   1.304   5.560
 4743SOL    HW115128   2.523   1.312   5.510
 4743SOL    HW215129   2.685   1.295   5.496
 4744SOL     OW15130   1.977   2.528   5.356
 4744SOL    HW115131   2.073   2.535   5.382
 4744SOL    HW215132   1.958   2.436   5.322
 4745SOL     OW15133   3.135   5.133   6.001
 4745SOL    HW115134   3.109   5.160   5.909
 4745SOL    HW215135   3.167   5.038   6.001
 4746SOL     OW15136   5.934   5.591   0.480
 4746SOL    HW115137   5.851   5.587   0.536
 4746SOL    HW215138   5.982   5.503   0.485
 4747SOL     OW15139   0.130   3.133   6.757
 4747SOL    HW115140   0.171   3.087   6.835
 4747SOL    HW215141   0.030   3.123   6.761
 4748SOL     OW15142   1.183   0.460   1.767
 4748SOL    HW115143   1.234   0.541   1.799
 4748SOL    HW215144   1.146   0.412   1.846
 4749SOL     OW15145   2.855   6.910   6.751
 4749SOL    HW115146   2.761   6.911   6.786
 4749SOL    HW215147   2.857   6.955   6.662
 4750SOL     OW15148   0.024   1.279   4.191
 4750SOL    HW115149   0.039   1.273   4.092
 4750SOL    HW215150   6.983   1.355   4.211
 4751SOL     OW15151   2.190   3.926   6.826
 4751SOL    HW115152   2.222   3.850   6.882
 4751SOL    HW215153   2.257   4.000   6.828
 4752SOL     OW15154   2.742   6.156   1.162
 4752SOL    HW115155   2.781   6.133   1.073
 4752SOL    HW215156   2.742   6.255   1.174
 4753SOL     OW15157   5.624   0.095   4.725
 4753SOL    HW115158   5.718   0.062   4.725
 4753SOL    HW215159   5.567   0.033   4.672
 4754SOL     OW15160   6.107   0.922   6.075
 4754SOL    HW115161   6.024   0.927   6.131
 4754SOL    HW215162   6.126   1.012   6.037
 4755SOL     OW15163   2.929   0.704   6.287
 4755SOL    HW115164   2.868   0.719   6.209
 4755SOL    HW215165   2.895   0.628   6.341
 4756SOL     OW15166   5.614   2.159   1.936
 4756SOL    HW115167   5.660   2.223   1.874
 4756SOL    HW215168   5.669   2.075   1.943
 4757SOL     OW15169   2.382   2.246   2.314
 4757SOL    HW115170   2.307   2.180   2.312
 4757SOL    HW215171   2.419   2.258   2.222
 4758SOL     OW15172   4.188   6.070   5.439
 4758SOL    HW115173   4.219   6.124   5.518
 4758SOL    HW215174   4.136   6.128   5.377
 4759SOL     OW15175   5.145   5.793   5.021
 4759SOL    HW115176   5.053   5.832   5.023
 4759SOL    HW215177   5.206   5.848   5.078
 4760SOL     OW15178   2.529   1.699   1.384
 4760SOL    HW115179   2.494   1.605   1.382
 4760SOL    HW215180   2.564   1.720   1.475
 4761SOL     OW15181   6.346   0.255   6.243
 4761SOL    HW115182   6.356   0.342   6.290
 4761SOL    HW215183   6.376   0.265   6.148
 4762SOL     OW15184   2.350   4.311   2.376
 4762SOL    HW115185   2.278   4.378   2.393
 4762SOL    HW215186   2.439   4.352   2.398
 4763SOL     OW15187   6.196   5.990   2.976
 4763SOL    HW115188   6.199   5.894   3.001
 4763SOL    HW215189   6.265   6.041   3.027
 4764SOL     OW15190   4.604   3.784   5.333
 4764SOL    HW115191   4.619   3.709   5.269
 4764SOL    HW215192   4.691   3.811   5.374
 4765SOL     OW15193   4.988   6.747   4.960
 4765SOL    HW115194   5.053   6.695   5.016
 4765SOL    HW215195   4.941   6.814   5.018
 4766SOL     OW15196   3.163   0.539   3.386
 4766SOL    HW115197   3.163   0.519   3.288
 4766SOL    HW215198   3.070   0.561   3.415
 4767SOL     OW15199   4.223   6.402   1.109
 4767SOL    HW115200   4.290   6.357   1.050
 4767SOL    HW215201   4.152   6.445   1.053
 4768SOL     OW15202   5.512   2.048   4.873
 4768SOL    HW115203   5.432   2.063   4.814
 4768SOL    HW215204   5.511   1.955   4.908
 4769SOL     OW15205   3.674   5.771   1.600
 4769SOL    HW115206   3.576   5.762   1.617
 4769SOL    HW215207   3.691   5.772   1.501
 4770SOL     OW15208   2.196   0.464   3.003
 4770SOL    HW115209   2.249   0.534   3.051
 4770SOL    HW215210   2.258   0.402   2.956
 4771SOL     OW15211   3.432   4.570   5.696
 4771SOL    HW115212   3.453   4.663   5.723
 4771SOL    HW215213   3.516   4.521   5.674
 4772SOL     OW15214   2.600   6.633   1.270
 4772SOL    HW115215   2.585   6.647   1.172
 4772SOL    HW215216   2.514   6.606   1.313
 4773SOL     OW15217   0.421   5.442   4.393
 4773SOL    HW115218   0.445   5.509   4.323
 4773SOL    HW215219   0.327   5.455   4.422
 4774SOL     OW15220   0.787   3.011   2.159
 4774SOL    HW115221   0.746   2.929   2.201
 4774SOL    HW215222   0.862   3.044   2.216
 4775SOL     OW15223   5.528   0.341   3.390
 4775SOL    HW115224   5.498   0.270   3.454
 4775SOL    HW215225   5.582   0.300   3.316
 4776SOL     OW15226   2.520   6.720   3.052
 4776SOL    HW115227   2.573   6.681   2.977
 4776SOL    HW215228   2.429   6.679   3.052
 4777SOL     OW15229   2.516   4.115   1.422
 4777SOL    HW115230   2.475   4.124   1.331
 4777SOL    HW215231   2.565   4.198   1.445
 4778SOL     OW15232   5.283   2.506   1.889
 4778SOL    HW115233   5.240   2.417   1.870
 4778SOL    HW215234   5.365   2.492   1.944
 4779SOL     OW15235   6.415   0.113   2.369
 4779SOL    HW115236   6.420   0.183   2.439
 4779SOL    HW215237   6.424   0.155   2.279
 4780SOL     OW15238   0.336   0.810   6.034
 4780SOL    HW115239   0.433   0.785   6.028
 4780SOL    HW215240   0.325   0.907   6.013
 4781SOL     OW15241   2.782   5.877   1.641
 4781SOL    HW115242   2.829   5.959   1.674
 4781SOL    HW215243   2.828   5.842   1.560
 4782SOL     OW15244   4.763   6.890   0.019
 4782SOL    HW115245   4.698   6.863   6.968
 4782SOL    HW215246   4.765   6.990   0.025
 4783SOL     OW15247   4.584   4.494   0.477
 4783SOL    HW115248   4.632   4.580   0.460
 4783SOL    HW215249   4.554   4.491   0.573
 4784SOL     OW15250   6.153   5.243   5.868
 4784SOL    HW115251   6.054   5.254   5.877
 4784SOL    HW215252   6.176   5.146   5.863
 4785SOL     OW15253   6.679   6.361   1.072
 4785SOL    HW115254   6.700   6.337   1.166
 4785SOL    HW215255   6.745   6.429   1.040
 4786SOL     OW15256   1.660   2.370   2.663
 4786SOL    HW115257   1.746   2.361   2.613
 4786SOL    HW215258   1.659   2.306   2.740
 4787SOL     OW15259   3.553   2.100   3.587
 4787SOL    HW115260   3.590   2.099   3.494
 4787SOL    HW215261   3.464   2.146   3.587
 4788SOL     OW15262   1.245   5.911   5.900
 4788SOL    HW115263   1.157   5.867   5.881
 4788SOL    HW215264   1.310   5.889   5.827
 4789SOL     OW15265   5.251   0.601   7.006
 4789SOL    HW115266   5.176   0.628   6.946
 4789SOL    HW215267   5.286   0.511   6.977
 4790SOL     OW15268   5.805   3.539   6.754
 4790SOL    HW115269   5.828   3.498   6.843
 4790SOL    HW215270   5.736   3.483   6.709
 4791SOL     OW15271   5.871   1.178   1.840
 4791SOL    HW115272   5.928   1.254   1.871
 4791SOL    HW215273   5.930   1.102   1.811
 4792SOL     OW15274   2.114   2.651   2.813
 4792SOL    HW115275   2.106   2.742   2.771
 4792SOL    HW215276   2.172   2.657   2.894
 4793SOL     OW15277   1.149   0.896   5.881
 4793SOL    HW115278   1.242   0.867   5.905
 4793SOL    HW215279   1.107   0.941   5.959
 4794SOL     OW15280   3.687   0.453   2.637
 4794SOL    HW115281   3.599   0.448   2.684
 4794SOL    HW215282   3.731   0.541   2.658
 4795SOL     OW15283   6.684   2.603   4.223
 4795SOL    HW115284   6.594   2.561   4.213
 4795SOL    HW215285   6.751   2.551   4.170
 4796SOL     OW15286   4.816   2.478   0.273
 4796SOL    HW115287   4.837   2.434   0.186
 4796SOL    HW215288   4.718   2.467   0.294
 4797SOL     OW15289   1.736   5.788   5.347
 4797SOL    HW115290   1.685   5.774   5.432
 4797SOL    HW215291   1.831   5.761   5.361
 4798SOL     OW15292   0.667   4.243   5.363
 4798SOL    HW115293   0.647   4.322   5.305
 4798SOL    HW215294   0.601   4.170   5.343
 4799SOL     OW15295   5.280   1.783   5.404
 4799SOL    HW115296   5.337   1.776   5.322
 4799SOL    HW215297   5.335   1.765   5.485
 4800SOL     OW15298   3.442   3.444   5.738
 4800SOL    HW115299   3.350   3.419   5.768
 4800SOL    HW215300   3.509   3.400   5.798
 4801SOL     OW15301   2.242   2.225   0.555
 4801SOL    HW115302   2.304   2.186   0.487
 4801SOL    HW215303   2.283   2.218   0.645
 4802SOL     OW15304   1.317   6.526   2.120
 4802SOL    HW115305   1.226   6.566   2.119
 4802SOL    HW215306   1.310   6.427   2.112
 4803SOL     OW15307   0.719   6.581   0.707
 4803SOL    HW115308   0.812   6.554   0.732
 4803SOL    HW215309   0.655   6.507   0.728
 4804SOL     OW15310   4.218   5.414   6.646
 4804SOL    HW115311   4.129   5.405   6.692
 4804SOL    HW215312   4.233   5.336   6.586
 4805SOL     OW15313   6.844   7.013   0.759
 4805SOL    HW115314   6.860   6.950   0.684
 4805SOL    HW215315   6.833   6.962   0.844
 4806SOL     OW15316   6.844   3.825   3.921
 4806SOL    HW115317   6.762   3.775   3.891
 4806SOL    HW215318   6.876   3.883   3.847
 4807SOL     OW15319   1.171   5.535   1.128
 4807SOL    HW115320   1.193   5.628   1.160
 4807SOL    HW215321   1.214   5.519   1.040
 4808SOL     OW15322   5.777   3.688   0.669
 4808SOL    HW115323   5.873   3.672   0.692
 4808SOL    HW215324   5.728   3.719   0.750
 4809SOL     OW15325   3.539   4.113   6.989
 4809SOL    HW115326   3.552   4.151   6.897
 4809SOL    HW215327   3.611   4.146   0.028
 4810SOL     OW15328   1.354   4.999   1.111
 4810SOL    HW115329   1.391   5.006   1.018
 4810SOL    HW215330   1.401   4.925   1.160
 4811SOL     OW15331   2.682   5.027   2.299
 4811SOL    HW115332   2.601   5.083   2.314
 4811SOL    HW215333   2.764   5.078   2.327
 4812SOL     OW15334   6.798   4.795   5.631
 4812SOL    HW115335   6.853   4.830   5.707
 4812SOL    HW215336   6.706   4.773   5.665
 4813SOL     OW15337   4.709   1.104   2.533
 4813SOL    HW115338   4.630   1.044   2.517
 4813SOL    HW215339   4.719   1.168   2.457
 4814SOL     OW15340   5.906   4.971   0.294
 4814SOL    HW115341   5.956   5.048   0.255
 4814SOL    HW215342   5.859   5.001   0.377
 4815SOL     OW15343   5.062   5.156   2.718
 4815SOL    HW115344   5.016   5.096   2.652
 4815SOL    HW215345   5.075   5.107   2.804
 4816SOL     OW15346   5.463   5.292   3.461
 4816SOL    HW115347   5.502   5.253   3.379
 4816SOL    HW215348   5.412   5.221   3.511
 4817SOL     OW15349   0.801   2.110   6.272
 4817SOL    HW115350   0.768   2.083   6.363
 4817SOL    HW215351   0.768   2.201   6.251
 4818SOL     OW15352   0.944   0.023   3.571
 4818SOL    HW115353   0.851   0.059   3.573
 4818SOL    HW215354   1.010   0.098   3.579
 4819SOL     OW15355   1.320   3.247   0.294
 4819SOL    HW115356   1.280   3.173   0.241
 4819SOL    HW215357   1.375   3.305   0.233
 4820SOL     OW15358   6.926   2.936   2.111
 4820SOL    HW115359   6.962   2.945   2.018
 4820SOL    HW215360   6.841   2.884   2.109
 4821SOL     OW15361   0.930   6.051   1.944
 4821SOL    HW115362   0.842   6.096   1.956
 4821SOL    HW215363   0.927   5.994   1.861
 4822SOL     OW15364   1.734   4.310   4.040
 4822SOL    HW115365   1.712   4.217   4.012
 4822SOL    HW215366   1.825   4.335   4.006
 4823SOL     OW15367   1.115   1.927   2.677
 4823SOL    HW115368   1.044   1.959   2.615
 4823SOL    HW215369   1.183   1.999   2.691
 4824SOL     OW15370   5.069   1.368   5.100
 4824SOL    HW115371   4.974   1.349   5.078
 4824SOL    HW215372   5.074   1.448   5.161
 4825SOL     OW15373   0.934   1.094   4.168
 4825SOL    HW115374   0.995   1.163   4.208
 4825SOL    HW215375   0.930   1.014   4.229
 4826SOL     OW15376   4.981   0.480   1.051
 4826SOL    HW115377   4.978   0.552   0.982
 4826SOL    HW215378   5.030   0.400   1.015
 4827SOL     OW15379   6.496   1.346   6.926
 4827SOL    HW115380   6.577   1.289   6.939
 4827SOL    HW215381   6.504   1.429   6.982
 4828SOL     OW15382   4.273   0.131   1.737
 4828SOL    HW115383   4.352   0.181   1.701
 4828SOL    HW215384   4.249   0.167   1.827
 4829SOL     OW15385   3.670   6.817   6.558
 4829SOL    HW115386   3.614   6.740   6.527
 4829SOL    HW215387   3.736   6.785   6.625
 4830SOL     OW15388   3.985   5.914   3.698
 4830SOL    HW115389   4.010   5.952   3.787
 4830SOL    HW215390   3.999   5.983   3.627
 4831SOL     OW15391   3.166   5.789   6.081
 4831SOL    HW115392   3.125   5.817   5.995
 4831SOL    HW215393   3.265   5.787   6.072
 4832SOL     OW15394   3.413   3.577   4.534
 4832SOL    HW115395   3.324   3.561   4.491
 4832SOL    HW215396   3.457   3.656   4.491
 4833SOL     OW15397   5.656   2.095   3.890
 4833SOL    HW115398   5.735   2.134   3.844
 4833SOL    HW215399   5.667   1.996   3.897
 4834SOL     OW15400   2.757   5.396   2.796
 4834SOL    HW115401   2.709   5.461   2.855
 4834SOL    HW215402   2.732   5.303   2.822
 4835SOL     OW15403   6.357   4.000   5.965
 4835SOL    HW115404   6.373   3.954   5.878
 4835SOL    HW215405   6.267   3.974   6.001
 4836SOL     OW15406   4.807   1.355   5.063
 4836SOL    HW115407   4.809   1.321   5.157
 4836SOL    HW215408   4.715   1.388   5.041
 4837SOL     OW15409   6.382   2.928   3.562
 4837SOL    HW115410   6.455   2.876   3.517
 4837SOL    HW215411   6.412   3.023   3.575
 4838SOL     OW15412   1.376   5.047   6.011
 4838SOL    HW115413   1.300   5.014   5.954
 4838SOL    HW215414   1.341   5.117   6.073
 4839SOL     OW15415   1.288   2.577   6.474
 4839SOL    HW115416   1.340   2.492   6.469
 4839SOL    HW215417   1.207   2.563   6.531
 4840SOL     OW15418   5.516   4.104   5.324
 4840SOL    HW115419   5.567   4.053   5.255
 4840SOL    HW215420   5.496   4.196   5.289
 4841SOL     OW15421   3.016   5.115   3.658
 4841SOL    HW115422   3.035   5.187   3.725
 4841SOL    HW215423   3.050   5.028   3.694
 4842SOL     OW15424   2.689   5.277   3.157
 4842SOL    HW115425   2.678   5.182   3.128
 4842SOL    HW215426   2.725   5.280   3.250
 4843SOL     OW15427   0.218   2.979   2.329
 4843SOL    HW115428   0.173   3.056   2.284
 4843SOL    HW215429   0.226   2.997   2.427
 4844SOL     OW15430   1.091   4.604   5.081
 4844SOL    HW115431   1.070   4.657   4.999
 4844SOL    HW215432   1.160   4.651   5.136
 4845SOL     OW15433   4.546   4.565   5.230
 4845SOL    HW115434   4.574   4.470   5.242
 4845SOL    HW215435   4.508   4.577   5.138
 4846SOL     OW15436   0.569   2.274   4.282
 4846SOL    HW115437   0.598   2.290   4.188
 4846SOL    HW215438   0.595   2.181   4.310
 4847SOL     OW15439   2.652   7.016   5.402
 4847SOL    HW115440   2.697   0.029   5.319
 4847SOL    HW215441   2.574   6.958   5.376
 4848SOL     OW15442   1.925   1.182   3.853
 4848SOL    HW115443   1.940   1.281   3.861
 4848SOL    HW215444   2.014   1.135   3.848
 4849SOL     OW15445   1.571   0.430   0.247
 4849SOL    HW115446   1.502   0.429   0.318
 4849SOL    HW215447   1.569   0.518   0.199
 4850SOL     OW15448   4.594   0.767   1.502
 4850SOL    HW115449   4.566   0.786   1.408
 4850SOL    HW215450   4.688   0.796   1.515
 4851SOL     OW15451   3.684   5.659   0.260
 4851SOL    HW115452   3.606   5.606   0.225
 4851SOL    HW215453   3.758   5.658   0.193
 4852SOL     OW15454   3.598   5.978   4.984
 4852SOL    HW115455   3.667   6.007   5.050
 4852SOL    HW215456   3.507   5.996   5.021
 4853SOL     OW15457   3.265   0.787   2.670
 4853SOL    HW115458   3.320   0.814   2.591
 4853SOL    HW215459   3.170   0.815   2.657
 4854SOL     OW15460   5.420   6.382   1.781
 4854SOL    HW115461   5.432   6.452   1.710
 4854SOL    HW215462   5.503   6.376   1.836
 4855SOL     OW15463   0.285   3.963   4.979
 4855SOL    HW115464   0.232   3.955   4.895
 4855SOL    HW215465   0.314   3.872   5.008
 4856SOL     OW15466   0.431   3.625   2.865
 4856SOL    HW115467   0.431   3.682   2.783
 4856SOL    HW215468   0.408   3.531   2.841
 4857SOL     OW15469   2.889   2.199   4.456
 4857SOL    HW115470   2.988   2.210   4.449
 4857SOL    HW215471   2.845   2.255   4.386
 4858SOL     OW15472   0.198   0.134   5.018
 4858SOL    HW115473   0.170   0.093   4.931
 4858SOL    HW215474   0.194   0.065   5.091
 4859SOL     OW15475   0.970   5.520   2.211
 4859SOL    HW115476   0.902   5.542   2.280
 4859SOL    HW215477   0.991   5.422   2.214
 4860SOL     OW15478   4.632   5.639   0.349
 4860SOL    HW115479   4.599   5.650   0.255
 4860SOL    HW215480   4.711   5.577   0.349
 4861SOL     OW15481   6.552   4.645   5.693
 4861SOL    HW115482   6.458   4.622   5.718
 4861SOL    HW215483   6.610   4.565   5.701
 4862SOL     OW15484   2.885   4.892   5.050
 4862SOL    HW115485   2.874   4.796   5.025
 4862SOL    HW215486   2.822   4.914   5.125
 4863SOL     OW15487   4.863   3.156   2.802
 4863SOL    HW115488   4.951   3.125   2.766
 4863SOL    HW215489   4.812   3.202   2.730
 4864SOL     OW15490   3.227   1.428   2.060
 4864SOL    HW115491   3.158   1.493   2.027
 4864SOL    HW215492   3.185   1.366   2.126
 4865SOL     OW15493   3.158   5.194   5.711
 4865SOL    HW115494   3.251   5.232   5.705
 4865SOL    HW215495   3.159   5.100   5.678
 4866SOL     OW15496   6.287   4.920   1.889
 4866SOL    HW115497   6.236   4.893   1.970
 4866SOL    HW215498   6.375   4.958   1.917
 4867SOL     OW15499   5.024   5.376   2.920
 4867SOL    HW115500   4.941   5.431   2.909
 4867SOL    HW215501   5.032   5.311   2.845
 4868SOL     OW15502   0.635   5.438   1.194
 4868SOL    HW115503   0.709   5.444   1.128
 4868SOL    HW215504   0.668   5.396   1.279
 4869SOL     OW15505   0.030   1.834   0.344
 4869SOL    HW115506   0.063   1.920   0.304
 4869SOL    HW215507   0.078   1.757   0.302
 4870SOL     OW15508   4.132   6.261   1.931
 4870SOL    HW115509   4.171   6.179   1.972
 4870SOL    HW215510   4.196   6.337   1.942
 4871SOL     OW15511   1.384   1.871   3.212
 4871SOL    HW115512   1.300   1.868   3.158
 4871SOL    HW215513   1.376   1.808   3.289
 4872SOL     OW15514   1.130   0.353   2.882
 4872SOL    HW115515   1.056   0.332   2.946
 4872SOL    HW215516   1.189   0.424   2.922
 4873SOL     OW15517   0.246   5.319   4.760
 4873SOL    HW115518   0.152   5.309   4.727
 4873SOL    HW215519   0.274   5.234   4.806
 4874SOL     OW15520   5.251   3.631   3.265
 4874SOL    HW115521   5.216   3.640   3.172
 4874SOL    HW215522   5.351   3.629   3.262
 4875SOL     OW15523   5.788   1.574   1.101
 4875SOL    HW115524   5.709   1.586   1.041
 4875SOL    HW215525   5.784   1.640   1.176
 4876SOL     OW15526   5.936   0.632   6.090
 4876SOL    HW115527   5.971   0.690   6.163
 4876SOL    HW215528   5.836   0.638   6.087
 4877SOL     OW15529   6.164   1.636   0.820
 4877SOL    HW115530   6.230   1.567   0.849
 4877SOL    HW215531   6.187   1.724   0.863
 4878SOL     OW15532   0.304   1.745   1.879
 4878SOL    HW115533   0.226   1.800   1.909
 4878SOL    HW215534   0.291   1.651   1.908
 4879SOL     OW15535   4.135   4.781   3.577
 4879SOL    HW115536   4.171   4.742   3.492
 4879SOL    HW215537   4.208   4.785   3.645
 4880SOL     OW15538   5.659   1.026   6.862
 4880SOL    HW115539   5.669   1.125   6.877
 4880SOL    HW215540   5.729   0.995   6.799
 4881SOL     OW15541   2.970   6.467   6.043
 4881SOL    HW115542   3.008   6.399   5.981
 4881SOL    HW215543   2.954   6.426   6.133
 4882SOL     OW15544   5.909   1.583   5.420
 4882SOL    HW115545   5.969   1.614   5.346
 4882SOL    HW215546   5.882   1.488   5.403
 4883SOL     OW15547   6.200   4.266   2.225
 4883SOL    HW115548   6.168   4.319   2.147
 4883SOL    HW215549   6.193   4.168   2.205
 4884SOL     OW15550   3.900   6.525   1.497
 4884SOL    HW115551   3.964   6.536   1.421
 4884SOL    HW215552   3.897   6.609   1.551
 4885SOL     OW15553   2.059   6.632   1.069
 4885SOL    HW115554   2.117   6.711   1.048
 4885SOL    HW215555   2.099   6.582   1.146
 4886SOL     OW15556   6.542   6.858   6.737
 4886SOL    HW115557   6.624   6.865   6.795
 4886SOL    HW215558   6.463   6.840   6.795
 4887SOL     OW15559   6.957   2.132   3.550
 4887SOL    HW115560   0.005   2.198   3.580
 4887SOL    HW215561   6.937   2.069   3.625
 4888SOL     OW15562   1.701   6.090   3.097
 4888SOL    HW115563   1.616   6.110   3.145
 4888SOL    HW215564   1.704   6.143   3.012
 4889SOL     OW15565   1.341   2.171   0.180
 4889SOL    HW115566   1.418   2.184   0.118
 4889SOL    HW215567   1.316   2.074   0.182
 4890SOL     OW15568   0.479   1.025   4.161
 4890SOL    HW115569   0.500   1.113   4.118
 4890SOL    HW215570   0.548   0.957   4.135
 4891SOL     OW15571   1.050   4.878   0.525
 4891SOL    HW115572   1.053   4.845   0.430
 4891SOL    HW215573   1.104   4.962   0.532
 4892SOL     OW15574   1.427   5.807   1.631
 4892SOL    HW115575   1.491   5.761   1.569
 4892SOL    HW215576   1.359   5.741   1.663
 4893SOL     OW15577   6.715   4.055   6.646
 4893SOL    HW115578   6.679   4.002   6.569
 4893SOL    HW215579   6.664   4.141   6.654
 4894SOL     OW15580   1.470   0.517   3.334
 4894SOL    HW115581   1.526   0.551   3.259
 4894SOL    HW215582   1.387   0.573   3.343
 4895SOL     OW15583   0.819   3.459   0.352
 4895SOL    HW115584   0.907   3.456   0.304
 4895SOL    HW215585   0.829   3.513   0.436
 4896SOL     OW15586   3.496   5.042   4.683
 4896SOL    HW115587   3.469   5.017   4.776
 4896SOL    HW215588   3.495   4.960   4.625
 4897SOL     OW15589   3.466   5.585   6.535
 4897SOL    HW115590   3.435   5.621   6.447
 4897SOL    HW215591   3.497   5.660   6.593
 4898SOL     OW15592   5.467   2.342   5.391
 4898SOL    HW115593   5.477   2.245   5.415
 4898SOL    HW215594   5.548   2.392   5.422
 4899SOL     OW15595   5.860   4.495   2.919
 4899SOL    HW115596   5.814   4.541   2.995
 4899SOL    HW215597   5.797   4.487   2.842
 4900SOL     OW15598   0.449   6.535   5.341
 4900SOL    HW115599   0.435   6.437   5.358
 4900SOL    HW215600   0.532   6.564   5.389
 4901SOL     OW15601   1.094   0.094   4.268
 4901SOL    HW115602   1.151   0.036   4.326
 4901SOL    HW215603   1.125   0.189   4.276
 4902SOL     OW15604   2.189   4.512   1.739
 4902SOL    HW115605   2.161   4.463   1.821
 4902SOL    HW215606   2.223   4.603   1.764
 4903SOL     OW15607   3.807   6.692   6.769
 4903SOL    HW115608   3.771   6.599   6.764
 4903SOL    HW215609   3.773   6.737   6.852
 4904SOL     OW15610   1.645   5.670   4.219
 4904SOL    HW115611   1.583   5.610   4.169
 4904SOL    HW215612   1.627   5.765   4.193
 4905SOL     OW15613   4.900   2.546   2.200
 4905SOL    HW115614   4.965   2.512   2.268
 4905SOL    HW215615   4.808   2.542   2.237
 4906SOL     OW15616   4.564   0.233   0.421
 4906SOL    HW115617   4.516   0.207   0.505
 4906SOL    HW215618   4.631   0.163   0.398
 4907SOL     OW15619   4.146   6.844   3.845
 4907SOL    HW115620   4.215   6.916   3.833
 4907SOL    HW215621   4.157   6.803   3.935
 4908SOL     OW15622   3.701   5.895   6.561
 4908SOL    HW115623   3.794   5.872   6.590
 4908SOL    HW215624   3.651   5.932   6.639
 4909SOL     OW15625   6.060   6.783   5.455
 4909SOL    HW115626   6.130   6.750   5.392
 4909SOL    HW215627   6.074   6.742   5.545
 4910SOL     OW15628   5.463   0.797   5.330
 4910SOL    HW115629   5.463   0.777   5.232
 4910SOL    HW215630   5.434   0.891   5.346
 4911SOL     OW15631   0.284   2.336   6.011
 4911SOL    HW115632   0.338   2.328   6.095
 4911SOL    HW215633   0.333   2.392   5.945
 4912SOL     OW15634   3.742   1.889   2.579
 4912SOL    HW115635   3.770   1.985   2.574
 4912SOL    HW215636   3.666   1.873   2.516
 4913SOL     OW15637   3.535   4.152   3.609
 4913SOL    HW115638   3.571   4.131   3.518
 4913SOL    HW215639   3.515   4.250   3.616
 4914SOL     OW15640   2.947   0.239   3.938
 4914SOL    HW115641   3.015   0.195   3.880
 4914SOL    HW215642   2.916   0.174   4.008
 4915SOL     OW15643   4.336   6.406   4.654
 4915SOL    HW115644   4.370   6.496   4.681
 4915SOL    HW215645   4.363   6.388   4.559
 4916SOL     OW15646   3.032   2.225   3.412
 4916SOL    HW115647   2.947   2.275   3.394
 4916SOL    HW215648   3.018   2.128   3.391
 4917SOL     OW15649   1.766   4.027   0.950
 4917SOL    HW115650   1.726   4.049   1.039
 4917SOL    HW215651   1.795   3.931   0.950
 4918SOL     OW15652   2.645   0.618   2.364
 4918SOL    HW115653   2.626   0.712   2.335
 4918SOL    HW215654   2.717   0.580   2.306
 4919SOL     OW15655   1.659   1.708   2.443
 4919SOL    HW115656   1.705   1.619   2.445
 4919SOL    HW215657   1.593   1.709   2.367
 4920SOL     OW15658   4.605   0.846   0.421
 4920SOL    HW115659   4.646   0.764   0.381
 4920SOL    HW215660   4.507   0.832   0.432
 4921SOL     OW15661   2.439   4.273   1.813
 4921SOL    HW115662   2.396   4.279   1.904
 4921SOL    HW215663   2.367   4.271   1.743
 4922SOL     OW15664   1.537   3.119   5.259
 4922SOL    HW115665   1.567   3.084   5.348
 4922SOL    HW215666   1.617   3.130   5.200
 4923SOL     OW15667   5.139   0.156   2.131
 4923SOL    HW115668   5.157   0.213   2.050
 4923SOL    HW215669   5.137   0.214   2.212
 4924SOL     OW15670   1.463   3.882   4.214
 4924SOL    HW115671   1.480   3.811   4.282
 4924SOL    HW215672   1.543   3.942   4.208
 4925SOL     OW15673   4.545   6.733   1.303
 4925SOL    HW115674   4.448   6.718   1.288
 4925SOL    HW215675   4.592   6.738   1.215
 4926SOL     OW15676   5.692   2.586   1.911
 4926SOL    HW115677   5.770   2.594   1.973
 4926SOL    HW215678   5.608   2.579   1.965
 4927SOL     OW15679   3.720   2.883   2.698
 4927SOL    HW115680   3.819   2.888   2.688
 4927SOL    HW215681   3.696   2.888   2.795
 4928SOL     OW15682   0.804   6.902   6.639
 4928SOL    HW115683   0.772   6.877   6.548
 4928SOL    HW215684   0.739   6.871   6.707
 4929SOL     OW15685   1.558   4.761   4.747
 4929SOL    HW115686   1.496   4.739   4.822
 4929SOL    HW215687   1.509   4.813   4.677
 4930SOL     OW15688   0.851   2.038   0.352
 4930SOL    HW115689   0.872   2.093   0.272
 4930SOL    HW215690   0.805   1.953   0.324
 4931SOL     OW15691   0.616   0.181   6.859
 4931SOL    HW115692   0.686   0.197   6.789
 4931SOL    HW215693   0.558   0.263   6.868
 4932SOL     OW15694   2.744   2.554   1.451
 4932SOL    HW115695   2.843   2.547   1.456
 4932SOL    HW215696   2.707   2.572   1.542
 4933SOL     OW15697   2.372   1.593   4.437
 4933SOL    HW115698   2.304   1.548   4.494
 4933SOL    HW215699   2.331   1.672   4.391
 4934SOL     OW15700   0.165   5.132   3.665
 4934SOL    HW115701   0.084   5.074   3.654
 4934SOL    HW215702   0.239   5.098   3.606
 4935SOL     OW15703   2.200   1.172   6.505
 4935SOL    HW115704   2.176   1.241   6.573
 4935SOL    HW215705   2.299   1.163   6.500
 4936SOL     OW15706   3.164   5.514   1.592
 4936SOL    HW115707   3.229   5.447   1.555
 4936SOL    HW215708   3.180   5.603   1.551
 4937SOL     OW15709   0.661   3.892   6.256
 4937SOL    HW115710   0.735   3.913   6.320
 4937SOL    HW215711   0.622   3.977   6.222
 4938SOL     OW15712   3.142   4.298   0.991
 4938SOL    HW115713   3.070   4.323   0.927
 4938SOL    HW215714   3.105   4.297   1.084
 4939SOL     OW15715   1.520   1.583   1.694
 4939SOL    HW115716   1.470   1.610   1.775
 4939SOL    HW215717   1.606   1.540   1.720
 4940SOL     OW15718   6.947   2.730   4.654
 4940SOL    HW115719   6.852   2.762   4.658
 4940SOL    HW215720   7.000   2.775   4.726
 4941SOL     OW15721   4.004   2.467   5.427
 4941SOL    HW115722   4.010   2.520   5.512
 4941SOL    HW215723   4.052   2.516   5.354
 4942SOL     OW15724   5.481   2.953   3.644
 4942SOL    HW115725   5.569   2.963   3.691
 4942SOL    HW215726   5.414   3.013   3.687
 4943SOL     OW15727   5.638   3.349   6.634
 4943SOL    HW115728   5.616   3.299   6.549
 4943SOL    HW215729   5.553   3.367   6.684
 4944SOL     OW15730   1.541   4.818   0.691
 4944SOL    HW115731   1.544   4.872   0.607
 4944SOL    HW215732   1.588   4.731   0.676
 4945SOL     OW15733   1.842   1.204   5.146
 4945SOL    HW115734   1.911   1.275   5.131
 4945SOL    HW215735   1.814   1.165   5.058
 4946SOL     OW15736   0.969   4.134   6.916
 4946SOL    HW115737   0.905   4.182   6.975
 4946SOL    HW215738   1.054   4.187   6.909
 4947SOL     OW15739   2.367   0.827   1.699
 4947SOL    HW115740   2.369   0.744   1.644
 4947SOL    HW215741   2.281   0.832   1.750
 4948SOL     OW15742   1.819   1.912   2.147
 4948SOL    HW115743   1.844   1.981   2.080
 4948SOL    HW215744   1.728   1.876   2.125
 4949SOL     OW15745   6.963   3.648   5.911
 4949SOL    HW115746   6.908   3.664   5.829
 4949SOL    HW215747   0.015   3.716   5.915
 4950SOL     OW15748   2.676   4.424   5.395
 4950SOL    HW115749   2.609   4.378   5.337
 4950SOL    HW215750   2.630   4.465   5.474
 4951SOL     OW15751   5.973   6.508   3.792
 4951SOL    HW115752   5.992   6.575   3.863
 4951SOL    HW215753   5.966   6.417   3.834
 4952SOL     OW15754   6.791   0.197   6.450
 4952SOL    HW115755   6.853   0.221   6.375
 4952SOL    HW215756   6.709   0.153   6.413
 4953SOL     OW15757   1.166   1.638   4.792
 4953SOL    HW115758   1.172   1.627   4.892
 4953SOL    HW215759   1.077   1.606   4.760
 4954SOL     OW15760   2.356   3.983   5.563
 4954SOL    HW115761   2.439   4.019   5.520
 4954SOL    HW215762   2.330   3.898   5.517
 4955SOL     OW15763   3.193   5.588   0.099
 4955SOL    HW115764   3.164   5.528   0.173
 4955SOL    HW215765   3.128   5.580   0.023
 4956SOL     OW15766   2.662   0.314   5.221
 4956SOL    HW115767   2.676   0.310   5.320
 4956SOL    HW215768   2.583   0.372   5.200
 4957SOL     OW15769   6.504   4.268   6.721
 4957SOL    HW115770   6.464   4.302   6.636
 4957SOL    HW215771   6.447   4.194   6.757
 4958SOL     OW15772   2.336   0.311   6.086
 4958SOL    HW115773   2.387   0.241   6.037
 4958SOL    HW215774   2.390   0.395   6.091
 4959SOL     OW15775   6.671   2.244   1.356
 4959SOL    HW115776   6.751   2.189   1.332
 4959SOL    HW215777   6.662   2.249   1.456
 4960SOL     OW15778   4.208   5.014   3.807
 4960SOL    HW115779   4.207   5.084   3.736
 4960SOL    HW215780   4.293   4.960   3.800
 4961SOL     OW15781   2.831   1.053   6.829
 4961SOL    HW115782   2.870   1.092   6.912
 4961SOL    HW215783   2.894   0.985   6.791
 4962SOL     OW15784   6.503   3.369   0.956
 4962SOL    HW115785   6.439   3.316   0.900
 4962SOL    HW215786   6.505   3.332   1.048
 4963SOL     OW15787   0.524   4.557   0.698
 4963SOL    HW115788   0.541   4.638   0.641
 4963SOL    HW215789   0.556   4.475   0.650
 4964SOL     OW15790   2.889   6.832   4.764
 4964SOL    HW115791   2.908   6.923   4.802
 4964SOL    HW215792   2.974   6.790   4.734
 4965SOL     OW15793   1.307   6.923   2.836
 4965SOL    HW115794   1.238   6.957   2.900
 4965SOL    HW215795   1.380   6.877   2.887
 4966SOL     OW15796   3.128   6.399   4.571
 4966SOL    HW115797   3.225   6.387   4.549
 4966SOL    HW215798   3.105   6.343   4.651
 4967SOL     OW15799   4.098   4.609   5.540
 4967SOL    HW115800   4.045   4.651   5.615
 4967SOL    HW215801   4.104   4.511   5.555
 4968SOL     OW15802   0.294   1.018   4.405
 4968SOL    HW115803   0.203   1.023   4.363
 4968SOL    HW215804   0.364   1.033   4.336
 4969SOL     OW15805   0.660   6.556   2.127
 4969SOL    HW115806   0.660   6.637   2.185
 4969SOL    HW215807   0.744   6.554   2.073
 4970SOL     OW15808   1.740   0.791   1.733
 4970SOL    HW115809   1.645   0.766   1.712
 4970SOL    HW215810   1.765   0.872   1.680
 4971SOL     OW15811   6.573   5.920   2.618
 4971SOL    HW115812   6.520   5.852   2.566
 4971SOL    HW215813   6.511   5.973   2.675
 4972SOL     OW15814   1.580   3.781   1.303
 4972SOL    HW115815   1.593   3.747   1.396
 4972SOL    HW215816   1.594   3.706   1.238
 4973SOL     OW15817   0.096   0.378   1.357
 4973SOL    HW115818   0.103   0.310   1.284
 4973SOL    HW215819   0.001   0.408   1.365
 4974SOL     OW15820   4.349   3.742   6.202
 4974SOL    HW115821   4.364   3.644   6.212
 4974SOL    HW215822   4.343   3.784   6.292
 4975SOL     OW15823   5.631   4.089   0.664
 4975SOL    HW115824   5.540   4.057   0.692
 4975SOL    HW215825   5.634   4.189   0.671
 4976SOL     OW15826   0.407   0.581   4.457
 4976SOL    HW115827   0.458   0.605   4.374
 4976SOL    HW215828   0.370   0.489   4.449
 4977SOL     OW15829   3.172   4.081   6.756
 4977SOL    HW115830   3.189   4.158   6.694
 4977SOL    HW215831   3.102   4.022   6.716
 4978SOL     OW15832   5.049   4.330   5.303
 4978SOL    HW115833   5.146   4.350   5.289
 4978SOL    HW215834   5.037   4.232   5.315
 4979SOL     OW15835   1.420   6.502   6.706
 4979SOL    HW115836   1.378   6.592   6.689
 4979SOL    HW215837   1.464   6.469   6.623
 4980SOL     OW15838   6.707   4.753   2.840
 4980SOL    HW115839   6.785   4.708   2.883
 4980SOL    HW215840   6.700   4.723   2.745
 4981SOL     OW15841   3.496   5.002   1.915
 4981SOL    HW115842   3.443   5.003   2.001
 4981SOL    HW215843   3.541   4.913   1.905
 4982SOL     OW15844   4.476   1.731   6.732
 4982SOL    HW115845   4.469   1.766   6.639
 4982SOL    HW215846   4.384   1.715   6.768
 4983SOL     OW15847   6.108   5.231   4.012
 4983SOL    HW115848   6.181   5.169   4.040
 4983SOL    HW215849   6.095   5.226   3.913
 4984SOL     OW15850   4.520   4.465   3.484
 4984SOL    HW115851   4.511   4.440   3.388
 4984SOL    HW215852   4.598   4.527   3.495
 4985SOL     OW15853   5.257   6.093   2.694
 4985SOL    HW115854   5.351   6.084   2.662
 4985SOL    HW215855   5.253   6.162   2.766
 4986SOL     OW15856   6.988   4.420   1.919
 4986SOL    HW115857   0.020   4.484   1.975
 4986SOL    HW215858   0.026   4.344   1.892
 4987SOL     OW15859   0.789   6.940   2.486
 4987SOL    HW115860   0.829   0.000   2.529
 4987SOL    HW215861   0.743   6.885   2.556
 4988SOL     OW15862   5.841   0.528   3.799
 4988SOL    HW115863   5.793   0.440   3.797
 4988SOL    HW215864   5.930   0.518   3.753
 4989SOL     OW15865   5.361   0.797   1.792
 4989SOL    HW115866   5.423   0.850   1.734
 4989SOL    HW215867   5.415   0.735   1.849
 4990SOL     OW15868   3.929   1.750   0.045
 4990SOL    HW115869   3.873   1.781   0.122
 4990SOL    HW215870   4.017   1.717   0.078
 4991SOL     OW15871   0.391   5.919   4.169
 4991SOL    HW115872   0.406   5.868   4.084
 4991SOL    HW215873   0.310   5.883   4.216
 4992SOL     OW15874   6.537   0.820   3.226
 4992SOL    HW115875   6.559   0.828   3.324
 4992SOL    HW215876   6.575   0.899   3.177
 4993SOL     OW15877   4.812   6.921   5.108
 4993SOL    HW115878   4.883   6.926   5.179
 4993SOL    HW215879   4.812   7.006   5.056
 4994SOL     OW15880   1.968   5.128   5.120
 4994SOL    HW115881   2.019   5.059   5.069
 4994SOL    HW215882   1.906   5.176   5.059
 4995SOL     OW15883   0.683   0.519   4.592
 4995SOL    HW115884   0.744   0.481   4.661
 4995SOL    HW215885   0.588   0.504   4.619
 4996SOL     OW15886   0.158   1.469   3.995
 4996SOL    HW115887   0.246   1.457   4.040
 4996SOL    HW215888   0.101   1.531   4.049
 4997SOL     OW15889   3.591   2.187   1.445
 4997SOL    HW115890   3.689   2.208   1.444
 4997SOL    HW215891   3.571   2.122   1.519
 4998SOL     OW15892   1.424   3.593   3.371
 4998SOL    HW115893   1.477   3.520   3.327
 4998SOL    HW215894   1.463   3.682   3.347
 4999SOL     OW15895   0.786   3.426   4.944
 4999SOL    HW115896   0.804   3.411   5.041
 4999SOL    HW215897   0.872   3.422   4.893
 5000SOL     OW15898   2.951   6.463   3.279
 5000SOL    HW115899   2.854   6.456   3.302
 5000SOL    HW215900   3.006   6.434   3.357
 5001SOL     OW15901   0.581   5.573   2.573
 5001SOL    HW115902   0.562   5.669   2.552
 5001SOL    HW215903   0.613   5.566   2.668
 5002SOL     OW15904   0.924   4.736   2.255
 5002SOL    HW115905   0.988   4.671   2.296
 5002SOL    HW215906   0.973   4.818   2.226
 5003SOL     OW15907   4.080   5.744   2.738
 5003SOL    HW115908   4.164   5.692   2.723
 5003SOL    HW215909   4.051   5.734   2.833
 5004SOL     OW15910   3.059   5.622   6.284
 5004SOL    HW115911   3.024   5.553   6.221
 5004SOL    HW215912   3.114   5.688   6.233
 5005SOL     OW15913   2.391   3.288   6.334
 5005SOL    HW115914   2.415   3.261   6.240
 5005SOL    HW215915   2.454   3.244   6.398
 5006SOL     OW15916   5.636   1.299   2.302
 5006SOL    HW115917   5.609   1.239   2.377
 5006SOL    HW215918   5.672   1.385   2.339
 5007SOL     OW15919   6.852   0.412   0.501
 5007SOL    HW115920   6.921   0.415   0.429
 5007SOL    HW215921   6.795   0.494   0.496
 5008SOL     OW15922   6.642   5.749   1.523
 5008SOL    HW115923   6.668   5.829   1.577
 5008SOL    HW215924   6.717   5.683   1.525
 5009SOL     OW15925   0.735   2.804   0.133
 5009SOL    HW115926   0.813   2.766   0.083
 5009SOL    HW215927   0.759   2.814   0.230
 5010SOL     OW15928   3.641   2.189   0.780
 5010SOL    HW115929   3.713   2.162   0.844
 5010SOL    HW215930   3.630   2.119   0.710
 5011SOL     OW15931   1.589   4.237   0.559
 5011SOL    HW115932   1.576   4.151   0.607
 5011SOL    HW215933   1.590   4.220   0.460
 5012SOL     OW15934   5.926   3.393   5.990
 5012SOL    HW115935   5.960   3.319   6.047
 5012SOL    HW215936   5.977   3.396   5.904
 5013SOL     OW15937   6.128   0.503   5.220
 5013SOL    HW115938   6.140   0.506   5.121
 5013SOL    HW215939   6.067   0.427   5.243
 5014SOL     OW15940   6.672   4.264   0.271
 5014SOL    HW115941   6.595   4.255   0.207
 5014SOL    HW215942   6.636   4.281   0.363
 5015SOL     OW15943   5.366   0.743   4.768
 5015SOL    HW115944   5.343   0.646   4.760
 5015SOL    HW215945   5.362   0.786   4.678
 5016SOL     OW15946   1.077   3.150   4.883
 5016SOL    HW115947   1.132   3.164   4.801
 5016SOL    HW215948   1.054   3.239   4.923
 5017SOL     OW15949   0.925   2.551   1.239
 5017SOL    HW115950   0.853   2.561   1.170
 5017SOL    HW215951   0.890   2.578   1.329
 5018SOL     OW15952   0.952   4.969   2.088
 5018SOL    HW115953   1.008   5.036   2.040
 5018SOL    HW215954   0.943   4.886   2.032
 5019SOL     OW15955   1.935   5.569   5.417
 5019SOL    HW115956   2.020   5.575   5.470
 5019SOL    HW215957   1.865   5.525   5.473
 5020SOL     OW15958   0.326   6.310   5.003
 5020SOL    HW115959   0.266   6.286   4.927
 5020SOL    HW215960   0.375   6.394   4.982
 5021SOL     OW15961   1.313   0.424   1.541
 5021SOL    HW115962   1.282   0.336   1.504
 5021SOL    HW215963   1.278   0.436   1.634
 5022SOL     OW15964   0.044   2.794   1.581
 5022SOL    HW115965   6.977   2.812   1.624
 5022SOL    HW215966   0.077   2.878   1.537
 5023SOL     OW15967   6.849   4.370   1.689
 5023SOL    HW115968   6.873   4.395   1.783
 5023SOL    HW215969   6.933   4.352   1.637
 5024SOL     OW15970   5.366   5.020   0.767
 5024SOL    HW115971   5.314   4.958   0.826
 5024SOL    HW215972   5.401   4.969   0.688
 5025SOL     OW15973   3.766   1.460   3.540
 5025SOL    HW115974   3.758   1.388   3.609
 5025SOL    HW215975   3.675   1.495   3.519
 5026SOL     OW15976   6.900   5.059   4.819
 5026SOL    HW115977   6.860   5.047   4.910
 5026SOL    HW215978   6.948   5.147   4.814
 5027SOL     OW15979   5.981   0.380   1.328
 5027SOL    HW115980   6.078   0.358   1.336
 5027SOL    HW215981   5.953   0.436   1.406
 5028SOL     OW15982   0.072   2.084   3.333
 5028SOL    HW115983   0.003   2.092   3.406
 5028SOL    HW215984   0.155   2.045   3.371
 5029SOL     OW15985   6.597   3.004   2.390
 5029SOL    HW115986   6.661   2.928   2.385
 5029SOL    HW215987   6.575   3.035   2.297
 5030SOL     OW15988   6.942   5.910   6.136
 5030SOL    HW115989   6.907   5.818   6.151
 5030SOL    HW215990   0.021   5.909   6.139
 5031SOL     OW15991   6.855   1.176   5.323
 5031SOL    HW115992   6.807   1.260   5.295
 5031SOL    HW215993   6.914   1.196   5.401
 5032SOL     OW15994   2.934   2.064   6.336
 5032SOL    HW115995   2.954   1.988   6.275
 5032SOL    HW215996   2.852   2.112   6.304
 5033SOL     OW15997   2.101   0.937   0.075
 5033SOL    HW115998   2.054   1.002   0.135
 5033SOL    HW215999   2.129   0.857   0.129
 5034SOL     OW16000   4.829   6.894   4.155
 5034SOL    HW116001   4.748   6.902   4.213
 5034SOL    HW216002   4.815   6.946   4.071
 5035SOL     OW16003   0.932   3.843   5.263
 5035SOL    HW116004   0.902   3.786   5.186
 5035SOL    HW216005   0.910   3.938   5.245
 5036SOL     OW16006   6.497   5.129   6.032
 5036SOL    HW116007   6.404   5.104   6.060
 5036SOL    HW216008   6.539   5.052   5.985
 5037SOL     OW16009   4.576   4.489   1.455
 5037SOL    HW116010   4.649   4.556   1.439
 5037SOL    HW216011   4.564   4.476   1.553
 5038SOL     OW16012   4.081   3.215   4.219
 5038SOL    HW116013   4.134   3.294   4.188
 5038SOL    HW216014   3.996   3.208   4.167
 5039SOL     OW16015   2.314   3.412   5.582
 5039SOL    HW116016   2.271   3.323   5.596
 5039SOL    HW216017   2.299   3.470   5.661
 5040SOL     OW16018   0.776   5.407   5.208
 5040SOL    HW116019   0.808   5.483   5.265
 5040SOL    HW216020   0.685   5.378   5.238
 5041SOL     OW16021   1.235   2.117   2.357
 5041SOL    HW116022   1.178   2.177   2.413
 5041SOL    HW216023   1.216   2.134   2.260
 5042SOL     OW16024   6.340   3.195   0.642
 5042SOL    HW116025   6.439   3.200   0.651
 5042SOL    HW216026   6.317   3.168   0.548
 5043SOL     OW16027   4.451   0.938   0.000
 5043SOL    HW116028   4.485   0.847   6.998
 5043SOL    HW216029   4.524   0.992   0.042
 5044SOL     OW16030   1.100   6.056   1.374
 5044SOL    HW116031   1.090   6.147   1.415
 5044SOL    HW216032   1.014   6.006   1.382
 5045SOL     OW16033   6.383   5.488   6.126
 5045SOL    HW116034   6.396   5.576   6.174
 5045SOL    HW216035   6.420   5.495   6.034
 5046SOL     OW16036   3.872   3.635   3.494
 5046SOL    HW116037   3.783   3.642   3.539
 5046SOL    HW216038   3.860   3.647   3.396
 5047SOL     OW16039   2.000   3.740   3.014
 5047SOL    HW116040   1.902   3.745   2.997
 5047SOL    HW216041   2.016   3.685   3.096
 5048SOL     OW16042   1.406   0.786   4.678
 5048SOL    HW116043   1.386   0.879   4.647
 5048SOL    HW216044   1.415   0.785   4.777
 5049SOL     OW16045   5.169   1.234   6.524
 5049SOL    HW116046   5.237   1.183   6.577
 5049SOL    HW216047   5.095   1.262   6.584
 5050SOL     OW16048   1.814   1.329   6.843
 5050SOL    HW116049   1.908   1.294   6.832
 5050SOL    HW216050   1.816   1.410   6.901
 5051SOL     OW16051   4.497   4.488   1.181
 5051SOL    HW116052   4.526   4.465   1.273
 5051SOL    HW216053   4.465   4.406   1.134
 5052SOL     OW16054   3.487   2.096   6.176
 5052SOL    HW116055   3.416   2.055   6.119
 5052SOL    HW216056   3.444   2.143   6.253
 5053SOL     OW16057   0.648   5.029   3.042
 5053SOL    HW116058   0.589   5.077   3.108
 5053SOL    HW216059   0.687   5.096   2.978
 5054SOL     OW16060   3.211   4.836   5.454
 5054SOL    HW116061   3.114   4.830   5.433
 5054SOL    HW216062   3.261   4.768   5.400
 5055SOL     OW16063   1.047   2.263   5.533
 5055SOL    HW116064   0.973   2.239   5.596
 5055SOL    HW216065   1.063   2.361   5.536
 5056SOL     OW16066   5.241   3.918   5.451
 5056SOL    HW116067   5.329   3.909   5.404
 5056SOL    HW216068   5.171   3.948   5.386
 5057SOL     OW16069   0.527   6.764   2.511
 5057SOL    HW116070   0.504   6.680   2.463
 5057SOL    HW216071   0.529   6.840   2.447
 5058SOL     OW16072   3.416   4.815   6.920
 5058SOL    HW116073   3.394   4.794   7.015
 5058SOL    HW216074   3.468   4.901   6.916
 5059SOL     OW16075   6.722   0.513   3.330
 5059SOL    HW116076   6.668   0.451   3.273
 5059SOL    HW216077   6.793   0.556   3.274
 5060SOL     OW16078   6.341   2.413   6.393
 5060SOL    HW116079   6.350   2.424   6.294
 5060SOL    HW216080   6.329   2.502   6.435
 5061SOL     OW16081   4.356   2.553   0.205
 5061SOL    HW116082   4.289   2.523   0.273
 5061SOL    HW216083   4.365   2.484   0.133
 5062SOL     OW16084   6.648   0.194   2.040
 5062SOL    HW116085   6.697   0.150   2.116
 5062SOL    HW216086   6.640   0.129   1.964
 5063SOL     OW16087   0.226   6.264   1.655
 5063SOL    HW116088   0.318   6.297   1.674
 5063SOL    HW216089   0.161   6.340   1.658
 5064SOL     OW16090   4.883   2.857   0.770
 5064SOL    HW116091   4.949   2.933   0.775
 5064SOL    HW216092   4.799   2.890   0.727
 5065SOL     OW16093   3.326   0.317   5.406
 5065SOL    HW116094   3.390   0.286   5.476
 5065SOL    HW216095   3.377   0.358   5.330
 5066SOL     OW16096   5.144   3.707   2.244
 5066SOL    HW116097   5.046   3.719   2.226
 5066SOL    HW216098   5.190   3.796   2.239
 5067SOL     OW16099   5.273   1.131   0.710
 5067SOL    HW116100   5.216   1.170   0.638
 5067SOL    HW216101   5.363   1.175   0.710
 5068SOL     OW16102   2.258   4.611   0.975
 5068SOL    HW116103   2.257   4.539   0.905
 5068SOL    HW216104   2.284   4.698   0.934
 5069SOL     OW16105   1.145   4.073   2.326
 5069SOL    HW116106   1.074   4.112   2.384
 5069SOL    HW216107   1.169   3.982   2.360
 5070SOL     OW16108   4.960   3.337   3.684
 5070SOL    HW116109   5.043   3.369   3.639
 5070SOL    HW216110   4.913   3.271   3.625
 5071SOL     OW16111   4.395   2.282   4.828
 5071SOL    HW116112   4.363   2.245   4.740
 5071SOL    HW216113   4.318   2.324   4.876
 5072SOL     OW16114   0.521   5.546   0.519
 5072SOL    HW116115   0.586   5.620   0.533
 5072SOL    HW216116   0.458   5.541   0.596
 5073SOL     OW16117   6.708   6.332   2.603
 5073SOL    HW116118   6.616   6.369   2.591
 5073SOL    HW216119   6.708   6.266   2.678
 5074SOL     OW16120   3.442   3.901   0.135
 5074SOL    HW116121   3.349   3.921   0.167
 5074SOL    HW216122   3.469   3.969   0.067
 5075SOL     OW16123   0.195   1.149   5.811
 5075SOL    HW116124   0.197   1.054   5.781
 5075SOL    HW216125   0.111   1.192   5.780
 5076SOL     OW16126   4.230   1.224   1.475
 5076SOL    HW116127   4.299   1.157   1.449
 5076SOL    HW216128   4.183   1.193   1.558
 5077SOL     OW16129   1.273   2.156   3.599
 5077SOL    HW116130   1.291   2.169   3.502
 5077SOL    HW216131   1.344   2.098   3.639
 5078SOL     OW16132   0.866   1.613   3.273
 5078SOL    HW116133   0.937   1.596   3.205
 5078SOL    HW216134   0.819   1.699   3.252
 5079SOL     OW16135   2.579   4.388   5.811
 5079SOL    HW116136   2.678   4.400   5.812
 5079SOL    HW216137   2.541   4.407   5.901
 5080SOL     OW16138   5.621   6.659   5.097
 5080SOL    HW116139   5.710   6.622   5.122
 5080SOL    HW216140   5.592   6.620   5.009
 5081SOL     OW16141   3.391   3.764   2.996
 5081SOL    HW116142   3.477   3.813   2.977
 5081SOL    HW216143   3.398   3.718   3.084
 5082SOL     OW16144   5.524   6.382   5.002
 5082SOL    HW116145   5.575   6.329   4.935
 5082SOL    HW216146   5.549   6.351   5.094
 5083SOL     OW16147   1.912   6.609   2.181
 5083SOL    HW116148   1.866   6.684   2.229
 5083SOL    HW216149   1.886   6.522   2.222
 5084SOL     OW16150   1.520   4.677   4.141
 5084SOL    HW116151   1.423   4.660   4.125
 5084SOL    HW216152   1.567   4.686   4.053
 5085SOL     OW16153   5.250   1.740   6.844
 5085SOL    HW116154   5.167   1.730   6.790
 5085SOL    HW216155   5.231   1.715   6.939
 5086SOL     OW16156   6.516   4.584   4.160
 5086SOL    HW116157   6.585   4.591   4.232
 5086SOL    HW216158   6.479   4.675   4.140
 5087SOL     OW16159   6.708   6.272   3.749
 5087SOL    HW116160   6.777   6.209   3.712
 5087SOL    HW216161   6.667   6.325   3.675
 5088SOL     OW16162   6.324   1.172   6.220
 5088SOL    HW116163   6.272   1.169   6.135
 5088SOL    HW216164   6.406   1.227   6.207
 5089SOL     OW16165   6.500   3.717   3.527
 5089SOL    HW116166   6.426   3.728   3.592
 5089SOL    HW216167   6.552   3.802   3.520
 5090SOL     OW16168   2.061   4.203   1.493
 5090SOL    HW116169   1.992   4.147   1.447
 5090SOL    HW216170   2.056   4.297   1.459
 5091SOL     OW16171   1.058   6.155   2.425
 5091SOL    HW116172   1.081   6.111   2.338
 5091SOL    HW216173   0.967   6.125   2.455
 5092SOL     OW16174   3.621   2.580   1.757
 5092SOL    HW116175   3.590   2.581   1.662
 5092SOL    HW216176   3.618   2.487   1.792
 5093SOL     OW16177   0.929   2.296   1.931
 5093SOL    HW116178   1.014   2.343   1.906
 5093SOL    HW216179   0.951   2.205   1.966
 5094SOL     OW16180   0.789   0.476   5.674
 5094SOL    HW116181   0.843   0.440   5.750
 5094SOL    HW216182   0.780   0.407   5.603
 5095SOL     OW16183   1.028   0.489   4.631
 5095SOL    HW116184   1.106   0.479   4.694
 5095SOL    HW216185   0.951   0.436   4.666
 5096SOL     OW16186   4.629   3.654   0.729
 5096SOL    HW116187   4.595   3.698   0.646
 5096SOL    HW216188   4.572   3.574   0.750
 5097SOL     OW16189   1.592   0.661   6.139
 5097SOL    HW116190   1.554   0.683   6.049
 5097SOL    HW216191   1.522   0.676   6.208
 5098SOL     OW16192   0.522   0.460   1.551
 5098SOL    HW116193   0.521   0.444   1.453
 5098SOL    HW216194   0.537   0.557   1.569
 5099SOL     OW16195   0.825   0.674   6.151
 5099SOL    HW116196   0.812   0.625   6.237
 5099SOL    HW216197   0.923   0.683   6.132
 5100SOL     OW16198   4.888   6.889   6.308
 5100SOL    HW116199   4.966   6.845   6.353
 5100SOL    HW216200   4.897   6.880   6.209
 5101SOL     OW16201   5.114   6.398   6.995
 5101SOL    HW116202   5.033   6.444   6.958
 5101SOL    HW216203   5.111   6.401   0.074
 5102SOL     OW16204   5.780   0.837   5.227
 5102SOL    HW116205   5.856   0.792   5.274
 5102SOL    HW216206   5.745   0.912   5.283
 5103SOL     OW16207   0.262   0.728   4.156
 5103SOL    HW116208   0.354   0.717   4.194
 5103SOL    HW216209   0.197   0.740   4.230
 5104SOL     OW16210   1.887   6.888   1.273
 5104SOL    HW116211   1.860   6.895   1.177
 5104SOL    HW216212   1.816   6.840   1.324
 5105SOL     OW16213   4.458   3.910   6.730
 5105SOL    HW116214   4.462   3.862   6.817
 5105SOL    HW216215   4.549   3.944   6.707
 5106SOL     OW16216   3.460   0.087   2.442
 5106SOL    HW116217   3.501   0.091   2.533
 5106SOL    HW216218   3.374   0.139   2.442
 5107SOL     OW16219   2.909   0.860   0.162
 5107SOL    HW116220   2.938   0.884   0.255
 5107SOL    HW216221   2.824   0.807   0.167
 5108SOL     OW16222   3.338   3.928   3.777
 5108SOL    HW116223   3.251   3.913   3.731
 5108SOL    HW216224   3.398   3.984   3.719
 5109SOL     OW16225   0.822   1.887   1.195
 5109SOL    HW116226   0.846   1.888   1.098
 5109SOL    HW216227   0.748   1.952   1.213
 5110SOL     OW16228   1.684   6.717   6.177
 5110SOL    HW116229   1.724   6.805   6.153
 5110SOL    HW216230   1.584   6.726   6.183
 5111SOL     OW16231   0.587   1.056   6.480
 5111SOL    HW116232   0.652   1.125   6.511
 5111SOL    HW216233   0.611   1.025   6.388
 5112SOL     OW16234   0.054   6.794   3.521
 5112SOL    HW116235   0.142   6.746   3.513
 5112SOL    HW216236   0.061   6.885   3.480
 5113SOL     OW16237   0.199   0.791   0.865
 5113SOL    HW116238   0.143   0.776   0.946
 5113SOL    HW216239   0.155   0.750   0.785
 5114SOL     OW16240   3.226   4.049   0.250
 5114SOL    HW116241   3.217   4.074   0.153
 5114SOL    HW216242   3.279   4.117   0.298
 5115SOL     OW16243   1.553   4.279   5.960
 5115SOL    HW116244   1.600   4.353   5.912
 5115SOL    HW216245   1.615   4.202   5.971
 5116SOL     OW16246   5.354   5.207   6.105
 5116SOL    HW116247   5.372   5.171   6.196
 5116SOL    HW216248   5.329   5.132   6.044
 5117SOL     OW16249   2.109   4.744   3.659
 5117SOL    HW116250   2.045   4.803   3.610
 5117SOL    HW216251   2.202   4.781   3.651
 5118SOL     OW16252   4.759   6.491   0.852
 5118SOL    HW116253   4.736   6.468   0.947
 5118SOL    HW216254   4.798   6.583   0.848
 5119SOL     OW16255   5.180   0.356   1.922
 5119SOL    HW116256   5.158   0.453   1.927
 5119SOL    HW216257   5.223   0.336   1.834
 5120SOL     OW16258   6.235   1.421   3.017
 5120SOL    HW116259   6.213   1.426   2.919
 5120SOL    HW216260   6.199   1.336   3.055
 5121SOL     OW16261   0.682   3.188   6.360
 5121SOL    HW116262   0.655   3.284   6.351
 5121SOL    HW216263   0.781   3.180   6.356
 5122SOL     OW16264   2.835   0.768   3.653
 5122SOL    HW116265   2.851   0.847   3.594
 5122SOL    HW216266   2.739   0.740   3.647
 5123SOL     OW16267   5.581   3.698   3.659
 5123SOL    HW116268   5.574   3.613   3.711
 5123SOL    HW216269   5.675   3.710   3.628
 5124SOL     OW16270   2.933   6.240   6.686
 5124SOL    HW116271   2.998   6.206   6.755
 5124SOL    HW216272   2.964   6.329   6.652
 5125SOL     OW16273   0.537   3.699   4.167
 5125SOL    HW116274   0.584   3.619   4.204
 5125SOL    HW216275   0.525   3.688   4.068
 5126SOL     OW16276   6.133   5.368   6.165
 5126SOL    HW116277   6.218   5.410   6.198
 5126SOL    HW216278   6.147   5.333   6.073
 5127SOL     OW16279   5.543   4.039   6.817
 5127SOL    HW116280   5.566   4.047   6.914
 5127SOL    HW216281   5.614   3.985   6.771
 5128SOL     OW16282   1.525   0.674   6.667
 5128SOL    HW116283   1.541   0.598   6.729
 5128SOL    HW216284   1.612   0.707   6.631
 5129SOL     OW16285   5.490   0.378   2.792
 5129SOL    HW116286   5.584   0.382   2.758
 5129SOL    HW216287   5.490   0.380   2.892
 5130SOL     OW16288   0.813   5.231   4.533
 5130SOL    HW116289   0.834   5.218   4.436
 5130SOL    HW216290   0.720   5.200   4.551
 5131SOL     OW16291   3.231   4.897   3.881
 5131SOL    HW116292   3.192   4.876   3.792
 5131SOL    HW216293   3.323   4.859   3.887
 5132SOL     OW16294   3.191   1.766   6.411
 5132SOL    HW116295   3.264   1.784   6.345
 5132SOL    HW216296   3.122   1.707   6.369
 5133SOL     OW16297   3.490   5.568   6.226
 5133SOL    HW116298   3.437   5.487   6.250
 5133SOL    HW216299   3.444   5.650   6.262
 5134SOL     OW16300   6.681   6.747   1.603
 5134SOL    HW116301   6.641   6.791   1.523
 5134SOL    HW216302   6.611   6.738   1.674
 5135SOL     OW16303   6.529   3.509   2.694
 5135SOL    HW116304   6.611   3.454   2.710
 5135SOL    HW216305   6.454   3.450   2.666
 5136SOL     OW16306   0.615   0.881   6.244
 5136SOL    HW116307   0.541   0.828   6.285
 5136SOL    HW216308   0.695   0.823   6.233
 5137SOL     OW16309   5.086   2.668   5.173
 5137SOL    HW116310   5.134   2.592   5.217
 5137SOL    HW216311   4.988   2.662   5.192
 5138SOL     OW16312   4.040   3.905   4.056
 5138SOL    HW116313   4.130   3.907   4.014
 5138SOL    HW216314   4.005   3.811   4.056
 5139SOL     OW16315   1.858   0.732   5.008
 5139SOL    HW116316   1.782   0.764   5.065
 5139SOL    HW216317   1.825   0.718   4.914
 5140SOL     OW16318   4.003   1.829   5.956
 5140SOL    HW116319   4.022   1.868   5.865
 5140SOL    HW216320   4.082   1.774   5.984
 5141SOL     OW16321   6.575   3.105   1.888
 5141SOL    HW116322   6.647   3.171   1.867
 5141SOL    HW216323   6.540   3.066   1.803
 5142SOL     OW16324   6.352   6.872   3.450
 5142SOL    HW116325   6.361   6.967   3.419
 5142SOL    HW216326   6.419   6.815   3.403
 5143SOL     OW16327   0.815   4.584   4.289
 5143SOL    HW116328   0.804   4.486   4.301
 5143SOL    HW216329   0.733   4.622   4.246
 5144SOL     OW16330   1.820   3.501   6.794
 5144SOL    HW116331   1.860   3.428   6.849
 5144SOL    HW216332   1.885   3.577   6.788
 5145SOL     OW16333   3.220   6.254   6.352
 5145SOL    HW116334   3.230   6.195   6.271
 5145SOL    HW216335   3.241   6.202   6.434
 5146SOL     OW16336   4.362   4.411   5.486
 5146SOL    HW116337   4.325   4.319   5.501
 5146SOL    HW216338   4.461   4.410   5.503
 5147SOL     OW16339   4.848   3.604   3.790
 5147SOL    HW116340   4.856   3.513   3.747
 5147SOL    HW216341   4.885   3.672   3.727
 5148SOL     OW16342   0.160   0.459   1.601
 5148SOL    HW116343   0.140   0.418   1.512
 5148SOL    HW216344   0.149   0.389   1.672
 5149SOL     OW16345   5.656   4.386   3.707
 5149SOL    HW116346   5.691   4.337   3.787
 5149SOL    HW216347   5.557   4.397   3.716
 5150SOL     OW16348   1.451   5.316   3.496
 5150SOL    HW116349   1.382   5.343   3.563
 5150SOL    HW216350   1.431   5.224   3.463
 5151SOL     OW16351   5.783   4.834   1.606
 5151SOL    HW116352   5.862   4.826   1.667
 5151SOL    HW216353   5.772   4.929   1.577
 5152SOL     OW16354   2.078   0.228   6.674
 5152SOL    HW116355   2.133   0.163   6.727
 5152SOL    HW216356   2.000   0.180   6.632
 5153SOL     OW16357   1.955   0.920   0.761
 5153SOL    HW116358   1.971   0.828   0.724
 5153SOL    HW216359   1.858   0.931   0.782
 5154SOL     OW16360   1.155   2.863   6.671
 5154SOL    HW116361   1.246   2.903   6.672
 5154SOL    HW216362   1.162   2.764   6.658
 5155SOL     OW16363   2.306   1.616   0.750
 5155SOL    HW116364   2.221   1.567   0.729
 5155SOL    HW216365   2.385   1.559   0.727
 5156SOL     OW16366   5.516   5.392   5.332
 5156SOL    HW116367   5.499   5.345   5.246
 5156SOL    HW216368   5.541   5.325   5.402
 5157SOL     OW16369   4.125   1.761   2.011
 5157SOL    HW116370   4.080   1.785   2.097
 5157SOL    HW216371   4.220   1.790   2.014
 5158SOL     OW16372   3.921   1.193   2.312
 5158SOL    HW116373   3.892   1.236   2.226
 5158SOL    HW216374   3.856   1.120   2.336
 5159SOL     OW16375   5.807   3.997   6.521
 5159SOL    HW116376   5.742   4.066   6.487
 5159SOL    HW216377   5.800   3.915   6.465
 5160SOL     OW16378   6.703   6.607   2.965
 5160SOL    HW116379   6.661   6.572   3.048
 5160SOL    HW216380   6.785   6.660   2.989
 5161SOL     OW16381   0.637   3.202   0.205
 5161SOL    HW116382   0.665   3.124   0.262
 5161SOL    HW216383   0.543   3.227   0.227
 5162SOL     OW16384   0.033   5.945   2.802
 5162SOL    HW116385   0.043   6.035   2.843
 5162SOL    HW216386   6.984   5.948   2.730
 5163SOL     OW16387   3.084   5.823   1.841
 5163SOL    HW116388   2.990   5.788   1.835
 5163SOL    HW216389   3.107   5.872   1.758
 5164SOL     OW16390   2.816   3.144   0.921
 5164SOL    HW116391   2.743   3.209   0.899
 5164SOL    HW216392   2.850   3.160   1.013
 5165SOL     OW16393   1.505   4.945   0.024
 5165SOL    HW116394   1.519   4.878   6.972
 5165SOL    HW216395   1.412   4.937   0.059
 5166SOL     OW16396   2.206   5.675   1.707
 5166SOL    HW116397   2.244   5.670   1.800
 5166SOL    HW216398   2.177   5.769   1.688
 5167SOL     OW16399   5.538   3.698   5.619
 5167SOL    HW116400   5.630   3.721   5.650
 5167SOL    HW216401   5.538   3.690   5.519
 5168SOL     OW16402   4.533   2.271   2.243
 5168SOL    HW116403   4.483   2.297   2.325
 5168SOL    HW216404   4.589   2.348   2.212
 5169SOL     OW16405   3.996   0.894   4.014
 5169SOL    HW116406   4.017   0.796   4.009
 5169SOL    HW216407   3.969   0.927   3.923
 5170SOL     OW16408   1.337   3.789   6.514
 5170SOL    HW116409   1.416   3.849   6.524
 5170SOL    HW216410   1.363   3.695   6.540
 5171SOL     OW16411   1.982   5.506   5.958
 5171SOL    HW116412   1.907   5.443   5.978
 5171SOL    HW216413   2.066   5.472   5.999
 5172SOL     OW16414   0.875   4.385   3.939
 5172SOL    HW116415   0.843   4.480   3.940
 5172SOL    HW216416   0.970   4.382   3.910
 5173SOL     OW16417   4.916   3.481   5.947
 5173SOL    HW116418   4.958   3.552   5.890
 5173SOL    HW216419   4.844   3.436   5.895
 5174SOL     OW16420   1.611   6.976   3.449
 5174SOL    HW116421   1.646   6.978   3.543
 5174SOL    HW216422   1.684   6.952   3.386
 5175SOL     OW16423   3.034   4.600   0.015
 5175SOL    HW116424   3.075   4.555   0.094
 5175SOL    HW216425   3.096   4.594   6.958
 5176SOL     OW16426   5.744   5.253   6.622
 5176SOL    HW116427   5.752   5.246   6.523
 5176SOL    HW216428   5.727   5.163   6.661
 5177SOL     OW16429   4.830   0.480   1.270
 5177SOL    HW116430   4.824   0.386   1.301
 5177SOL    HW216431   4.872   0.483   1.179
 5178SOL     OW16432   0.765   3.867   1.657
 5178SOL    HW116433   0.745   3.774   1.627
 5178SOL    HW216434   0.778   3.868   1.757
 5179SOL     OW16435   5.408   4.387   2.597
 5179SOL    HW116436   5.373   4.301   2.634
 5179SOL    HW216437   5.426   4.376   2.499
 5180SOL     OW16438   2.427   6.603   1.467
 5180SOL    HW116439   2.339   6.601   1.514
 5180SOL    HW216440   2.449   6.511   1.435
 5181SOL     OW16441   0.060   1.024   6.739
 5181SOL    HW116442   0.063   1.075   6.652
 5181SOL    HW216443   7.015   0.950   6.732
 5182SOL     OW16444   4.352   4.717   3.319
 5182SOL    HW116445   4.276   4.736   3.256
 5182SOL    HW216446   4.372   4.619   3.319
 5183SOL     OW16447   4.026   1.775   3.443
 5183SOL    HW116448   3.959   1.804   3.512
 5183SOL    HW216449   3.977   1.747   3.360
 5184SOL     OW16450   2.061   2.204   3.871
 5184SOL    HW116451   2.100   2.287   3.832
 5184SOL    HW216452   2.133   2.135   3.880
 5185SOL     OW16453   5.260   0.608   2.168
 5185SOL    HW116454   5.338   0.559   2.206
 5185SOL    HW216455   5.263   0.606   2.069
 5186SOL     OW16456   6.902   3.055   5.771
 5186SOL    HW116457   6.915   3.150   5.801
 5186SOL    HW216458   6.848   3.005   5.838
 5187SOL     OW16459   2.276   5.087   4.796
 5187SOL    HW116460   2.264   5.044   4.707
 5187SOL    HW216461   2.209   5.049   4.860
 5188SOL     OW16462   6.785   6.359   1.810
 5188SOL    HW116463   6.795   6.293   1.884
 5188SOL    HW216464   6.736   6.317   1.733
 5189SOL     OW16465   5.780   0.332   6.337
 5189SOL    HW116466   5.788   0.367   6.430
 5189SOL    HW216467   5.864   0.352   6.286
 5190SOL     OW16468   1.980   2.977   1.996
 5190SOL    HW116469   2.053   2.919   1.962
 5190SOL    HW216470   2.017   3.067   2.021
 5191SOL     OW16471   2.792   5.646   2.447
 5191SOL    HW116472   2.887   5.665   2.476
 5191SOL    HW216473   2.770   5.551   2.467
 5192SOL     OW16474   1.872   5.942   1.461
 5192SOL    HW116475   1.881   5.851   1.421
 5192SOL    HW216476   1.817   6.000   1.401
 5193SOL     OW16477   5.388   0.511   6.672
 5193SOL    HW116478   5.388   0.413   6.694
 5193SOL    HW216479   5.468   0.532   6.616
 5194SOL     OW16480   4.000   2.001   0.035
 5194SOL    HW116481   3.995   1.901   0.038
 5194SOL    HW216482   4.013   2.036   0.128
 5195SOL     OW16483   0.249   0.539   3.563
 5195SOL    HW116484   0.337   0.581   3.587
 5195SOL    HW216485   0.203   0.597   3.495
 5196SOL     OW16486   4.357   6.927   3.281
 5196SOL    HW116487   4.303   6.955   3.202
 5196SOL    HW216488   4.299   6.922   3.362
 5197SOL     OW16489   1.451   3.974   5.749
 5197SOL    HW116490   1.391   3.938   5.821
 5197SOL    HW216491   1.508   4.047   5.786
 5198SOL     OW16492   5.061   5.826   2.857
 5198SOL    HW116493   4.974   5.873   2.842
 5198SOL    HW216494   5.045   5.736   2.896
 5199SOL     OW16495   6.746   4.944   0.876
 5199SOL    HW116496   6.748   4.996   0.791
 5199SOL    HW216497   6.762   4.847   0.856
 5200SOL     OW16498   0.475   4.038   5.392
 5200SOL    HW116499   0.543   3.965   5.391
 5200SOL    HW216500   0.383   3.999   5.398
 5201SOL     OW16501   1.265   6.154   3.702
 5201SOL    HW116502   1.328   6.183   3.773
 5201SOL    HW216503   1.316   6.108   3.629
 5202SOL     OW16504   6.626   3.255   0.218
 5202SOL    HW116505   6.542   3.201   0.227
 5202SOL    HW216506   6.624   3.304   0.131
 5203SOL     OW16507   0.579   2.986   0.024
 5203SOL    HW116508   0.645   2.923   0.063
 5203SOL    HW216509   0.566   3.064   0.085
 5204SOL     OW16510   4.407   5.062   0.400
 5204SOL    HW116511   4.331   5.126   0.409
 5204SOL    HW216512   4.375   4.969   0.415
 5205SOL     OW16513   1.993   0.268   1.401
 5205SOL    HW116514   1.949   0.288   1.313
 5205SOL    HW216515   2.019   0.172   1.404
 5206SOL     OW16516   6.946   4.378   6.773
 5206SOL    HW116517   6.854   4.405   6.803
 5206SOL    HW216518   6.978   4.442   6.703
 5207SOL     OW16519   1.098   5.362   4.497
 5207SOL    HW116520   1.049   5.335   4.580
 5207SOL    HW216521   1.055   5.444   4.458
 5208SOL     OW16522   3.981   0.734   0.137
 5208SOL    HW116523   3.901   0.737   0.078
 5208SOL    HW216524   3.980   0.813   0.199
 5209SOL     OW16525   6.077   6.046   3.252
 5209SOL    HW116526   6.099   6.088   3.164
 5209SOL    HW216527   6.011   6.104   3.300
 5210SOL     OW16528   5.328   3.497   4.649
 5210SOL    HW116529   5.334   3.592   4.616
 5210SOL    HW216530   5.373   3.489   4.738
 5211SOL     OW16531   3.322   3.292   4.004
 5211SOL    HW116532   3.355   3.330   3.918
 5211SOL    HW216533   3.223   3.276   3.997
 5212SOL     OW16534   0.000   2.623   0.306
 5212SOL    HW116535   0.004   2.573   0.393
 5212SOL    HW216536   0.027   2.718   0.322
 5213SOL     OW16537   5.319   2.631   6.044
 5213SOL    HW116538   5.228   2.672   6.041
 5213SOL    HW216539   5.313   2.533   6.025
 5214SOL     OW16540   5.423   2.061   5.460
 5214SOL    HW116541   5.377   2.037   5.545
 5214SOL    HW216542   5.355   2.086   5.391
 5215SOL     OW16543   5.435   4.350   3.449
 5215SOL    HW116544   5.380   4.415   3.503
 5215SOL    HW216545   5.492   4.400   3.384
 5216SOL     OW16546   5.283   5.029   1.450
 5216SOL    HW116547   5.379   5.058   1.450
 5216SOL    HW216548   5.278   4.929   1.451
 5217SOL     OW16549   3.075   5.206   3.948
 5217SOL    HW116550   3.031   5.277   4.002
 5217SOL    HW216551   3.029   5.118   3.965
 5218SOL     OW16552   1.925   0.155   4.318
 5218SOL    HW116553   1.835   0.153   4.361
 5218SOL    HW216554   1.942   0.067   4.273
 5219SOL     OW16555   3.792   0.077   6.456
 5219SOL    HW116556   3.866   0.058   6.392
 5219SOL    HW216557   3.717   0.013   6.441
 5220SOL     OW16558   1.345   5.419   2.136
 5220SOL    HW116559   1.285   5.496   2.114
 5220SOL    HW216560   1.341   5.351   2.062
 5221SOL     OW16561   5.372   1.776   4.627
 5221SOL    HW116562   5.367   1.862   4.678
 5221SOL    HW216563   5.403   1.703   4.687
 5222SOL     OW16564   2.361   0.398   4.127
 5222SOL    HW116565   2.452   0.359   4.143
 5222SOL    HW216566   2.319   0.421   4.215
 5223SOL     OW16567   4.748   0.236   1.393
 5223SOL    HW116568   4.797   0.160   1.434
 5223SOL    HW216569   4.657   0.206   1.366
 5224SOL     OW16570   6.856   2.878   2.818
 5224SOL    HW116571   6.841   2.867   2.916
 5224SOL    HW216572   6.771   2.857   2.769
 5225SOL     OW16573   6.930   0.671   3.191
 5225SOL    HW116574   6.869   0.730   3.138
 5225SOL    HW216575   6.980   0.726   3.258
 5226SOL     OW16576   0.485   6.421   4.683
 5226SOL    HW116577   0.423   6.349   4.652
 5226SOL    HW216578   0.565   6.379   4.727
 5227SOL     OW16579   6.657   5.001   3.592
 5227SOL    HW116580   6.573   5.039   3.630
 5227SOL    HW216581   6.694   5.065   3.524
 5228SOL     OW16582   6.281   2.181   0.522
 5228SOL    HW116583   6.189   2.167   0.486
 5228SOL    HW216584   6.309   2.275   0.507
 5229SOL     OW16585   1.192   4.309   6.415
 5229SOL    HW116586   1.214   4.283   6.509
 5229SOL    HW216587   1.276   4.324   6.364
 5230SOL     OW16588   0.225   0.129   0.949
 5230SOL    HW116589   0.311   0.132   1.001
 5230SOL    HW216590   0.230   0.195   0.874
 5231SOL     OW16591   3.287   3.007   4.296
 5231SOL    HW116592   3.235   3.025   4.212
 5231SOL    HW216593   3.242   3.054   4.372
 5232SOL     OW16594   3.694   2.258   6.394
 5232SOL    HW116595   3.762   2.194   6.430
 5232SOL    HW216596   3.687   2.247   6.295
 5233SOL     OW16597   6.724   6.311   1.347
 5233SOL    HW116598   6.796   6.275   1.406
 5233SOL    HW216599   6.676   6.386   1.394
 5234SOL     OW16600   3.430   0.818   0.564
 5234SOL    HW116601   3.383   0.734   0.590
 5234SOL    HW216602   3.493   0.845   0.636
 5235SOL     OW16603   1.578   2.994   0.724
 5235SOL    HW116604   1.503   2.967   0.785
 5235SOL    HW216605   1.539   3.033   0.640
 5236SOL     OW16606   5.500   2.654   1.489
 5236SOL    HW116607   5.496   2.555   1.475
 5236SOL    HW216608   5.419   2.684   1.540
 5237SOL     OW16609   2.849   2.062   5.380
 5237SOL    HW116610   2.822   2.081   5.286
 5237SOL    HW216611   2.907   2.136   5.414
 5238SOL     OW16612   1.403   5.180   0.324
 5238SOL    HW116613   1.418   5.278   0.338
 5238SOL    HW216614   1.364   5.164   0.234
 5239SOL     OW16615   3.475   3.835   4.442
 5239SOL    HW116616   3.390   3.865   4.485
 5239SOL    HW216617   3.486   3.879   4.354
 5240SOL     OW16618   3.004   1.853   5.345
 5240SOL    HW116619   3.022   1.875   5.249
 5240SOL    HW216620   2.935   1.915   5.381
 5241SOL     OW16621   0.784   6.277   6.682
 5241SOL    HW116622   0.827   6.187   6.690
 5241SOL    HW216623   0.731   6.281   6.597
 5242SOL     OW16624   6.195   1.307   5.646
 5242SOL    HW116625   6.145   1.388   5.677
 5242SOL    HW216626   6.291   1.315   5.673
 5243SOL     OW16627   0.725   6.051   0.631
 5243SOL    HW116628   0.758   6.076   0.722
 5243SOL    HW216629   0.801   6.053   0.566
 5244SOL     OW16630   4.182   4.055   5.692
 5244SOL    HW116631   4.093   4.036   5.733
 5244SOL    HW216632   4.252   4.060   5.763
 5245SOL     OW16633   4.614   3.800   5.896
 5245SOL    HW116634   4.657   3.772   5.810
 5245SOL    HW216635   4.547   3.731   5.924
 5246SOL     OW16636   0.276   3.956   2.513
 5246SOL    HW116637   0.253   3.981   2.607
 5246SOL    HW216638   0.351   4.014   2.481
 5247SOL     OW16639   0.513   6.049   6.918
 5247SOL    HW116640   0.474   6.137   6.944
 5247SOL    HW216641   0.609   6.045   6.946
 5248SOL     OW16642   5.685   0.617   5.455
 5248SOL    HW116643   5.619   0.690   5.439
 5248SOL    HW216644   5.716   0.619   5.550
 5249SOL     OW16645   0.920   4.909   4.609
 5249SOL    HW116646   0.847   4.854   4.648
 5249SOL    HW216647   0.951   4.977   4.676
 5250SOL     OW16648   0.388   1.482   6.198
 5250SOL    HW116649   0.290   1.493   6.216
 5250SOL    HW216650   0.437   1.477   6.285
 5251SOL     OW16651   0.292   2.851   1.195
 5251SOL    HW116652   0.262   2.755   1.193
 5251SOL    HW216653   0.221   2.908   1.152
 5252SOL     OW16654   1.879   5.356   1.046
 5252SOL    HW116655   1.921   5.272   1.011
 5252SOL    HW216656   1.863   5.347   1.144
 5253SOL     OW16657   5.832   3.210   4.721
 5253SOL    HW116658   5.817   3.183   4.626
 5253SOL    HW216659   5.749   3.193   4.774
 5254SOL     OW16660   4.758   1.228   3.527
 5254SOL    HW116661   4.854   1.202   3.517
 5254SOL    HW216662   4.710   1.157   3.578
 5255SOL     OW16663   3.985   0.095   4.410
 5255SOL    HW116664   3.949   0.095   4.317
 5255SOL    HW216665   3.912   0.114   4.475
 5256SOL     OW16666   4.742   1.294   2.968
 5256SOL    HW116667   4.680   1.351   2.913
 5256SOL    HW216668   4.725   1.311   3.065
 5257SOL     OW16669   4.042   6.792   1.777
 5257SOL    HW116670   4.112   6.786   1.707
 5257SOL    HW216671   4.056   6.720   1.845
 5258SOL     OW16672   4.963   3.825   1.939
 5258SOL    HW116673   4.947   3.920   1.910
 5258SOL    HW216674   5.061   3.807   1.940
 5259SOL     OW16675   4.658   6.014   2.191
 5259SOL    HW116676   4.625   6.062   2.273
 5259SOL    HW216677   4.600   6.038   2.114
 5260SOL     OW16678   4.836   3.738   0.864
 5260SOL    HW116679   4.750   3.705   0.825
 5260SOL    HW216680   4.859   3.683   0.945
 5261SOL     OW16681   1.346   2.532   5.380
 5261SOL    HW116682   1.355   2.477   5.463
 5261SOL    HW216683   1.305   2.476   5.308
 5262SOL     OW16684   2.643   0.341   2.528
 5262SOL    HW116685   2.697   0.310   2.450
 5262SOL    HW216686   2.681   0.303   2.612
 5263SOL     OW16687   1.605   0.202   6.263
 5263SOL    HW116688   1.657   0.266   6.207
 5263SOL    HW216689   1.602   0.113   6.217
 5264SOL     OW16690   6.467   1.468   1.123
 5264SOL    HW116691   6.551   1.461   1.177
 5264SOL    HW216692   6.393   1.421   1.170
 5265SOL     OW16693   5.625   4.049   2.449
 5265SOL    HW116694   5.620   4.055   2.549
 5265SOL    HW216695   5.690   3.977   2.424
 5266SOL     OW16696   2.571   6.293   1.718
 5266SOL    HW116697   2.648   6.311   1.656
 5266SOL    HW216698   2.605   6.244   1.799
 5267SOL     OW16699   4.198   4.763   5.926
 5267SOL    HW116700   4.194   4.714   6.013
 5267SOL    HW216701   4.264   4.720   5.865
 5268SOL     OW16702   6.219   5.703   4.886
 5268SOL    HW116703   6.158   5.710   4.807
 5268SOL    HW216704   6.165   5.682   4.968
 5269SOL     OW16705   2.148   5.837   3.799
 5269SOL    HW116706   2.110   5.855   3.890
 5269SOL    HW216707   2.079   5.858   3.730
 5270SOL     OW16708   4.833   1.852   1.289
 5270SOL    HW116709   4.895   1.880   1.362
 5270SOL    HW216710   4.800   1.760   1.307
 5271SOL     OW16711   4.205   5.028   4.743
 5271SOL    HW116712   4.140   4.969   4.696
 5271SOL    HW216713   4.263   5.075   4.676
 5272SOL     OW16714   1.016   6.064   4.156
 5272SOL    HW116715   1.033   6.119   4.075
 5272SOL    HW216716   1.099   6.060   4.212
 5273SOL     OW16717   1.156   2.845   3.790
 5273SOL    HW116718   1.225   2.902   3.834
 5273SOL    HW216719   1.195   2.756   3.769
 5274SOL     OW16720   6.272   4.699   3.483
 5274SOL    HW116721   6.371   4.691   3.493
 5274SOL    HW216722   6.249   4.787   3.442
 5275SOL     OW16723   3.076   0.448   6.304
 5275SOL    HW116724   3.104   0.544   6.312
 5275SOL    HW216725   3.156   0.392   6.285
 5276SOL     OW16726   0.015   6.527   0.580
 5276SOL    HW116727   0.013   6.430   0.605
 5276SOL    HW216728   6.998   6.538   0.488
 5277SOL     OW16729   2.068   1.625   3.111
 5277SOL    HW116730   2.076   1.699   3.043
 5277SOL    HW216731   2.079   1.662   3.203
 5278SOL     OW16732   5.327   6.561   5.941
 5278SOL    HW116733   5.277   6.476   5.924
 5278SOL    HW216734   5.420   6.540   5.971
 5279SOL     OW16735   0.992   5.905   6.868
 5279SOL    HW116736   1.069   5.959   6.833
 5279SOL    HW216737   0.961   5.842   6.797
 5280SOL     OW16738   3.695   6.234   5.155
 5280SOL    HW116739   3.727   6.258   5.063
 5280SOL    HW216740   3.768   6.188   5.204
 5281SOL     OW16741   0.719   0.769   4.469
 5281SOL    HW116742   0.807   0.742   4.430
 5281SOL    HW216743   0.680   0.692   4.519
 5282SOL     OW16744   2.058   0.388   2.578
 5282SOL    HW116745   1.988   0.324   2.608
 5282SOL    HW216746   2.014   0.473   2.547
 5283SOL     OW16747   1.431   0.834   3.963
 5283SOL    HW116748   1.473   0.746   3.942
 5283SOL    HW216749   1.500   0.895   4.001
 5284SOL     OW16750   4.736   2.362   2.641
 5284SOL    HW116751   4.668   2.327   2.706
 5284SOL    HW216752   4.730   2.310   2.556
 5285SOL     OW16753   1.302   3.993   3.901
 5285SOL    HW116754   1.303   3.893   3.898
 5285SOL    HW216755   1.217   4.025   3.942
 5286SOL     OW16756   6.315   3.132   1.076
 5286SOL    HW116757   6.223   3.141   1.115
 5286SOL    HW216758   6.308   3.090   0.985
 5287SOL     OW16759   2.804   5.123   2.055
 5287SOL    HW116760   2.712   5.086   2.040
 5287SOL    HW216761   2.814   5.151   2.150
 5288SOL     OW16762   4.727   0.195   2.742
 5288SOL    HW116763   4.818   0.196   2.784
 5288SOL    HW216764   4.721   0.267   2.673
 5289SOL     OW16765   2.095   4.827   0.004
 5289SOL    HW116766   2.177   4.770   0.016
 5289SOL    HW216767   2.066   4.824   6.930
 5290SOL     OW16768   1.752   4.148   5.452
 5290SOL    HW116769   1.660   4.145   5.413
 5290SOL    HW216770   1.819   4.132   5.379
 5291SOL     OW16771   3.346   4.294   5.828
 5291SOL    HW116772   3.362   4.382   5.873
 5291SOL    HW216773   3.255   4.293   5.787
 5292SOL     OW16774   5.579   4.607   6.609
 5292SOL    HW116775   5.652   4.553   6.651
 5292SOL    HW216776   5.597   4.619   6.512
 5293SOL     OW16777   2.240   5.918   4.741
 5293SOL    HW116778   2.163   5.859   4.716
 5293SOL    HW216779   2.213   6.014   4.733
 5294SOL     OW16780   4.580   1.335   5.320
 5294SOL    HW116781   4.568   1.378   5.230
 5294SOL    HW216782   4.620   1.402   5.383
 5295SOL     OW16783   3.804   0.458   3.635
 5295SOL    HW116784   3.750   0.525   3.687
 5295SOL    HW216785   3.742   0.396   3.587
 5296SOL     OW16786   3.660   3.826   0.295
 5296SOL    HW116787   3.740   3.802   0.240
 5296SOL    HW216788   3.586   3.857   0.235
 5297SOL     OW16789   2.163   3.486   0.578
 5297SOL    HW116790   2.197   3.577   0.601
 5297SOL    HW216791   2.226   3.443   0.513
 5298SOL     OW16792   1.974   6.022   6.460
 5298SOL    HW116793   1.991   5.971   6.376
 5298SOL    HW216794   1.993   6.119   6.445
 5299SOL     OW16795   3.001   2.664   0.849
 5299SOL    HW116796   3.074   2.644   0.914
 5299SOL    HW216797   2.961   2.753   0.870
 5300SOL     OW16798   0.795   4.889   0.895
 5300SOL    HW116799   0.740   4.940   0.961
 5300SOL    HW216800   0.804   4.795   0.926
 5301SOL     OW16801   4.050   0.922   6.705
 5301SOL    HW116802   4.021   0.946   6.613
 5301SOL    HW216803   4.038   0.824   6.720
 5302SOL     OW16804   5.633   6.384   3.648
 5302SOL    HW116805   5.716   6.328   3.648
 5302SOL    HW216806   5.629   6.437   3.733
 5303SOL     OW16807   0.151   5.052   4.967
 5303SOL    HW116808   0.067   5.000   4.983
 5303SOL    HW216809   0.200   5.065   5.053
 5304SOL     OW16810   5.695   0.953   0.251
 5304SOL    HW116811   5.766   1.024   0.246
 5304SOL    HW216812   5.738   0.863   0.243
 5305SOL     OW16813   0.828   5.486   2.783
 5305SOL    HW116814   0.837   5.443   2.693
 5305SOL    HW216815   0.919   5.507   2.818
 5306SOL     OW16816   0.720   4.730   5.411
 5306SOL    HW116817   0.774   4.798   5.460
 5306SOL    HW216818   0.651   4.691   5.472
 5307SOL     OW16819   4.394   1.933   0.365
 5307SOL    HW116820   4.428   1.861   0.304
 5307SOL    HW216821   4.358   1.891   0.448
 5308SOL     OW16822   1.370   4.599   2.251
 5308SOL    HW116823   1.422   4.594   2.166
 5308SOL    HW216824   1.302   4.525   2.253
 5309SOL     OW16825   3.632   4.864   2.166
 5309SOL    HW116826   3.624   4.825   2.075
 5309SOL    HW216827   3.636   4.791   2.234
 5310SOL     OW16828   6.349   3.612   2.088
 5310SOL    HW116829   6.443   3.633   2.112
 5310SOL    HW216830   6.348   3.539   2.019
 5311SOL     OW16831   5.749   6.746   6.809
 5311SOL    HW116832   5.765   6.819   6.875
 5311SOL    HW216833   5.653   6.745   6.782
 5312SOL     OW16834   0.356   5.349   1.728
 5312SOL    HW116835   0.336   5.384   1.820
 5312SOL    HW216836   0.381   5.253   1.734
 5313SOL     OW16837   1.250   3.932   5.946
 5313SOL    HW116838   1.157   3.901   5.925
 5313SOL    HW216839   1.247   4.001   6.018
 5314SOL     OW16840   4.277   6.623   0.479
 5314SOL    HW116841   4.199   6.679   0.508
 5314SOL    HW216842   4.335   6.677   0.418
 5315SOL     OW16843   5.075   3.028   2.724
 5315SOL    HW116844   5.140   3.036   2.800
 5315SOL    HW216845   5.084   2.937   2.682
 5316SOL     OW16846   1.273   3.757   5.289
 5316SOL    HW116847   1.264   3.828   5.358
 5316SOL    HW216848   1.270   3.667   5.332
 5317SOL     OW16849   6.187   1.805   5.914
 5317SOL    HW116850   6.272   1.833   5.869
 5317SOL    HW216851   6.203   1.722   5.967
 5318SOL     OW16852   0.412   2.741   0.185
 5318SOL    HW116853   0.399   2.719   0.281
 5318SOL    HW216854   0.510   2.737   0.163
 5319SOL     OW16855   4.503   6.160   1.201
 5319SOL    HW116856   4.494   6.175   1.103
 5319SOL    HW216857   4.432   6.096   1.232
 5320SOL     OW16858   4.418   5.276   0.761
 5320SOL    HW116859   4.400   5.366   0.801
 5320SOL    HW216860   4.415   5.283   0.661
 5321SOL     OW16861   2.122   4.455   5.059
 5321SOL    HW116862   2.136   4.363   5.022
 5321SOL    HW216863   2.038   4.457   5.112
 5322SOL     OW16864   5.588   6.415   0.137
 5322SOL    HW116865   5.610   6.506   0.104
 5322SOL    HW216866   5.595   6.349   0.061
 5323SOL     OW16867   3.327   1.579   5.766
 5323SOL    HW116868   3.414   1.624   5.786
 5323SOL    HW216869   3.336   1.480   5.783
 5324SOL     OW16870   3.191   2.386   0.649
 5324SOL    HW116871   3.152   2.432   0.570
 5324SOL    HW216872   3.206   2.452   0.723
 5325SOL     OW16873   4.389   0.955   4.241
 5325SOL    HW116874   4.472   0.955   4.186
 5325SOL    HW216875   4.380   1.042   4.289
 5326SOL     OW16876   6.675   5.554   3.150
 5326SOL    HW116877   6.765   5.512   3.165
 5326SOL    HW216878   6.655   5.617   3.225
 5327SOL     OW16879   6.061   2.803   4.952
 5327SOL    HW116880   6.002   2.878   4.922
 5327SOL    HW216881   6.146   2.840   4.988
 5328SOL     OW16882   3.423   3.687   6.320
 5328SOL    HW116883   3.507   3.737   6.342
 5328SOL    HW216884   3.409   3.686   6.221
 5329SOL     OW16885   0.628   5.016   6.426
 5329SOL    HW116886   0.537   5.030   6.464
 5329SOL    HW216887   0.646   5.085   6.356
 5330SOL     OW16888   4.260   3.809   6.969
 5330SOL    HW116889   4.232   3.747   6.896
 5330SOL    HW216890   4.357   3.795   6.991
 5331SOL     OW16891   5.922   1.688   6.194
 5331SOL    HW116892   5.836   1.736   6.177
 5331SOL    HW216893   5.996   1.755   6.207
 5332SOL     OW16894   1.163   3.046   1.475
 5332SOL    HW116895   1.237   3.108   1.501
 5332SOL    HW216896   1.078   3.076   1.518
 5333SOL     OW16897   0.695   0.983   3.124
 5333SOL    HW116898   0.689   0.889   3.089
 5333SOL    HW216899   0.649   1.044   3.059
 5334SOL     OW16900   3.292   0.456   4.451
 5334SOL    HW116901   3.387   0.459   4.480
 5334SOL    HW216902   3.285   0.490   4.357
 5335SOL     OW16903   7.018   5.671   0.652
 5335SOL    HW116904   6.947   5.601   0.654
 5335SOL    HW216905   0.054   5.659   0.571
 5336SOL     OW16906   2.168   3.197   2.630
 5336SOL    HW116907   2.142   3.217   2.535
 5336SOL    HW216908   2.189   3.100   2.639
 5337SOL     OW16909   5.128   4.733   0.665
 5337SOL    HW116910   5.170   4.762   0.579
 5337SOL    HW216911   5.188   4.667   0.711
 5338SOL     OW16912   5.814   1.258   0.254
 5338SOL    HW116913   5.806   1.265   0.154
 5338SOL    HW216914   5.860   1.339   0.289
 5339SOL     OW16915   6.710   1.282   4.091
 5339SOL    HW116916   6.643   1.258   4.162
 5339SOL    HW216917   6.697   1.378   4.064
 5340SOL     OW16918   5.228   4.493   0.832
 5340SOL    HW116919   5.264   4.430   0.901
 5340SOL    HW216920   5.181   4.441   0.761
 5341SOL     OW16921   3.882   2.847   6.413
 5341SOL    HW116922   3.956   2.848   6.346
 5341SOL    HW216923   3.842   2.755   6.417
 5342SOL     OW16924   3.645   0.201   4.208
 5342SOL    HW116925   3.676   0.253   4.129
 5342SOL    HW216926   3.545   0.191   4.205
 5343SOL     OW16927   3.221   3.668   4.081
 5343SOL    HW116928   3.309   3.637   4.116
 5343SOL    HW216929   3.194   3.752   4.127
 5344SOL     OW16930   1.965   2.348   2.595
 5344SOL    HW116931   2.060   2.377   2.612
 5344SOL    HW216932   1.964   2.280   2.522
 5345SOL     OW16933   4.274   6.406   1.464
 5345SOL    HW116934   4.293   6.418   1.562
 5345SOL    HW216935   4.258   6.309   1.445
 5346SOL     OW16936   3.278   6.541   4.229
 5346SOL    HW116937   3.302   6.626   4.275
 5346SOL    HW216938   3.275   6.556   4.130
 5347SOL     OW16939   0.414   2.538   2.162
 5347SOL    HW116940   0.364   2.619   2.192
 5347SOL    HW216941   0.369   2.499   2.082
 5348SOL     OW16942   0.544   1.259   0.739
 5348SOL    HW116943   0.546   1.215   0.829
 5348SOL    HW216944   0.467   1.323   0.735
 5349SOL     OW16945   1.155   2.330   0.041
 5349SOL    HW116946   1.214   2.409   0.052
 5349SOL    HW216947   1.204   2.247   0.070
 5350SOL     OW16948   1.518   0.035   6.059
 5350SOL    HW116949   1.471   6.969   6.043
 5350SOL    HW216950   1.459   0.110   6.028
 5351SOL     OW16951   5.743   5.757   1.778
 5351SOL    HW116952   5.654   5.713   1.777
 5351SOL    HW216953   5.736   5.849   1.740
 5352SOL     OW16954   1.708   5.623   4.482
 5352SOL    HW116955   1.678   5.636   4.387
 5352SOL    HW216956   1.745   5.531   4.494
 5353SOL     OW16957   3.214   5.904   4.414
 5353SOL    HW116958   3.229   5.924   4.317
 5353SOL    HW216959   3.122   5.866   4.426
 5354SOL     OW16960   1.953   5.348   1.900
 5354SOL    HW116961   1.912   5.437   1.883
 5354SOL    HW216962   2.019   5.354   1.975
 5355SOL     OW16963   4.767   2.403   3.950
 5355SOL    HW116964   4.746   2.476   3.885
 5355SOL    HW216965   4.813   2.442   4.030
 5356SOL     OW16966   5.877   4.231   1.637
 5356SOL    HW116967   5.823   4.302   1.683
 5356SOL    HW216968   5.963   4.271   1.606
 5357SOL     OW16969   3.547   6.643   0.721
 5357SOL    HW116970   3.563   6.741   0.715
 5357SOL    HW216971   3.576   6.599   0.636
 5358SOL     OW16972   4.161   1.471   1.071
 5358SOL    HW116973   4.128   1.511   0.986
 5358SOL    HW216974   4.226   1.397   1.050
 5359SOL     OW16975   2.077   1.988   0.154
 5359SOL    HW116976   2.037   2.076   0.127
 5359SOL    HW216977   2.103   1.991   0.250
 5360SOL     OW16978   4.358   6.353   5.351
 5360SOL    HW116979   4.293   6.409   5.300
 5360SOL    HW216980   4.309   6.284   5.403
 5361SOL     OW16981   2.429   6.792   4.624
 5361SOL    HW116982   2.528   6.787   4.633
 5361SOL    HW216983   2.389   6.701   4.635
 5362SOL     OW16984   5.115   4.400   3.440
 5362SOL    HW116985   5.071   4.313   3.461
 5362SOL    HW216986   5.188   4.386   3.373
 5363SOL     OW16987   0.748   6.663   6.039
 5363SOL    HW116988   0.812   6.672   6.115
 5363SOL    HW216989   0.761   6.739   5.975
 5364SOL     OW16990   0.010   5.857   1.342
 5364SOL    HW116991   0.018   5.791   1.417
 5364SOL    HW216992   0.101   5.877   1.305
 5365SOL     OW16993   3.796   3.286   6.943
 5365SOL    HW116994   3.745   3.331   7.017
 5365SOL    HW216995   3.892   3.278   6.968
 5366SOL     OW16996   5.295   5.247   1.726
 5366SOL    HW116997   5.247   5.163   1.751
 5366SOL    HW216998   5.252   5.288   1.645
 5367SOL     OW16999   0.222   5.230   0.660
 5367SOL    HW117000   0.228   5.328   0.678
 5367SOL    HW217001   0.310   5.187   0.678
 5368SOL     OW17002   4.945   0.841   3.038
 5368SOL    HW117003   4.892   0.839   3.124
 5368SOL    HW217004   5.010   0.917   3.041
 5369SOL     OW17005   3.308   6.659   3.061
 5369SOL    HW117006   3.306   6.626   3.156
 5369SOL    HW217007   3.315   6.581   2.999
 5370SOL     OW17008   4.287   2.849   1.412
 5370SOL    HW117009   4.258   2.785   1.484
 5370SOL    HW217010   4.341   2.923   1.453
 5371SOL     OW17011   1.710   3.544   4.207
 5371SOL    HW117012   1.622   3.506   4.234
 5371SOL    HW217013   1.780   3.518   4.273
 5372SOL     OW17014   2.388   5.790   3.548
 5372SOL    HW117015   2.315   5.802   3.615
 5372SOL    HW217016   2.365   5.841   3.465
 5373SOL     OW17017   3.165   5.165   4.601
 5373SOL    HW117018   3.254   5.192   4.637
 5373SOL    HW217019   3.093   5.211   4.651
 5374SOL     OW17020   0.768   3.744   0.458
 5374SOL    HW117021   0.851   3.717   0.506
 5374SOL    HW217022   0.699   3.774   0.524
 5375SOL     OW17023   1.925   4.383   4.693
 5375SOL    HW117024   1.883   4.474   4.687
 5375SOL    HW217025   2.002   4.377   4.630
 5376SOL     OW17026   1.794   3.045   0.872
 5376SOL    HW117027   1.707   3.022   0.829
 5376SOL    HW217028   1.809   2.987   0.951
 5377SOL     OW17029   6.840   6.642   1.326
 5377SOL    HW117030   6.805   6.736   1.331
 5377SOL    HW217031   6.764   6.578   1.328
 5378SOL     OW17032   6.850   0.402   1.455
 5378SOL    HW117033   6.752   0.394   1.435
 5378SOL    HW217034   6.864   0.406   1.554
 5379SOL     OW17035   0.789   5.157   5.367
 5379SOL    HW117036   0.785   5.225   5.293
 5379SOL    HW217037   0.711   5.095   5.359
 5380SOL     OW17038   1.744   0.890   3.439
 5380SOL    HW117039   1.802   0.898   3.520
 5380SOL    HW217040   1.779   0.816   3.381
 5381SOL     OW17041   5.860   4.388   0.601
 5381SOL    HW117042   5.897   4.327   0.531
 5381SOL    HW217043   5.803   4.458   0.558
 5382SOL     OW17044   3.202   0.310   2.083
 5382SOL    HW117045   3.287   0.342   2.126
 5382SOL    HW217046   3.138   0.387   2.075
 5383SOL     OW17047   2.564   2.652   5.331
 5383SOL    HW117048   2.506   2.669   5.252
 5383SOL    HW217049   2.591   2.738   5.372
 5384SOL     OW17050   5.913   0.295   4.113
 5384SOL    HW117051   5.922   0.335   4.022
 5384SOL    HW217052   5.873   0.361   4.176
 5385SOL     OW17053   2.882   3.494   3.311
 5385SOL    HW117054   2.788   3.500   3.342
 5385SOL    HW217055   2.917   3.402   3.325
 5386SOL     OW17056   4.170   0.362   4.284
 5386SOL    HW117057   4.095   0.351   4.218
 5386SOL    HW217058   4.207   0.272   4.307
 5387SOL     OW17059   2.796   5.929   3.652
 5387SOL    HW117060   2.757   5.844   3.687
 5387SOL    HW217061   2.826   5.917   3.558
 5388SOL     OW17062   5.874   0.159   3.353
 5388SOL    HW117063   5.885   0.198   3.445
 5388SOL    HW217064   5.964   0.135   3.316
 5389SOL     OW17065   5.547   0.608   1.654
 5389SOL    HW117066   5.527   0.615   1.556
 5389SOL    HW217067   5.614   0.678   1.679
 5390SOL     OW17068   4.705   4.649   3.492
 5390SOL    HW117069   4.665   4.732   3.454
 5390SOL    HW217070   4.735   4.667   3.586
 5391SOL     OW17071   1.792   1.952   0.981
 5391SOL    HW117072   1.787   2.046   1.013
 5391SOL    HW217073   1.887   1.928   0.961
 5392SOL     OW17074   5.869   3.529   0.956
 5392SOL    HW117075   5.923   3.501   1.035
 5392SOL    HW217076   5.927   3.579   0.892
 5393SOL     OW17077   5.442   6.785   6.192
 5393SOL    HW117078   5.365   6.839   6.159
 5393SOL    HW217079   5.482   6.829   6.272
 5394SOL     OW17080   6.796   3.926   6.868
 5394SOL    HW117081   6.713   3.923   6.925
 5394SOL    HW217082   6.775   3.970   6.781
 5395SOL     OW17083   5.134   1.128   1.872
 5395SOL    HW117084   5.148   1.052   1.935
 5395SOL    HW217085   5.222   1.159   1.836
 5396SOL     OW17086   4.931   4.202   2.635
 5396SOL    HW117087   4.925   4.206   2.735
 5396SOL    HW217088   4.839   4.188   2.597
 5397SOL     OW17089   6.698   2.860   1.945
 5397SOL    HW117090   6.647   2.945   1.946
 5397SOL    HW217091   6.650   2.791   1.999
 5398SOL     OW17092   3.365   1.771   2.686
 5398SOL    HW117093   3.378   1.715   2.604
 5398SOL    HW217094   3.343   1.865   2.660
 5399SOL     OW17095   2.136   5.952   0.016
 5399SOL    HW117096   2.099   6.023   6.977
 5399SOL    HW217097   2.206   5.900   6.988
 5400SOL     OW17098   2.857   3.859   0.987
 5400SOL    HW117099   2.882   3.785   0.925
 5400SOL    HW217100   2.941   3.899   1.025
 5401SOL     OW17101   5.866   3.647   1.692
 5401SOL    HW117102   5.919   3.675   1.612
 5401SOL    HW217103   5.893   3.554   1.719
 5402SOL     OW17104   2.415   4.746   1.618
 5402SOL    HW117105   2.397   4.685   1.696
 5402SOL    HW217106   2.514   4.748   1.600
 5403SOL     OW17107   6.135   2.904   6.377
 5403SOL    HW117108   6.054   2.946   6.336
 5403SOL    HW217109   6.153   2.816   6.333
 5404SOL     OW17110   0.522   1.533   2.928
 5404SOL    HW117111   0.457   1.482   2.872
 5404SOL    HW217112   0.588   1.579   2.869
 5405SOL     OW17113   6.016   5.473   0.013
 5405SOL    HW117114   5.970   5.474   6.945
 5405SOL    HW217115   5.996   5.557   0.062
 5406SOL     OW17116   2.111   1.330   6.795
 5406SOL    HW117117   2.131   1.412   6.742
 5406SOL    HW217118   2.194   1.276   6.806
 5407SOL     OW17119   4.641   3.137   1.126
 5407SOL    HW117120   4.614   3.087   1.044
 5407SOL    HW217121   4.565   3.192   1.159
 5408SOL     OW17122   3.433   1.571   6.547
 5408SOL    HW117123   3.502   1.642   6.555
 5408SOL    HW217124   3.342   1.612   6.539
 5409SOL     OW17125   5.138   0.691   3.707
 5409SOL    HW117126   5.180   0.601   3.717
 5409SOL    HW217127   5.042   0.680   3.681
 5410SOL     OW17128   2.795   2.023   1.496
 5410SOL    HW117129   2.761   2.108   1.454
 5410SOL    HW217130   2.729   1.949   1.478
 5411SOL     OW17131   6.668   5.225   5.535
 5411SOL    HW117132   6.614   5.304   5.506
 5411SOL    HW217133   6.622   5.180   5.611
 5412SOL     OW17134   4.671   1.455   0.117
 5412SOL    HW117135   4.669   1.545   0.075
 5412SOL    HW217136   4.751   1.447   0.177
 5413SOL     OW17137   2.882   1.922   1.009
 5413SOL    HW117138   2.837   1.860   1.073
 5413SOL    HW217139   2.848   1.906   0.917
 5414SOL     OW17140   4.918   2.209   4.753
 5414SOL    HW117141   4.819   2.203   4.767
 5414SOL    HW217142   4.936   2.239   4.659
 5415SOL     OW17143   1.363   5.877   1.016
 5415SOL    HW117144   1.274   5.864   1.059
 5415SOL    HW217145   1.370   5.971   0.981
 5416SOL     OW17146   4.682   5.284   5.647
 5416SOL    HW117147   4.742   5.219   5.694
 5416SOL    HW217148   4.683   5.371   5.696
 5417SOL     OW17149   4.048   6.635   5.492
 5417SOL    HW117150   4.058   6.573   5.569
 5417SOL    HW217151   3.952   6.640   5.465
 5418SOL     OW17152   3.515   7.005   3.705
 5418SOL    HW117153   3.570   6.956   3.638
 5418SOL    HW217154   3.556   6.996   3.796
 5419SOL     OW17155   3.464   5.301   0.355
 5419SOL    HW117156   3.526   5.361   0.406
 5419SOL    HW217157   3.498   5.207   0.358
 5420SOL     OW17158   1.422   2.523   2.670
 5420SOL    HW117159   1.492   2.466   2.629
 5420SOL    HW217160   1.464   2.590   2.731
 5421SOL     OW17161   2.359   2.494   2.414
 5421SOL    HW117162   2.364   2.400   2.382
 5421SOL    HW217163   2.295   2.546   2.357
 5422SOL     OW17164   0.591   5.290   0.446
 5422SOL    HW117165   0.683   5.262   0.473
 5422SOL    HW217166   0.575   5.385   0.475
 5423SOL     OW17167   6.237   2.906   6.730
 5423SOL    HW117168   6.211   2.844   6.804
 5423SOL    HW217169   6.190   2.879   6.646
 5424SOL     OW17170   5.696   3.020   3.836
 5424SOL    HW117171   5.771   2.957   3.857
 5424SOL    HW217172   5.733   3.102   3.793
 5425SOL     OW17173   4.133   1.240   4.437
 5425SOL    HW117174   4.214   1.216   4.383
 5425SOL    HW217175   4.146   1.331   4.476
 5426SOL     OW17176   6.506   5.727   4.199
 5426SOL    HW117177   6.505   5.642   4.146
 5426SOL    HW217178   6.433   5.787   4.167
 5427SOL     OW17179   4.781   4.721   6.987
 5427SOL    HW117180   4.689   4.696   6.956
 5427SOL    HW217181   4.804   4.812   6.954
 5428SOL     OW17182   0.057   6.558   1.219
 5428SOL    HW117183   0.139   6.547   1.275
 5428SOL    HW217184   6.999   6.573   1.278
 5429SOL     OW17185   2.218   2.280   6.732
 5429SOL    HW117186   2.119   2.290   6.743
 5429SOL    HW217187   2.253   2.216   6.800
 5430SOL     OW17188   0.258   3.199   6.161
 5430SOL    HW117189   0.356   3.212   6.150
 5430SOL    HW217190   0.241   3.129   6.230
 5431SOL     OW17191   3.183   6.222   0.197
 5431SOL    HW117192   3.088   6.222   0.169
 5431SOL    HW217193   3.238   6.172   0.130
 5432SOL     OW17194   5.466   6.846   6.928
 5432SOL    HW117195   5.406   6.798   6.864
 5432SOL    HW217196   5.512   6.921   6.881
 5433SOL     OW17197   0.436   1.391   4.556
 5433SOL    HW117198   0.433   1.373   4.654
 5433SOL    HW217199   0.507   1.335   4.514
 5434SOL     OW17200   3.813   0.732   5.481
 5434SOL    HW117201   3.912   0.728   5.496
 5434SOL    HW217202   3.795   0.747   5.384
 5435SOL     OW17203   5.741   0.780   1.734
 5435SOL    HW117204   5.749   0.851   1.804
 5435SOL    HW217205   5.830   0.768   1.690
 5436SOL     OW17206   5.169   3.872   4.236
 5436SOL    HW117207   5.072   3.847   4.224
 5436SOL    HW217208   5.223   3.789   4.245
 5437SOL     OW17209   3.127   4.641   6.776
 5437SOL    HW117210   3.044   4.622   6.722
 5437SOL    HW217211   3.138   4.739   6.786
 5438SOL     OW17212   6.666   3.257   2.829
 5438SOL    HW117213   6.718   3.342   2.820
 5438SOL    HW217214   6.680   3.218   2.920
 5439SOL     OW17215   0.745   2.364   0.399
 5439SOL    HW117216   0.710   2.455   0.421
 5439SOL    HW217217   0.845   2.367   0.398
 5440SOL     OW17218   0.863   1.007   1.384
 5440SOL    HW117219   0.830   1.088   1.432
 5440SOL    HW217220   0.941   1.032   1.326
 5441SOL     OW17221   4.551   2.259   3.171
 5441SOL    HW117222   4.561   2.219   3.262
 5441SOL    HW217223   4.471   2.318   3.168
 5442SOL     OW17224   3.253   5.797   3.970
 5442SOL    HW117225   3.338   5.795   4.024
 5442SOL    HW217226   3.177   5.821   4.030
 5443SOL     OW17227   2.799   0.926   4.154
 5443SOL    HW117228   2.782   1.024   4.145
 5443SOL    HW217229   2.843   0.893   4.071
 5444SOL     OW17230   1.259   0.643   4.512
 5444SOL    HW117231   1.294   0.684   4.596
 5444SOL    HW217232   1.167   0.607   4.529
 5445SOL     OW17233   6.197   4.037   3.567
 5445SOL    HW117234   6.111   4.078   3.597
 5445SOL    HW217235   6.244   3.998   3.646
 5446SOL     OW17236   6.881   4.981   5.082
 5446SOL    HW117237   6.837   4.893   5.068
 5446SOL    HW217238   6.860   5.014   5.174
 5447SOL     OW17239   2.927   1.922   6.806
 5447SOL    HW117240   2.897   1.897   6.713
 5447SOL    HW217241   3.022   1.896   6.818
 5448SOL     OW17242   4.605   2.831   5.230
 5448SOL    HW117243   4.569   2.920   5.256
 5448SOL    HW217244   4.529   2.769   5.210
 5449SOL     OW17245   1.714   2.907   6.356
 5449SOL    HW117246   1.708   2.987   6.417
 5449SOL    HW217247   1.786   2.923   6.288
 5450SOL     OW17248   1.458   0.328   1.838
 5450SOL    HW117249   1.454   0.230   1.821
 5450SOL    HW217250   1.449   0.378   1.751
 5451SOL     OW17251   1.541   6.635   3.426
 5451SOL    HW117252   1.531   6.574   3.505
 5451SOL    HW217253   1.533   6.730   3.456
 5452SOL     OW17254   2.400   4.769   6.682
 5452SOL    HW117255   2.312   4.738   6.719
 5452SOL    HW217256   2.437   4.841   6.741
 5453SOL     OW17257   5.535   4.316   1.339
 5453SOL    HW117258   5.596   4.379   1.292
 5453SOL    HW217259   5.444   4.356   1.347
 5454SOL     OW17260   0.095   4.152   6.693
 5454SOL    HW117261   0.063   4.232   6.743
 5454SOL    HW217262   0.061   4.155   6.599
 5455SOL     OW17263   6.321   3.241   0.338
 5455SOL    HW117264   6.292   3.307   0.269
 5455SOL    HW217265   6.254   3.238   0.413
 5456SOL     OW17266   3.595   0.079   6.862
 5456SOL    HW117267   3.621   0.169   6.898
 5456SOL    HW217268   3.564   0.021   6.938
 5457SOL     OW17269   5.920   2.251   0.213
 5457SOL    HW117270   5.992   2.314   0.183
 5457SOL    HW217271   5.948   2.208   0.299
 5458SOL     OW17272   0.245   4.937   6.944
 5458SOL    HW117273   0.148   4.960   6.938
 5458SOL    HW217274   0.256   4.848   6.989
 5459SOL     OW17275   2.650   4.684   6.625
 5459SOL    HW117276   2.617   4.701   6.532
 5459SOL    HW217277   2.583   4.718   6.691
 5460SOL     OW17278   3.085   6.904   2.641
 5460SOL    HW117279   3.175   6.863   2.656
 5460SOL    HW217280   3.068   6.975   2.709
 5461SOL     OW17281   5.833   6.520   5.183
 5461SOL    HW117282   5.823   6.509   5.282
 5461SOL    HW217283   5.918   6.478   5.153
 5462SOL     OW17284   0.925   0.998   6.729
 5462SOL    HW117285   1.012   0.985   6.777
 5462SOL    HW217286   0.854   0.942   6.771
 5463SOL     OW17287   6.235   2.262   7.013
 5463SOL    HW117288   6.177   2.327   0.042
 5463SOL    HW217289   6.180   2.183   6.987
 5464SOL     OW17290   1.266   1.220   4.011
 5464SOL    HW117291   1.243   1.128   4.041
 5464SOL    HW217292   1.187   1.280   4.026
 5465SOL     OW17293   4.018   6.436   3.344
 5465SOL    HW117294   4.106   6.424   3.298
 5465SOL    HW217295   3.950   6.468   3.278
 5466SOL     OW17296   5.756   4.634   5.383
 5466SOL    HW117297   5.705   4.607   5.465
 5466SOL    HW217298   5.827   4.567   5.364
 5467SOL     OW17299   5.188   2.805   3.127
 5467SOL    HW117300   5.135   2.720   3.119
 5467SOL    HW217301   5.132   2.875   3.171
 5468SOL     OW17302   5.054   2.069   4.486
 5468SOL    HW117303   5.154   2.076   4.482
 5468SOL    HW217304   5.016   2.100   4.398
 5469SOL     OW17305   3.785   4.640   6.700
 5469SOL    HW117306   3.744   4.680   6.618
 5469SOL    HW217307   3.773   4.702   6.777
 5470SOL     OW17308   3.222   5.892   2.527
 5470SOL    HW117309   3.296   5.833   2.495
 5470SOL    HW217310   3.254   5.950   2.601
 5471SOL     OW17311   5.370   6.881   2.529
 5471SOL    HW117312   5.434   6.952   2.558
 5471SOL    HW217313   5.416   6.817   2.467
 5472SOL     OW17314   3.838   3.559   5.766
 5472SOL    HW117315   3.933   3.568   5.737
 5472SOL    HW217316   3.805   3.467   5.744
 5473SOL     OW17317   0.419   3.344   3.436
 5473SOL    HW117318   0.400   3.302   3.525
 5473SOL    HW217319   0.369   3.294   3.364
 5474SOL     OW17320   1.263   4.616   4.158
 5474SOL    HW117321   1.236   4.520   4.153
 5474SOL    HW217322   1.289   4.639   4.252
 5475SOL     OW17323   2.408   2.254   1.124
 5475SOL    HW117324   2.442   2.249   1.218
 5475SOL    HW217325   2.459   2.324   1.074
 5476SOL     OW17326   2.212   4.006   6.025
 5476SOL    HW117327   2.288   4.057   6.064
 5476SOL    HW217328   2.246   3.940   5.958
 5477SOL     OW17329   1.830   4.114   3.480
 5477SOL    HW117330   1.891   4.137   3.555
 5477SOL    HW217331   1.870   4.146   3.393
 5478SOL     OW17332   4.431   4.721   5.408
 5478SOL    HW117333   4.490   4.674   5.342
 5478SOL    HW217334   4.457   4.817   5.413
 5479SOL     OW17335   4.918   1.297   6.104
 5479SOL    HW117336   4.908   1.259   6.013
 5479SOL    HW217337   4.880   1.234   6.172
 5480SOL     OW17338   0.153   3.796   3.479
 5480SOL    HW117339   0.242   3.840   3.468
 5480SOL    HW217340   0.109   3.788   3.390
 5481SOL     OW17341   3.728   1.041   4.149
 5481SOL    HW117342   3.710   1.118   4.210
 5481SOL    HW217343   3.827   1.031   4.137
 5482SOL     OW17344   3.721   4.502   1.588
 5482SOL    HW117345   3.780   4.450   1.649
 5482SOL    HW217346   3.653   4.553   1.641
 5483SOL     OW17347   0.465   2.457   5.853
 5483SOL    HW117348   0.538   2.397   5.887
 5483SOL    HW217349   0.470   2.546   5.898
 5484SOL     OW17350   4.733   0.891   4.832
 5484SOL    HW117351   4.756   0.978   4.875
 5484SOL    HW217352   4.814   0.833   4.828
 5485SOL     OW17353   4.386   0.388   5.552
 5485SOL    HW117354   4.430   0.305   5.587
 5485SOL    HW217355   4.290   0.388   5.577
 5486SOL     OW17356   2.891   5.898   5.587
 5486SOL    HW117357   2.982   5.870   5.556
 5486SOL    HW217358   2.822   5.842   5.541
 5487SOL     OW17359   2.896   3.710   6.558
 5487SOL    HW117360   2.986   3.739   6.524
 5487SOL    HW217361   2.886   3.611   6.545
 5488SOL     OW17362   6.495   0.938   0.483
 5488SOL    HW117363   6.440   0.916   0.402
 5488SOL    HW217364   6.453   1.016   0.531
 5489SOL     OW17365   6.158   3.477   1.853
 5489SOL    HW117366   6.212   3.397   1.879
 5489SOL    HW217367   6.210   3.533   1.789
 5490SOL     OW17368   1.778   0.068   2.282
 5490SOL    HW117369   1.820   0.138   2.225
 5490SOL    HW217370   1.828   7.003   2.273
 5491SOL     OW17371   0.521   2.882   0.773
 5491SOL    HW117372   0.425   2.889   0.745
 5491SOL    HW217373   0.577   2.934   0.709
 5492SOL     OW17374   1.158   3.009   5.612
 5492SOL    HW117375   1.254   3.014   5.639
 5492SOL    HW217376   1.120   3.101   5.609
 5493SOL     OW17377   4.084   3.708   2.289
 5493SOL    HW117378   4.182   3.710   2.309
 5493SOL    HW217379   4.033   3.691   2.373
 5494SOL     OW17380   6.756   4.016   5.079
 5494SOL    HW117381   6.712   4.095   5.037
 5494SOL    HW217382   6.753   3.939   5.015
 5495SOL     OW17383   5.712   0.849   1.121
 5495SOL    HW117384   5.786   0.861   1.055
 5495SOL    HW217385   5.729   0.769   1.178
 5496SOL     OW17386   4.639   0.366   3.926
 5496SOL    HW117387   4.544   0.386   3.951
 5496SOL    HW217388   4.667   0.424   3.849
 5497SOL     OW17389   0.223   1.312   5.431
 5497SOL    HW117390   0.282   1.231   5.436
 5497SOL    HW217391   0.245   1.373   5.507
 5498SOL     OW17392   0.247   5.018   1.562
 5498SOL    HW117393   0.159   5.004   1.517
 5498SOL    HW217394   0.303   5.081   1.508
 5499SOL     OW17395   0.494   0.616   3.644
 5499SOL    HW117396   0.526   0.683   3.711
 5499SOL    HW217397   0.564   0.546   3.631
 5500SOL     OW17398   1.526   0.658   0.096
 5500SOL    HW117399   1.561   0.631   0.006
 5500SOL    HW217400   1.508   0.756   0.097
 5501SOL     OW17401   4.023   2.225   0.664
 5501SOL    HW117402   4.039   2.161   0.739
 5501SOL    HW217403   4.029   2.319   0.699
 5502SOL     OW17404   5.358   3.874   6.347
 5502SOL    HW117405   5.401   3.956   6.385
 5502SOL    HW217406   5.424   3.825   6.290
 5503SOL     OW17407   0.274   4.205   1.292
 5503SOL    HW117408   0.282   4.210   1.193
 5503SOL    HW217409   0.333   4.275   1.334
 5504SOL     OW17410   4.417   1.605   5.751
 5504SOL    HW117411   4.471   1.640   5.675
 5504SOL    HW217412   4.468   1.532   5.797
 5505SOL     OW17413   2.323   4.280   3.753
 5505SOL    HW117414   2.405   4.293   3.809
 5505SOL    HW217415   2.335   4.326   3.666
 5506SOL     OW17416   6.880   3.429   6.992
 5506SOL    HW117417   6.805   3.367   6.970
 5506SOL    HW217418   6.862   3.520   6.953
 5507SOL     OW17419   3.765   0.859   6.243
 5507SOL    HW117420   3.840   0.793   6.232
 5507SOL    HW217421   3.780   0.936   6.182
 5508SOL     OW17422   1.294   0.696   0.299
 5508SOL    HW117423   1.207   0.671   0.342
 5508SOL    HW217424   1.277   0.730   0.207
 5509SOL     OW17425   0.527   5.679   0.979
 5509SOL    HW117426   0.478   5.765   0.995
 5509SOL    HW217427   0.510   5.617   1.056
 5510SOL     OW17428   5.212   5.321   6.330
 5510SOL    HW117429   5.308   5.300   6.347
 5510SOL    HW217430   5.167   5.344   6.416
 5511SOL     OW17431   0.823   1.160   5.371
 5511SOL    HW117432   0.835   1.245   5.423
 5511SOL    HW217433   0.865   1.171   5.281
 5512SOL     OW17434   3.751   1.024   1.080
 5512SOL    HW117435   3.848   1.021   1.105
 5512SOL    HW217436   3.701   1.081   1.144
 5513SOL     OW17437   2.889   4.676   6.048
 5513SOL    HW117438   2.921   4.603   6.108
 5513SOL    HW217439   2.857   4.753   6.103
 5514SOL     OW17440   3.794   6.746   5.105
 5514SOL    HW117441   3.818   6.682   5.177
 5514SOL    HW217442   3.837   6.834   5.122
 5515SOL     OW17443   1.850   5.996   2.150
 5515SOL    HW117444   1.753   6.016   2.161
 5515SOL    HW217445   1.896   5.998   2.239
 5516SOL     OW17446   2.381   2.716   5.112
 5516SOL    HW117447   2.310   2.691   5.046
 5516SOL    HW217448   2.389   2.815   5.116
 5517SOL     OW17449   1.592   3.508   2.155
 5517SOL    HW117450   1.602   3.451   2.236
 5517SOL    HW217451   1.664   3.577   2.154
 5518SOL     OW17452   6.112   4.950   5.915
 5518SOL    HW117453   6.077   4.866   5.872
 5518SOL    HW217454   6.196   4.929   5.965
 5519SOL     OW17455   5.149   2.910   3.712
 5519SOL    HW117456   5.166   2.892   3.615
 5519SOL    HW217457   5.228   2.955   3.752
 5520SOL     OW17458   5.534   6.143   2.568
 5520SOL    HW117459   5.624   6.185   2.559
 5520SOL    HW217460   5.474   6.176   2.495
 5521SOL     OW17461   5.357   5.891   1.508
 5521SOL    HW117462   5.387   5.802   1.544
 5521SOL    HW217463   5.283   5.876   1.443
 5522SOL     OW17464   6.642   5.449   1.741
 5522SOL    HW117465   6.666   5.489   1.653
 5522SOL    HW217466   6.572   5.506   1.785
 5523SOL     OW17467   5.090   0.707   2.709
 5523SOL    HW117468   5.159   0.725   2.779
 5523SOL    HW217469   5.089   0.609   2.689
 5524SOL     OW17470   3.960   0.059   5.579
 5524SOL    HW117471   3.886   7.015   5.596
 5524SOL    HW217472   4.048   0.011   5.586
 5525SOL     OW17473   6.986   3.036   0.594
 5525SOL    HW117474   6.952   3.121   0.635
 5525SOL    HW217475   6.935   2.958   0.633
 5526SOL     OW17476   4.660   4.262   3.140
 5526SOL    HW117477   4.664   4.221   3.049
 5526SOL    HW217478   4.702   4.199   3.206
 5527SOL     OW17479   4.942   3.350   3.949
 5527SOL    HW117480   4.939   3.449   3.962
 5527SOL    HW217481   4.928   3.329   3.853
 5528SOL     OW17482   1.119   1.388   1.617
 5528SOL    HW117483   1.037   1.359   1.667
 5528SOL    HW217484   1.148   1.478   1.650
 5529SOL     OW17485   2.380   6.910   3.630
 5529SOL    HW117486   2.425   6.836   3.680
 5529SOL    HW217487   2.316   6.872   3.564
 5530SOL     OW17488   6.839   2.560   2.300
 5530SOL    HW117489   6.925   2.540   2.254
 5530SOL    HW217490   6.787   2.627   2.246
 5531SOL     OW17491   4.003   4.349   1.618
 5531SOL    HW117492   4.061   4.272   1.594
 5531SOL    HW217493   4.048   4.435   1.593
 5532SOL     OW17494   1.912   2.650   0.294
 5532SOL    HW117495   1.840   2.667   0.228
 5532SOL    HW217496   1.883   2.578   0.358
 5533SOL     OW17497   4.995   1.382   4.193
 5533SOL    HW117498   4.956   1.454   4.250
 5533SOL    HW217499   5.095   1.385   4.198
 5534SOL     OW17500   0.911   1.379   5.774
 5534SOL    HW117501   0.984   1.324   5.733
 5534SOL    HW217502   0.884   1.338   5.861
 5535SOL     OW17503   0.773   1.279   2.544
 5535SOL    HW117504   0.839   1.324   2.483
 5535SOL    HW217505   0.682   1.283   2.502
 5536SOL     OW17506   3.536   0.628   4.445
 5536SOL    HW117507   3.530   0.714   4.393
 5536SOL    HW217508   3.616   0.576   4.414
 5537SOL     OW17509   3.732   1.463   2.578
 5537SOL    HW117510   3.718   1.541   2.517
 5537SOL    HW217511   3.817   1.416   2.552
 5538SOL     OW17512   4.501   5.662   4.653
 5538SOL    HW117513   4.410   5.675   4.691
 5538SOL    HW217514   4.494   5.611   4.566
 5539SOL     OW17515   1.931   3.269   1.044
 5539SOL    HW117516   1.904   3.173   1.047
 5539SOL    HW217517   2.002   3.286   1.112
 5540SOL     OW17518   4.840   4.728   3.711
 5540SOL    HW117519   4.914   4.790   3.734
 5540SOL    HW217520   4.835   4.655   3.779
 5541SOL     OW17521   4.190   1.878   6.358
 5541SOL    HW117522   4.250   1.798   6.348
 5541SOL    HW217523   4.186   1.905   6.454
 5542SOL     OW17524   3.943   3.454   6.103
 5542SOL    HW117525   3.922   3.378   6.042
 5542SOL    HW217526   4.038   3.482   6.090
 5543SOL     OW17527   6.091   3.859   6.584
 5543SOL    HW117528   6.039   3.944   6.586
 5543SOL    HW217529   6.177   3.874   6.536
 5544SOL     OW17530   5.515   0.651   5.805
 5544SOL    HW117531   5.526   0.611   5.896
 5544SOL    HW217532   5.604   0.655   5.760
 5545SOL     OW17533   4.115   2.248   2.579
 5545SOL    HW117534   4.182   2.294   2.638
 5545SOL    HW217535   4.164   2.194   2.511
 5546SOL     OW17536   1.793   5.101   5.788
 5546SOL    HW117537   1.830   5.140   5.703
 5546SOL    HW217538   1.798   5.169   5.861
 5547SOL     OW17539   3.236   5.759   5.221
 5547SOL    HW117540   3.330   5.757   5.254
 5547SOL    HW217541   3.227   5.699   5.142
 5548SOL     OW17542   6.082   3.544   5.547
 5548SOL    HW117543   6.069   3.640   5.524
 5548SOL    HW217544   6.169   3.512   5.508
 5549SOL     OW17545   3.359   5.166   6.723
 5549SOL    HW117546   3.420   5.243   6.704
 5549SOL    HW217547   3.320   5.176   6.814
 5550SOL     OW17548   2.285   5.784   1.341
 5550SOL    HW117549   2.239   5.871   1.358
 5550SOL    HW217550   2.335   5.756   1.423
 5551SOL     OW17551   1.463   0.891   3.346
 5551SOL    HW117552   1.563   0.884   3.349
 5551SOL    HW217553   1.435   0.984   3.369
 5552SOL     OW17554   0.048   1.798   0.788
 5552SOL    HW117555   6.994   1.778   0.851
 5552SOL    HW217556   0.069   1.716   0.735
 5553SOL     OW17557   4.124   6.617   0.111
 5553SOL    HW117558   4.208   6.616   0.057
 5553SOL    HW217559   4.049   6.582   0.055
 5554SOL     OW17560   2.841   2.347   5.185
 5554SOL    HW117561   2.928   2.337   5.137
 5554SOL    HW217562   2.773   2.288   5.143
 5555SOL     OW17563   0.284   5.410   3.379
 5555SOL    HW117564   0.370   5.377   3.341
 5555SOL    HW217565   0.281   5.510   3.374
 5556SOL     OW17566   0.908   1.923   5.099
 5556SOL    HW117567   1.001   1.939   5.068
 5556SOL    HW217568   0.886   1.985   5.175
 5557SOL     OW17569   1.988   6.222   3.630
 5557SOL    HW117570   1.958   6.132   3.598
 5557SOL    HW217571   1.922   6.291   3.598
 5558SOL     OW17572   5.507   2.765   4.907
 5558SOL    HW117573   5.427   2.768   4.847
 5558SOL    HW217574   5.590   2.770   4.852
 5559SOL     OW17575   2.092   0.386   0.931
 5559SOL    HW117576   2.099   0.289   0.955
 5559SOL    HW217577   2.019   0.397   0.864
 5560SOL     OW17578   0.245   1.213   3.517
 5560SOL    HW117579   0.277   1.253   3.603
 5560SOL    HW217580   0.250   1.282   3.445
 5561SOL     OW17581   1.518   3.147   3.626
 5561SOL    HW117582   1.583   3.087   3.672
 5561SOL    HW217583   1.431   3.099   3.613
 5562SOL     OW17584   2.269   2.944   5.824
 5562SOL    HW117585   2.303   2.966   5.916
 5562SOL    HW217586   2.204   2.868   5.831
 5563SOL     OW17587   4.415   6.360   2.420
 5563SOL    HW117588   4.429   6.380   2.517
 5563SOL    HW217589   4.319   6.338   2.404
 5564SOL     OW17590   4.954   4.012   1.604
 5564SOL    HW117591   4.943   4.043   1.698
 5564SOL    HW217592   4.864   4.007   1.560
 5565SOL     OW17593   3.686   2.253   5.540
 5565SOL    HW117594   3.598   2.249   5.493
 5565SOL    HW217595   3.759   2.257   5.473
 5566SOL     OW17596   2.161   5.226   1.176
 5566SOL    HW117597   2.122   5.316   1.196
 5566SOL    HW217598   2.089   5.167   1.140
 5567SOL     OW17599   1.524   5.730   1.381
 5567SOL    HW117600   1.592   5.675   1.428
 5567SOL    HW217601   1.541   5.728   1.282
 5568SOL     OW17602   4.554   1.279   1.487
 5568SOL    HW117603   4.545   1.332   1.403
 5568SOL    HW217604   4.491   1.314   1.556
 5569SOL     OW17605   3.894   1.483   1.168
 5569SOL    HW117606   3.993   1.493   1.156
 5569SOL    HW217607   3.872   1.485   1.266
 5570SOL     OW17608   6.262   4.394   5.428
 5570SOL    HW117609   6.336   4.379   5.362
 5570SOL    HW217610   6.197   4.319   5.422
 5571SOL     OW17611   6.833   5.495   0.732
 5571SOL    HW117612   6.747   5.541   0.752
 5571SOL    HW217613   6.852   5.426   0.802
 5572SOL     OW17614   4.448   2.322   6.402
 5572SOL    HW117615   4.517   2.340   6.331
 5572SOL    HW217616   4.398   2.406   6.423
 5573SOL     OW17617   0.833   3.810   0.881
 5573SOL    HW117618   0.802   3.816   0.976
 5573SOL    HW217619   0.796   3.727   0.839
 5574SOL     OW17620   0.821   6.170   4.904
 5574SOL    HW117621   0.758   6.170   4.826
 5574SOL    HW217622   0.807   6.254   4.958
 5575SOL     OW17623   0.887   1.005   0.628
 5575SOL    HW117624   0.822   0.955   0.685
 5575SOL    HW217625   0.963   1.037   0.684
 5576SOL     OW17626   5.713   6.283   0.386
 5576SOL    HW117627   5.770   6.356   0.349
 5576SOL    HW217628   5.649   6.251   0.316
 5577SOL     OW17629   2.015   3.969   5.395
 5577SOL    HW117630   1.948   3.987   5.323
 5577SOL    HW217631   2.100   4.017   5.373
 5578SOL     OW17632   4.308   2.983   0.334
 5578SOL    HW117633   4.317   2.966   0.236
 5578SOL    HW217634   4.389   3.032   0.367
 5579SOL     OW17635   5.375   3.545   6.952
 5579SOL    HW117636   5.461   3.512   6.990
 5579SOL    HW217637   5.394   3.620   6.888
 5580SOL     OW17638   5.355   1.078   0.347
 5580SOL    HW117639   5.398   1.166   0.368
 5580SOL    HW217640   5.399   1.005   0.400
 5581SOL     OW17641   2.102   1.059   6.256
 5581SOL    HW117642   2.120   1.082   6.351
 5581SOL    HW217643   2.010   1.019   6.249
 5582SOL     OW17644   3.403   3.241   3.506
 5582SOL    HW117645   3.446   3.210   3.421
 5582SOL    HW217646   3.341   3.316   3.487
 5583SOL     OW17647   3.854   0.418   1.257
 5583SOL    HW117648   3.931   0.365   1.291
 5583SOL    HW217649   3.796   0.359   1.200
 5584SOL     OW17650   6.785   3.709   2.993
 5584SOL    HW117651   6.701   3.657   2.977
 5584SOL    HW217652   6.763   3.794   3.040
 5585SOL     OW17653   6.176   0.456   4.301
 5585SOL    HW117654   6.244   0.472   4.372
 5585SOL    HW217655   6.125   0.540   4.284
 5586SOL     OW17656   2.235   0.882   5.502
 5586SOL    HW117657   2.267   0.895   5.596
 5586SOL    HW217658   2.158   0.818   5.501
 5587SOL     OW17659   4.045   0.610   3.921
 5587SOL    HW117660   4.114   0.561   3.973
 5587SOL    HW217661   3.996   0.547   3.862
 5588SOL     OW17662   2.439   0.127   5.867
 5588SOL    HW117663   2.415   0.164   5.777
 5588SOL    HW217664   2.398   0.036   5.878
 5589SOL     OW17665   4.395   2.825   5.843
 5589SOL    HW117666   4.445   2.888   5.902
 5589SOL    HW217667   4.372   2.871   5.757
 5590SOL     OW17668   0.423   5.917   4.466
 5590SOL    HW117669   0.452   5.914   4.370
 5590SOL    HW217670   0.456   5.835   4.513
 5591SOL     OW17671   5.426   0.200   0.293
 5591SOL    HW117672   5.453   0.114   0.336
 5591SOL    HW217673   5.407   0.268   0.364
 5592SOL     OW17674   1.866   3.115   2.555
 5592SOL    HW117675   1.958   3.088   2.527
 5592SOL    HW217676   1.870   3.160   2.644
 5593SOL     OW17677   2.001   2.355   5.928
 5593SOL    HW117678   2.064   2.402   5.989
 5593SOL    HW217679   1.907   2.377   5.953
 5594SOL     OW17680   2.226   0.499   0.580
 5594SOL    HW117681   2.308   0.447   0.603
 5594SOL    HW217682   2.155   0.437   0.546
 5595SOL     OW17683   0.020   2.396   5.992
 5595SOL    HW117684   0.116   2.366   5.986
 5595SOL    HW217685   0.010   2.483   5.945
 5596SOL     OW17686   4.988   0.249   2.962
 5596SOL    HW117687   4.954   0.343   2.959
 5596SOL    HW217688   5.070   0.245   3.018
 5597SOL     OW17689   6.664   0.929   6.172
 5597SOL    HW117690   6.691   1.020   6.201
 5597SOL    HW217691   6.734   0.889   6.113
 5598SOL     OW17692   6.393   1.899   3.758
 5598SOL    HW117693   6.353   1.851   3.681
 5598SOL    HW217694   6.492   1.908   3.745
 5599SOL     OW17695   4.852   3.890   2.477
 5599SOL    HW117696   4.763   3.862   2.512
 5599SOL    HW217697   4.857   3.868   2.379
 5600SOL     OW17698   2.348   1.154   2.551
 5600SOL    HW117699   2.345   1.077   2.488
 5600SOL    HW217700   2.330   1.239   2.501
 5601SOL     OW17701   5.346   3.143   5.692
 5601SOL    HW117702   5.312   3.186   5.608
 5601SOL    HW217703   5.378   3.214   5.755
 5602SOL     OW17704   0.287   2.392   3.196
 5602SOL    HW117705   0.226   2.313   3.193
 5602SOL    HW217706   0.374   2.369   3.153
 5603SOL     OW17707   4.289   2.239   4.563
 5603SOL    HW117708   4.221   2.264   4.494
 5603SOL    HW217709   4.367   2.196   4.518
 5604SOL     OW17710   0.540   0.172   3.780
 5604SOL    HW117711   0.480   0.253   3.776
 5604SOL    HW217712   0.492   0.098   3.827
 5605SOL     OW17713   2.888   5.986   4.516
 5605SOL    HW117714   2.824   6.053   4.479
 5605SOL    HW217715   2.840   5.899   4.530
 5606SOL     OW17716   4.740   2.176   0.407
 5606SOL    HW117717   4.693   2.238   0.344
 5606SOL    HW217718   4.759   2.223   0.493
 5607SOL     OW17719   5.887   2.735   2.047
 5607SOL    HW117720   5.823   2.809   2.028
 5607SOL    HW217721   5.953   2.728   1.972
 5608SOL     OW17722   4.293   1.111   3.368
 5608SOL    HW117723   4.349   1.193   3.381
 5608SOL    HW217724   4.196   1.136   3.365
 5609SOL     OW17725   6.561   6.813   1.115
 5609SOL    HW117726   6.477   6.792   1.065
 5609SOL    HW217727   6.638   6.814   1.051
 5610SOL     OW17728   5.065   4.341   0.137
 5610SOL    HW117729   5.052   4.242   0.145
 5610SOL    HW217730   5.002   4.378   0.069
 5611SOL     OW17731   6.993   4.925   1.495
 5611SOL    HW117732   7.011   4.858   1.423
 5611SOL    HW217733   6.936   4.998   1.458
 5612SOL     OW17734   2.855   0.730   0.866
 5612SOL    HW117735   2.950   0.706   0.883
 5612SOL    HW217736   2.796   0.651   0.885
 5613SOL     OW17737   6.540   5.445   5.404
 5613SOL    HW117738   6.522   5.483   5.495
 5613SOL    HW217739   6.520   5.513   5.334
 5614SOL     OW17740   6.021   1.936   4.297
 5614SOL    HW117741   5.978   1.872   4.233
 5614SOL    HW217742   6.094   1.889   4.347
 5615SOL     OW17743   0.367   3.222   3.011
 5615SOL    HW117744   0.465   3.204   3.017
 5615SOL    HW217745   0.328   3.227   3.103
 5616SOL     OW17746   1.899   3.244   2.800
 5616SOL    HW117747   1.964   3.316   2.826
 5616SOL    HW217748   1.876   3.189   2.880
 5617SOL     OW17749   2.030   5.033   6.635
 5617SOL    HW117750   2.043   5.008   6.540
 5617SOL    HW217751   1.947   5.090   6.643
 5618SOL     OW17752   6.656   5.868   3.704
 5618SOL    HW117753   6.709   5.883   3.788
 5618SOL    HW217754   6.705   5.907   3.626
 5619SOL     OW17755   3.705   3.259   4.201
 5619SOL    HW117756   3.668   3.194   4.135
 5619SOL    HW217757   3.666   3.241   4.291
 5620SOL     OW17758   5.054   4.452   5.673
 5620SOL    HW117759   4.974   4.505   5.703
 5620SOL    HW217760   5.041   4.424   5.578
 5621SOL     OW17761   1.814   2.195   5.280
 5621SOL    HW117762   1.839   2.153   5.367
 5621SOL    HW217763   1.898   2.221   5.231
 5622SOL     OW17764   4.889   5.889   4.996
 5622SOL    HW117765   4.830   5.962   5.030
 5622SOL    HW217766   4.834   5.819   4.950
 5623SOL     OW17767   5.147   6.187   4.104
 5623SOL    HW117768   5.182   6.277   4.129
 5623SOL    HW217769   5.079   6.158   4.171
 5624SOL     OW17770   6.911   4.766   4.526
 5624SOL    HW117771   6.920   4.746   4.624
 5624SOL    HW217772   7.002   4.764   4.484
 5625SOL     OW17773   1.149   5.876   4.776
 5625SOL    HW117774   1.131   5.914   4.868
 5625SOL    HW217775   1.188   5.947   4.718
 5626SOL     OW17776   1.946   3.980   4.575
 5626SOL    HW117777   1.924   3.883   4.573
 5626SOL    HW217778   2.029   3.994   4.629
 5627SOL     OW17779   1.050   5.386   0.075
 5627SOL    HW117780   0.966   5.417   0.121
 5627SOL    HW217781   1.128   5.438   0.109
 5628SOL     OW17782   2.387   2.770   1.092
 5628SOL    HW117783   2.322   2.840   1.120
 5628SOL    HW217784   2.427   2.726   1.172
 5629SOL     OW17785   5.206   3.906   1.490
 5629SOL    HW117786   5.298   3.917   1.529
 5629SOL    HW217787   5.139   3.947   1.552
 5630SOL     OW17788   2.657   4.002   6.701
 5630SOL    HW117789   2.563   4.007   6.735
 5630SOL    HW217790   2.656   3.977   6.604
 5631SOL     OW17791   4.700   1.047   1.515
 5631SOL    HW117792   4.658   1.137   1.502
 5631SOL    HW217793   4.655   1.001   1.591
 5632SOL     OW17794   5.720   0.041   6.138
 5632SOL    HW117795   5.692   7.017   6.223
 5632SOL    HW217796   5.677   7.017   6.060
 5633SOL     OW17797   0.657   5.155   5.695
 5633SOL    HW117798   0.599   5.080   5.663
 5633SOL    HW217799   0.600   5.237   5.709
 5634SOL     OW17800   2.959   6.816   0.330
 5634SOL    HW117801   3.017   6.861   0.261
 5634SOL    HW217802   3.018   6.772   0.398
 5635SOL     OW17803   2.485   0.391   6.802
 5635SOL    HW117804   2.568   0.354   6.844
 5635SOL    HW217805   2.453   0.328   6.731
 5636SOL     OW17806   6.338   1.649   5.643
 5636SOL    HW117807   6.379   1.648   5.551
 5636SOL    HW217808   6.250   1.603   5.641
 5637SOL     OW17809   5.172   6.622   4.390
 5637SOL    HW117810   5.220   6.705   4.365
 5637SOL    HW217811   5.149   6.624   4.488
 5638SOL     OW17812   5.196   5.389   0.929
 5638SOL    HW117813   5.204   5.404   0.830
 5638SOL    HW217814   5.283   5.412   0.973
 5639SOL     OW17815   0.545   0.459   1.286
 5639SOL    HW117816   0.594   0.417   1.210
 5639SOL    HW217817   0.469   0.513   1.252
 5640SOL     OW17818   2.979   5.796   3.431
 5640SOL    HW117819   2.930   5.858   3.370
 5640SOL    HW217820   3.055   5.754   3.381
 5641SOL     OW17821   0.546   4.450   4.021
 5641SOL    HW117822   0.514   4.383   4.088
 5641SOL    HW217823   0.627   4.414   3.974
 5642SOL     OW17824   1.678   4.571   0.436
 5642SOL    HW117825   1.688   4.495   0.501
 5642SOL    HW217826   1.590   4.616   0.452
 5643SOL     OW17827   4.441   2.066   4.411
 5643SOL    HW117828   4.407   1.986   4.361
 5643SOL    HW217829   4.534   2.047   4.445
 5644SOL     OW17830   4.503   1.459   5.033
 5644SOL    HW117831   4.527   1.400   4.956
 5644SOL    HW217832   4.421   1.512   5.010
 5645SOL     OW17833   5.911   5.567   3.624
 5645SOL    HW117834   5.844   5.493   3.629
 5645SOL    HW217835   5.898   5.629   3.701
 5646SOL     OW17836   0.521   6.389   3.395
 5646SOL    HW117837   0.494   6.333   3.474
 5646SOL    HW217838   0.618   6.374   3.375
 5647SOL     OW17839   5.912   5.536   6.783
 5647SOL    HW117840   5.928   5.635   6.792
 5647SOL    HW217841   5.832   5.521   6.725
 5648SOL     OW17842   1.745   1.770   3.766
 5648SOL    HW117843   1.738   1.844   3.834
 5648SOL    HW217844   1.822   1.790   3.704
 5649SOL     OW17845   1.010   0.950   4.967
 5649SOL    HW117846   1.088   0.986   4.916
 5649SOL    HW217847   1.006   0.993   5.057
 5650SOL     OW17848   6.755   4.724   6.486
 5650SOL    HW117849   6.764   4.823   6.478
 5650SOL    HW217850   6.698   4.702   6.565
 5651SOL     OW17851   0.049   1.281   1.991
 5651SOL    HW117852   0.073   1.336   2.072
 5651SOL    HW217853   7.000   1.328   1.938
 5652SOL     OW17854   4.812   5.379   1.867
 5652SOL    HW117855   4.769   5.289   1.880
 5652SOL    HW217856   4.807   5.404   1.770
 5653SOL     OW17857   0.071   5.675   5.351
 5653SOL    HW117858   0.099   5.737   5.278
 5653SOL    HW217859   0.013   5.603   5.314
 5654SOL     OW17860   6.814   0.511   5.393
 5654SOL    HW117861   6.879   0.473   5.459
 5654SOL    HW217862   6.725   0.467   5.403
 5655SOL     OW17863   0.744   3.529   4.052
 5655SOL    HW117864   0.761   3.491   4.142
 5655SOL    HW217865   0.668   3.480   4.009
 5656SOL     OW17866   3.477   3.312   0.687
 5656SOL    HW117867   3.438   3.382   0.746
 5656SOL    HW217868   3.574   3.299   0.709
 5657SOL     OW17869   3.723   0.154   1.663
 5657SOL    HW117870   3.782   0.074   1.656
 5657SOL    HW217871   3.780   0.237   1.665
 5658SOL     OW17872   3.776   6.893   5.627
 5658SOL    HW117873   3.696   6.901   5.568
 5658SOL    HW217874   3.747   6.876   5.721
 5659SOL     OW17875   3.114   3.578   2.681
 5659SOL    HW117876   3.190   3.614   2.627
 5659SOL    HW217877   3.050   3.531   2.620
 5660SOL     OW17878   4.577   0.483   6.679
 5660SOL    HW117879   4.567   0.412   6.609
 5660SOL    HW217880   4.490   0.531   6.689
 5661SOL     OW17881   0.006   6.087   4.511
 5661SOL    HW117882   6.971   6.037   4.443
 5661SOL    HW217883   6.969   6.154   4.558
 5662SOL     OW17884   2.395   4.596   3.950
 5662SOL    HW117885   2.298   4.622   3.952
 5662SOL    HW217886   2.451   4.672   3.983
 5663SOL     OW17887   0.861   4.083   0.808
 5663SOL    HW117888   0.848   3.992   0.848
 5663SOL    HW217889   0.936   4.080   0.743
 5664SOL     OW17890   7.004   4.524   2.574
 5664SOL    HW117891   6.947   4.445   2.551
 5664SOL    HW217892   7.015   4.582   2.493
 5665SOL     OW17893   2.347   2.988   6.098
 5665SOL    HW117894   2.407   3.065   6.080
 5665SOL    HW217895   2.397   2.917   6.147
 5666SOL     OW17896   5.014   5.688   0.512
 5666SOL    HW117897   5.006   5.750   0.590
 5666SOL    HW217898   5.047   5.738   0.432
 5667SOL     OW17899   6.700   5.097   3.191
 5667SOL    HW117900   6.739   5.145   3.269
 5667SOL    HW217901   6.773   5.051   3.140
 5668SOL     OW17902   4.828   2.027   6.130
 5668SOL    HW117903   4.792   2.088   6.201
 5668SOL    HW217904   4.828   2.076   6.042
 5669SOL     OW17905   0.826   4.854   6.063
 5669SOL    HW117906   0.729   4.831   6.076
 5669SOL    HW217907   0.878   4.770   6.046
 5670SOL     OW17908   0.574   3.208   4.543
 5670SOL    HW117909   0.579   3.183   4.446
 5670SOL    HW217910   0.664   3.199   4.585
 5671SOL     OW17911   2.276   0.363   6.573
 5671SOL    HW117912   2.207   0.318   6.630
 5671SOL    HW217913   2.263   0.338   6.477
 5672SOL     OW17914   5.244   4.009   5.951
 5672SOL    HW117915   5.261   3.927   6.005
 5672SOL    HW217916   5.257   4.090   6.009
 5673SOL     OW17917   0.137   0.367   2.105
 5673SOL    HW117918   0.141   0.371   2.205
 5673SOL    HW217919   0.042   0.380   2.075
 5674SOL     OW17920   6.724   3.268   1.560
 5674SOL    HW117921   6.679   3.328   1.494
 5674SOL    HW217922   6.815   3.306   1.582
 5675SOL     OW17923   4.552   2.341   5.429
 5675SOL    HW117924   4.646   2.359   5.459
 5675SOL    HW217925   4.552   2.262   5.367
 5676SOL     OW17926   2.100   7.007   1.623
 5676SOL    HW117927   2.116   0.081   1.651
 5676SOL    HW217928   2.147   6.946   1.687
 5677SOL     OW17929   6.308   0.824   3.869
 5677SOL    HW117930   6.358   0.876   3.938
 5677SOL    HW217931   6.273   0.886   3.799
 5678SOL     OW17932   3.585   0.164   2.695
 5678SOL    HW117933   3.665   0.220   2.714
 5678SOL    HW217934   3.539   0.141   2.781
 5679SOL     OW17935   1.970   6.701   5.098
 5679SOL    HW117936   1.906   6.625   5.109
 5679SOL    HW217937   1.941   6.778   5.155
 5680SOL     OW17938   1.573   5.561   6.320
 5680SOL    HW117939   1.520   5.598   6.243
 5680SOL    HW217940   1.621   5.636   6.366
 5681SOL     OW17941   1.412   1.948   6.423
 5681SOL    HW117942   1.389   2.043   6.402
 5681SOL    HW217943   1.332   1.903   6.464
 5682SOL     OW17944   1.735   2.393   6.017
 5682SOL    HW117945   1.705   2.445   5.937
 5682SOL    HW217946   1.693   2.431   6.099
 5683SOL     OW17947   3.395   2.957   6.335
 5683SOL    HW117948   3.324   2.957   6.406
 5683SOL    HW217949   3.485   2.952   6.378
 5684SOL     OW17950   3.803   3.650   3.880
 5684SOL    HW117951   3.716   3.652   3.929
 5684SOL    HW217952   3.791   3.690   3.789
 5685SOL     OW17953   0.341   4.767   2.526
 5685SOL    HW117954   0.436   4.737   2.538
 5685SOL    HW217955   0.305   4.730   2.440
 5686SOL     OW17956   4.026   6.982   0.855
 5686SOL    HW117957   4.084   7.013   0.931
 5686SOL    HW217958   3.986   6.894   0.877
 5687SOL     OW17959   5.483   4.348   5.194
 5687SOL    HW117960   5.399   4.360   5.139
 5687SOL    HW217961   5.561   4.383   5.143
 5688SOL     OW17962   5.425   2.120   1.462
 5688SOL    HW117963   5.502   2.110   1.524
 5688SOL    HW217964   5.424   2.043   1.398
 5689SOL     OW17965   4.944   1.442   0.714
 5689SOL    HW117966   4.961   1.434   0.812
 5689SOL    HW217967   4.847   1.424   0.696
 5690SOL     OW17968   4.443   5.882   0.729
 5690SOL    HW117969   4.501   5.820   0.676
 5690SOL    HW217970   4.497   5.922   0.804
 5691SOL     OW17971   2.880   6.861   2.420
 5691SOL    HW117972   2.953   6.912   2.466
 5691SOL    HW217973   2.892   6.763   2.437
 5692SOL     OW17974   6.735   2.424   5.843
 5692SOL    HW117975   6.766   2.387   5.931
 5692SOL    HW217976   6.814   2.444   5.785
 5693SOL     OW17977   4.705   2.628   2.763
 5693SOL    HW117978   4.725   2.725   2.779
 5693SOL    HW217979   4.697   2.613   2.664
 5694SOL     OW17980   0.079   0.990   3.525
 5694SOL    HW117981   0.003   1.021   3.468
 5694SOL    HW217982   0.136   1.068   3.551
 5695SOL     OW17983   1.129   2.413   3.659
 5695SOL    HW117984   1.150   2.321   3.625
 5695SOL    HW217985   1.064   2.406   3.735
 5696SOL     OW17986   2.599   1.656   5.196
 5696SOL    HW117987   2.575   1.573   5.146
 5696SOL    HW217988   2.647   1.631   5.280
 5697SOL     OW17989   6.730   2.296   0.926
 5697SOL    HW117990   6.708   2.376   0.871
 5697SOL    HW217991   6.654   2.231   0.923
 5698SOL     OW17992   1.090   2.812   2.027
 5698SOL    HW117993   1.167   2.875   2.015
 5698SOL    HW217994   1.036   2.809   1.942
 5699SOL     OW17995   6.141   0.902   4.756
 5699SOL    HW117996   6.041   0.894   4.761
 5699SOL    HW217997   6.173   0.860   4.671
 5700SOL     OW17998   1.422   6.144   5.190
 5700SOL    HW117999   1.478   6.061   5.192
 5700SOL    HW218000   1.343   6.133   5.250
 5701SOL     OW18001   0.299   6.006   2.254
 5701SOL    HW118002   0.236   5.929   2.261
 5701SOL    HW218003   0.297   6.058   2.339
 5702SOL     OW18004   1.786   6.485   6.042
 5702SOL    HW118005   1.741   6.574   6.031
 5702SOL    HW218006   1.767   6.428   5.962
 5703SOL     OW18007   4.524   4.696   0.222
 5703SOL    HW118008   4.589   4.695   0.298
 5703SOL    HW218009   4.570   4.729   0.140
 5704SOL     OW18010   4.639   5.372   3.277
 5704SOL    HW118011   4.547   5.412   3.276
 5704SOL    HW218012   4.645   5.305   3.351
 5705SOL     OW18013   5.716   0.374   1.022
 5705SOL    HW118014   5.645   0.351   1.089
 5705SOL    HW218015   5.694   0.330   0.935
 5706SOL     OW18016   1.910   1.648   0.630
 5706SOL    HW118017   1.991   1.654   0.572
 5706SOL    HW218018   1.840   1.709   0.595
 5707SOL     OW18019   1.817   0.450   6.531
 5707SOL    HW118020   1.829   0.397   6.615
 5707SOL    HW218021   1.777   0.539   6.552
 5708SOL     OW18022   5.051   6.515   2.600
 5708SOL    HW118023   5.103   6.523   2.686
 5708SOL    HW218024   4.954   6.504   2.621
 5709SOL     OW18025   0.691   6.778   3.647
 5709SOL    HW118026   0.619   6.843   3.624
 5709SOL    HW218027   0.759   6.775   3.573
 5710SOL     OW18028   2.942   3.342   5.853
 5710SOL    HW118029   3.025   3.348   5.797
 5710SOL    HW218030   2.869   3.396   5.810
 5711SOL     OW18031   5.078   1.141   3.594
 5711SOL    HW118032   5.142   1.076   3.635
 5711SOL    HW218033   4.996   1.147   3.650
 5712SOL     OW18034   6.732   0.165   5.653
 5712SOL    HW118035   6.792   0.086   5.642
 5712SOL    HW218036   6.636   0.137   5.642
 5713SOL     OW18037   0.081   2.712   2.248
 5713SOL    HW118038   0.166   2.749   2.285
 5713SOL    HW218039   0.004   2.749   2.300
 5714SOL     OW18040   1.255   0.373   6.559
 5714SOL    HW118041   1.215   0.403   6.473
 5714SOL    HW218042   1.352   0.353   6.546
 5715SOL     OW18043   1.529   6.540   2.797
 5715SOL    HW118044   1.510   6.569   2.703
 5715SOL    HW218045   1.460   6.578   2.859
 5716SOL     OW18046   1.378   3.721   6.070
 5716SOL    HW118047   1.476   3.735   6.061
 5716SOL    HW218048   1.329   3.797   6.027
 5717SOL     OW18049   0.617   4.360   1.133
 5717SOL    HW118050   0.657   4.376   1.223
 5717SOL    HW218051   0.661   4.282   1.090
 5718SOL     OW18052   1.633   4.791   6.475
 5718SOL    HW118053   1.578   4.713   6.446
 5718SOL    HW218054   1.573   4.866   6.502
 5719SOL     OW18055   3.464   0.582   6.464
 5719SOL    HW118056   3.376   0.566   6.418
 5719SOL    HW218057   3.510   0.495   6.478
 5720SOL     OW18058   0.851   5.293   4.950
 5720SOL    HW118059   0.808   5.203   4.955
 5720SOL    HW218060   0.829   5.346   5.032
 5721SOL     OW18061   0.591   3.080   0.574
 5721SOL    HW118062   0.650   3.161   0.574
 5721SOL    HW218063   0.519   3.091   0.505
 5722SOL     OW18064   5.396   0.716   5.029
 5722SOL    HW118065   5.391   0.747   4.934
 5722SOL    HW218066   5.446   0.630   5.034
 5723SOL     OW18067   3.835   5.292   0.294
 5723SOL    HW118068   3.779   5.224   0.247
 5723SOL    HW218069   3.785   5.330   0.372
 5724SOL     OW18070   5.006   2.242   5.995
 5724SOL    HW118071   4.998   2.278   6.088
 5724SOL    HW218072   5.102   2.218   5.977
 5725SOL     OW18073   4.942   5.276   4.251
 5725SOL    HW118074   4.941   5.226   4.164
 5725SOL    HW218075   4.995   5.225   4.318
 5726SOL     OW18076   5.774   3.772   5.713
 5726SOL    HW118077   5.810   3.708   5.781
 5726SOL    HW218078   5.849   3.826   5.674
 5727SOL     OW18079   6.088   2.175   3.074
 5727SOL    HW118080   6.024   2.245   3.043
 5727SOL    HW218081   6.140   2.210   3.153
 5728SOL     OW18082   6.359   1.430   5.353
 5728SOL    HW118083   6.433   1.482   5.396
 5728SOL    HW218084   6.329   1.357   5.414
 5729SOL     OW18085   6.773   2.122   6.448
 5729SOL    HW118086   6.698   2.083   6.501
 5729SOL    HW218087   6.833   2.174   6.509
 5730SOL     OW18088   3.992   6.245   5.116
 5730SOL    HW118089   4.063   6.270   5.050
 5730SOL    HW218090   4.016   6.281   5.206
 5731SOL     OW18091   1.928   6.706   4.668
 5731SOL    HW118092   1.889   6.760   4.742
 5731SOL    HW218093   1.896   6.611   4.676
 5732SOL     OW18094   6.221   4.648   4.527
 5732SOL    HW118095   6.310   4.617   4.563
 5732SOL    HW218096   6.177   4.707   4.594
 5733SOL     OW18097   3.365   0.902   0.317
 5733SOL    HW118098   3.360   1.000   0.298
 5733SOL    HW218099   3.387   0.889   0.414
 5734SOL     OW18100   1.729   6.816   5.564
 5734SOL    HW118101   1.767   6.902   5.529
 5734SOL    HW218102   1.757   6.805   5.660
 5735SOL     OW18103   3.842   0.675   2.794
 5735SOL    HW118104   3.892   0.754   2.828
 5735SOL    HW218105   3.863   0.595   2.851
 5736SOL     OW18106   4.825   4.632   6.160
 5736SOL    HW118107   4.849   4.592   6.248
 5736SOL    HW218108   4.727   4.651   6.157
 5737SOL     OW18109   5.173   5.898   1.291
 5737SOL    HW118110   5.144   5.987   1.327
 5737SOL    HW218111   5.111   5.827   1.327
 5738SOL     OW18112   3.624   1.323   6.698
 5738SOL    HW118113   3.657   1.230   6.715
 5738SOL    HW218114   3.615   1.372   6.784
 5739SOL     OW18115   2.015   0.038   5.835
 5739SOL    HW118116   1.973   0.080   5.916
 5739SOL    HW218117   2.056   0.108   5.777
 5740SOL     OW18118   5.110   3.569   0.861
 5740SOL    HW118119   5.185   3.608   0.915
 5740SOL    HW218120   5.027   3.567   0.916
 5741SOL     OW18121   0.735   3.786   4.352
 5741SOL    HW118122   0.823   3.804   4.309
 5741SOL    HW218123   0.682   3.723   4.294
 5742SOL     OW18124   3.828   0.134   3.726
 5742SOL    HW118125   3.763   0.158   3.654
 5742SOL    HW218126   3.902   0.202   3.727
 5743SOL     OW18127   4.058   4.335   5.599
 5743SOL    HW118128   4.064   4.252   5.654
 5743SOL    HW218129   3.979   4.330   5.539
 5744SOL     OW18130   5.925   0.116   2.931
 5744SOL    HW118131   5.987   0.192   2.950
 5744SOL    HW218132   5.846   0.150   2.879
 5745SOL     OW18133   2.484   2.635   3.999
 5745SOL    HW118134   2.424   2.656   3.922
 5745SOL    HW218135   2.528   2.547   3.984
 5746SOL     OW18136   3.632   0.485   3.126
 5746SOL    HW118137   3.627   0.579   3.092
 5746SOL    HW218138   3.564   0.473   3.199
 5747SOL     OW18139   1.499   6.076   1.753
 5747SOL    HW118140   1.463   6.028   1.673
 5747SOL    HW218141   1.598   6.084   1.745
 5748SOL     OW18142   0.267   5.835   0.376
 5748SOL    HW118143   0.334   5.833   0.450
 5748SOL    HW218144   0.278   5.919   0.323
 5749SOL     OW18145   1.915   6.900   5.291
 5749SOL    HW118146   1.855   6.964   5.338
 5749SOL    HW218147   2.009   6.933   5.295
 5750SOL     OW18148   6.910   4.209   4.347
 5750SOL    HW118149   6.913   4.110   4.332
 5750SOL    HW218150   6.957   4.232   4.433
 5751SOL     OW18151   2.186   3.963   4.276
 5751SOL    HW118152   2.197   3.971   4.177
 5751SOL    HW218153   2.144   3.875   4.297
 5752SOL     OW18154   5.435   6.993   0.839
 5752SOL    HW118155   5.474   6.914   0.886
 5752SOL    HW218156   5.336   6.982   0.830
 5753SOL     OW18157   2.845   4.054   5.476
 5753SOL    HW118158   2.907   4.118   5.430
 5753SOL    HW218159   2.754   4.061   5.434
 5754SOL     OW18160   1.388   6.698   1.608
 5754SOL    HW118161   1.380   6.692   1.707
 5754SOL    HW218162   1.448   6.625   1.575
 5755SOL     OW18163   2.470   2.401   6.911
 5755SOL    HW118164   2.396   2.347   6.951
 5755SOL    HW218165   2.435   2.491   6.885
 5756SOL     OW18166   6.883   6.875   1.721
 5756SOL    HW118167   6.803   6.828   1.683
 5756SOL    HW218168   6.865   6.900   1.816
 5757SOL     OW18169   6.836   6.140   4.093
 5757SOL    HW118170   6.751   6.174   4.133
 5757SOL    HW218171   6.822   6.122   3.996
 5758SOL     OW18172   1.670   6.801   3.057
 5758SOL    HW118173   1.738   6.832   2.990
 5758SOL    HW218174   1.590   6.766   3.009
 5759SOL     OW18175   4.509   6.936   1.486
 5759SOL    HW118176   4.536   6.862   1.424
 5759SOL    HW218177   4.457   7.004   1.435
 5760SOL     OW18178   6.628   3.402   2.083
 5760SOL    HW118179   6.632   3.498   2.113
 5760SOL    HW218180   6.673   3.393   1.994
 5761SOL     OW18181   5.158   5.795   4.743
 5761SOL    HW118182   5.155   5.768   4.839
 5761SOL    HW218183   5.065   5.813   4.711
 5762SOL     OW18184   5.334   4.343   0.507
 5762SOL    HW118185   5.360   4.272   0.442
 5762SOL    HW218186   5.252   4.315   0.557
 5763SOL     OW18187   5.172   0.084   0.555
 5763SOL    HW118188   5.098   0.132   0.601
 5763SOL    HW218189   5.160   0.090   0.456
 5764SOL     OW18190   4.562   5.494   3.719
 5764SOL    HW118191   4.495   5.491   3.793
 5764SOL    HW218192   4.518   5.529   3.636
 5765SOL     OW18193   5.991   4.788   0.653
 5765SOL    HW118194   6.043   4.716   0.607
 5765SOL    HW218195   6.032   4.807   0.743
 5766SOL     OW18196   1.426   1.699   4.765
 5766SOL    HW118197   1.326   1.688   4.761
 5766SOL    HW218198   1.468   1.639   4.698
 5767SOL     OW18199   1.852   0.414   0.290
 5767SOL    HW118200   1.894   0.394   0.201
 5767SOL    HW218201   1.753   0.410   0.282
 5768SOL     OW18202   6.994   6.952   3.189
 5768SOL    HW118203   6.999   6.962   3.289
 5768SOL    HW218204   0.019   0.007   3.145
 5769SOL     OW18205   2.069   5.449   6.779
 5769SOL    HW118206   2.159   5.406   6.792
 5769SOL    HW218207   2.016   5.394   6.715
 5770SOL     OW18208   0.934   6.078   0.364
 5770SOL    HW118209   0.889   6.141   0.302
 5770SOL    HW218210   1.005   6.027   0.315
 5771SOL     OW18211   2.316   6.082   3.809
 5771SOL    HW118212   2.408   6.047   3.825
 5771SOL    HW218213   2.250   6.007   3.819
 5772SOL     OW18214   4.877   0.721   1.875
 5772SOL    HW118215   4.819   0.646   1.845
 5772SOL    HW218216   4.899   0.780   1.797
 5773SOL     OW18217   4.776   1.945   2.544
 5773SOL    HW118218   4.762   1.913   2.637
 5773SOL    HW218219   4.772   1.867   2.481
 5774SOL     OW18220   1.819   0.376   4.848
 5774SOL    HW118221   1.761   0.424   4.782
 5774SOL    HW218222   1.860   0.296   4.805
 5775SOL     OW18223   0.886   5.913   2.663
 5775SOL    HW118224   0.913   5.900   2.568
 5775SOL    HW218225   0.873   6.011   2.681
 5776SOL     OW18226   1.625   0.639   3.110
 5776SOL    HW118227   1.638   0.730   3.071
 5776SOL    HW218228   1.610   0.573   3.036
 5777SOL     OW18229   1.382   0.337   3.526
 5777SOL    HW118230   1.412   0.395   3.450
 5777SOL    HW218231   1.403   0.382   3.613
 5778SOL     OW18232   1.248   1.230   0.381
 5778SOL    HW118233   1.292   1.177   0.309
 5778SOL    HW218234   1.187   1.298   0.339
 5779SOL     OW18235   4.606   2.498   7.020
 5779SOL    HW118236   4.681   2.490   0.064
 5779SOL    HW218237   4.617   2.429   6.948
 5780SOL     OW18238   5.783   5.685   4.974
 5780SOL    HW118239   5.779   5.652   5.068
 5780SOL    HW218240   5.791   5.607   4.912
 5781SOL     OW18241   6.328   4.799   5.139
 5781SOL    HW118242   6.345   4.750   5.054
 5781SOL    HW218243   6.385   4.761   5.212
 5782SOL     OW18244   0.766   1.368   0.373
 5782SOL    HW118245   0.684   1.417   0.342
 5782SOL    HW218246   0.738   1.292   0.432
 5783SOL     OW18247   1.543   1.659   2.211
 5783SOL    HW118248   1.622   1.625   2.160
 5783SOL    HW218249   1.530   1.757   2.193
 5784SOL     OW18250   0.316   5.783   6.732
 5784SOL    HW118251   0.250   5.717   6.766
 5784SOL    HW218252   0.274   5.874   6.729
 5785SOL     OW18253   2.643   1.573   0.532
 5785SOL    HW118254   2.617   1.502   0.598
 5785SOL    HW218255   2.583   1.652   0.544
 5786SOL     OW18256   6.425   4.057   0.242
 5786SOL    HW118257   6.457   4.102   0.159
 5786SOL    HW218258   6.437   3.958   0.233
 5787SOL     OW18259   2.132   1.472   5.936
 5787SOL    HW118260   2.175   1.509   6.018
 5787SOL    HW218261   2.191   1.402   5.896
 5788SOL     OW18262   2.666   1.333   2.655
 5788SOL    HW118263   2.657   1.289   2.566
 5788SOL    HW218264   2.576   1.359   2.689
 5789SOL     OW18265   3.622   5.063   5.907
 5789SOL    HW118266   3.681   5.134   5.867
 5789SOL    HW218267   3.679   4.986   5.936
 5790SOL     OW18268   0.576   3.499   4.370
 5790SOL    HW118269   0.626   3.425   4.415
 5790SOL    HW218270   0.504   3.460   4.312
 5791SOL     OW18271   3.684   6.909   1.942
 5791SOL    HW118272   3.703   6.928   1.845
 5791SOL    HW218273   3.601   6.854   1.949
 5792SOL     OW18274   0.248   2.321   2.717
 5792SOL    HW118275   0.219   2.289   2.808
 5792SOL    HW218276   0.174   2.308   2.652
 5793SOL     OW18277   5.736   1.328   3.541
 5793SOL    HW118278   5.669   1.256   3.520
 5793SOL    HW218279   5.692   1.418   3.531
 5794SOL     OW18280   3.738   2.090   0.521
 5794SOL    HW118281   3.761   2.182   0.554
 5794SOL    HW218282   3.719   2.094   0.423
 5795SOL     OW18283   5.831   5.668   5.745
 5795SOL    HW118284   5.906   5.627   5.694
 5795SOL    HW218285   5.782   5.596   5.796
 5796SOL     OW18286   4.089   1.232   0.323
 5796SOL    HW118287   4.151   1.162   0.359
 5796SOL    HW218288   3.997   1.194   0.317
 5797SOL     OW18289   3.869   1.606   4.682
 5797SOL    HW118290   3.851   1.514   4.650
 5797SOL    HW218291   3.869   1.607   4.782
 5798SOL     OW18292   0.660   4.253   5.656
 5798SOL    HW118293   0.634   4.157   5.666
 5798SOL    HW218294   0.652   4.281   5.560
 5799SOL     OW18295   5.516   0.981   3.725
 5799SOL    HW118296   5.600   0.928   3.729
 5799SOL    HW218297   5.510   1.029   3.638
 5800SOL     OW18298   5.534   6.439   0.633
 5800SOL    HW118299   5.557   6.485   0.548
 5800SOL    HW218300   5.503   6.346   0.613
 5801SOL     OW18301   1.032   2.313   4.536
 5801SOL    HW118302   1.111   2.302   4.477
 5801SOL    HW218303   1.006   2.409   4.541
 5802SOL     OW18304   0.901   4.543   0.046
 5802SOL    HW118305   0.806   4.544   0.015
 5802SOL    HW218306   0.915   4.467   0.110
 5803SOL     OW18307   1.592   4.674   1.731
 5803SOL    HW118308   1.587   4.772   1.715
 5803SOL    HW218309   1.648   4.631   1.660
 5804SOL     OW18310   6.031   4.453   3.887
 5804SOL    HW118311   6.120   4.496   3.898
 5804SOL    HW218312   6.011   4.396   3.966
 5805SOL     OW18313   3.893   4.404   0.004
 5805SOL    HW118314   3.974   4.362   6.984
 5805SOL    HW218315   3.921   4.481   0.061
 5806SOL     OW18316   0.312   6.384   6.737
 5806SOL    HW118317   0.352   6.472   6.713
 5806SOL    HW218318   0.379   6.312   6.722
 5807SOL     OW18319   1.607   3.946   1.916
 5807SOL    HW118320   1.634   3.851   1.897
 5807SOL    HW218321   1.558   3.950   2.002
 5808SOL     OW18322   5.584   4.263   3.003
 5808SOL    HW118323   5.646   4.185   3.011
 5808SOL    HW218324   5.605   4.313   2.918
 5809SOL     OW18325   0.379   2.404   5.075
 5809SOL    HW118326   0.377   2.504   5.082
 5809SOL    HW218327   0.443   2.377   5.003
 5810SOL     OW18328   2.718   0.562   3.983
 5810SOL    HW118329   2.770   0.646   3.967
 5810SOL    HW218330   2.620   0.584   3.990
 5811SOL     OW18331   3.002   0.330   4.882
 5811SOL    HW118332   3.065   0.335   4.959
 5811SOL    HW218333   3.040   0.380   4.804
 5812SOL     OW18334   5.123   0.248   4.392
 5812SOL    HW118335   5.191   0.245   4.465
 5812SOL    HW218336   5.168   0.272   4.305
 5813SOL     OW18337   1.515   1.511   0.064
 5813SOL    HW118338   1.612   1.503   0.039
 5813SOL    HW218339   1.463   1.441   0.014
 5814SOL     OW18340   5.919   4.323   0.883
 5814SOL    HW118341   5.870   4.343   0.798
 5814SOL    HW218342   6.017   4.314   0.863
 5815SOL     OW18343   4.390   2.474   3.958
 5815SOL    HW118344   4.379   2.461   4.057
 5815SOL    HW218345   4.307   2.442   3.911
 5816SOL     OW18346   4.940   6.099   0.424
 5816SOL    HW118347   4.978   6.152   0.499
 5816SOL    HW218348   4.866   6.150   0.380
 5817SOL     OW18349   5.225   3.197   5.454
 5817SOL    HW118350   5.193   3.275   5.400
 5817SOL    HW218351   5.228   3.115   5.397
 5818SOL     OW18352   6.851   6.064   4.784
 5818SOL    HW118353   6.918   5.990   4.789
 5818SOL    HW218354   6.772   6.042   4.842
 5819SOL     OW18355   4.441   0.505   0.181
 5819SOL    HW118356   4.526   0.516   0.232
 5819SOL    HW218357   4.459   0.511   0.083
 5820SOL     OW18358   4.325   0.057   3.893
 5820SOL    HW118359   4.340   0.089   3.799
 5820SOL    HW218360   4.387   7.002   3.912
 5821SOL     OW18361   1.354   0.181   2.465
 5821SOL    HW118362   1.269   0.204   2.418
 5821SOL    HW218363   1.341   0.192   2.563
 5822SOL     OW18364   0.442   1.889   2.091
 5822SOL    HW118365   0.486   1.827   2.157
 5822SOL    HW218366   0.409   1.836   2.013
 5823SOL     OW18367   1.043   1.015   6.092
 5823SOL    HW118368   0.981   1.080   6.049
 5823SOL    HW218369   1.005   0.985   6.180
 5824SOL     OW18370   6.835   5.905   2.589
 5824SOL    HW118371   6.859   5.823   2.537
 5824SOL    HW218372   6.737   5.920   2.584
 5825SOL     OW18373   2.443   2.064   5.558
 5825SOL    HW118374   2.347   2.083   5.582
 5825SOL    HW218375   2.450   1.974   5.515
 5826SOL     OW18376   6.991   5.430   5.244
 5826SOL    HW118377   6.900   5.390   5.237
 5826SOL    HW218378   0.019   5.418   5.157
 5827SOL     OW18379   1.612   5.082   4.854
 5827SOL    HW118380   1.518   5.093   4.820
 5827SOL    HW218381   1.661   5.019   4.794
 5828SOL     OW18382   7.018   2.993   1.860
 5828SOL    HW118383   6.970   3.046   1.790
 5828SOL    HW218384   0.045   2.917   1.817
 5829SOL     OW18385   2.857   1.606   2.966
 5829SOL    HW118386   2.799   1.530   2.936
 5829SOL    HW218387   2.903   1.581   3.051
 5830SOL     OW18388   3.898   0.291   5.470
 5830SOL    HW118389   3.882   0.269   5.374
 5830SOL    HW218390   3.900   0.206   5.524
 5831SOL     OW18391   6.714   0.373   4.199
 5831SOL    HW118392   6.690   0.319   4.280
 5831SOL    HW218393   6.631   0.396   4.148
 5832SOL     OW18394   3.894   4.007   5.291
 5832SOL    HW118395   3.947   4.091   5.281
 5832SOL    HW218396   3.931   3.953   5.366
 5833SOL     OW18397   3.821   3.266   4.581
 5833SOL    HW118398   3.826   3.204   4.659
 5833SOL    HW218399   3.855   3.219   4.499
 5834SOL     OW18400   5.996   2.145   0.772
 5834SOL    HW118401   5.921   2.085   0.799
 5834SOL    HW218402   6.084   2.101   0.792
 5835SOL     OW18403   5.010   2.755   2.864
 5835SOL    HW118404   5.005   2.659   2.894
 5835SOL    HW218405   5.104   2.788   2.876
 5836SOL     OW18406   2.670   6.753   3.280
 5836SOL    HW118407   2.604   6.769   3.207
 5836SOL    HW218408   2.698   6.657   3.281
 5837SOL     OW18409   4.198   4.599   6.140
 5837SOL    HW118410   4.163   4.505   6.135
 5837SOL    HW218411   4.227   4.618   6.234
 5838SOL     OW18412   2.464   1.238   6.154
 5838SOL    HW118413   2.497   1.263   6.063
 5838SOL    HW218414   2.460   1.319   6.212
 5839SOL     OW18415   0.532   3.083   2.377
 5839SOL    HW118416   0.613   3.142   2.376
 5839SOL    HW218417   0.551   2.998   2.328
 5840SOL     OW18418   1.443   5.181   6.878
 5840SOL    HW118419   1.496   5.266   6.881
 5840SOL    HW218420   1.483   5.114   6.942
 5841SOL     OW18421   5.806   2.620   2.348
 5841SOL    HW118422   5.860   2.702   2.365
 5841SOL    HW218423   5.709   2.640   2.360
 5842SOL     OW18424   4.482   3.431   1.689
 5842SOL    HW118425   4.462   3.464   1.597
 5842SOL    HW218426   4.562   3.479   1.724
 5843SOL     OW18427   2.198   3.796   2.275
 5843SOL    HW118428   2.285   3.747   2.275
 5843SOL    HW218429   2.148   3.774   2.359
 5844SOL     OW18430   0.239   0.085   5.806
 5844SOL    HW118431   0.151   0.044   5.830
 5844SOL    HW218432   0.313   0.029   5.841
 5845SOL     OW18433   1.306   0.524   2.998
 5845SOL    HW118434   1.308   0.586   3.077
 5845SOL    HW218435   1.399   0.510   2.965
 5846SOL     OW18436   6.453   3.150   4.349
 5846SOL    HW118437   6.384   3.185   4.412
 5846SOL    HW218438   6.461   3.051   4.360
 5847SOL     OW18439   2.252   1.839   2.291
 5847SOL    HW118440   2.215   1.754   2.327
 5847SOL    HW218441   2.352   1.836   2.293
 5848SOL     OW18442   2.552   4.548   3.137
 5848SOL    HW118443   2.537   4.585   3.046
 5848SOL    HW218444   2.607   4.612   3.191
 5849SOL     OW18445   6.662   0.611   6.042
 5849SOL    HW118446   6.722   0.535   6.067
 5849SOL    HW218447   6.716   0.692   6.020
 5850SOL     OW18448   0.811   3.305   2.253
 5850SOL    HW118449   0.812   3.233   2.323
 5850SOL    HW218450   0.902   3.315   2.214
 5851SOL     OW18451   4.992   3.398   3.021
 5851SOL    HW118452   4.969   3.326   2.955
 5851SOL    HW218453   4.962   3.371   3.112
 5852SOL     OW18454   4.899   6.214   2.980
 5852SOL    HW118455   4.860   6.162   2.904
 5852SOL    HW218456   4.967   6.159   3.027
 5853SOL     OW18457   3.101   6.091   5.681
 5853SOL    HW118458   3.065   6.167   5.626
 5853SOL    HW218459   3.155   6.030   5.623
 5854SOL     OW18460   6.624   3.661   5.781
 5854SOL    HW118461   6.639   3.562   5.785
 5854SOL    HW218462   6.627   3.699   5.874
 5855SOL     OW18463   0.492   0.371   4.762
 5855SOL    HW118464   0.493   0.298   4.694
 5855SOL    HW218465   0.459   0.335   4.849
 5856SOL     OW18466   2.235   5.479   3.744
 5856SOL    HW118467   2.286   5.542   3.803
 5856SOL    HW218468   2.283   5.468   3.657
 5857SOL     OW18469   5.913   2.952   5.468
 5857SOL    HW118470   5.846   2.937   5.396
 5857SOL    HW218471   5.959   3.040   5.454
 5858SOL     OW18472   2.626   2.387   2.197
 5858SOL    HW118473   2.675   2.392   2.284
 5858SOL    HW218474   2.691   2.379   2.122
 5859SOL     OW18475   5.121   6.620   0.903
 5859SOL    HW118476   5.220   6.620   0.920
 5859SOL    HW218477   5.079   6.546   0.956
 5860SOL     OW18478   2.157   3.722   1.858
 5860SOL    HW118479   2.172   3.638   1.910
 5860SOL    HW218480   2.245   3.757   1.825
 5861SOL     OW18481   5.207   1.580   4.253
 5861SOL    HW118482   5.236   1.490   4.220
 5861SOL    HW218483   5.278   1.619   4.311
 5862SOL     OW18484   4.740   5.022   3.160
 5862SOL    HW118485   4.824   4.973   3.185
 5862SOL    HW218486   4.755   5.120   3.169
 5863SOL     OW18487   3.333   0.678   5.106
 5863SOL    HW118488   3.383   0.763   5.090
 5863SOL    HW218489   3.399   0.603   5.116
 5864SOL     OW18490   4.072   3.999   1.723
 5864SOL    HW118491   4.007   4.041   1.787
 5864SOL    HW218492   4.048   3.903   1.709
 5865SOL     OW18493   5.235   0.269   4.137
 5865SOL    HW118494   5.228   0.222   4.049
 5865SOL    HW218495   5.225   0.367   4.124
 5866SOL     OW18496   3.497   6.090   6.347
 5866SOL    HW118497   3.459   6.101   6.439
 5866SOL    HW218498   3.565   6.016   6.348
 5867SOL     OW18499   0.522   3.267   1.010
 5867SOL    HW118500   0.542   3.285   0.914
 5867SOL    HW218501   0.513   3.169   1.024
 5868SOL     OW18502   6.889   0.606   4.856
 5868SOL    HW118503   6.813   0.671   4.862
 5868SOL    HW218504   6.866   0.523   4.908
 5869SOL     OW18505   1.931   5.696   3.649
 5869SOL    HW118506   1.939   5.649   3.737
 5869SOL    HW218507   1.946   5.630   3.575
 5870SOL     OW18508   4.548   5.563   4.925
 5870SOL    HW118509   4.496   5.593   4.846
 5870SOL    HW218510   4.496   5.582   5.008
 5871SOL     OW18511   4.268   3.656   0.239
 5871SOL    HW118512   4.318   3.715   0.303
 5871SOL    HW218513   4.244   3.708   0.157
 5872SOL     OW18514   4.230   5.117   6.844
 5872SOL    HW118515   4.182   5.032   6.865
 5872SOL    HW218516   4.320   5.095   6.807
 5873SOL     OW18517   2.211   2.759   0.531
 5873SOL    HW118518   2.223   2.835   0.595
 5873SOL    HW218519   2.221   2.672   0.580
 5874SOL     OW18520   3.145   2.700   1.261
 5874SOL    HW118521   3.153   2.637   1.184
 5874SOL    HW218522   3.236   2.716   1.300
 5875SOL     OW18523   4.128   1.533   0.567
 5875SOL    HW118524   4.082   1.606   0.517
 5875SOL    HW218525   4.118   1.446   0.517
 5876SOL     OW18526   3.292   2.887   6.812
 5876SOL    HW118527   3.376   2.895   6.758
 5876SOL    HW218528   3.302   2.813   6.878
 5877SOL     OW18529   6.231   6.800   0.732
 5877SOL    HW118530   6.303   6.734   0.709
 5877SOL    HW218531   6.224   6.868   0.659
 5878SOL     OW18532   5.312   5.894   2.926
 5878SOL    HW118533   5.338   5.983   2.888
 5878SOL    HW218534   5.213   5.880   2.914
 5879SOL     OW18535   3.119   2.976   5.898
 5879SOL    HW118536   3.163   3.057   5.937
 5879SOL    HW218537   3.157   2.959   5.806
 5880SOL     OW18538   4.434   3.989   5.860
 5880SOL    HW118539   4.510   3.926   5.874
 5880SOL    HW218540   4.429   4.053   5.937
 5881SOL     OW18541   1.224   6.294   2.622
 5881SOL    HW118542   1.147   6.259   2.569
 5881SOL    HW218543   1.305   6.299   2.563
 5882SOL     OW18544   0.840   6.648   5.714
 5882SOL    HW118545   0.880   6.559   5.737
 5882SOL    HW218546   0.745   6.636   5.686
 5883SOL     OW18547   0.426   2.200   0.553
 5883SOL    HW118548   0.343   2.163   0.511
 5883SOL    HW218549   0.493   2.219   0.481
 5884SOL     OW18550   6.476   1.006   4.621
 5884SOL    HW118551   6.447   0.921   4.663
 5884SOL    HW218552   6.575   1.004   4.606
 5885SOL     OW18553   0.751   5.618   0.839
 5885SOL    HW118554   0.663   5.653   0.871
 5885SOL    HW218555   0.769   5.529   0.880
 5886SOL     OW18556   1.125   3.306   3.632
 5886SOL    HW118557   1.161   3.399   3.629
 5886SOL    HW218558   1.027   3.309   3.652
 5887SOL     OW18559   2.653   1.806   1.910
 5887SOL    HW118560   2.722   1.797   1.982
 5887SOL    HW218561   2.659   1.898   1.870
 5888SOL     OW18562   3.117   6.949   0.877
 5888SOL    HW118563   3.166   0.013   0.899
 5888SOL    HW218564   3.182   6.873   0.874
 5889SOL     OW18565   6.905   1.637   1.165
 5889SOL    HW118566   6.951   1.599   1.085
 5889SOL    HW218567   6.951   1.606   1.248
 5890SOL     OW18568   1.713   6.800   2.295
 5890SOL    HW118569   1.657   6.717   2.296
 5890SOL    HW218570   1.658   6.878   2.326
 5891SOL     OW18571   2.990   3.651   0.301
 5891SOL    HW118572   3.000   3.746   0.332
 5891SOL    HW218573   3.014   3.589   0.376
 5892SOL     OW18574   0.522   4.559   0.999
 5892SOL    HW118575   0.527   4.536   0.902
 5892SOL    HW218576   0.574   4.492   1.052
 5893SOL     OW18577   1.451   4.810   1.248
 5893SOL    HW118578   1.509   4.729   1.258
 5893SOL    HW218579   1.430   4.847   1.338
 5894SOL     OW18580   0.650   5.656   5.387
 5894SOL    HW118581   0.634   5.587   5.317
 5894SOL    HW218582   0.684   5.612   5.470
 5895SOL     OW18583   6.316   3.196   4.115
 5895SOL    HW118584   6.355   3.275   4.069
 5895SOL    HW218585   6.375   3.170   4.192
 5896SOL     OW18586   5.362   1.144   1.687
 5896SOL    HW118587   5.353   1.232   1.640
 5896SOL    HW218588   5.347   1.070   1.621
 5897SOL     OW18589   4.367   1.637   1.728
 5897SOL    HW118590   4.391   1.540   1.730
 5897SOL    HW218591   4.283   1.650   1.675
 5898SOL     OW18592   2.424   1.809   5.754
 5898SOL    HW118593   2.444   1.848   5.664
 5898SOL    HW218594   2.364   1.730   5.743
 5899SOL     OW18595   0.219   5.176   5.849
 5899SOL    HW118596   0.204   5.260   5.901
 5899SOL    HW218597   0.136   5.120   5.850
 5900SOL     OW18598   0.407   5.283   2.942
 5900SOL    HW118599   0.405   5.205   2.880
 5900SOL    HW218600   0.456   5.359   2.900
 5901SOL     OW18601   0.920   0.540   0.621
 5901SOL    HW118602   0.956   0.580   0.536
 5901SOL    HW218603   0.931   0.441   0.619
 5902SOL     OW18604   5.694   3.644   4.507
 5902SOL    HW118605   5.781   3.689   4.531
 5902SOL    HW218606   5.713   3.556   4.465
 5903SOL     OW18607   5.593   2.999   6.985
 5903SOL    HW118608   5.599   2.899   6.987
 5903SOL    HW218609   5.681   3.037   6.958
 5904SOL     OW18610   1.570   4.303   1.057
 5904SOL    HW118611   1.562   4.236   1.131
 5904SOL    HW218612   1.658   4.292   1.010
 5905SOL     OW18613   5.382   0.772   3.360
 5905SOL    HW118614   5.359   0.675   3.363
 5905SOL    HW218615   5.305   0.826   3.394
 5906SOL     OW18616   5.532   1.725   5.238
 5906SOL    HW118617   5.486   1.636   5.245
 5906SOL    HW218618   5.602   1.732   5.309
 5907SOL     OW18619   1.667   0.347   0.659
 5907SOL    HW118620   1.713   0.390   0.737
 5907SOL    HW218621   1.609   0.272   0.691
 5908SOL     OW18622   4.820   3.721   0.412
 5908SOL    HW118623   4.816   3.795   0.479
 5908SOL    HW218624   4.903   3.729   0.357
 5909SOL     OW18625   0.951   4.133   5.342
 5909SOL    HW118626   1.030   4.170   5.293
 5909SOL    HW218627   0.868   4.176   5.307
 5910SOL     OW18628   1.108   4.371   0.763
 5910SOL    HW118629   1.011   4.370   0.786
 5910SOL    HW218630   1.162   4.338   0.841
 5911SOL     OW18631   0.217   5.808   5.998
 5911SOL    HW118632   0.203   5.786   6.094
 5911SOL    HW218633   0.152   5.757   5.942
 5912SOL     OW18634   6.127   3.626   6.398
 5912SOL    HW118635   6.112   3.563   6.323
 5912SOL    HW218636   6.058   3.699   6.395
 5913SOL     OW18637   2.101   2.723   5.767
 5913SOL    HW118638   2.033   2.669   5.817
 5913SOL    HW218639   2.159   2.661   5.714
 5914SOL     OW18640   2.671   5.598   0.202
 5914SOL    HW118641   2.724   5.616   0.285
 5914SOL    HW218642   2.584   5.647   0.206
 5915SOL     OW18643   5.563   3.050   2.542
 5915SOL    HW118644   5.508   3.126   2.574
 5915SOL    HW218645   5.562   3.048   2.442
 5916SOL     OW18646   5.114   0.270   5.739
 5916SOL    HW118647   5.036   0.236   5.688
 5916SOL    HW218648   5.159   0.343   5.687
 5917SOL     OW18649   3.423   2.848   3.410
 5917SOL    HW118650   3.380   2.896   3.486
 5917SOL    HW218651   3.400   2.751   3.414
 5918SOL     OW18652   1.848   3.731   4.539
 5918SOL    HW118653   1.774   3.736   4.606
 5918SOL    HW218654   1.884   3.638   4.535
 5919SOL     OW18655   3.025   1.875   0.741
 5919SOL    HW118656   3.026   1.974   0.729
 5919SOL    HW218657   3.117   1.843   0.764
 5920SOL     OW18658   3.911   0.024   6.705
 5920SOL    HW118659   3.932   0.118   6.730
 5920SOL    HW218660   3.877   0.021   6.611
 5921SOL     OW18661   3.857   5.360   5.154
 5921SOL    HW118662   3.858   5.274   5.204
 5921SOL    HW218663   3.771   5.407   5.170
 5922SOL     OW18664   6.203   4.918   3.369
 5922SOL    HW118665   6.138   4.928   3.293
 5922SOL    HW218666   6.200   4.999   3.426
 5923SOL     OW18667   6.601   0.690   3.488
 5923SOL    HW118668   6.680   0.725   3.539
 5923SOL    HW218669   6.631   0.615   3.428
 5924SOL     OW18670   5.736   2.576   5.243
 5924SOL    HW118671   5.658   2.584   5.181
 5924SOL    HW218672   5.709   2.527   5.326
 5925SOL     OW18673   4.600   6.159   3.116
 5925SOL    HW118674   4.542   6.157   3.198
 5925SOL    HW218675   4.680   6.100   3.130
 5926SOL     OW18676   3.204   5.074   1.694
 5926SOL    HW118677   3.168   4.982   1.709
 5926SOL    HW218678   3.148   5.139   1.746
 5927SOL     OW18679   2.325   4.830   1.383
 5927SOL    HW118680   2.332   4.788   1.473
 5927SOL    HW218681   2.244   4.795   1.336
 5928SOL     OW18682   2.335   0.725   2.052
 5928SOL    HW118683   2.422   0.774   2.064
 5928SOL    HW218684   2.297   0.747   1.962
 5929SOL     OW18685   0.974   6.128   5.814
 5929SOL    HW118686   1.068   6.162   5.804
 5929SOL    HW218687   0.974   6.028   5.813
 5930SOL     OW18688   5.996   1.366   4.356
 5930SOL    HW118689   6.074   1.389   4.297
 5930SOL    HW218690   6.030   1.326   4.441
 5931SOL     OW18691   6.324   4.965   2.206
 5931SOL    HW118692   6.404   4.952   2.149
 5931SOL    HW218693   6.332   5.051   2.256
 5932SOL     OW18694   2.126   6.434   0.867
 5932SOL    HW118695   2.140   6.345   0.912
 5932SOL    HW218696   2.106   6.503   0.936
 5933SOL     OW18697   0.042   4.059   2.148
 5933SOL    HW118698   0.051   4.044   2.246
 5933SOL    HW218699   7.006   4.139   2.131
 5934SOL     OW18700   3.789   3.296   3.570
 5934SOL    HW118701   3.731   3.301   3.651
 5934SOL    HW218702   3.853   3.373   3.571
 5935SOL     OW18703   4.023   3.946   4.373
 5935SOL    HW118704   4.030   3.928   4.275
 5935SOL    HW218705   4.072   3.876   4.424
 5936SOL     OW18706   4.053   3.906   6.554
 5936SOL    HW118707   4.011   3.950   6.475
 5936SOL    HW218708   3.984   3.852   6.603
 5937SOL     OW18709   0.820   3.444   1.807
 5937SOL    HW118710   0.741   3.402   1.851
 5937SOL    HW218711   0.874   3.492   1.877
 5938SOL     OW18712   1.682   5.245   3.626
 5938SOL    HW118713   1.594   5.272   3.588
 5938SOL    HW218714   1.696   5.291   3.714
 5939SOL     OW18715   3.141   0.577   3.098
 5939SOL    HW118716   3.063   0.631   3.066
 5939SOL    HW218717   3.218   0.591   3.037
 5940SOL     OW18718   4.056   6.674   2.067
 5940SOL    HW118719   4.116   6.605   2.026
 5940SOL    HW218720   4.063   6.669   2.166
 5941SOL     OW18721   6.148   4.600   1.900
 5941SOL    HW118722   6.170   4.502   1.903
 5941SOL    HW218723   6.118   4.630   1.990
 5942SOL     OW18724   4.335   2.878   6.426
 5942SOL    HW118725   4.379   2.851   6.512
 5942SOL    HW218726   4.361   2.814   6.354
 5943SOL     OW18727   2.546   6.372   0.145
 5943SOL    HW118728   2.587   6.325   0.223
 5943SOL    HW218729   2.476   6.313   0.104
 5944SOL     OW18730   5.464   1.420   1.866
 5944SOL    HW118731   5.367   1.442   1.868
 5944SOL    HW218732   5.489   1.372   1.950
 5945SOL     OW18733   6.697   4.677   5.266
 5945SOL    HW118734   6.676   4.581   5.279
 5945SOL    HW218735   6.625   4.733   5.306
 5946SOL     OW18736   3.386   4.060   6.003
 5946SOL    HW118737   3.361   3.983   5.944
 5946SOL    HW218738   3.383   4.145   5.950
 5947SOL     OW18739   4.171   3.142   1.596
 5947SOL    HW118740   4.266   3.138   1.628
 5947SOL    HW218741   4.127   3.224   1.631
 5948SOL     OW18742   4.137   5.293   3.185
 5948SOL    HW118743   4.208   5.233   3.148
 5948SOL    HW218744   4.127   5.275   3.283
 5949SOL     OW18745   3.941   4.507   1.201
 5949SOL    HW118746   3.868   4.460   1.251
 5949SOL    HW218747   3.923   4.502   1.103
 5950SOL     OW18748   5.817   2.338   4.409
 5950SOL    HW118749   5.764   2.404   4.462
 5950SOL    HW218750   5.810   2.248   4.451
 5951SOL     OW18751   1.076   6.285   4.831
 5951SOL    HW118752   1.134   6.275   4.912
 5951SOL    HW218753   0.987   6.243   4.847
 5952SOL     OW18754   6.474   6.149   3.857
 5952SOL    HW118755   6.390   6.184   3.817
 5952SOL    HW218756   6.553   6.191   3.812
 5953SOL     OW18757   0.024   3.167   5.038
 5953SOL    HW118758   0.068   3.256   5.046
 5953SOL    HW218759   0.086   3.096   5.074
 5954SOL     OW18760   0.118   4.417   5.704
 5954SOL    HW118761   0.050   4.345   5.700
 5954SOL    HW218762   0.191   4.399   5.637
 5955SOL     OW18763   5.952   5.837   2.424
 5955SOL    HW118764   5.872   5.854   2.482
 5955SOL    HW218765   6.004   5.922   2.412
 5956SOL     OW18766   4.042   1.744   0.445
 5956SOL    HW118767   3.985   1.802   0.502
 5956SOL    HW218768   3.986   1.704   0.372
 5957SOL     OW18769   4.953   6.773   6.063
 5957SOL    HW118770   5.053   6.775   6.053
 5957SOL    HW218771   4.920   6.681   6.046
 5958SOL     OW18772   6.553   6.333   2.124
 5958SOL    HW118773   6.563   6.432   2.124
 5958SOL    HW218774   6.641   6.290   2.100
 5959SOL     OW18775   3.120   1.947   5.617
 5959SOL    HW118776   3.065   1.864   5.618
 5959SOL    HW218777   3.158   1.961   5.525
 5960SOL     OW18778   3.593   0.621   4.008
 5960SOL    HW118779   3.591   0.537   3.954
 5960SOL    HW218780   3.509   0.629   4.061
 5961SOL     OW18781   3.975   0.986   3.764
 5961SOL    HW118782   3.960   0.913   3.697
 5961SOL    HW218783   4.069   1.020   3.756
 5962SOL     OW18784   5.395   5.261   2.570
 5962SOL    HW118785   5.376   5.190   2.638
 5962SOL    HW218786   5.328   5.255   2.497
 5963SOL     OW18787   3.593   3.648   3.545
 5963SOL    HW118788   3.566   3.555   3.521
 5963SOL    HW218789   3.590   3.706   3.464
 5964SOL     OW18790   6.876   5.646   6.242
 5964SOL    HW118791   6.910   5.649   6.336
 5964SOL    HW218792   6.777   5.660   6.241
 5965SOL     OW18793   1.930   2.263   6.771
 5965SOL    HW118794   1.865   2.337   6.755
 5965SOL    HW218795   1.888   2.175   6.747
 5966SOL     OW18796   3.009   5.799   4.875
 5966SOL    HW118797   2.923   5.752   4.891
 5966SOL    HW218798   3.035   5.791   4.778
 5967SOL     OW18799   3.834   6.067   2.470
 5967SOL    HW118800   3.819   6.076   2.568
 5967SOL    HW218801   3.778   5.992   2.434
 5968SOL     OW18802   6.208   1.769   3.171
 5968SOL    HW118803   6.203   1.861   3.210
 5968SOL    HW218804   6.199   1.775   3.072
 5969SOL     OW18805   6.485   3.012   4.728
 5969SOL    HW118806   6.496   3.087   4.662
 5969SOL    HW218807   6.389   2.982   4.728
 5970SOL     OW18808   0.654   3.837   2.343
 5970SOL    HW118809   0.608   3.861   2.258
 5970SOL    HW218810   0.751   3.821   2.326
 5971SOL     OW18811   1.581   0.087   3.145
 5971SOL    HW118812   1.576   0.187   3.146
 5971SOL    HW218813   1.669   0.057   3.182
 5972SOL     OW18814   4.589   6.433   0.334
 5972SOL    HW118815   4.607   6.486   0.417
 5972SOL    HW218816   4.653   6.356   0.330
 5973SOL     OW18817   1.820   5.135   2.548
 5973SOL    HW118818   1.849   5.180   2.464
 5973SOL    HW218819   1.735   5.086   2.533
 5974SOL     OW18820   6.154   4.239   6.114
 5974SOL    HW118821   6.074   4.182   6.099
 5974SOL    HW218822   6.183   4.280   6.027
 5975SOL     OW18823   4.201   2.469   1.071
 5975SOL    HW118824   4.218   2.424   1.159
 5975SOL    HW218825   4.201   2.569   1.085
 5976SOL     OW18826   3.204   3.177   4.518
 5976SOL    HW118827   3.140   3.220   4.581
 5976SOL    HW218828   3.218   3.237   4.439
 5977SOL     OW18829   1.356   4.336   1.746
 5977SOL    HW118830   1.451   4.327   1.776
 5977SOL    HW218831   1.328   4.253   1.697
 5978SOL     OW18832   5.019   4.431   2.913
 5978SOL    HW118833   5.034   4.492   2.991
 5978SOL    HW218834   5.090   4.361   2.911
 5979SOL     OW18835   6.360   0.288   3.432
 5979SOL    HW118836   6.421   0.297   3.511
 5979SOL    HW218837   6.406   0.235   3.361
 5980SOL     OW18838   4.103   4.328   6.832
 5980SOL    HW118839   4.171   4.258   6.811
 5980SOL    HW218840   4.144   4.419   6.823
 5981SOL     OW18841   6.888   1.779   1.701
 5981SOL    HW118842   6.949   1.796   1.624
 5981SOL    HW218843   6.842   1.864   1.726
 5982SOL     OW18844   6.338   1.823   6.683
 5982SOL    HW118845   6.351   1.724   6.688
 5982SOL    HW218846   6.265   1.850   6.745
 5983SOL     OW18847   2.110   1.457   4.284
 5983SOL    HW118848   2.051   1.435   4.206
 5983SOL    HW218849   2.075   1.538   4.330
 5984SOL     OW18850   0.150   6.710   4.463
 5984SOL    HW118851   0.242   6.723   4.425
 5984SOL    HW218852   0.126   6.613   4.459
 5985SOL     OW18853   5.581   2.358   3.755
 5985SOL    HW118854   5.587   2.367   3.656
 5985SOL    HW218855   5.671   2.375   3.795
 5986SOL     OW18856   3.026   3.361   3.857
 5986SOL    HW118857   3.076   3.447   3.846
 5986SOL    HW218858   2.976   3.363   3.943
 5987SOL     OW18859   4.497   0.745   4.880
 5987SOL    HW118860   4.566   0.817   4.886
 5987SOL    HW218861   4.532   0.669   4.826
 5988SOL     OW18862   4.115   6.838   4.648
 5988SOL    HW118863   4.061   6.773   4.700
 5988SOL    HW218864   4.207   6.800   4.633
 5989SOL     OW18865   2.671   6.329   6.751
 5989SOL    HW118866   2.628   6.342   6.662
 5989SOL    HW218867   2.764   6.294   6.739
 5990SOL     OW18868   3.777   4.300   0.676
 5990SOL    HW118869   3.841   4.263   0.608
 5990SOL    HW218870   3.726   4.225   0.718
 5991SOL     OW18871   4.206   4.972   5.010
 5991SOL    HW118872   4.286   5.004   5.060
 5991SOL    HW218873   4.226   4.971   4.912
 5992SOL     OW18874   3.433   1.103   4.618
 5992SOL    HW118875   3.346   1.069   4.653
 5992SOL    HW218876   3.508   1.053   4.661
 5993SOL     OW18877   3.552   6.608   5.283
 5993SOL    HW118878   3.463   6.589   5.324
 5993SOL    HW218879   3.545   6.605   5.183
 5994SOL     OW18880   5.873   2.375   2.123
 5994SOL    HW118881   5.900   2.468   2.149
 5994SOL    HW218882   5.835   2.328   2.203
 5995SOL     OW18883   0.394   4.998   1.192
 5995SOL    HW118884   0.349   5.079   1.155
 5995SOL    HW218885   0.396   4.926   1.122
 5996SOL     OW18886   0.546   5.808   6.515
 5996SOL    HW118887   0.464   5.802   6.572
 5996SOL    HW218888   0.521   5.806   6.419
 5997SOL     OW18889   0.500   6.997   2.346
 5997SOL    HW118890   0.599   6.987   2.352
 5997SOL    HW218891   0.473   7.010   2.251
 5998SOL     OW18892   5.607   2.646   2.656
 5998SOL    HW118893   5.633   2.693   2.741
 5998SOL    HW218894   5.647   2.555   2.655
 5999SOL     OW18895   0.798   2.080   3.284
 5999SOL    HW118896   0.792   2.003   3.220
 5999SOL    HW218897   0.830   2.161   3.236
 6000SOL     OW18898   3.749   5.532   1.976
 6000SOL    HW118899   3.658   5.528   2.017
 6000SOL    HW218900   3.814   5.482   2.033
 6001SOL     OW18901   0.235   3.759   6.857
 6001SOL    HW118902   0.307   3.797   6.798
 6001SOL    HW218903   0.160   3.825   6.866
 6002SOL     OW18904   0.184   6.462   0.944
 6002SOL    HW118905   0.178   6.475   1.043
 6002SOL    HW218906   0.262   6.514   0.908
 6003SOL     OW18907   5.635   3.700   4.823
 6003SOL    HW118908   5.642   3.615   4.874
 6003SOL    HW218909   5.615   3.680   4.727
 6004SOL     OW18910   0.431   3.888   3.464
 6004SOL    HW118911   0.417   3.921   3.558
 6004SOL    HW218912   0.513   3.930   3.426
 6005SOL     OW18913   4.184   5.093   4.075
 6005SOL    HW118914   4.113   5.163   4.064
 6005SOL    HW218915   4.195   5.044   3.989
 6006SOL     OW18916   3.697   0.427   6.781
 6006SOL    HW118917   3.701   0.441   6.682
 6006SOL    HW218918   3.770   0.480   6.825
 6007SOL     OW18919   5.059   2.828   3.441
 6007SOL    HW118920   5.015   2.740   3.462
 6007SOL    HW218921   4.993   2.888   3.397
 6008SOL     OW18922   3.313   5.774   5.779
 6008SOL    HW118923   3.403   5.765   5.823
 6008SOL    HW218924   3.319   5.739   5.686
 6009SOL     OW18925   2.648   1.878   4.819
 6009SOL    HW118926   2.665   1.959   4.762
 6009SOL    HW218927   2.616   1.803   4.762
 6010SOL     OW18928   2.131   4.460   2.398
 6010SOL    HW118929   2.172   4.507   2.320
 6010SOL    HW218930   2.033   4.450   2.382
 6011SOL     OW18931   5.136   2.253   1.832
 6011SOL    HW118932   5.077   2.322   1.875
 6011SOL    HW218933   5.103   2.162   1.856
 6012SOL     OW18934   6.686   1.881   0.322
 6012SOL    HW118935   6.600   1.921   0.291
 6012SOL    HW218936   6.721   1.932   0.401
 6013SOL     OW18937   6.032   2.022   2.190
 6013SOL    HW118938   6.070   1.996   2.102
 6013SOL    HW218939   6.064   2.114   2.215
 6014SOL     OW18940   5.449   1.918   0.851
 6014SOL    HW118941   5.440   2.015   0.832
 6014SOL    HW218942   5.432   1.865   0.768
 6015SOL     OW18943   6.320   2.906   5.762
 6015SOL    HW118944   6.222   2.892   5.750
 6015SOL    HW218945   6.368   2.888   5.676
 6016SOL     OW18946   0.470   1.241   5.747
 6016SOL    HW118947   0.381   1.197   5.760
 6016SOL    HW218948   0.493   1.297   5.826
 6017SOL     OW18949   5.920   5.500   2.969
 6017SOL    HW118950   5.876   5.412   2.951
 6017SOL    HW218951   5.852   5.564   3.005
 6018SOL     OW18952   3.366   3.086   0.211
 6018SOL    HW118953   3.463   3.077   0.237
 6018SOL    HW218954   3.325   2.995   0.206
 6019SOL     OW18955   4.444   1.638   3.562
 6019SOL    HW118956   4.394   1.700   3.502
 6019SOL    HW218957   4.506   1.582   3.508
 6020SOL     OW18958   2.852   6.845   2.126
 6020SOL    HW118959   2.780   6.915   2.125
 6020SOL    HW218960   2.879   6.826   2.220
 6021SOL     OW18961   4.524   0.366   2.479
 6021SOL    HW118962   4.515   0.278   2.526
 6021SOL    HW218963   4.593   0.422   2.524
 6022SOL     OW18964   4.671   0.942   3.582
 6022SOL    HW118965   4.649   0.866   3.521
 6022SOL    HW218966   4.633   0.924   3.673
 6023SOL     OW18967   6.209   1.040   3.734
 6023SOL    HW118968   6.288   1.091   3.700
 6023SOL    HW218969   6.149   1.102   3.785
 6024SOL     OW18970   0.469   4.757   2.197
 6024SOL    HW118971   0.473   4.807   2.111
 6024SOL    HW218972   0.497   4.818   2.272
 6025SOL     OW18973   4.603   0.515   1.617
 6025SOL    HW118974   4.594   0.609   1.585
 6025SOL    HW218975   4.694   0.480   1.596
 6026SOL     OW18976   0.600   4.700   4.164
 6026SOL    HW118977   0.526   4.766   4.163
 6026SOL    HW218978   0.571   4.617   4.115
 6027SOL     OW18979   1.818   3.975   6.158
 6027SOL    HW118980   1.766   3.894   6.128
 6027SOL    HW218981   1.848   4.027   6.078
 6028SOL     OW18982   1.242   3.958   0.154
 6028SOL    HW118983   1.255   3.859   0.156
 6028SOL    HW218984   1.156   3.979   0.108
 6029SOL     OW18985   2.436   6.556   6.943
 6029SOL    HW118986   2.446   6.497   0.003
 6029SOL    HW218987   2.389   6.505   6.871
 6030SOL     OW18988   2.534   0.920   3.350
 6030SOL    HW118989   2.558   0.905   3.254
 6030SOL    HW218990   2.454   0.979   3.355
 6031SOL     OW18991   4.503   5.388   5.302
 6031SOL    HW118992   4.552   5.425   5.381
 6031SOL    HW218993   4.500   5.457   5.230
 6032SOL     OW18994   1.838   3.436   2.604
 6032SOL    HW118995   1.912   3.395   2.657
 6032SOL    HW218996   1.828   3.387   2.517
 6033SOL     OW18997   2.260   2.258   3.307
 6033SOL    HW118998   2.248   2.312   3.390
 6033SOL    HW218999   2.221   2.167   3.321
 6034SOL     OW19000   2.436   4.859   4.347
 6034SOL    HW119001   2.485   4.772   4.333
 6034SOL    HW219002   2.466   4.924   4.277
 6035SOL     OW19003   5.271   0.557   4.230
 6035SOL    HW119004   5.294   0.623   4.159
 6035SOL    HW219005   5.207   0.599   4.295
 6036SOL     OW19006   6.948   0.029   5.354
 6036SOL    HW119007   6.883   0.072   5.291
 6036SOL    HW219008   6.965   6.956   5.324
 6037SOL     OW19009   5.004   5.105   6.338
 6037SOL    HW119010   5.069   5.095   6.262
 6037SOL    HW219011   5.039   5.172   6.403
 6038SOL     OW19012   0.467   3.065   6.481
 6038SOL    HW119013   0.498   3.153   6.517
 6038SOL    HW219014   0.529   3.033   6.410
 6039SOL     OW19015   3.575   3.320   2.786
 6039SOL    HW119016   3.654   3.261   2.794
 6039SOL    HW219017   3.522   3.294   2.705
 6040SOL     OW19018   0.514   1.427   6.480
 6040SOL    HW119019   0.432   1.385   6.519
 6040SOL    HW219020   0.592   1.412   6.540
 6041SOL     OW19021   1.686   1.676   6.819
 6041SOL    HW119022   1.616   1.748   6.823
 6041SOL    HW219023   1.653   1.601   6.762
 6042SOL     OW19024   5.633   5.089   2.346
 6042SOL    HW119025   5.705   5.065   2.281
 6042SOL    HW219026   5.633   5.188   2.361
 6043SOL     OW19027   1.202   4.873   4.907
 6043SOL    HW119028   1.203   4.972   4.918
 6043SOL    HW219029   1.283   4.834   4.950
 6044SOL     OW19030   6.988   1.882   1.069
 6044SOL    HW119031   6.967   1.787   1.094
 6044SOL    HW219032   6.904   1.927   1.037
 6045SOL     OW19033   5.403   5.720   0.636
 6045SOL    HW119034   5.457   5.641   0.668
 6045SOL    HW219035   5.432   5.802   0.685
 6046SOL     OW19036   3.142   2.521   1.048
 6046SOL    HW119037   3.132   2.423   1.066
 6046SOL    HW219038   3.229   2.538   1.002
 6047SOL     OW19039   5.917   0.953   4.344
 6047SOL    HW119040   5.978   1.016   4.296
 6047SOL    HW219041   5.872   1.000   4.419
 6048SOL     OW19042   3.847   6.944   3.367
 6048SOL    HW119043   3.817   6.999   3.289
 6048SOL    HW219044   3.826   6.992   3.452
 6049SOL     OW19045   4.761   3.039   6.401
 6049SOL    HW119046   4.724   2.950   6.375
 6049SOL    HW219047   4.839   3.061   6.342
 6050SOL     OW19048   4.141   4.126   6.023
 6050SOL    HW119049   4.050   4.130   5.981
 6050SOL    HW219050   4.166   4.030   6.040
 6051SOL     OW19051   2.352   2.163   2.957
 6051SOL    HW119052   2.269   2.218   2.954
 6051SOL    HW219053   2.353   2.099   2.880
 6052SOL     OW19054   6.569   0.265   0.267
 6052SOL    HW119055   6.586   0.362   0.283
 6052SOL    HW219056   6.532   0.251   0.176
 6053SOL     OW19057   3.488   0.443   6.980
 6053SOL    HW119058   3.581   0.426   6.948
 6053SOL    HW219059   3.490   0.477   0.053
 6054SOL     OW19060   2.405   4.001   1.136
 6054SOL    HW119061   2.497   4.037   1.118
 6054SOL    HW219062   2.413   3.903   1.159
 6055SOL     OW19063   5.679   1.004   5.410
 6055SOL    HW119064   5.742   1.003   5.488
 6055SOL    HW219065   5.585   1.013   5.443
 6056SOL     OW19066   4.191   1.536   5.511
 6056SOL    HW119067   4.257   1.597   5.554
 6056SOL    HW219068   4.142   1.586   5.439
 6057SOL     OW19069   4.558   1.627   4.715
 6057SOL    HW119070   4.459   1.639   4.722
 6057SOL    HW219071   4.604   1.712   4.739
 6058SOL     OW19072   5.797   2.853   3.386
 6058SOL    HW119073   5.832   2.928   3.442
 6058SOL    HW219074   5.789   2.771   3.442
 6059SOL     OW19075   4.582   5.541   6.082
 6059SOL    HW119076   4.645   5.544   6.159
 6059SOL    HW219077   4.496   5.498   6.110
 6060SOL     OW19078   3.706   3.997   6.163
 6060SOL    HW119079   3.719   4.088   6.124
 6060SOL    HW219080   3.737   3.928   6.098
 6061SOL     OW19081   3.205   2.449   7.010
 6061SOL    HW119082   3.267   2.390   0.040
 6061SOL    HW219083   3.258   2.519   6.961
 6062SOL     OW19084   2.405   1.248   4.761
 6062SOL    HW119085   2.475   1.294   4.706
 6062SOL    HW219086   2.427   1.151   4.768
 6063SOL     OW19087   3.873   1.219   6.330
 6063SOL    HW119088   3.896   1.185   6.239
 6063SOL    HW219089   3.788   1.272   6.326
 6064SOL     OW19090   1.944   5.606   2.803
 6064SOL    HW119091   2.021   5.570   2.856
 6064SOL    HW219092   1.927   5.547   2.724
 6065SOL     OW19093   6.320   6.774   0.978
 6065SOL    HW119094   6.276   6.807   0.894
 6065SOL    HW219095   6.270   6.810   1.057
 6066SOL     OW19096   5.062   1.432   1.413
 6066SOL    HW119097   5.081   1.492   1.336
 6066SOL    HW219098   4.966   1.440   1.439
 6067SOL     OW19099   6.275   2.283   6.645
 6067SOL    HW119100   6.315   2.295   6.554
 6067SOL    HW219101   6.190   2.231   6.638
 6068SOL     OW19102   5.120   3.263   4.968
 6068SOL    HW119103   5.023   3.281   4.986
 6068SOL    HW219104   5.129   3.176   4.921
 6069SOL     OW19105   6.772   3.855   6.222
 6069SOL    HW119106   6.840   3.784   6.243
 6069SOL    HW219107   6.818   3.933   6.180
 6070SOL     OW19108   3.456   2.618   6.559
 6070SOL    HW119109   3.426   2.522   6.556
 6070SOL    HW219110   3.416   2.668   6.483
 6071SOL     OW19111   4.024   5.827   5.907
 6071SOL    HW119112   4.081   5.807   5.986
 6071SOL    HW219113   4.066   5.788   5.825
 6072SOL     OW19114   0.927   1.362   1.982
 6072SOL    HW119115   0.961   1.289   2.042
 6072SOL    HW219116   0.947   1.451   2.023
 6073SOL     OW19117   6.137   3.030   0.499
 6073SOL    HW119118   6.222   2.995   0.460
 6073SOL    HW219119   6.082   2.954   0.533
 6074SOL     OW19120   0.966   6.761   4.686
 6074SOL    HW119121   1.022   6.777   4.767
 6074SOL    HW219122   0.893   6.829   4.681
 6075SOL     OW19123   6.744   2.669   6.926
 6075SOL    HW119124   6.745   2.665   0.005
 6075SOL    HW219125   6.651   2.680   6.893
 6076SOL     OW19126   2.467   7.002   5.143
 6076SOL    HW119127   2.507   0.047   5.078
 6076SOL    HW219128   2.525   6.921   5.149
 6077SOL     OW19129   4.920   5.761   2.449
 6077SOL    HW119130   4.943   5.687   2.386
 6077SOL    HW219131   4.996   5.826   2.453
 6078SOL     OW19132   3.395   4.918   3.122
 6078SOL    HW119133   3.399   5.000   3.065
 6078SOL    HW219134   3.476   4.914   3.180
 6079SOL     OW19135   2.667   3.564   6.843
 6079SOL    HW119136   2.636   3.603   6.757
 6079SOL    HW219137   2.637   3.623   6.919
 6080SOL     OW19138   6.700   1.886   0.917
 6080SOL    HW119139   6.650   1.804   0.888
 6080SOL    HW219140   6.648   1.967   0.892
 6081SOL     OW19141   6.484   3.831   4.478
 6081SOL    HW119142   6.560   3.894   4.462
 6081SOL    HW219143   6.402   3.883   4.501
 6082SOL     OW19144   3.450   0.421   2.836
 6082SOL    HW119145   3.446   0.489   2.909
 6082SOL    HW219146   3.481   0.333   2.873
 6083SOL     OW19147   1.265   5.211   6.220
 6083SOL    HW119148   1.332   5.257   6.277
 6083SOL    HW219149   1.195   5.168   6.277
 6084SOL     OW19150   6.758   5.265   4.254
 6084SOL    HW119151   6.798   5.329   4.188
 6084SOL    HW219152   6.667   5.238   4.222
 6085SOL     OW19153   6.713   3.988   0.232
 6085SOL    HW119154   6.710   4.088   0.237
 6085SOL    HW219155   6.805   3.956   0.253
 6086SOL     OW19156   3.504   1.402   4.512
 6086SOL    HW119157   3.415   1.445   4.507
 6086SOL    HW219158   3.505   1.335   4.587
 6087SOL     OW19159   5.622   6.698   0.099
 6087SOL    HW119160   5.708   6.742   0.125
 6087SOL    HW219161   5.563   6.764   0.053
 6088SOL     OW19162   6.920   6.304   4.637
 6088SOL    HW119163   6.868   6.338   4.558
 6088SOL    HW219164   6.858   6.263   4.704
 6089SOL     OW19165   0.735   3.602   1.601
 6089SOL    HW119166   0.789   3.602   1.517
 6089SOL    HW219167   0.778   3.541   1.668
 6090SOL     OW19168   0.897   6.222   6.092
 6090SOL    HW119169   0.898   6.218   5.992
 6090SOL    HW219170   0.920   6.132   6.129
 6091SOL     OW19171   0.492   1.294   1.850
 6091SOL    HW119172   0.573   1.347   1.825
 6091SOL    HW219173   0.521   1.208   1.893
 6092SOL     OW19174   2.492   1.014   2.796
 6092SOL    HW119175   2.407   1.061   2.771
 6092SOL    HW219176   2.524   0.959   2.718
 6093SOL     OW19177   1.750   2.705   1.806
 6093SOL    HW119178   1.804   2.773   1.856
 6093SOL    HW219179   1.659   2.699   1.847
 6094SOL     OW19180   2.137   1.495   1.805
 6094SOL    HW119181   2.185   1.545   1.734
 6094SOL    HW219182   2.137   1.398   1.783
 6095SOL     OW19183   4.785   2.773   0.124
 6095SOL    HW119184   4.693   2.745   0.152
 6095SOL    HW219185   4.779   2.835   0.045
 6096SOL     OW19186   5.645   0.629   4.016
 6096SOL    HW119187   5.707   0.701   4.046
 6096SOL    HW219188   5.683   0.585   3.935
 6097SOL     OW19189   2.269   0.473   2.717
 6097SOL    HW119190   2.195   0.418   2.680
 6097SOL    HW219191   2.236   0.529   2.793
 6098SOL     OW19192   1.844   2.094   6.050
 6098SOL    HW119193   1.919   2.071   6.112
 6098SOL    HW219194   1.845   2.192   6.031
 6099SOL     OW19195   5.979   6.023   5.435
 6099SOL    HW119196   5.951   6.119   5.438
 6099SOL    HW219197   5.982   5.991   5.340
 6100SOL     OW19198   6.578   3.808   6.012
 6100SOL    HW119199   6.654   3.813   6.076
 6100SOL    HW219200   6.512   3.880   6.033
 6101SOL     OW19201   6.528   2.229   5.801
 6101SOL    HW119202   6.503   2.220   5.897
 6101SOL    HW219203   6.602   2.296   5.793
 6102SOL     OW19204   2.942   0.792   4.365
 6102SOL    HW119205   2.894   0.848   4.297
 6102SOL    HW219206   2.948   0.698   4.332
 6103SOL     OW19207   0.128   0.296   3.967
 6103SOL    HW119208   0.048   0.344   3.932
 6103SOL    HW219209   0.197   0.290   3.895
 6104SOL     OW19210   6.042   2.149   6.568
 6104SOL    HW119211   6.038   2.050   6.555
 6104SOL    HW219212   5.984   2.175   6.645
 6105SOL     OW19213   3.429   6.300   5.186
 6105SOL    HW119214   3.527   6.280   5.185
 6105SOL    HW219215   3.411   6.378   5.247
 6106SOL     OW19216   2.541   5.094   6.406
 6106SOL    HW119217   2.492   5.039   6.338
 6106SOL    HW219218   2.581   5.033   6.475
 6107SOL     OW19219   2.168   4.564   4.445
 6107SOL    HW119220   2.255   4.534   4.483
 6107SOL    HW219221   2.137   4.497   4.376
 6108SOL     OW19222   0.950   1.810   3.737
 6108SOL    HW119223   0.939   1.901   3.696
 6108SOL    HW219224   0.899   1.743   3.684
 6109SOL     OW19225   5.279   2.495   0.037
 6109SOL    HW119226   5.207   2.561   0.058
 6109SOL    HW219227   5.290   2.488   6.959
 6110SOL     OW19228   2.786   2.775   6.226
 6110SOL    HW119229   2.864   2.835   6.207
 6110SOL    HW219230   2.819   2.684   6.251
 6111SOL     OW19231   0.950   4.748   2.792
 6111SOL    HW119232   1.044   4.761   2.822
 6111SOL    HW219233   0.895   4.828   2.819
 6112SOL     OW19234   1.674   1.890   3.225
 6112SOL    HW119235   1.694   1.809   3.279
 6112SOL    HW219236   1.575   1.896   3.209
 6113SOL     OW19237   0.963   0.957   6.357
 6113SOL    HW119238   0.922   1.039   6.397
 6113SOL    HW219239   1.047   0.935   6.406
 6114SOL     OW19240   5.537   5.572   6.775
 6114SOL    HW119241   5.438   5.580   6.765
 6114SOL    HW219242   5.560   5.485   6.818
 6115SOL     OW19243   4.835   5.269   3.134
 6115SOL    HW119244   4.917   5.318   3.106
 6115SOL    HW219245   4.766   5.333   3.167
 6116SOL     OW19246   2.857   1.305   1.653
 6116SOL    HW119247   2.905   1.269   1.732
 6116SOL    HW219248   2.922   1.349   1.591
 6117SOL     OW19249   6.031   0.028   4.481
 6117SOL    HW119250   6.106   0.047   4.418
 6117SOL    HW219251   6.009   6.951   4.478
 6118SOL     OW19252   6.710   1.872   1.971
 6118SOL    HW119253   6.719   1.962   2.015
 6118SOL    HW219254   6.694   1.885   1.873
 6119SOL     OW19255   0.422   4.725   4.932
 6119SOL    HW119256   0.440   4.799   4.866
 6119SOL    HW219257   0.325   4.701   4.928
 6120SOL     OW19258   2.833   6.643   3.927
 6120SOL    HW119259   2.818   6.563   3.986
 6120SOL    HW219260   2.841   6.725   3.983
 6121SOL     OW19261   7.010   2.618   4.275
 6121SOL    HW119262   0.065   2.683   4.277
 6121SOL    HW219263   6.924   2.668   4.283
 6122SOL     OW19264   3.697   6.138   2.701
 6122SOL    HW119265   3.604   6.147   2.665
 6122SOL    HW219266   3.709   6.046   2.739
 6123SOL     OW19267   0.036   0.730   1.079
 6123SOL    HW119268   7.005   0.810   1.048
 6123SOL    HW219269   7.019   0.697   1.166
 6124SOL     OW19270   3.956   6.951   5.135
 6124SOL    HW119271   4.044   6.916   5.168
 6124SOL    HW219272   3.969   0.023   5.100
 6125SOL     OW19273   2.589   5.584   1.379
 6125SOL    HW119274   2.551   5.491   1.380
 6125SOL    HW219275   2.524   5.646   1.424
 6126SOL     OW19276   5.198   5.836   4.317
 6126SOL    HW119277   5.191   5.819   4.218
 6126SOL    HW219278   5.107   5.827   4.359
 6127SOL     OW19279   2.987   6.824   1.271
 6127SOL    HW119280   3.074   6.777   1.283
 6127SOL    HW219281   2.928   6.806   1.350
 6128SOL     OW19282   6.900   3.442   0.595
 6128SOL    HW119283   6.904   3.538   0.568
 6128SOL    HW219284   6.835   3.393   0.537
 6129SOL     OW19285   6.405   3.937   3.110
 6129SOL    HW119286   6.348   3.937   3.192
 6129SOL    HW219287   6.381   4.015   3.053
 6130SOL     OW19288   6.059   2.952   4.329
 6130SOL    HW119289   6.124   3.015   4.372
 6130SOL    HW219290   6.075   2.950   4.230
 6131SOL     OW19291   6.799   1.429   5.678
 6131SOL    HW119292   6.806   1.349   5.618
 6131SOL    HW219293   6.869   1.424   5.749
 6132SOL     OW19294   3.765   1.479   0.915
 6132SOL    HW119295   3.793   1.499   1.009
 6132SOL    HW219296   3.671   1.445   0.915
 6133SOL     OW19297   0.640   3.135   1.969
 6133SOL    HW119298   0.695   3.086   2.036
 6133SOL    HW219299   0.652   3.234   1.981
 6134SOL     OW19300   3.445   3.133   6.666
 6134SOL    HW119301   3.478   3.223   6.636
 6134SOL    HW219302   3.517   3.065   6.655
 6135SOL     OW19303   6.910   0.144   1.583
 6135SOL    HW119304   6.901   0.045   1.595
 6135SOL    HW219305   6.958   0.162   1.497
 6136SOL     OW19306   0.489   1.052   2.627
 6136SOL    HW119307   0.531   0.966   2.597
 6136SOL    HW219308   0.440   1.094   2.550
 6137SOL     OW19309   3.848   0.439   5.833
 6137SOL    HW119310   3.806   0.460   5.744
 6137SOL    HW219311   3.913   0.511   5.857
 6138SOL     OW19312   3.608   6.510   2.790
 6138SOL    HW119313   3.664   6.591   2.773
 6138SOL    HW219314   3.662   6.428   2.776
 6139SOL     OW19315   1.857   3.299   5.269
 6139SOL    HW119316   1.831   3.396   5.274
 6139SOL    HW219317   1.956   3.291   5.280
 6140SOL     OW19318   0.348   0.005   1.716
 6140SOL    HW119319   0.325   6.986   1.805
 6140SOL    HW219320   0.423   0.070   1.727
 6141SOL     OW19321   6.651   5.989   4.574
 6141SOL    HW119322   6.572   6.006   4.634
 6141SOL    HW219323   6.733   6.029   4.615
 6142SOL     OW19324   6.631   4.449   0.728
 6142SOL    HW119325   6.624   4.359   0.771
 6142SOL    HW219326   6.642   4.439   0.630
 6143SOL     OW19327   6.230   5.052   6.172
 6143SOL    HW119328   6.183   5.137   6.195
 6143SOL    HW219329   6.176   4.974   6.204
 6144SOL     OW19330   0.114   4.204   3.166
 6144SOL    HW119331   0.106   4.190   3.068
 6144SOL    HW219332   0.063   4.286   3.192
 6145SOL     OW19333   4.793   5.409   3.851
 6145SOL    HW119334   4.797   5.405   3.951
 6145SOL    HW219335   4.701   5.438   3.823
 6146SOL     OW19336   4.412   1.332   3.443
 6146SOL    HW119337   4.329   1.384   3.423
 6146SOL    HW219338   4.489   1.394   3.455
 6147SOL     OW19339   2.406   4.911   3.131
 6147SOL    HW119340   2.321   4.876   3.169
 6147SOL    HW219341   2.386   4.957   3.044
 6148SOL     OW19342   6.706   6.383   4.461
 6148SOL    HW119343   6.626   6.328   4.483
 6148SOL    HW219344   6.699   6.418   4.368
 6149SOL     OW19345   3.627   4.918   3.330
 6149SOL    HW119346   3.700   4.868   3.378
 6149SOL    HW219347   3.664   5.003   3.292
 6150SOL     OW19348   4.376   5.531   6.871
 6150SOL    HW119349   4.348   5.474   6.794
 6150SOL    HW219350   4.390   5.625   6.840
 6151SOL     OW19351   5.576   3.175   5.200
 6151SOL    HW119352   5.529   3.088   5.209
 6151SOL    HW219353   5.520   3.248   5.240
 6152SOL     OW19354   5.310   4.917   5.961
 6152SOL    HW119355   5.304   4.821   5.934
 6152SOL    HW219356   5.372   4.966   5.900
 6153SOL     OW19357   4.703   3.945   1.407
 6153SOL    HW119358   4.637   3.899   1.466
 6153SOL    HW219359   4.707   4.042   1.430
 6154SOL     OW19360   5.917   1.588   2.144
 6154SOL    HW119361   5.907   1.540   2.231
 6154SOL    HW219362   6.013   1.614   2.132
 6155SOL     OW19363   0.967   3.467   4.539
 6155SOL    HW119364   1.044   3.462   4.603
 6155SOL    HW219365   0.927   3.376   4.527
 6156SOL     OW19366   4.800   6.190   2.615
 6156SOL    HW119367   4.843   6.211   2.527
 6156SOL    HW219368   4.795   6.274   2.670
 6157SOL     OW19369   2.127   2.752   3.371
 6157SOL    HW119370   2.033   2.763   3.405
 6157SOL    HW219371   2.126   2.692   3.291
 6158SOL     OW19372   4.661   0.742   6.532
 6158SOL    HW119373   4.651   0.836   6.562
 6158SOL    HW219374   4.630   0.680   6.604
 6159SOL     OW19375   5.006   1.459   0.001
 6159SOL    HW119376   4.990   1.382   0.063
 6159SOL    HW219377   5.041   1.537   0.053
 6160SOL     OW19378   5.794   5.717   0.946
 6160SOL    HW119379   5.828   5.764   0.865
 6160SOL    HW219380   5.866   5.713   1.015
 6161SOL     OW19381   6.070   1.565   5.641
 6161SOL    HW119382   6.041   1.638   5.703
 6161SOL    HW219383   6.013   1.566   5.559
 6162SOL     OW19384   1.034   4.955   4.353
 6162SOL    HW119385   1.008   4.871   4.304
 6162SOL    HW219386   1.009   4.946   4.450
 6163SOL     OW19387   5.257   4.881   0.978
 6163SOL    HW119388   5.251   4.961   1.038
 6163SOL    HW219389   5.184   4.816   1.002
 6164SOL     OW19390   2.121   2.148   1.155
 6164SOL    HW119391   2.058   2.223   1.175
 6164SOL    HW219392   2.213   2.186   1.141
 6165SOL     OW19393   4.001   5.977   0.404
 6165SOL    HW119394   4.090   5.976   0.449
 6165SOL    HW219395   3.940   5.911   0.448
 6166SOL     OW19396   2.982   1.152   5.643
 6166SOL    HW119397   2.903   1.210   5.625
 6166SOL    HW219398   3.063   1.191   5.600
 6167SOL     OW19399   0.711   5.045   2.201
 6167SOL    HW119400   0.767   4.981   2.149
 6167SOL    HW219401   0.671   4.997   2.280
 6168SOL     OW19402   0.452   3.554   1.557
 6168SOL    HW119403   0.441   3.596   1.466
 6168SOL    HW219404   0.545   3.569   1.589
 6169SOL     OW19405   1.973   3.803   1.670
 6169SOL    HW119406   2.028   3.872   1.623
 6169SOL    HW219407   2.032   3.751   1.733
 6170SOL     OW19408   0.621   3.461   5.646
 6170SOL    HW119409   0.596   3.543   5.594
 6170SOL    HW219410   0.653   3.390   5.583
 6171SOL     OW19411   0.504   0.600   1.003
 6171SOL    HW119412   0.469   0.682   1.048
 6171SOL    HW219413   0.439   0.570   0.934
 6172SOL     OW19414   0.664   2.499   3.228
 6172SOL    HW119415   0.750   2.520   3.182
 6172SOL    HW219416   0.683   2.453   3.315
 6173SOL     OW19417   6.771   5.915   3.047
 6173SOL    HW119418   6.767   5.857   2.966
 6173SOL    HW219419   6.687   5.904   3.100
 6174SOL     OW19420   5.247   4.983   2.972
 6174SOL    HW119421   5.182   4.912   2.997
 6174SOL    HW219422   5.267   5.039   3.053
 6175SOL     OW19423   3.793   0.719   4.799
 6175SOL    HW119424   3.826   0.660   4.726
 6175SOL    HW219425   3.870   0.749   4.855
 6176SOL     OW19426   4.185   3.607   5.420
 6176SOL    HW119427   4.256   3.597   5.350
 6176SOL    HW219428   4.103   3.557   5.392
 6177SOL     OW19429   5.856   1.521   1.894
 6177SOL    HW119430   5.935   1.475   1.854
 6177SOL    HW219431   5.871   1.535   1.992
 6178SOL     OW19432   4.896   3.470   2.258
 6178SOL    HW119433   4.901   3.419   2.172
 6178SOL    HW219434   4.875   3.407   2.333
 6179SOL     OW19435   6.525   4.753   1.795
 6179SOL    HW119436   6.546   4.846   1.762
 6179SOL    HW219437   6.476   4.703   1.724
 6180SOL     OW19438   3.068   4.937   0.608
 6180SOL    HW119439   3.117   4.982   0.683
 6180SOL    HW219440   3.030   5.006   0.546
 6181SOL     OW19441   4.510   4.912   5.895
 6181SOL    HW119442   4.547   4.988   5.949
 6181SOL    HW219443   4.410   4.916   5.895
 6182SOL     OW19444   3.290   3.357   0.277
 6182SOL    HW119445   3.317   3.421   0.205
 6182SOL    HW219446   3.272   3.267   0.238
 6183SOL     OW19447   1.500   2.192   0.839
 6183SOL    HW119448   1.417   2.197   0.895
 6183SOL    HW219449   1.494   2.259   0.766
 6184SOL     OW19450   2.852   1.055   5.982
 6184SOL    HW119451   2.779   1.067   5.914
 6184SOL    HW219452   2.938   1.090   5.944
 6185SOL     OW19453   3.091   3.032   5.138
 6185SOL    HW119454   3.076   2.951   5.196
 6185SOL    HW219455   3.173   3.079   5.168
 6186SOL     OW19456   6.684   1.978   1.715
 6186SOL    HW119457   6.639   1.914   1.654
 6186SOL    HW219458   6.673   2.072   1.682
 6187SOL     OW19459   4.792   2.411   5.543
 6187SOL    HW119460   4.836   2.379   5.626
 6187SOL    HW219461   4.857   2.406   5.467
 6188SOL     OW19462   2.040   1.690   5.569
 6188SOL    HW119463   2.000   1.744   5.643
 6188SOL    HW219464   1.974   1.682   5.494
 6189SOL     OW19465   4.026   5.788   2.113
 6189SOL    HW119466   4.017   5.878   2.156
 6189SOL    HW219467   4.042   5.719   2.184
 6190SOL     OW19468   6.640   3.395   5.857
 6190SOL    HW119469   6.564   3.330   5.858
 6190SOL    HW219470   6.680   3.401   5.949
 6191SOL     OW19471   2.454   3.432   5.892
 6191SOL    HW119472   2.431   3.515   5.944
 6191SOL    HW219473   2.418   3.440   5.799
 6192SOL     OW19474   2.295   2.267   0.052
 6192SOL    HW119475   2.196   2.276   0.064
 6192SOL    HW219476   2.316   2.176   0.018
 6193SOL     OW19477   5.290   5.354   0.037
 6193SOL    HW119478   5.301   5.267   0.086
 6193SOL    HW219479   5.196   5.362   0.004
 6194SOL     OW19480   6.700   0.535   6.449
 6194SOL    HW119481   6.689   0.538   6.548
 6194SOL    HW219482   6.728   0.443   6.421
 6195SOL     OW19483   5.679   0.532   4.763
 6195SOL    HW119484   5.748   0.462   4.781
 6195SOL    HW219485   5.668   0.590   4.843
 6196SOL     OW19486   5.273   4.305   2.912
 6196SOL    HW119487   5.310   4.246   2.841
 6196SOL    HW219488   5.313   4.280   3.000
 6197SOL     OW19489   2.518   5.329   2.003
 6197SOL    HW119490   2.503   5.359   1.909
 6197SOL    HW219491   2.522   5.230   2.007
 6198SOL     OW19492   5.525   6.338   6.541
 6198SOL    HW119493   5.606   6.325   6.484
 6198SOL    HW219494   5.446   6.294   6.497
 6199SOL     OW19495   0.525   6.845   0.302
 6199SOL    HW119496   0.438   6.810   0.337
 6199SOL    HW219497   0.590   6.854   0.378
 6200SOL     OW19498   1.408   1.470   2.349
 6200SOL    HW119499   1.451   1.537   2.288
 6200SOL    HW219500   1.476   1.404   2.380
 6201SOL     OW19501   6.866   4.153   3.989
 6201SOL    HW119502   6.861   4.250   4.009
 6201SOL    HW219503   6.912   4.105   4.065
 6202SOL     OW19504   6.188   1.989   3.416
 6202SOL    HW119505   6.231   2.074   3.448
 6202SOL    HW219506   6.235   1.911   3.457
 6203SOL     OW19507   6.876   5.505   1.898
 6203SOL    HW119508   6.785   5.467   1.881
 6203SOL    HW219509   6.868   5.604   1.915
 6204SOL     OW19510   1.268   6.451   5.293
 6204SOL    HW119511   1.240   6.377   5.232
 6204SOL    HW219512   1.273   6.537   5.241
 6205SOL     OW19513   4.910   4.236   2.315
 6205SOL    HW119514   4.944   4.184   2.393
 6205SOL    HW219515   4.885   4.173   2.241
 6206SOL     OW19516   5.150   1.880   3.729
 6206SOL    HW119517   5.205   1.917   3.804
 6206SOL    HW219518   5.083   1.815   3.766
 6207SOL     OW19519   1.079   5.784   4.401
 6207SOL    HW119520   1.084   5.749   4.307
 6207SOL    HW219521   1.139   5.863   4.410
 6208SOL     OW19522   3.647   3.103   5.515
 6208SOL    HW119523   3.570   3.094   5.578
 6208SOL    HW219524   3.674   3.012   5.482
 6209SOL     OW19525   3.348   4.534   0.926
 6209SOL    HW119526   3.346   4.528   0.827
 6209SOL    HW219527   3.432   4.490   0.960
 6210SOL     OW19528   4.995   3.318   3.295
 6210SOL    HW119529   5.078   3.285   3.341
 6210SOL    HW219530   4.915   3.274   3.335
 6211SOL     OW19531   4.923   5.499   5.147
 6211SOL    HW119532   4.919   5.503   5.047
 6211SOL    HW219533   5.015   5.525   5.177
 6212SOL     OW19534   2.371   5.438   5.681
 6212SOL    HW119535   2.318   5.365   5.639
 6212SOL    HW219536   2.348   5.444   5.778
 6213SOL     OW19537   4.898   6.261   0.698
 6213SOL    HW119538   4.982   6.293   0.742
 6213SOL    HW219539   4.832   6.335   0.695
 6214SOL     OW19540   5.863   6.254   5.443
 6214SOL    HW119541   5.787   6.247   5.379
 6214SOL    HW219542   5.877   6.350   5.468
 6215SOL     OW19543   5.326   3.209   6.188
 6215SOL    HW119544   5.249   3.213   6.125
 6215SOL    HW219545   5.360   3.302   6.205
 6216SOL     OW19546   5.231   2.530   3.697
 6216SOL    HW119547   5.287   2.602   3.656
 6216SOL    HW219548   5.216   2.457   3.630
 6217SOL     OW19549   1.219   4.858   2.548
 6217SOL    HW119550   1.207   4.856   2.448
 6217SOL    HW219551   1.220   4.765   2.583
 6218SOL     OW19552   4.789   6.264   0.263
 6218SOL    HW119553   4.747   6.236   0.176
 6218SOL    HW219554   4.877   6.307   0.244
 6219SOL     OW19555   0.971   0.814   5.350
 6219SOL    HW119556   0.908   0.817   5.273
 6219SOL    HW219557   0.926   0.851   5.432
 6220SOL     OW19558   3.741   0.998   0.597
 6220SOL    HW119559   3.718   0.913   0.644
 6220SOL    HW219560   3.782   1.063   0.662
 6221SOL     OW19561   0.077   6.060   6.417
 6221SOL    HW119562   0.148   6.129   6.412
 6221SOL    HW219563   7.008   6.104   6.415
 6222SOL     OW19564   6.132   1.146   2.098
 6222SOL    HW119565   6.042   1.176   2.130
 6222SOL    HW219566   6.186   1.115   2.176
 6223SOL     OW19567   0.410   4.960   3.662
 6223SOL    HW119568   0.342   4.896   3.699
 6223SOL    HW219569   0.387   4.982   3.568
 6224SOL     OW19570   4.222   1.696   6.807
 6224SOL    HW119571   4.185   1.723   6.896
 6224SOL    HW219572   4.148   1.659   6.751
 6225SOL     OW19573   3.816   0.850   6.907
 6225SOL    HW119574   3.892   0.895   6.861
 6225SOL    HW219575   3.742   0.916   6.921
 6226SOL     OW19576   1.439   1.190   4.230
 6226SOL    HW119577   1.430   1.188   4.131
 6226SOL    HW219578   1.523   1.144   4.257
 6227SOL     OW19579   2.820   4.443   5.902
 6227SOL    HW119580   2.820   4.457   5.803
 6227SOL    HW219581   2.820   4.532   5.948
 6228SOL     OW19582   1.926   2.447   3.623
 6228SOL    HW119583   1.926   2.533   3.675
 6228SOL    HW219584   1.832   2.420   3.603
 6229SOL     OW19585   0.267   3.384   5.106
 6229SOL    HW119586   0.241   3.465   5.159
 6229SOL    HW219587   0.305   3.412   5.018
 6230SOL     OW19588   0.071   1.501   2.159
 6230SOL    HW119589   0.023   1.535   2.079
 6230SOL    HW219590   0.026   1.536   2.242
 6231SOL     OW19591   5.557   4.345   0.715
 6231SOL    HW119592   5.572   4.436   0.753
 6231SOL    HW219593   5.502   4.352   0.632
 6232SOL     OW19594   5.614   0.440   0.287
 6232SOL    HW119595   5.668   0.365   0.249
 6232SOL    HW219596   5.579   0.497   0.212
 6233SOL     OW19597   0.368   3.357   2.329
 6233SOL    HW119598   0.460   3.395   2.344
 6233SOL    HW219599   0.374   3.280   2.266
 6234SOL     OW19600   6.821   6.976   4.123
 6234SOL    HW119601   6.830   6.901   4.057
 6234SOL    HW219602   6.858   6.948   4.211
 6235SOL     OW19603   6.700   0.838   2.488
 6235SOL    HW119604   6.754   0.799   2.563
 6235SOL    HW219605   6.760   0.867   2.414
 6236SOL     OW19606   1.159   4.669   1.086
 6236SOL    HW119607   1.126   4.694   0.995
 6236SOL    HW219608   1.190   4.751   1.133
 6237SOL     OW19609   3.864   0.080   0.680
 6237SOL    HW119610   3.882   0.166   0.728
 6237SOL    HW219611   3.925   0.009   0.715
 6238SOL     OW19612   2.710   6.458   4.129
 6238SOL    HW119613   2.730   6.398   4.207
 6238SOL    HW219614   2.636   6.418   4.075
 6239SOL     OW19615   5.012   0.300   2.567
 6239SOL    HW119616   5.021   0.289   2.468
 6239SOL    HW219617   5.090   0.352   2.602
 6240SOL     OW19618   3.294   3.498   4.797
 6240SOL    HW119619   3.367   3.464   4.856
 6240SOL    HW219620   3.331   3.512   4.704
 6241SOL     OW19621   2.643   6.276   3.464
 6241SOL    HW119622   2.578   6.307   3.534
 6241SOL    HW219623   2.734   6.266   3.504
 6242SOL     OW19624   2.866   1.831   2.804
 6242SOL    HW119625   2.866   1.764   2.878
 6242SOL    HW219626   2.819   1.913   2.834
 6243SOL     OW19627   5.998   1.532   6.393
 6243SOL    HW119628   5.954   1.564   6.309
 6243SOL    HW219629   6.058   1.455   6.372
 6244SOL     OW19630   4.256   5.028   3.176
 6244SOL    HW119631   4.205   4.947   3.149
 6244SOL    HW219632   4.332   5.043   3.114
 6245SOL     OW19633   1.183   4.403   2.201
 6245SOL    HW119634   1.247   4.326   2.193
 6245SOL    HW219635   1.147   4.426   2.111
 6246SOL     OW19636   1.077   6.806   5.103
 6246SOL    HW119637   1.009   6.746   5.060
 6246SOL    HW219638   1.039   6.844   5.187
 6247SOL     OW19639   6.823   5.717   3.358
 6247SOL    HW119640   6.893   5.667   3.308
 6247SOL    HW219641   6.831   5.697   3.456
 6248SOL     OW19642   4.007   2.630   6.686
 6248SOL    HW119643   4.051   2.654   6.772
 6248SOL    HW219644   3.908   2.624   6.699
 6249SOL     OW19645   6.914   2.676   0.951
 6249SOL    HW119646   6.931   2.658   1.048
 6249SOL    HW219647   6.830   2.730   0.942
 6250SOL     OW19648   6.959   0.227   0.644
 6250SOL    HW119649   6.889   0.290   0.609
 6250SOL    HW219650   6.914   0.147   0.685
 6251SOL     OW19651   3.050   6.890   4.366
 6251SOL    HW119652   3.096   6.910   4.280
 6251SOL    HW219653   2.964   6.842   4.348
 6252SOL     OW19654   2.621   5.875   6.910
 6252SOL    HW119655   2.633   5.820   6.828
 6252SOL    HW219656   2.523   5.886   6.929
 6253SOL     OW19657   2.923   5.266   4.648
 6253SOL    HW119658   2.846   5.321   4.680
 6253SOL    HW219659   2.894   5.172   4.636
 6254SOL     OW19660   0.231   5.518   1.007
 6254SOL    HW119661   0.170   5.580   0.958
 6254SOL    HW219662   0.227   5.538   1.105
 6255SOL     OW19663   1.074   1.910   1.011
 6255SOL    HW119664   1.074   1.979   0.939
 6255SOL    HW219665   1.112   1.950   1.095
 6256SOL     OW19666   4.776   5.714   3.127
 6256SOL    HW119667   4.786   5.810   3.151
 6256SOL    HW219668   4.685   5.682   3.154
 6257SOL     OW19669   4.367   4.279   1.028
 6257SOL    HW119670   4.303   4.271   1.104
 6257SOL    HW219671   4.381   4.188   0.986
 6258SOL     OW19672   4.703   0.317   5.695
 6258SOL    HW119673   4.688   0.234   5.641
 6258SOL    HW219674   4.738   0.390   5.635
 6259SOL     OW19675   2.274   6.963   5.535
 6259SOL    HW119676   2.247   6.937   5.628
 6259SOL    HW219677   2.324   0.028   5.537
 6260SOL     OW19678   1.899   0.649   0.401
 6260SOL    HW119679   1.881   0.554   0.376
 6260SOL    HW219680   1.814   0.701   0.401
 6261SOL     OW19681   4.322   6.681   1.135
 6261SOL    HW119682   4.293   6.738   1.057
 6261SOL    HW219683   4.284   6.590   1.126
 6262SOL     OW19684   6.089   6.234   2.174
 6262SOL    HW119685   6.007   6.275   2.216
 6262SOL    HW219686   6.125   6.164   2.235
 6263SOL     OW19687   0.129   6.427   4.488
 6263SOL    HW119688   0.102   6.366   4.562
 6263SOL    HW219689   0.220   6.403   4.455
 6264SOL     OW19690   0.540   6.860   1.221
 6264SOL    HW119691   0.544   6.780   1.161
 6264SOL    HW219692   0.485   6.931   1.177
 6265SOL     OW19693   4.096   2.086   0.284
 6265SOL    HW119694   4.169   2.047   0.339
 6265SOL    HW219695   4.021   2.117   0.343
 6266SOL     OW19696   3.322   5.366   3.974
 6266SOL    HW119697   3.253   5.299   3.944
 6266SOL    HW219698   3.329   5.439   3.906
 6267SOL     OW19699   1.301   6.697   5.506
 6267SOL    HW119700   1.225   6.752   5.542
 6267SOL    HW219701   1.268   6.639   5.432
 6268SOL     OW19702   3.256   0.577   2.330
 6268SOL    HW119703   3.330   0.515   2.303
 6268SOL    HW219704   3.279   0.619   2.418
 6269SOL     OW19705   5.213   6.734   1.565
 6269SOL    HW119706   5.223   6.832   1.581
 6269SOL    HW219707   5.125   6.703   1.601
 6270SOL     OW19708   1.591   6.225   0.154
 6270SOL    HW119709   1.491   6.228   0.162
 6270SOL    HW219710   1.616   6.193   0.063
 6271SOL     OW19711   6.343   3.303   6.725
 6271SOL    HW119712   6.399   3.262   6.654
 6271SOL    HW219713   6.300   3.386   6.690
 6272SOL     OW19714   5.624   0.248   6.915
 6272SOL    HW119715   5.536   0.280   6.950
 6272SOL    HW219716   5.697   0.298   6.961
 6273SOL     OW19717   6.944   6.912   2.005
 6273SOL    HW119718   6.998   6.991   2.036
 6273SOL    HW219719   6.962   6.834   2.065
 6274SOL     OW19720   3.113   6.015   5.034
 6274SOL    HW119721   3.107   5.931   4.980
 6274SOL    HW219722   3.141   6.090   4.974
 6275SOL     OW19723   2.405   6.174   0.381
 6275SOL    HW119724   2.339   6.126   0.439
 6275SOL    HW219725   2.428   6.118   0.302
 6276SOL     OW19726   2.073   5.247   3.163
 6276SOL    HW119727   2.106   5.328   3.212
 6276SOL    HW219728   2.080   5.167   3.221
 6277SOL     OW19729   5.118   2.430   1.457
 6277SOL    HW119730   5.106   2.338   1.494
 6277SOL    HW219731   5.199   2.472   1.499
 6278SOL     OW19732   3.071   0.113   5.304
 6278SOL    HW119733   3.042   0.193   5.357
 6278SOL    HW219734   3.171   0.105   5.310
 6279SOL     OW19735   3.382   6.104   1.404
 6279SOL    HW119736   3.290   6.136   1.379
 6279SOL    HW219737   3.411   6.033   1.341
 6280SOL     OW19738   0.073   1.800   6.867
 6280SOL    HW119739   0.050   1.786   6.771
 6280SOL    HW219740   0.001   1.763   6.925
 6281SOL     OW19741   6.481   4.562   4.885
 6281SOL    HW119742   6.417   4.637   4.867
 6281SOL    HW219743   6.437   4.496   4.945
 6282SOL     OW19744   0.179   3.540   6.530
 6282SOL    HW119745   0.275   3.525   6.553
 6282SOL    HW219746   0.134   3.452   6.516
 6283SOL     OW19747   1.113   5.901   5.566
 6283SOL    HW119748   1.028   5.953   5.580
 6283SOL    HW219749   1.100   5.808   5.599
 6284SOL     OW19750   2.387   4.131   6.858
 6284SOL    HW119751   2.428   4.188   6.786
 6284SOL    HW219752   2.383   4.184   6.943
 6285SOL     OW19753   1.618   3.443   2.805
 6285SOL    HW119754   1.654   3.441   2.898
 6285SOL    HW219755   1.689   3.414   2.741
 6286SOL     OW19756   1.003   2.670   5.053
 6286SOL    HW119757   0.921   2.629   5.013
 6286SOL    HW219758   1.044   2.734   4.987
 6287SOL     OW19759   4.162   4.733   5.188
 6287SOL    HW119760   4.073   4.775   5.204
 6287SOL    HW219761   4.210   4.785   5.117
 6288SOL     OW19762   3.638   3.234   6.407
 6288SOL    HW119763   3.633   3.134   6.419
 6288SOL    HW219764   3.659   3.277   6.495
 6289SOL     OW19765   2.993   4.444   6.249
 6289SOL    HW119766   2.997   4.453   6.348
 6289SOL    HW219767   2.944   4.360   6.224
 6290SOL     OW19768   5.872   5.444   5.455
 6290SOL    HW119769   5.927   5.509   5.508
 6290SOL    HW219770   5.813   5.393   5.516
 6291SOL     OW19771   3.267   3.422   3.360
 6291SOL    HW119772   3.189   3.462   3.310
 6291SOL    HW219773   3.301   3.342   3.311
 6292SOL     OW19774   2.016   2.805   4.208
 6292SOL    HW119775   1.953   2.733   4.180
 6292SOL    HW219776   1.966   2.891   4.220
 6293SOL     OW19777   5.084   0.919   6.547
 6293SOL    HW119778   5.090   0.961   6.456
 6293SOL    HW219779   5.176   0.905   6.583
 6294SOL     OW19780   2.342   1.091   4.050
 6294SOL    HW119781   2.314   1.022   4.117
 6294SOL    HW219782   2.411   1.052   3.989
 6295SOL     OW19783   5.559   4.991   5.200
 6295SOL    HW119784   5.534   5.086   5.182
 6295SOL    HW219785   5.560   4.975   5.299
 6296SOL     OW19786   0.124   3.050   6.379
 6296SOL    HW119787   0.048   3.079   6.437
 6296SOL    HW219788   0.177   2.979   6.425
 6297SOL     OW19789   6.024   0.690   4.409
 6297SOL    HW119790   6.105   0.717   4.461
 6297SOL    HW219791   5.976   0.772   4.376
 6298SOL     OW19792   5.785   4.527   0.343
 6298SOL    HW119793   5.784   4.457   0.272
 6298SOL    HW219794   5.875   4.571   0.346
 6299SOL     OW19795   4.540   2.466   2.905
 6299SOL    HW119796   4.599   2.396   2.946
 6299SOL    HW219797   4.597   2.544   2.876
 6300SOL     OW19798   3.871   0.850   5.948
 6300SOL    HW119799   3.897   0.772   6.005
 6300SOL    HW219800   3.772   0.857   5.945
 6301SOL     OW19801   3.404   6.991   0.360
 6301SOL    HW119802   3.504   6.987   0.364
 6301SOL    HW219803   3.365   6.913   0.409
 6302SOL     OW19804   3.047   0.846   5.450
 6302SOL    HW119805   3.041   0.843   5.550
 6302SOL    HW219806   2.983   0.780   5.410
 6303SOL     OW19807   1.034   6.496   6.125
 6303SOL    HW119808   0.980   6.417   6.152
 6303SOL    HW219809   0.975   6.564   6.083
 6304SOL     OW19810   4.179   1.159   2.954
 6304SOL    HW119811   4.094   1.167   2.901
 6304SOL    HW219812   4.168   1.089   3.024
 6305SOL     OW19813   6.909   5.447   4.943
 6305SOL    HW119814   6.932   5.427   4.848
 6305SOL    HW219815   6.810   5.458   4.951
 6306SOL     OW19816   6.587   4.839   3.894
 6306SOL    HW119817   6.686   4.828   3.883
 6306SOL    HW219818   6.540   4.784   3.825
 6307SOL     OW19819   4.145   3.468   3.395
 6307SOL    HW119820   4.096   3.506   3.317
 6307SOL    HW219821   4.097   3.491   3.480
 6308SOL     OW19822   0.139   2.711   6.443
 6308SOL    HW119823   0.161   2.779   6.513
 6308SOL    HW219824   0.040   2.711   6.427
 6309SOL     OW19825   1.303   6.683   5.160
 6309SOL    HW119826   1.387   6.701   5.110
 6309SOL    HW219827   1.227   6.730   5.117
 6310SOL     OW19828   1.819   6.943   3.273
 6310SOL    HW119829   1.880   7.008   3.230
 6310SOL    HW219830   1.777   6.885   3.204
 6311SOL     OW19831   5.560   1.098   5.667
 6311SOL    HW119832   5.510   1.160   5.607
 6311SOL    HW219833   5.567   1.138   5.758
 6312SOL     OW19834   3.030   6.710   6.818
 6312SOL    HW119835   2.944   6.756   6.798
 6312SOL    HW219836   3.103   6.751   6.762
 6313SOL     OW19837   5.528   6.030   3.615
 6313SOL    HW119838   5.497   6.123   3.636
 6313SOL    HW219839   5.505   6.008   3.520
 6314SOL     OW19840   2.774   0.179   1.678
 6314SOL    HW119841   2.690   0.232   1.693
 6314SOL    HW219842   2.755   0.105   1.613
 6315SOL     OW19843   2.266   2.976   4.131
 6315SOL    HW119844   2.279   2.917   4.210
 6315SOL    HW219845   2.349   2.976   4.075
 6316SOL     OW19846   5.406   2.222   5.052
 6316SOL    HW119847   5.452   2.239   5.139
 6316SOL    HW219848   5.469   2.178   4.989
 6317SOL     OW19849   4.953   4.716   2.087
 6317SOL    HW119850   4.976   4.619   2.085
 6317SOL    HW219851   4.943   4.745   2.182
 6318SOL     OW19852   6.019   0.759   6.326
 6318SOL    HW119853   6.118   0.764   6.338
 6318SOL    HW219854   5.974   0.807   6.401
 6319SOL     OW19855   5.323   2.623   4.592
 6319SOL    HW119856   5.246   2.656   4.646
 6319SOL    HW219857   5.311   2.652   4.497
 6320SOL     OW19858   0.146   1.202   3.896
 6320SOL    HW119859   0.179   1.140   3.967
 6320SOL    HW219860   0.139   1.294   3.932
 6321SOL     OW19861   5.546   2.311   0.665
 6321SOL    HW119862   5.502   2.399   0.649
 6321SOL    HW219863   5.478   2.244   0.694
 6322SOL     OW19864   1.820   0.618   1.060
 6322SOL    HW119865   1.863   0.700   1.022
 6322SOL    HW219866   1.739   0.643   1.112
 6323SOL     OW19867   2.767   3.152   1.295
 6323SOL    HW119868   2.837   3.158   1.223
 6323SOL    HW219869   2.754   3.056   1.320
 6324SOL     OW19870   4.704   1.193   0.938
 6324SOL    HW119871   4.752   1.148   0.863
 6324SOL    HW219872   4.762   1.264   0.977
 6325SOL     OW19873   1.360   2.360   2.899
 6325SOL    HW119874   1.364   2.417   2.818
 6325SOL    HW219875   1.418   2.399   2.971
 6326SOL     OW19876   5.373   5.349   5.810
 6326SOL    HW119877   5.297   5.285   5.817
 6326SOL    HW219878   5.345   5.430   5.759
 6327SOL     OW19879   6.933   1.725   3.699
 6327SOL    HW119880   6.875   1.781   3.640
 6327SOL    HW219881   0.008   1.740   3.675
 6328SOL     OW19882   4.498   3.267   6.043
 6328SOL    HW119883   4.518   3.329   5.967
 6328SOL    HW219884   4.509   3.316   6.130
 6329SOL     OW19885   1.790   2.631   5.536
 6329SOL    HW119886   1.716   2.658   5.474
 6329SOL    HW219887   1.863   2.586   5.484
 6330SOL     OW19888   6.101   0.572   3.666
 6330SOL    HW119889   6.138   0.537   3.752
 6330SOL    HW219890   6.171   0.566   3.595
 6331SOL     OW19891   6.659   3.347   4.366
 6331SOL    HW119892   6.748   3.304   4.379
 6331SOL    HW219893   6.589   3.277   4.353
 6332SOL     OW19894   1.696   1.506   1.140
 6332SOL    HW119895   1.645   1.420   1.139
 6332SOL    HW219896   1.694   1.546   1.231
 6333SOL     OW19897   4.866   0.634   0.532
 6333SOL    HW119898   4.909   0.702   0.592
 6333SOL    HW219899   4.901   0.645   0.439
 6334SOL     OW19900   3.050   1.527   2.343
 6334SOL    HW119901   3.066   1.590   2.267
 6334SOL    HW219902   3.007   1.444   2.308
 6335SOL     OW19903   5.482   0.817   0.344
 6335SOL    HW119904   5.497   0.751   0.418
 6335SOL    HW219905   5.568   0.863   0.323
 6336SOL     OW19906   0.176   3.596   6.147
 6336SOL    HW119907   0.258   3.611   6.202
 6336SOL    HW219908   0.202   3.578   6.052
 6337SOL     OW19909   4.411   5.652   5.143
 6337SOL    HW119910   4.395   5.713   5.220
 6337SOL    HW219911   4.345   5.577   5.146
 6338SOL     OW19912   3.129   1.796   3.868
 6338SOL    HW119913   3.209   1.783   3.927
 6338SOL    HW219914   3.132   1.888   3.829
 6339SOL     OW19915   1.428   4.304   3.212
 6339SOL    HW119916   1.425   4.317   3.311
 6339SOL    HW219917   1.370   4.228   3.186
 6340SOL     OW19918   2.167   3.934   1.507
 6340SOL    HW119919   2.143   4.027   1.480
 6340SOL    HW219920   2.173   3.876   1.426
 6341SOL     OW19921   0.742   4.632   3.910
 6341SOL    HW119922   0.645   4.657   3.910
 6341SOL    HW219923   0.796   4.709   3.943
 6342SOL     OW19924   2.005   1.119   1.960
 6342SOL    HW119925   2.085   1.148   2.012
 6342SOL    HW219926   1.958   1.045   2.009
 6343SOL     OW19927   2.670   6.124   0.245
 6343SOL    HW119928   2.758   6.165   0.223
 6343SOL    HW219929   2.671   6.090   0.339
 6344SOL     OW19930   6.103   2.313   3.806
 6344SOL    HW119931   6.181   2.253   3.822
 6344SOL    HW219932   6.135   2.408   3.804
 6345SOL     OW19933   5.676   3.435   1.898
 6345SOL    HW119934   5.753   3.406   1.841
 6345SOL    HW219935   5.625   3.355   1.929
 6346SOL     OW19936   0.463   4.411   5.831
 6346SOL    HW119937   0.413   4.389   5.747
 6346SOL    HW219938   0.561   4.397   5.816
 6347SOL     OW19939   2.959   2.229   2.666
 6347SOL    HW119940   3.008   2.212   2.751
 6347SOL    HW219941   3.005   2.183   2.590
 6348SOL     OW19942   0.464   1.870   5.710
 6348SOL    HW119943   0.378   1.828   5.681
 6348SOL    HW219944   0.535   1.851   5.643
 6349SOL     OW19945   0.035   0.454   0.333
 6349SOL    HW119946   0.101   0.382   0.352
 6349SOL    HW219947   0.083   0.537   0.306
 6350SOL     OW19948   0.684   4.207   1.902
 6350SOL    HW119949   0.716   4.270   1.972
 6350SOL    HW219950   0.671   4.116   1.943
 6351SOL     OW19951   6.048   3.619   3.213
 6351SOL    HW119952   5.998   3.533   3.205
 6351SOL    HW219953   6.128   3.607   3.271
 6352SOL     OW19954   2.076   0.380   4.268
 6352SOL    HW119955   2.153   0.378   4.331
 6352SOL    HW219956   2.025   0.294   4.275
 6353SOL     OW19957   2.314   5.963   6.556
 6353SOL    HW119958   2.389   5.966   6.490
 6353SOL    HW219959   2.266   6.051   6.556
 6354SOL     OW19960   4.849   4.169   2.895
 6354SOL    HW119961   4.907   4.199   2.971
 6354SOL    HW219962   4.839   4.070   2.897
 6355SOL     OW19963   2.907   4.808   0.391
 6355SOL    HW119964   2.820   4.765   0.414
 6355SOL    HW219965   2.971   4.796   0.466
 6356SOL     OW19966   4.798   4.907   6.393
 6356SOL    HW119967   4.838   4.964   6.322
 6356SOL    HW219968   4.773   4.818   6.354
 6357SOL     OW19969   6.014   2.210   1.932
 6357SOL    HW119970   5.926   2.187   1.891
 6357SOL    HW219971   6.000   2.271   2.010
 6358SOL     OW19972   1.689   2.436   0.145
 6358SOL    HW119973   1.741   2.444   0.230
 6358SOL    HW219974   1.627   2.514   0.136
 6359SOL     OW19975   5.410   6.556   0.918
 6359SOL    HW119976   5.458   6.535   0.833
 6359SOL    HW219977   5.397   6.471   0.970
 6360SOL     OW19978   0.542   2.290   3.148
 6360SOL    HW119979   0.574   2.380   3.178
 6360SOL    HW219980   0.611   2.248   3.088
 6361SOL     OW19981   0.484   0.461   6.817
 6361SOL    HW119982   0.539   0.496   6.893
 6361SOL    HW219983   0.427   0.534   6.780
 6362SOL     OW19984   0.792   5.354   6.885
 6362SOL    HW119985   0.757   5.291   6.816
 6362SOL    HW219986   0.716   5.404   6.926
 6363SOL     OW19987   2.747   5.189   3.664
 6363SOL    HW119988   2.839   5.161   3.639
 6363SOL    HW219989   2.699   5.223   3.583
 6364SOL     OW19990   2.334   2.324   5.185
 6364SOL    HW119991   2.368   2.339   5.092
 6364SOL    HW219992   2.403   2.273   5.237
 6365SOL     OW19993   5.617   5.886   3.958
 6365SOL    HW119994   5.580   5.979   3.948
 6365SOL    HW219995   5.551   5.820   3.922
 6366SOL     OW19996   6.080   6.481   5.043
 6366SOL    HW119997   6.155   6.518   5.097
 6366SOL    HW219998   6.106   6.390   5.009
 6367SOL     OW19999   3.314   2.094   2.853
 6367SOL    HW120000   3.243   2.163   2.842
 6367SOL    HW220001   3.402   2.131   2.824
 6368SOL     OW20002   4.895   3.594   4.473
 6368SOL    HW120003   4.901   3.632   4.565
 6368SOL    HW220004   4.845   3.508   4.475
 6369SOL     OW20005   3.363   6.367   5.952
 6369SOL    HW120006   3.411   6.282   5.972
 6369SOL    HW220007   3.266   6.357   5.977
 6370SOL     OW20008   5.218   3.833   3.911
 6370SOL    HW120009   5.177   3.852   4.001
 6370SOL    HW220010   5.311   3.799   3.924
 6371SOL     OW20011   5.291   4.133   1.348
 6371SOL    HW120012   5.242   4.054   1.384
 6371SOL    HW220013   5.358   4.103   1.280
 6372SOL     OW20014   6.945   1.224   2.934
 6372SOL    HW120015   6.999   1.146   2.965
 6372SOL    HW220016   6.976   1.253   2.844
 6373SOL     OW20017   5.661   4.124   1.501
 6373SOL    HW120018   5.605   4.193   1.456
 6373SOL    HW220019   5.725   4.168   1.564
 6374SOL     OW20020   4.690   2.938   0.572
 6374SOL    HW120021   4.757   2.886   0.520
 6374SOL    HW220022   4.670   3.024   0.526
 6375SOL     OW20023   0.027   2.904   2.619
 6375SOL    HW120024   6.974   2.882   2.682
 6375SOL    HW220025   0.074   2.986   2.650
 6376SOL     OW20026   3.717   0.846   5.709
 6376SOL    HW120027   3.649   0.917   5.690
 6376SOL    HW220028   3.759   0.816   5.623
 6377SOL     OW20029   0.128   0.011   6.651
 6377SOL    HW120030   0.151   0.106   6.670
 6377SOL    HW220031   0.180   6.972   6.712
 6378SOL     OW20032   5.575   5.670   3.557
 6378SOL    HW120033   5.559   5.719   3.471
 6378SOL    HW220034   5.594   5.574   3.538
 6379SOL     OW20035   2.649   5.879   6.153
 6379SOL    HW120036   2.710   5.955   6.131
 6379SOL    HW220037   2.683   5.832   6.234
 6380SOL     OW20038   1.170   3.380   5.060
 6380SOL    HW120039   1.203   3.451   5.123
 6380SOL    HW220040   1.162   3.293   5.110
 6381SOL     OW20041   4.545   3.783   6.979
 6381SOL    HW120042   4.557   3.710   0.026
 6381SOL    HW220043   4.614   3.774   6.908
 6382SOL     OW20044   3.067   1.694   1.237
 6382SOL    HW120045   3.048   1.664   1.331
 6382SOL    HW220046   3.018   1.779   1.218
 6383SOL     OW20047   1.734   2.186   2.861
 6383SOL    HW120048   1.727   2.087   2.848
 6383SOL    HW220049   1.721   2.208   2.957
 6384SOL     OW20050   6.541   2.471   1.998
 6384SOL    HW120051   6.589   2.425   1.924
 6384SOL    HW220052   6.488   2.548   1.961
 6385SOL     OW20053   0.203   3.342   1.338
 6385SOL    HW120054   0.261   3.281   1.392
 6385SOL    HW220055   0.252   3.372   1.256
 6386SOL     OW20056   1.896   3.401   0.614
 6386SOL    HW120057   1.887   3.302   0.625
 6386SOL    HW220058   1.990   3.423   0.585
 6387SOL     OW20059   6.080   0.488   0.189
 6387SOL    HW120060   6.089   0.396   0.228
 6387SOL    HW220061   6.039   0.481   0.098
 6388SOL     OW20062   6.296   5.326   2.730
 6388SOL    HW120063   6.270   5.404   2.787
 6388SOL    HW220064   6.216   5.290   2.683
 6389SOL     OW20065   1.924   0.311   0.050
 6389SOL    HW120066   1.896   0.215   0.051
 6389SOL    HW220067   2.019   0.318   0.019
 6390SOL     OW20068   6.288   0.775   0.028
 6390SOL    HW120069   6.309   0.678   0.035
 6390SOL    HW220070   6.359   0.820   6.994
 6391SOL     OW20071   1.195   0.665   5.297
 6391SOL    HW120072   1.138   0.743   5.325
 6391SOL    HW220073   1.292   0.690   5.306
 6392SOL     OW20074   3.344   5.609   3.797
 6392SOL    HW120075   3.305   5.685   3.849
 6392SOL    HW220076   3.425   5.640   3.748
 6393SOL     OW20077   5.889   6.252   1.245
 6393SOL    HW120078   5.807   6.217   1.200
 6393SOL    HW220079   5.961   6.265   1.177
 6394SOL     OW20080   0.803   5.114   1.154
 6394SOL    HW120081   0.846   5.028   1.181
 6394SOL    HW220082   0.807   5.179   1.230
 6395SOL     OW20083   1.438   4.500   3.035
 6395SOL    HW120084   1.429   4.425   3.100
 6395SOL    HW220085   1.390   4.581   3.071
 6396SOL     OW20086   6.331   3.814   0.201
 6396SOL    HW120087   6.396   3.751   0.158
 6396SOL    HW220088   6.242   3.804   0.157
 6397SOL     OW20089   5.483   2.274   3.095
 6397SOL    HW120090   5.572   2.259   3.137
 6397SOL    HW220091   5.421   2.315   3.162
 6398SOL     OW20092   0.699   6.426   1.110
 6398SOL    HW120093   0.730   6.340   1.151
 6398SOL    HW220094   0.771   6.494   1.118
 6399SOL     OW20095   2.143   0.228   6.255
 6399SOL    HW120096   2.166   0.131   6.249
 6399SOL    HW220097   2.217   0.282   6.216
 6400SOL     OW20098   1.614   5.759   2.868
 6400SOL    HW120099   1.520   5.783   2.847
 6400SOL    HW220100   1.677   5.818   2.817
 6401SOL     OW20101   3.892   4.822   3.257
 6401SOL    HW120102   3.922   4.830   3.353
 6401SOL    HW220103   3.949   4.880   3.200
 6402SOL     OW20104   2.129   4.743   4.648
 6402SOL    HW120105   2.183   4.722   4.730
 6402SOL    HW220106   2.130   4.665   4.586
 6403SOL     OW20107   5.271   6.541   5.016
 6403SOL    HW120108   5.357   6.492   5.021
 6403SOL    HW220109   5.245   6.575   5.106
 6404SOL     OW20110   3.446   0.384   2.217
 6404SOL    HW120111   3.529   0.354   2.169
 6404SOL    HW220112   3.437   0.333   2.302
 6405SOL     OW20113   5.323   1.571   3.028
 6405SOL    HW120114   5.277   1.650   3.068
 6405SOL    HW220115   5.421   1.588   3.024
 6406SOL     OW20116   1.223   2.957   2.505
 6406SOL    HW120117   1.126   2.959   2.529
 6406SOL    HW220118   1.242   2.878   2.447
 6407SOL     OW20119   2.279   6.318   3.183
 6407SOL    HW120120   2.344   6.243   3.169
 6407SOL    HW220121   2.191   6.295   3.141
 6408SOL     OW20122   6.867   0.229   0.280
 6408SOL    HW120123   6.772   0.225   0.311
 6408SOL    HW220124   6.928   0.237   0.359
 6409SOL     OW20125   6.382   5.053   3.672
 6409SOL    HW120126   6.335   5.103   3.599
 6409SOL    HW220127   6.315   5.013   3.734
 6410SOL     OW20128   3.007   1.703   5.555
 6410SOL    HW120129   2.992   1.764   5.478
 6410SOL    HW220130   3.004   1.608   5.523
 6411SOL     OW20131   0.543   2.359   2.655
 6411SOL    HW120132   0.451   2.329   2.681
 6411SOL    HW220133   0.537   2.430   2.585
 6412SOL     OW20134   3.412   0.739   6.900
 6412SOL    HW120135   3.450   0.656   6.940
 6412SOL    HW220136   3.356   0.787   6.968
 6413SOL     OW20137   4.367   4.988   4.238
 6413SOL    HW120138   4.299   5.024   4.174
 6413SOL    HW220139   4.417   4.913   4.194
 6414SOL     OW20140   1.015   0.091   6.848
 6414SOL    HW120141   1.029   0.039   6.933
 6414SOL    HW220142   1.082   0.165   6.844
 6415SOL     OW20143   1.281   2.916   3.535
 6415SOL    HW120144   1.236   2.920   3.624
 6415SOL    HW220145   1.250   2.993   3.479
 6416SOL     OW20146   2.939   0.341   6.517
 6416SOL    HW120147   2.900   0.409   6.579
 6416SOL    HW220148   3.002   0.387   6.454
 6417SOL     OW20149   5.005   1.832   1.068
 6417SOL    HW120150   4.939   1.871   1.133
 6417SOL    HW220151   5.023   1.898   0.995
 6418SOL     OW20152   4.354   4.758   1.270
 6418SOL    HW120153   4.260   4.785   1.251
 6418SOL    HW220154   4.370   4.665   1.235
 6419SOL     OW20155   0.671   6.585   6.475
 6419SOL    HW120156   0.693   6.675   6.437
 6419SOL    HW220157   0.753   6.545   6.515
 6420SOL     OW20158   1.172   3.263   3.901
 6420SOL    HW120159   1.118   3.340   3.934
 6420SOL    HW220160   1.186   3.272   3.802
 6421SOL     OW20161   5.065   6.939   1.828
 6421SOL    HW120162   5.138   6.956   1.762
 6421SOL    HW220163   5.103   6.892   1.908
 6422SOL     OW20164   6.972   2.994   4.555
 6422SOL    HW120165   0.020   2.934   4.514
 6422SOL    HW220166   7.012   3.043   4.632
 6423SOL     OW20167   2.544   4.634   4.253
 6423SOL    HW120168   2.565   4.691   4.174
 6423SOL    HW220169   2.518   4.542   4.222
 6424SOL     OW20170   0.818   3.729   4.980
 6424SOL    HW120171   0.898   3.678   4.948
 6424SOL    HW220172   0.743   3.665   4.997
 6425SOL     OW20173   0.087   6.123   2.457
 6425SOL    HW120174   0.155   6.058   2.490
 6425SOL    HW220175   0.026   6.078   2.392
 6426SOL     OW20176   4.599   4.440   4.863
 6426SOL    HW120177   4.567   4.429   4.769
 6426SOL    HW220178   4.521   4.457   4.924
 6427SOL     OW20179   3.144   3.636   3.818
 6427SOL    HW120180   3.195   3.644   3.732
 6427SOL    HW220181   3.209   3.634   3.895
 6428SOL     OW20182   4.533   2.750   0.257
 6428SOL    HW120183   4.559   2.777   0.350
 6428SOL    HW220184   4.470   2.672   0.261
 6429SOL     OW20185   2.630   0.748   5.275
 6429SOL    HW120186   2.564   0.817   5.301
 6429SOL    HW220187   2.635   0.742   5.175
 6430SOL     OW20188   6.811   0.407   5.118
 6430SOL    HW120189   6.780   0.447   5.204
 6430SOL    HW220190   6.816   0.308   5.128
 6431SOL     OW20191   4.448   5.097   2.732
 6431SOL    HW120192   4.473   5.168   2.797
 6431SOL    HW220193   4.435   5.137   2.641
 6432SOL     OW20194   3.701   4.420   6.829
 6432SOL    HW120195   3.741   4.482   6.762
 6432SOL    HW220196   3.766   4.405   6.903
 6433SOL     OW20197   2.401   5.584   6.848
 6433SOL    HW120198   2.483   5.612   6.798
 6433SOL    HW220199   2.416   5.494   6.888
 6434SOL     OW20200   2.813   5.974   5.902
 6434SOL    HW120201   2.873   5.900   5.874
 6434SOL    HW220202   2.780   6.023   5.822
 6435SOL     OW20203   5.355   0.466   0.891
 6435SOL    HW120204   5.316   0.450   0.800
 6435SOL    HW220205   5.396   0.381   0.924
 6436SOL     OW20206   0.420   3.946   3.927
 6436SOL    HW120207   0.448   3.852   3.906
 6436SOL    HW220208   0.329   3.946   3.968
 6437SOL     OW20209   0.516   1.291   5.481
 6437SOL    HW120210   0.512   1.256   5.575
 6437SOL    HW220211   0.612   1.306   5.455
 6438SOL     OW20212   0.579   5.640   6.779
 6438SOL    HW120213   0.490   5.679   6.753
 6438SOL    HW220214   0.578   5.619   6.877
 6439SOL     OW20215   5.886   0.746   3.381
 6439SOL    HW120216   5.923   0.783   3.466
 6439SOL    HW220217   5.821   0.673   3.401
 6440SOL     OW20218   2.560   0.529   5.959
 6440SOL    HW120219   2.612   0.492   5.882
 6440SOL    HW220220   2.609   0.607   5.997
 6441SOL     OW20221   0.131   1.046   2.961
 6441SOL    HW120222   0.220   1.020   2.998
 6441SOL    HW220223   0.144   1.096   2.875
 6442SOL     OW20224   2.576   2.256   5.685
 6442SOL    HW120225   2.519   2.201   5.624
 6442SOL    HW220226   2.548   2.352   5.678
 6443SOL     OW20227   4.172   2.440   0.799
 6443SOL    HW120228   4.188   2.534   0.767
 6443SOL    HW220229   4.157   2.441   0.898
 6444SOL     OW20230   0.395   2.765   5.580
 6444SOL    HW120231   0.296   2.753   5.571
 6444SOL    HW220232   0.440   2.676   5.577
 6445SOL     OW20233   2.914   3.734   2.991
 6445SOL    HW120234   2.871   3.645   3.003
 6445SOL    HW220235   2.914   3.758   2.894
 6446SOL     OW20236   1.988   1.642   6.742
 6446SOL    HW120237   1.986   1.603   6.834
 6446SOL    HW220238   1.895   1.652   6.707
 6447SOL     OW20239   6.020   4.684   1.098
 6447SOL    HW120240   5.978   4.732   1.021
 6447SOL    HW220241   5.980   4.593   1.106
 6448SOL     OW20242   4.812   5.669   1.645
 6448SOL    HW120243   4.808   5.574   1.615
 6448SOL    HW220244   4.801   5.729   1.566
 6449SOL     OW20245   2.544   5.438   1.758
 6449SOL    HW120246   2.546   5.357   1.700
 6449SOL    HW220247   2.603   5.509   1.719
 6450SOL     OW20248   0.400   3.914   1.187
 6450SOL    HW120249   0.462   3.989   1.209
 6450SOL    HW220250   0.324   3.913   1.252
 6451SOL     OW20251   3.507   2.425   0.975
 6451SOL    HW120252   3.496   2.458   0.882
 6451SOL    HW220253   3.443   2.350   0.992
 6452SOL     OW20254   5.506   3.540   3.398
 6452SOL    HW120255   5.569   3.541   3.320
 6452SOL    HW220256   5.538   3.604   3.468
 6453SOL     OW20257   3.683   6.967   0.998
 6453SOL    HW120258   3.685   6.915   1.083
 6453SOL    HW220259   3.777   6.993   0.974
 6454SOL     OW20260   6.601   2.856   2.689
 6454SOL    HW120261   6.587   2.782   2.624
 6454SOL    HW220262   6.545   2.935   2.664
 6455SOL     OW20263   6.657   4.188   3.295
 6455SOL    HW120264   6.573   4.170   3.244
 6455SOL    HW220265   6.736   4.174   3.235
 6456SOL     OW20266   6.717   1.478   3.273
 6456SOL    HW120267   6.813   1.506   3.281
 6456SOL    HW220268   6.705   1.419   3.194
 6457SOL     OW20269   4.839   6.888   1.970
 6457SOL    HW120270   4.775   6.847   1.905
 6457SOL    HW220271   4.920   6.920   1.922
 6458SOL     OW20272   0.986   5.177   3.418
 6458SOL    HW120273   0.966   5.202   3.513
 6458SOL    HW220274   1.025   5.085   3.416
 6459SOL     OW20275   6.683   2.724   3.029
 6459SOL    HW120276   6.623   2.793   3.068
 6459SOL    HW220277   6.628   2.654   2.983
 6460SOL     OW20278   0.035   6.138   5.639
 6460SOL    HW120279   0.007   6.137   5.543
 6460SOL    HW220280   0.070   6.047   5.664
 6461SOL     OW20281   2.999   4.334   0.601
 6461SOL    HW120282   3.025   4.429   0.618
 6461SOL    HW220283   2.980   4.322   0.504
 6462SOL     OW20284   1.608   4.094   4.909
 6462SOL    HW120285   1.549   4.015   4.892
 6462SOL    HW220286   1.631   4.138   4.822
 6463SOL     OW20287   4.499   1.091   1.097
 6463SOL    HW120288   4.521   1.103   1.194
 6463SOL    HW220289   4.580   1.112   1.042
 6464SOL     OW20290   1.243   6.474   4.140
 6464SOL    HW120291   1.330   6.429   4.161
 6464SOL    HW220292   1.177   6.406   4.109
 6465SOL     OW20293   5.120   2.492   3.067
 6465SOL    HW120294   5.028   2.465   3.039
 6465SOL    HW220295   5.186   2.461   2.999
 6466SOL     OW20296   0.033   3.795   0.127
 6466SOL    HW120297   0.060   3.846   0.046
 6466SOL    HW220298   0.080   3.707   0.129
 6467SOL     OW20299   3.205   1.032   0.978
 6467SOL    HW120300   3.194   1.128   1.001
 6467SOL    HW220301   3.173   1.016   0.885
 6468SOL     OW20302   3.225   0.180   0.295
 6468SOL    HW120303   3.216   0.189   0.196
 6468SOL    HW220304   3.257   0.088   0.317
 6469SOL     OW20305   3.296   1.563   3.443
 6469SOL    HW120306   3.278   1.641   3.503
 6469SOL    HW220307   3.286   1.478   3.495
 6470SOL     OW20308   6.586   2.753   6.578
 6470SOL    HW120309   6.492   2.720   6.574
 6470SOL    HW220310   6.647   2.677   6.601
 6471SOL     OW20311   0.410   6.146   4.645
 6471SOL    HW120312   0.378   6.065   4.596
 6471SOL    HW220313   0.505   6.132   4.672
 6472SOL     OW20314   0.139   5.736   2.229
 6472SOL    HW120315   0.145   5.753   2.327
 6472SOL    HW220316   0.044   5.715   2.204
 6473SOL     OW20317   1.651   1.364   4.082
 6473SOL    HW120318   1.629   1.382   3.986
 6473SOL    HW220319   1.661   1.451   4.131
 6474SOL     OW20320   3.840   5.773   4.328
 6474SOL    HW120321   3.911   5.742   4.391
 6474SOL    HW220322   3.750   5.743   4.361
 6475SOL     OW20323   5.589   5.253   3.224
 6475SOL    HW120324   5.676   5.217   3.193
 6475SOL    HW220325   5.517   5.227   3.160
 6476SOL     OW20326   4.122   2.003   6.597
 6476SOL    HW120327   4.141   2.027   6.692
 6476SOL    HW220328   4.034   2.040   6.570
 6477SOL     OW20329   6.996   6.196   1.118
 6477SOL    HW120330   0.072   6.171   1.114
 6477SOL    HW220331   6.987   6.289   1.153
 6478SOL     OW20332   3.018   5.491   1.840
 6478SOL    HW120333   3.062   5.484   1.751
 6478SOL    HW220334   2.948   5.420   1.848
 6479SOL     OW20335   3.311   6.183   3.951
 6479SOL    HW120336   3.235   6.174   3.886
 6479SOL    HW220337   3.274   6.196   4.043
 6480SOL     OW20338   2.968   1.346   6.391
 6480SOL    HW120339   2.963   1.304   6.482
 6480SOL    HW220340   3.026   1.289   6.332
 6481SOL     OW20341   3.285   2.527   1.620
 6481SOL    HW120342   3.248   2.619   1.612
 6481SOL    HW220343   3.212   2.464   1.648
 6482SOL     OW20344   6.777   3.250   5.103
 6482SOL    HW120345   6.719   3.181   5.060
 6482SOL    HW220346   6.873   3.227   5.087
 6483SOL     OW20347   1.404   5.771   4.442
 6483SOL    HW120348   1.392   5.737   4.535
 6483SOL    HW220349   1.458   5.855   4.444
 6484SOL     OW20350   2.592   0.994   3.835
 6484SOL    HW120351   2.561   0.964   3.745
 6484SOL    HW220352   2.602   0.914   3.895
 6485SOL     OW20353   1.777   6.450   4.706
 6485SOL    HW120354   1.859   6.451   4.763
 6485SOL    HW220355   1.708   6.391   4.748
 6486SOL     OW20356   1.654   5.498   3.372
 6486SOL    HW120357   1.704   5.521   3.455
 6486SOL    HW220358   1.576   5.440   3.394
 6487SOL     OW20359   0.247   4.778   3.997
 6487SOL    HW120360   0.293   4.832   4.068
 6487SOL    HW220361   0.316   4.732   3.941
 6488SOL     OW20362   4.775   5.728   4.588
 6488SOL    HW120363   4.803   5.704   4.681
 6488SOL    HW220364   4.680   5.698   4.574
 6489SOL     OW20365   3.908   3.179   6.311
 6489SOL    HW120366   3.814   3.167   6.342
 6489SOL    HW220367   3.924   3.122   6.230
 6490SOL     OW20368   1.863   1.556   7.002
 6490SOL    HW120369   1.883   1.594   0.072
 6490SOL    HW220370   1.811   1.622   6.949
 6491SOL     OW20371   1.477   0.212   0.811
 6491SOL    HW120372   1.497   0.269   0.891
 6491SOL    HW220373   1.382   0.226   0.783
 6492SOL     OW20374   3.163   3.869   4.676
 6492SOL    HW120375   3.089   3.825   4.728
 6492SOL    HW220376   3.251   3.841   4.714
 6493SOL     OW20377   1.492   4.481   6.404
 6493SOL    HW120378   1.528   4.434   6.484
 6493SOL    HW220379   1.494   4.420   6.325
 6494SOL     OW20380   5.947   6.330   1.728
 6494SOL    HW120381   5.885   6.371   1.663
 6494SOL    HW220382   5.995   6.402   1.779
 6495SOL     OW20383   0.162   0.193   3.664
 6495SOL    HW120384   0.080   0.237   3.701
 6495SOL    HW220385   0.198   0.128   3.731
 6496SOL     OW20386   4.647   0.075   2.349
 6496SOL    HW120387   4.730   0.111   2.305
 6496SOL    HW220388   4.582   0.047   2.279
 6497SOL     OW20389   0.338   1.442   0.846
 6497SOL    HW120390   0.317   1.368   0.910
 6497SOL    HW220391   0.365   1.524   0.897
 6498SOL     OW20392   0.854   4.177   4.117
 6498SOL    HW120393   0.845   4.254   4.054
 6498SOL    HW220394   0.780   4.112   4.101
 6499SOL     OW20395   6.338   4.102   4.253
 6499SOL    HW120396   6.291   4.133   4.170
 6499SOL    HW220397   6.437   4.098   4.235
 6500SOL     OW20398   1.261   3.585   2.448
 6500SOL    HW120399   1.347   3.570   2.496
 6500SOL    HW220400   1.238   3.505   2.393
 6501SOL     OW20401   6.269   1.865   0.934
 6501SOL    HW120402   6.225   1.882   1.023
 6501SOL    HW220403   6.348   1.805   0.948
 6502SOL     OW20404   5.954   4.034   1.822
 6502SOL    HW120405   5.909   3.949   1.794
 6502SOL    HW220406   5.920   4.110   1.767
 6503SOL     OW20407   6.796   3.144   5.518
 6503SOL    HW120408   6.786   3.243   5.528
 6503SOL    HW220409   6.831   3.105   5.603
 6504SOL     OW20410   4.773   6.656   6.437
 6504SOL    HW120411   4.784   6.753   6.415
 6504SOL    HW220412   4.699   6.645   6.504
 6505SOL     OW20413   5.557   6.395   6.854
 6505SOL    HW120414   5.514   6.305   6.861
 6505SOL    HW220415   5.647   6.386   6.811
 6506SOL     OW20416   0.155   2.912   3.257
 6506SOL    HW120417   0.180   2.829   3.208
 6506SOL    HW220418   0.210   2.919   3.340
 6507SOL     OW20419   3.131   5.646   6.551
 6507SOL    HW120420   3.048   5.639   6.606
 6507SOL    HW220421   3.107   5.643   6.454
 6508SOL     OW20422   1.211   6.751   1.417
 6508SOL    HW120423   1.243   6.729   1.325
 6508SOL    HW220424   1.286   6.736   1.482
 6509SOL     OW20425   3.325   1.731   5.482
 6509SOL    HW120426   3.335   1.654   5.545
 6509SOL    HW220427   3.229   1.759   5.478
 6510SOL     OW20428   4.163   5.744   5.678
 6510SOL    HW120429   4.135   5.759   5.583
 6510SOL    HW220430   4.254   5.704   5.680
 6511SOL     OW20431   3.980   1.701   6.424
 6511SOL    HW120432   3.892   1.691   6.378
 6511SOL    HW220433   4.031   1.777   6.384
 6512SOL     OW20434   2.988   0.683   1.330
 6512SOL    HW120435   3.056   0.721   1.268
 6512SOL    HW220436   2.922   0.754   1.356
 6513SOL     OW20437   2.827   5.574   4.898
 6513SOL    HW120438   2.743   5.532   4.866
 6513SOL    HW220439   2.902   5.508   4.894
 6514SOL     OW20440   5.788   0.436   5.076
 6514SOL    HW120441   5.720   0.365   5.061
 6514SOL    HW220442   5.831   0.423   5.166
 6515SOL     OW20443   2.390   5.107   2.234
 6515SOL    HW120444   2.394   5.206   2.222
 6515SOL    HW220445   2.310   5.071   2.185
 6516SOL     OW20446   0.380   3.173   1.493
 6516SOL    HW120447   0.472   3.212   1.500
 6516SOL    HW220448   0.335   3.179   1.582
 6517SOL     OW20449   6.898   2.739   6.438
 6517SOL    HW120450   6.845   2.823   6.431
 6517SOL    HW220451   6.873   2.691   6.522
 6518SOL     OW20452   0.553   1.126   2.893
 6518SOL    HW120453   0.507   1.214   2.904
 6518SOL    HW220454   0.525   1.084   2.807
 6519SOL     OW20455   0.735   1.355   3.552
 6519SOL    HW120456   0.768   1.292   3.623
 6519SOL    HW220457   0.808   1.374   3.487
 6520SOL     OW20458   6.955   5.679   6.703
 6520SOL    HW120459   7.006   5.730   6.773
 6520SOL    HW220460   6.952   5.733   6.619
 6521SOL     OW20461   1.368   3.033   3.850
 6521SOL    HW120462   1.459   3.033   3.891
 6521SOL    HW220463   1.325   3.123   3.863
 6522SOL     OW20464   3.010   3.907   5.625
 6522SOL    HW120465   2.934   3.960   5.586
 6522SOL    HW220466   3.096   3.956   5.609
 6523SOL     OW20467   6.060   0.239   0.247
 6523SOL    HW120468   6.118   0.158   0.258
 6523SOL    HW220469   5.972   0.223   0.292
 6524SOL     OW20470   2.510   2.143   2.008
 6524SOL    HW120471   2.578   2.179   1.943
 6524SOL    HW220472   2.450   2.078   1.961
 6525SOL     OW20473   1.290   5.395   3.698
 6525SOL    HW120474   1.320   5.385   3.793
 6525SOL    HW220475   1.190   5.390   3.695
 6526SOL     OW20476   0.173   6.865   0.906
 6526SOL    HW120477   0.213   6.956   0.903
 6526SOL    HW220478   0.103   6.861   0.976
 6527SOL     OW20479   0.797   2.395   0.698
 6527SOL    HW120480   0.738   2.441   0.631
 6527SOL    HW220481   0.837   2.464   0.758
 6528SOL     OW20482   6.278   1.045   5.754
 6528SOL    HW120483   6.369   1.041   5.712
 6528SOL    HW220484   6.218   1.102   5.697
 6529SOL     OW20485   6.942   1.557   2.384
 6529SOL    HW120486   6.960   1.629   2.450
 6529SOL    HW220487   6.861   1.581   2.329
 6530SOL     OW20488   0.787   2.449   2.315
 6530SOL    HW120489   0.783   2.505   2.232
 6530SOL    HW220490   0.765   2.505   2.394
 6531SOL     OW20491   4.177   3.249   5.997
 6531SOL    HW120492   4.211   3.175   6.055
 6531SOL    HW220493   4.079   3.240   5.985
 6532SOL     OW20494   1.356   0.896   1.175
 6532SOL    HW120495   1.392   0.989   1.161
 6532SOL    HW220496   1.324   0.860   1.088
 6533SOL     OW20497   4.670   4.090   6.614
 6533SOL    HW120498   4.760   4.056   6.644
 6533SOL    HW220499   4.659   4.073   6.516
 6534SOL     OW20500   6.052   4.646   2.169
 6534SOL    HW120501   5.958   4.672   2.190
 6534SOL    HW220502   6.090   4.593   2.244
 6535SOL     OW20503   5.955   3.458   4.436
 6535SOL    HW120504   6.014   3.479   4.514
 6535SOL    HW220505   5.974   3.364   4.405
 6536SOL     OW20506   0.458   2.411   5.590
 6536SOL    HW120507   0.449   2.431   5.688
 6536SOL    HW220508   0.394   2.338   5.565
 6537SOL     OW20509   6.013   4.500   5.361
 6537SOL    HW120510   5.999   4.565   5.287
 6537SOL    HW220511   6.111   4.481   5.370
 6538SOL     OW20512   2.116   3.813   5.126
 6538SOL    HW120513   2.181   3.774   5.191
 6538SOL    HW220514   2.160   3.886   5.075
 6539SOL     OW20515   6.182   1.131   6.855
 6539SOL    HW120516   6.169   1.050   6.797
 6539SOL    HW220517   6.152   1.111   6.948
 6540SOL     OW20518   4.229   2.613   5.748
 6540SOL    HW120519   4.130   2.601   5.751
 6540SOL    HW220520   4.253   2.703   5.784
 6541SOL     OW20521   5.733   1.774   5.459
 6541SOL    HW120522   5.760   1.787   5.555
 6541SOL    HW220523   5.787   1.700   5.419
 6542SOL     OW20524   1.472   3.328   4.501
 6542SOL    HW120525   1.560   3.283   4.511
 6542SOL    HW220526   1.449   3.376   4.586
 6543SOL     OW20527   3.630   2.044   4.891
 6543SOL    HW120528   3.531   2.062   4.886
 6543SOL    HW220529   3.671   2.056   4.801
 6544SOL     OW20530   0.749   0.289   1.626
 6544SOL    HW120531   0.663   0.340   1.633
 6544SOL    HW220532   0.755   0.246   1.536
 6545SOL     OW20533   4.461   0.223   1.342
 6545SOL    HW120534   4.400   0.302   1.354
 6545SOL    HW220535   4.406   0.141   1.326
 6546SOL     OW20536   5.098   4.770   6.398
 6546SOL    HW120537   5.124   4.847   6.457
 6546SOL    HW220538   5.007   4.738   6.423
 6547SOL     OW20539   5.334   6.561   6.885
 6547SOL    HW120540   5.254   6.523   6.932
 6547SOL    HW220541   5.409   6.495   6.886
 6548SOL     OW20542   0.831   2.749   6.167
 6548SOL    HW120543   0.928   2.730   6.182
 6548SOL    HW220544   0.812   2.744   6.069
 6549SOL     OW20545   5.199   6.621   1.992
 6549SOL    HW120546   5.217   6.710   2.034
 6549SOL    HW220547   5.109   6.588   2.022
 6550SOL     OW20548   6.542   6.861   3.013
 6550SOL    HW120549   6.565   6.768   2.982
 6550SOL    HW220550   6.625   6.917   3.014
 6551SOL     OW20551   3.076   3.569   1.643
 6551SOL    HW120552   3.010   3.639   1.617
 6551SOL    HW220553   3.033   3.502   1.704
 6552SOL     OW20554   2.115   6.757   0.446
 6552SOL    HW120555   2.167   6.827   0.398
 6552SOL    HW220556   2.127   6.768   0.545
 6553SOL     OW20557   6.979   1.305   2.677
 6553SOL    HW120558   0.013   1.378   2.637
 6553SOL    HW220559   6.942   1.247   2.605
 6554SOL     OW20560   2.890   1.076   4.472
 6554SOL    HW120561   2.791   1.078   4.466
 6554SOL    HW220562   2.926   1.014   4.402
 6555SOL     OW20563   6.500   2.124   4.808
 6555SOL    HW120564   6.442   2.186   4.754
 6555SOL    HW220565   6.459   2.110   4.898
 6556SOL     OW20566   6.017   3.218   3.277
 6556SOL    HW120567   6.113   3.213   3.249
 6556SOL    HW220568   5.961   3.164   3.215
 6557SOL     OW20569   1.165   6.820   2.491
 6557SOL    HW120570   1.170   6.816   2.392
 6557SOL    HW220571   1.139   6.731   2.528
 6558SOL     OW20572   5.850   5.291   0.434
 6558SOL    HW120573   5.942   5.324   0.456
 6558SOL    HW220574   5.838   5.200   0.474
 6559SOL     OW20575   0.097   3.827   6.502
 6559SOL    HW120576   0.139   3.743   6.535
 6559SOL    HW220577   0.168   3.895   6.484
 6560SOL     OW20578   4.405   4.764   0.463
 6560SOL    HW120579   4.460   4.751   0.545
 6560SOL    HW220580   4.437   4.701   0.392
 6561SOL     OW20581   4.123   5.031   0.368
 6561SOL    HW120582   4.096   5.113   0.419
 6561SOL    HW220583   4.129   5.053   0.271
 6562SOL     OW20584   5.365   2.182   0.818
 6562SOL    HW120585   5.267   2.199   0.802
 6562SOL    HW220586   5.383   2.181   0.916
 6563SOL     OW20587   5.524   0.019   5.627
 6563SOL    HW120588   5.559   0.084   5.695
 6563SOL    HW220589   5.448   0.061   5.578
 6564SOL     OW20590   6.856   3.670   2.270
 6564SOL    HW120591   6.824   3.630   2.356
 6564SOL    HW220592   6.928   3.612   2.231
 6565SOL     OW20593   6.367   6.676   2.277
 6565SOL    HW120594   6.415   6.634   2.354
 6565SOL    HW220595   6.422   6.668   2.194
 6566SOL     OW20596   3.714   5.389   2.344
 6566SOL    HW120597   3.627   5.381   2.294
 6566SOL    HW220598   3.722   5.482   2.381
 6567SOL     OW20599   4.319   0.748   1.477
 6567SOL    HW120600   4.258   0.704   1.410
 6567SOL    HW220601   4.406   0.699   1.479
 6568SOL     OW20602   4.127   1.444   1.965
 6568SOL    HW120603   4.156   1.536   1.994
 6568SOL    HW220604   4.035   1.449   1.925
 6569SOL     OW20605   0.875   2.951   5.837
 6569SOL    HW120606   0.858   3.046   5.811
 6569SOL    HW220607   0.971   2.928   5.819
 6570SOL     OW20608   4.055   0.050   2.053
 6570SOL    HW120609   4.016   0.138   2.078
 6570SOL    HW220610   3.989   6.998   2.070
 6571SOL     OW20611   2.356   4.792   3.545
 6571SOL    HW120612   2.397   4.883   3.556
 6571SOL    HW220613   2.414   4.724   3.590
 6572SOL     OW20614   0.168   4.820   3.674
 6572SOL    HW120615   0.072   4.843   3.689
 6572SOL    HW220616   0.176   4.756   3.597
 6573SOL     OW20617   1.640   0.946   3.083
 6573SOL    HW120618   1.611   0.927   2.989
 6573SOL    HW220619   1.559   0.958   3.141
 6574SOL     OW20620   2.020   6.560   3.126
 6574SOL    HW120621   1.949   6.590   3.062
 6574SOL    HW220622   2.105   6.610   3.107
 6575SOL     OW20623   6.869   0.286   2.644
 6575SOL    HW120624   6.912   0.197   2.630
 6575SOL    HW220625   6.774   0.283   2.611
 6576SOL     OW20626   3.796   4.949   0.260
 6576SOL    HW120627   3.892   4.976   0.271
 6576SOL    HW220628   3.768   4.892   0.337
 6577SOL     OW20629   1.978   2.664   3.781
 6577SOL    HW120630   1.883   2.694   3.790
 6577SOL    HW220631   2.037   2.724   3.835
 6578SOL     OW20632   1.074   5.031   1.169
 6578SOL    HW120633   1.029   5.026   1.080
 6578SOL    HW220634   1.170   5.056   1.157
 6579SOL     OW20635   6.900   1.182   3.714
 6579SOL    HW120636   6.817   1.140   3.752
 6579SOL    HW220637   6.976   1.166   3.776
 6580SOL     OW20638   1.257   0.402   0.159
 6580SOL    HW120639   1.298   0.350   0.084
 6580SOL    HW220640   1.291   0.496   0.158
 6581SOL     OW20641   1.700   1.555   0.370
 6581SOL    HW120642   1.638   1.477   0.367
 6581SOL    HW220643   1.650   1.637   0.400
 6582SOL     OW20644   6.429   0.323   2.875
 6582SOL    HW120645   6.448   0.233   2.837
 6582SOL    HW220646   6.411   0.388   2.801
 6583SOL     OW20647   4.505   6.964   6.032
 6583SOL    HW120648   4.583   0.001   6.055
 6583SOL    HW220649   4.438   7.017   5.980
 6584SOL     OW20650   3.931   2.750   0.942
 6584SOL    HW120651   3.863   2.688   0.981
 6584SOL    HW220652   4.007   2.762   1.006
 6585SOL     OW20653   6.571   0.048   0.671
 6585SOL    HW120654   6.667   0.066   0.694
 6585SOL    HW220655   6.512   0.078   0.746
 6586SOL     OW20656   6.423   2.228   6.047
 6586SOL    HW120657   6.482   2.172   6.106
 6586SOL    HW220658   6.414   2.319   6.087
 6587SOL     OW20659   1.471   4.334   5.600
 6587SOL    HW120660   1.455   4.404   5.530
 6587SOL    HW220661   1.539   4.368   5.665
 6588SOL     OW20662   0.286   3.378   0.690
 6588SOL    HW120663   0.216   3.407   0.755
 6588SOL    HW220664   0.242   3.334   0.612
 6589SOL     OW20665   6.215   1.161   1.351
 6589SOL    HW120666   6.285   1.174   1.420
 6589SOL    HW220667   6.236   1.081   1.296
 6590SOL     OW20668   0.689   0.778   5.161
 6590SOL    HW120669   0.598   0.738   5.167
 6590SOL    HW220670   0.752   0.713   5.118
 6591SOL     OW20671   4.950   5.493   4.506
 6591SOL    HW120672   4.992   5.463   4.420
 6591SOL    HW220673   4.877   5.559   4.486
 6592SOL     OW20674   4.932   0.011   3.149
 6592SOL    HW120675   4.945   0.094   3.094
 6592SOL    HW220676   4.979   6.956   3.105
 6593SOL     OW20677   2.870   2.190   2.302
 6593SOL    HW120678   2.778   2.191   2.341
 6593SOL    HW220679   2.869   2.234   2.212
 6594SOL     OW20680   3.802   1.628   5.953
 6594SOL    HW120681   3.886   1.646   6.003
 6594SOL    HW220682   3.820   1.628   5.855
 6595SOL     OW20683   2.122   2.467   4.578
 6595SOL    HW120684   2.078   2.442   4.492
 6595SOL    HW220685   2.052   2.472   4.650
 6596SOL     OW20686   5.253   5.509   2.616
 6596SOL    HW120687   5.317   5.433   2.607
 6596SOL    HW220688   5.163   5.474   2.643
 6597SOL     OW20689   1.179   5.176   1.552
 6597SOL    HW120690   1.266   5.127   1.549
 6597SOL    HW220691   1.128   5.159   1.468
 6598SOL     OW20692   1.930   4.574   4.082
 6598SOL    HW120693   1.860   4.527   4.029
 6598SOL    HW220694   1.940   4.530   4.171
 6599SOL     OW20695   5.723   5.803   6.588
 6599SOL    HW120696   5.739   5.901   6.578
 6599SOL    HW220697   5.625   5.784   6.581
 6600SOL     OW20698   4.903   0.801   5.469
 6600SOL    HW120699   4.818   0.752   5.487
 6600SOL    HW220700   4.952   0.816   5.555
 6601SOL     OW20701   1.017   2.894   3.296
 6601SOL    HW120702   0.920   2.919   3.290
 6601SOL    HW220703   1.066   2.962   3.351
 6602SOL     OW20704   2.716   0.021   1.471
 6602SOL    HW120705   2.742   0.026   1.375
 6602SOL    HW220706   2.618   0.004   1.479
 6603SOL     OW20707   0.596   3.082   4.309
 6603SOL    HW120708   0.693   3.103   4.296
 6603SOL    HW220709   0.547   3.100   4.223
 6604SOL     OW20710   2.404   0.406   1.942
 6604SOL    HW120711   2.396   0.378   2.038
 6604SOL    HW220712   2.477   0.473   1.932
 6605SOL     OW20713   5.776   5.819   2.090
 6605SOL    HW120714   5.792   5.768   2.174
 6605SOL    HW220715   5.738   5.757   2.020
 6606SOL     OW20716   1.398   3.815   3.061
 6606SOL    HW120717   1.392   3.892   2.999
 6606SOL    HW220718   1.387   3.730   3.010
 6607SOL     OW20719   6.061   4.697   4.317
 6607SOL    HW120720   6.018   4.782   4.350
 6607SOL    HW220721   6.130   4.667   4.383
 6608SOL     OW20722   6.898   6.874   0.103
 6608SOL    HW120723   6.968   6.887   0.174
 6608SOL    HW220724   6.895   6.954   0.044
 6609SOL     OW20725   4.753   1.713   5.881
 6609SOL    HW120726   4.661   1.741   5.907
 6609SOL    HW220727   4.791   1.654   5.952
 6610SOL     OW20728   2.489   5.981   0.738
 6610SOL    HW120729   2.503   5.904   0.800
 6610SOL    HW220730   2.432   6.050   0.784
 6611SOL     OW20731   4.893   2.607   3.688
 6611SOL    HW120732   4.947   2.573   3.611
 6611SOL    HW220733   4.955   2.631   3.763
 6612SOL     OW20734   6.190   2.113   6.281
 6612SOL    HW120735   6.127   2.154   6.348
 6612SOL    HW220736   6.176   2.156   6.192
 6613SOL     OW20737   5.582   0.725   6.356
 6613SOL    HW120738   5.569   0.813   6.403
 6613SOL    HW220739   5.617   0.657   6.420
 6614SOL     OW20740   4.823   5.923   1.507
 6614SOL    HW120741   4.809   6.009   1.458
 6614SOL    HW220742   4.805   5.936   1.604
 6615SOL     OW20743   3.092   5.447   0.326
 6615SOL    HW120744   3.115   5.498   0.409
 6615SOL    HW220745   3.010   5.392   0.342
 6616SOL     OW20746   4.381   0.339   6.165
 6616SOL    HW120747   4.319   0.271   6.125
 6616SOL    HW220748   4.418   0.397   6.093
 6617SOL     OW20749   3.930   0.284   3.357
 6617SOL    HW120750   4.002   0.248   3.415
 6617SOL    HW220751   3.951   0.379   3.333
 6618SOL     OW20752   0.619   1.479   3.155
 6618SOL    HW120753   0.698   1.530   3.190
 6618SOL    HW220754   0.596   1.512   3.064
 6619SOL     OW20755   4.352   0.137   4.150
 6619SOL    HW120756   4.280   0.093   4.205
 6619SOL    HW220757   4.341   0.110   4.054
 6620SOL     OW20758   1.081   3.901   3.601
 6620SOL    HW120759   1.112   3.845   3.678
 6620SOL    HW220760   1.075   3.997   3.630
 6621SOL     OW20761   3.413   3.177   4.808
 6621SOL    HW120762   3.356   3.104   4.769
 6621SOL    HW220763   3.451   3.233   4.734
 6622SOL     OW20764   6.180   5.717   0.984
 6622SOL    HW120765   6.235   5.769   1.049
 6622SOL    HW220766   6.184   5.761   0.894
 6623SOL     OW20767   3.408   4.251   5.169
 6623SOL    HW120768   3.473   4.245   5.094
 6623SOL    HW220769   3.332   4.187   5.153
 6624SOL     OW20770   0.847   2.410   4.799
 6624SOL    HW120771   0.858   2.421   4.700
 6624SOL    HW220772   0.812   2.494   4.839
 6625SOL     OW20773   6.058   2.997   5.766
 6625SOL    HW120774   5.970   3.006   5.813
 6625SOL    HW220775   6.057   3.054   5.683
 6626SOL     OW20776   2.855   0.217   4.618
 6626SOL    HW120777   2.876   0.173   4.705
 6626SOL    HW220778   2.934   0.270   4.587
 6627SOL     OW20779   1.231   6.023   4.340
 6627SOL    HW120780   1.313   6.020   4.283
 6627SOL    HW220781   1.257   6.019   4.436
 6628SOL     OW20782   5.101   5.751   4.078
 6628SOL    HW120783   5.176   5.787   4.022
 6628SOL    HW220784   5.047   5.687   4.023
 6629SOL     OW20785   4.941   5.790   6.704
 6629SOL    HW120786   4.983   5.750   6.785
 6629SOL    HW220787   4.879   5.864   6.731
 6630SOL     OW20788   2.734   1.251   1.982
 6630SOL    HW120789   2.695   1.339   1.957
 6630SOL    HW220790   2.822   1.239   1.936
 6631SOL     OW20791   1.071   5.402   5.703
 6631SOL    HW120792   0.982   5.380   5.662
 6631SOL    HW220793   1.143   5.387   5.635
 6632SOL     OW20794   1.167   0.613   1.396
 6632SOL    HW120795   1.205   0.700   1.365
 6632SOL    HW220796   1.229   0.570   1.461
 6633SOL     OW20797   2.861   5.048   6.160
 6633SOL    HW120798   2.955   5.046   6.192
 6633SOL    HW220799   2.839   5.139   6.126
 6634SOL     OW20800   5.240   2.058   5.834
 6634SOL    HW120801   5.200   2.148   5.816
 6634SOL    HW220802   5.169   1.988   5.835
 6635SOL     OW20803   4.611   4.269   2.567
 6635SOL    HW120804   4.641   4.319   2.649
 6635SOL    HW220805   4.541   4.203   2.592
 6636SOL     OW20806   3.013   0.154   2.382
 6636SOL    HW120807   2.915   0.166   2.366
 6636SOL    HW220808   3.054   0.105   2.305
 6637SOL     OW20809   1.845   0.486   0.814
 6637SOL    HW120810   1.865   0.558   0.746
 6637SOL    HW220811   1.834   0.528   0.904
 6638SOL     OW20812   3.173   3.949   3.550
 6638SOL    HW120813   3.210   3.995   3.470
 6638SOL    HW220814   3.084   3.909   3.527
 6639SOL     OW20815   4.165   2.766   0.361
 6639SOL    HW120816   4.117   2.779   0.447
 6639SOL    HW220817   4.225   2.845   0.344
 6640SOL     OW20818   0.474   2.519   5.299
 6640SOL    HW120819   0.466   2.440   5.239
 6640SOL    HW220820   0.492   2.488   5.393
 6641SOL     OW20821   4.088   1.794   0.921
 6641SOL    HW120822   4.076   1.698   0.894
 6641SOL    HW220823   4.109   1.799   1.018
 6642SOL     OW20824   2.305   5.155   0.699
 6642SOL    HW120825   2.306   5.152   0.600
 6642SOL    HW220826   2.239   5.087   0.734
 6643SOL     OW20827   5.564   6.548   0.381
 6643SOL    HW120828   5.506   6.629   0.386
 6643SOL    HW220829   5.572   6.519   0.286
 6644SOL     OW20830   1.741   6.445   2.544
 6644SOL    HW120831   1.814   6.511   2.524
 6644SOL    HW220832   1.652   6.488   2.529
 6645SOL     OW20833   6.143   2.762   0.793
 6645SOL    HW120834   6.105   2.734   0.882
 6645SOL    HW220835   6.077   2.742   0.721
 6646SOL     OW20836   4.274   0.940   0.237
 6646SOL    HW120837   4.324   0.978   0.159
 6646SOL    HW220838   4.194   0.890   0.205
 6647SOL     OW20839   4.800   5.423   1.194
 6647SOL    HW120840   4.705   5.448   1.181
 6647SOL    HW220841   4.815   5.394   1.288
 6648SOL     OW20842   3.503   6.370   4.331
 6648SOL    HW120843   3.418   6.396   4.286
 6648SOL    HW220844   3.495   6.384   4.430
 6649SOL     OW20845   5.684   2.862   6.504
 6649SOL    HW120846   5.662   2.771   6.539
 6649SOL    HW220847   5.782   2.880   6.516
 6650SOL     OW20848   4.124   0.938   5.215
 6650SOL    HW120849   4.215   0.905   5.236
 6650SOL    HW220850   4.100   1.011   5.280
 6651SOL     OW20851   1.256   1.910   0.206
 6651SOL    HW120852   1.308   1.825   0.208
 6651SOL    HW220853   1.224   1.932   0.299
 6652SOL     OW20854   0.969   4.307   0.181
 6652SOL    HW120855   0.892   4.261   0.138
 6652SOL    HW220856   1.048   4.305   0.119
 6653SOL     OW20857   4.957   2.896   0.293
 6653SOL    HW120858   4.889   2.845   0.241
 6653SOL    HW220859   4.975   2.850   0.379
 6654SOL     OW20860   0.280   5.076   2.745
 6654SOL    HW120861   0.238   4.989   2.769
 6654SOL    HW220862   0.221   5.151   2.776
 6655SOL     OW20863   0.018   5.370   2.104
 6655SOL    HW120864   0.059   5.291   2.058
 6655SOL    HW220865   6.964   5.406   2.049
 6656SOL     OW20866   4.292   1.602   2.513
 6656SOL    HW120867   4.369   1.616   2.575
 6656SOL    HW220868   4.262   1.507   2.518
 6657SOL     OW20869   5.324   2.381   4.719
 6657SOL    HW120870   5.278   2.397   4.806
 6657SOL    HW220871   5.311   2.459   4.659
 6658SOL     OW20872   6.551   0.341   5.228
 6658SOL    HW120873   6.460   0.324   5.193
 6658SOL    HW220874   6.546   0.402   5.308
 6659SOL     OW20875   1.663   5.104   1.766
 6659SOL    HW120876   1.729   5.122   1.693
 6659SOL    HW220877   1.657   5.185   1.826
 6660SOL     OW20878   1.632   5.503   2.534
 6660SOL    HW120879   1.610   5.594   2.501
 6660SOL    HW220880   1.549   5.458   2.567
 6661SOL     OW20881   2.813   6.745   4.369
 6661SOL    HW120882   2.763   6.795   4.440
 6661SOL    HW220883   2.786   6.649   4.370
 6662SOL     OW20884   2.130   0.251   1.688
 6662SOL    HW120885   2.169   0.287   1.773
 6662SOL    HW220886   2.105   0.327   1.628
 6663SOL     OW20887   1.371   5.839   6.114
 6663SOL    HW120888   1.321   5.875   6.036
 6663SOL    HW220889   1.311   5.835   6.194
 6664SOL     OW20890   2.145   0.474   1.871
 6664SOL    HW120891   2.227   0.451   1.924
 6664SOL    HW220892   2.131   0.573   1.873
 6665SOL     OW20893   3.112   6.876   5.946
 6665SOL    HW120894   3.148   6.962   5.911
 6665SOL    HW220895   3.146   6.800   5.890
 6666SOL     OW20896   6.463   5.574   4.843
 6666SOL    HW120897   6.369   5.608   4.844
 6666SOL    HW220898   6.478   5.521   4.759
 6667SOL     OW20899   0.426   6.292   5.409
 6667SOL    HW120900   0.379   6.232   5.344
 6667SOL    HW220901   0.474   6.237   5.477
 6668SOL     OW20902   6.717   6.017   1.572
 6668SOL    HW120903   6.711   6.022   1.472
 6668SOL    HW220904   6.663   6.091   1.612
 6669SOL     OW20905   2.960   1.588   1.961
 6669SOL    HW120906   2.885   1.535   1.923
 6669SOL    HW220907   2.930   1.682   1.978
 6670SOL     OW20908   2.752   1.608   0.004
 6670SOL    HW120909   2.802   1.553   6.959
 6670SOL    HW220910   2.816   1.669   0.052
 6671SOL     OW20911   4.594   6.535   0.632
 6671SOL    HW120912   4.507   6.486   0.623
 6671SOL    HW220913   4.640   6.507   0.716
 6672SOL     OW20914   1.477   2.723   0.409
 6672SOL    HW120915   1.530   2.709   0.326
 6672SOL    HW220916   1.537   2.719   0.489
 6673SOL     OW20917   5.259   3.415   4.177
 6673SOL    HW120918   5.193   3.341   4.192
 6673SOL    HW220919   5.277   3.424   4.079
 6674SOL     OW20920   0.679   2.948   6.621
 6674SOL    HW120921   0.632   2.937   6.534
 6674SOL    HW220922   0.628   3.012   6.679
 6675SOL     OW20923   4.343   2.304   0.041
 6675SOL    HW120924   4.350   2.343   6.970
 6675SOL    HW220925   4.247   2.302   0.068
 6676SOL     OW20926   1.739   4.268   2.792
 6676SOL    HW120927   1.745   4.196   2.723
 6676SOL    HW220928   1.686   4.236   2.870
 6677SOL     OW20929   0.779   0.871   6.924
 6677SOL    HW120930   0.785   0.932   7.003
 6677SOL    HW220931   0.699   0.895   6.869
 6678SOL     OW20932   1.907   3.725   0.546
 6678SOL    HW120933   1.843   3.648   0.549
 6678SOL    HW220934   1.972   3.718   0.622
 6679SOL     OW20935   2.899   0.779   3.951
 6679SOL    HW120936   2.899   0.772   3.851
 6679SOL    HW220937   2.993   0.770   3.985
 6680SOL     OW20938   4.620   6.815   0.388
 6680SOL    HW120939   4.645   6.793   0.483
 6680SOL    HW220940   4.649   6.909   0.368
 6681SOL     OW20941   4.852   5.408   1.594
 6681SOL    HW120942   4.945   5.371   1.589
 6681SOL    HW220943   4.793   5.357   1.532
 6682SOL     OW20944   2.638   5.002   0.037
 6682SOL    HW120945   2.593   4.923   0.079
 6682SOL    HW220946   2.650   4.985   6.960
 6683SOL     OW20947   6.232   3.555   6.659
 6683SOL    HW120948   6.210   3.557   6.561
 6683SOL    HW220949   6.161   3.604   6.710
 6684SOL     OW20950   3.263   7.012   1.585
 6684SOL    HW120951   3.221   0.028   1.503
 6684SOL    HW220952   3.299   0.066   1.641
 6685SOL     OW20953   4.013   3.361   6.510
 6685SOL    HW120954   4.104   3.327   6.488
 6685SOL    HW220955   3.945   3.315   6.453
 6686SOL     OW20956   6.145   5.418   3.641
 6686SOL    HW120957   6.057   5.465   3.631
 6686SOL    HW220958   6.216   5.471   3.595
 6687SOL     OW20959   6.656   2.411   1.136
 6687SOL    HW120960   6.711   2.410   1.052
 6687SOL    HW220961   6.683   2.334   1.193
 6688SOL     OW20962   4.199   4.258   0.726
 6688SOL    HW120963   4.223   4.351   0.756
 6688SOL    HW220964   4.165   4.206   0.803
 6689SOL     OW20965   3.937   4.077   5.834
 6689SOL    HW120966   3.900   3.991   5.799
 6689SOL    HW220967   3.865   4.146   5.834
 6690SOL     OW20968   1.203   0.877   6.500
 6690SOL    HW120969   1.234   0.971   6.515
 6690SOL    HW220970   1.214   0.824   6.584
 6691SOL     OW20971   1.679   0.783   2.394
 6691SOL    HW120972   1.645   0.788   2.301
 6691SOL    HW220973   1.663   0.870   2.440
 6692SOL     OW20974   4.173   4.543   1.479
 6692SOL    HW120975   4.140   4.598   1.402
 6692SOL    HW220976   4.220   4.462   1.446
 6693SOL     OW20977   4.658   1.874   4.754
 6693SOL    HW120978   4.751   1.869   4.719
 6693SOL    HW220979   4.660   1.887   4.853
 6694SOL     OW20980   3.576   5.272   1.433
 6694SOL    HW120981   3.626   5.338   1.377
 6694SOL    HW220982   3.621   5.265   1.522
 6695SOL     OW20983   2.871   2.224   0.169
 6695SOL    HW120984   2.914   2.311   0.147
 6695SOL    HW220985   2.779   2.240   0.204
 6696SOL     OW20986   4.051   3.699   3.692
 6696SOL    HW120987   4.020   3.794   3.690
 6696SOL    HW220988   4.000   3.646   3.626
 6697SOL     OW20989   5.302   2.375   2.889
 6697SOL    HW120990   5.224   2.335   2.840
 6697SOL    HW220991   5.358   2.301   2.926
 6698SOL     OW20992   3.271   3.409   1.557
 6698SOL    HW120993   3.253   3.312   1.572
 6698SOL    HW220994   3.188   3.462   1.571
 6699SOL     OW20995   1.842   5.686   6.117
 6699SOL    HW120996   1.896   5.628   6.056
 6699SOL    HW220997   1.745   5.664   6.107
 6700SOL     OW20998   5.840   0.298   0.727
 6700SOL    HW120999   5.926   0.273   0.682
 6700SOL    HW221000   5.834   0.398   0.732
 6701SOL     OW21001   6.326   0.015   1.554
 6701SOL    HW121002   6.295   0.010   1.649
 6701SOL    HW221003   6.381   6.956   1.532
 6702SOL     OW21004   2.095   1.889   1.052
 6702SOL    HW121005   2.176   1.841   1.018
 6702SOL    HW221006   2.121   1.980   1.085
 6703SOL     OW21007   1.215   1.468   6.608
 6703SOL    HW121008   1.291   1.531   6.624
 6703SOL    HW221009   1.241   1.402   6.537
 6704SOL     OW21010   3.440   1.708   4.293
 6704SOL    HW121011   3.503   1.635   4.265
 6704SOL    HW221012   3.357   1.667   4.330
 6705SOL     OW21013   6.042   3.152   1.152
 6705SOL    HW121014   5.984   3.152   1.233
 6705SOL    HW221015   6.057   3.246   1.121
 6706SOL     OW21016   1.420   6.117   0.883
 6706SOL    HW121017   1.406   6.188   0.814
 6706SOL    HW221018   1.469   6.156   0.961
 6707SOL     OW21019   5.882   0.259   2.257
 6707SOL    HW121020   5.813   0.310   2.310
 6707SOL    HW221021   5.874   0.284   2.160
 6708SOL     OW21022   6.141   4.601   1.408
 6708SOL    HW121023   6.124   4.573   1.314
 6708SOL    HW221024   6.139   4.700   1.415
 6709SOL     OW21025   0.967   4.075   2.097
 6709SOL    HW121026   0.905   4.153   2.101
 6709SOL    HW221027   1.013   4.064   2.185
 6710SOL     OW21028   4.905   1.219   1.985
 6710SOL    HW121029   4.839   1.283   1.946
 6710SOL    HW221030   4.981   1.207   1.922
 6711SOL     OW21031   4.992   6.290   6.255
 6711SOL    HW121032   5.091   6.293   6.245
 6711SOL    HW221033   4.967   6.221   6.324
 6712SOL     OW21034   6.457   3.500   0.501
 6712SOL    HW121035   6.502   3.411   0.499
 6712SOL    HW221036   6.358   3.488   0.509
 6713SOL     OW21037   1.337   0.959   3.678
 6713SOL    HW121038   1.422   0.913   3.704
 6713SOL    HW221039   1.261   0.893   3.681
 6714SOL     OW21040   6.045   1.487   1.054
 6714SOL    HW121041   5.950   1.504   1.083
 6714SOL    HW221042   6.066   1.545   0.975
 6715SOL     OW21043   1.802   0.660   1.382
 6715SOL    HW121044   1.756   0.618   1.460
 6715SOL    HW221045   1.742   0.658   1.302
 6716SOL     OW21046   6.350   5.579   2.167
 6716SOL    HW121047   6.450   5.570   2.167
 6716SOL    HW221048   6.321   5.619   2.080
 6717SOL     OW21049   3.068   2.691   6.556
 6717SOL    HW121050   2.976   2.687   6.516
 6717SOL    HW221051   3.117   2.606   6.534
 6718SOL     OW21052   4.610   1.367   1.235
 6718SOL    HW121053   4.670   1.383   1.157
 6718SOL    HW221054   4.515   1.384   1.208
 6719SOL     OW21055   1.846   6.826   0.147
 6719SOL    HW121056   1.886   6.783   0.228
 6719SOL    HW221057   1.916   6.838   0.077
 6720SOL     OW21058   2.856   0.673   5.374
 6720SOL    HW121059   2.892   0.613   5.302
 6720SOL    HW221060   2.768   0.711   5.345
 6721SOL     OW21061   0.171   0.207   0.392
 6721SOL    HW121062   0.152   0.154   0.475
 6721SOL    HW221063   0.259   0.179   0.354
 6722SOL     OW21064   0.270   2.971   0.182
 6722SOL    HW121065   0.313   2.881   0.176
 6722SOL    HW221066   0.246   3.003   0.090
 6723SOL     OW21067   2.027   0.796   6.613
 6723SOL    HW121068   2.084   0.720   6.642
 6723SOL    HW221069   2.039   0.874   6.675
 6724SOL     OW21070   2.365   2.683   6.330
 6724SOL    HW121071   2.448   2.700   6.276
 6724SOL    HW221072   2.371   2.593   6.374
 6725SOL     OW21073   5.886   3.064   3.074
 6725SOL    HW121074   5.823   2.999   3.118
 6725SOL    HW221075   5.950   3.014   3.015
 6726SOL     OW21076   0.559   1.566   5.045
 6726SOL    HW121077   0.482   1.593   4.988
 6726SOL    HW221078   0.531   1.566   5.141
 6727SOL     OW21079   0.940   4.555   5.318
 6727SOL    HW121080   0.949   4.549   5.218
 6727SOL    HW221081   0.857   4.606   5.341
 6728SOL     OW21082   4.162   2.084   3.719
 6728SOL    HW121083   4.069   2.104   3.689
 6728SOL    HW221084   4.223   2.081   3.640
 6729SOL     OW21085   6.333   2.458   0.434
 6729SOL    HW121086   6.368   2.528   0.496
 6729SOL    HW221087   6.377   2.468   0.345
 6730SOL     OW21088   1.343   0.973   1.810
 6730SOL    HW121089   1.433   1.011   1.830
 6730SOL    HW221090   1.301   1.026   1.736
 6731SOL     OW21091   1.923   6.438   1.347
 6731SOL    HW121092   1.896   6.481   1.434
 6731SOL    HW221093   2.006   6.481   1.313
 6732SOL     OW21094   5.428   4.245   4.373
 6732SOL    HW121095   5.526   4.240   4.393
 6732SOL    HW221096   5.396   4.338   4.389
 6733SOL     OW21097   3.738   5.477   6.795
 6733SOL    HW121098   3.797   5.407   6.836
 6733SOL    HW221099   3.765   5.567   6.827
 6734SOL     OW21100   5.175   2.136   5.343
 6734SOL    HW121101   5.096   2.197   5.347
 6734SOL    HW221102   5.189   2.105   5.249
 6735SOL     OW21103   6.262   3.968   4.495
 6735SOL    HW121104   6.264   4.018   4.408
 6735SOL    HW221105   6.213   3.882   4.482
 6736SOL     OW21106   2.940   4.310   0.318
 6736SOL    HW121107   2.909   4.224   0.277
 6736SOL    HW221108   3.029   4.334   0.280
 6737SOL     OW21109   0.967   3.008   1.099
 6737SOL    HW121110   1.004   2.930   1.047
 6737SOL    HW221111   0.881   2.981   1.142
 6738SOL     OW21112   1.393   5.670   3.804
 6738SOL    HW121113   1.458   5.730   3.758
 6738SOL    HW221114   1.390   5.582   3.755
 6739SOL     OW21115   6.722   6.208   3.109
 6739SOL    HW121116   6.634   6.161   3.105
 6739SOL    HW221117   6.792   6.145   3.144
 6740SOL     OW21118   6.320   6.551   4.377
 6740SOL    HW121119   6.382   6.614   4.331
 6740SOL    HW221120   6.287   6.592   4.461
 6741SOL     OW21121   4.480   2.066   6.133
 6741SOL    HW121122   4.487   1.967   6.125
 6741SOL    HW221123   4.404   2.089   6.194
 6742SOL     OW21124   5.735   5.363   3.608
 6742SOL    HW121125   5.799   5.311   3.551
 6742SOL    HW221126   5.644   5.363   3.565
 6743SOL     OW21127   4.066   4.220   6.444
 6743SOL    HW121128   4.028   4.137   6.404
 6743SOL    HW221129   4.009   4.248   6.522
 6744SOL     OW21130   6.835   6.002   5.904
 6744SOL    HW121131   6.877   5.986   5.994
 6744SOL    HW221132   6.891   5.960   5.833
 6745SOL     OW21133   0.101   6.413   3.456
 6745SOL    HW121134   0.137   6.493   3.504
 6745SOL    HW221135   0.005   6.428   3.433
 6746SOL     OW21136   1.950   1.008   2.346
 6746SOL    HW121137   1.904   1.010   2.435
 6746SOL    HW221138   1.906   0.940   2.287
 6747SOL     OW21139   6.431   6.396   6.318
 6747SOL    HW121140   6.413   6.494   6.307
 6747SOL    HW221141   6.484   6.382   6.402
 6748SOL     OW21142   2.646   1.823   3.779
 6748SOL    HW121143   2.660   1.730   3.746
 6748SOL    HW221144   2.726   1.879   3.757
 6749SOL     OW21145   3.696   4.081   0.846
 6749SOL    HW121146   3.631   4.024   0.797
 6749SOL    HW221147   3.784   4.034   0.852
 6750SOL     OW21148   2.488   1.751   4.096
 6750SOL    HW121149   2.501   1.696   4.014
 6750SOL    HW221150   2.397   1.735   4.134
 6751SOL     OW21151   4.464   0.488   3.311
 6751SOL    HW121152   4.459   0.504   3.410
 6751SOL    HW221153   4.417   0.562   3.264
 6752SOL     OW21154   1.459   7.010   3.868
 6752SOL    HW121155   1.502   0.079   3.858
 6752SOL    HW221156   1.390   6.999   3.796
 6753SOL     OW21157   3.574   2.193   5.793
 6753SOL    HW121158   3.624   2.113   5.827
 6753SOL    HW221159   3.609   2.218   5.703
 6754SOL     OW21160   6.085   1.006   1.129
 6754SOL    HW121161   6.052   1.088   1.082
 6754SOL    HW221162   6.036   0.996   1.215
 6755SOL     OW21163   3.204   4.740   1.071
 6755SOL    HW121164   3.226   4.664   1.009
 6755SOL    HW221165   3.109   4.767   1.057
 6756SOL     OW21166   3.478   0.703   5.863
 6756SOL    HW121167   3.573   0.685   5.839
 6756SOL    HW221168   3.453   0.651   5.945
 6757SOL     OW21169   4.153   1.676   1.577
 6757SOL    HW121170   4.054   1.681   1.591
 6757SOL    HW221171   4.172   1.619   1.497
 6758SOL     OW21172   5.711   3.147   1.545
 6758SOL    HW121173   5.614   3.156   1.569
 6758SOL    HW221174   5.746   3.059   1.579
 6759SOL     OW21175   6.826   3.004   3.170
 6759SOL    HW121176   6.856   2.924   3.221
 6759SOL    HW221177   6.884   3.082   3.194
 6760SOL     OW21178   6.227   3.878   2.381
 6760SOL    HW121179   6.171   3.938   2.438
 6760SOL    HW221180   6.176   3.849   2.301
 6761SOL     OW21181   5.147   2.768   4.730
 6761SOL    HW121182   5.088   2.757   4.650
 6761SOL    HW221183   5.182   2.862   4.733
 6762SOL     OW21184   0.499   4.281   4.230
 6762SOL    HW121185   0.475   4.193   4.271
 6762SOL    HW221186   0.428   4.348   4.253
 6763SOL     OW21187   5.482   5.669   5.276
 6763SOL    HW121188   5.493   5.581   5.322
 6763SOL    HW221189   5.492   5.657   5.177
 6764SOL     OW21190   2.364   5.917   2.587
 6764SOL    HW121191   2.265   5.913   2.578
 6764SOL    HW221192   2.406   5.908   2.497
 6765SOL     OW21193   6.351   4.264   3.620
 6765SOL    HW121194   6.371   4.283   3.716
 6765SOL    HW221195   6.335   4.166   3.608
 6766SOL     OW21196   4.668   5.760   6.329
 6766SOL    HW121197   4.718   5.675   6.312
 6766SOL    HW221198   4.569   5.742   6.323
 6767SOL     OW21199   3.604   0.508   1.027
 6767SOL    HW121200   3.667   0.576   0.989
 6767SOL    HW221201   3.648   0.418   1.027
 6768SOL     OW21202   2.111   0.625   5.646
 6768SOL    HW121203   2.200   0.589   5.619
 6768SOL    HW221204   2.077   0.573   5.725
 6769SOL     OW21205   3.316   2.216   1.037
 6769SOL    HW121206   3.217   2.218   1.029
 6769SOL    HW221207   3.343   2.133   1.086
 6770SOL     OW21208   0.151   0.915   1.687
 6770SOL    HW121209   0.166   0.954   1.778
 6770SOL    HW221210   0.186   0.822   1.685
 6771SOL     OW21211   4.486   2.537   3.285
 6771SOL    HW121212   4.437   2.530   3.199
 6771SOL    HW221213   4.435   2.490   3.357
 6772SOL     OW21214   3.309   0.763   3.408
 6772SOL    HW121215   3.266   0.675   3.428
 6772SOL    HW221216   3.359   0.757   3.322
 6773SOL     OW21217   6.746   5.219   1.539
 6773SOL    HW121218   6.746   5.285   1.614
 6773SOL    HW221219   6.789   5.261   1.459
 6774SOL     OW21220   0.766   2.706   5.917
 6774SOL    HW121221   0.669   2.706   5.939
 6774SOL    HW221222   0.792   2.794   5.876
 6775SOL     OW21223   2.452   3.251   1.666
 6775SOL    HW121224   2.534   3.194   1.672
 6775SOL    HW221225   2.459   3.328   1.730
 6776SOL     OW21226   4.507   4.419   0.002
 6776SOL    HW121227   4.580   4.354   0.024
 6776SOL    HW221228   4.462   4.392   6.938
 6777SOL     OW21229   4.250   4.074   6.767
 6777SOL    HW121230   4.187   4.056   6.691
 6777SOL    HW221231   4.328   4.011   6.761
 6778SOL     OW21232   6.647   4.579   2.053
 6778SOL    HW121233   6.634   4.623   2.142
 6778SOL    HW221234   6.646   4.649   1.982
 6779SOL     OW21235   6.805   4.538   5.766
 6779SOL    HW121236   6.804   4.627   5.720
 6779SOL    HW221237   6.817   4.551   5.864
 6780SOL     OW21238   0.838   2.217   3.045
 6780SOL    HW121239   0.864   2.148   2.978
 6780SOL    HW221240   0.796   2.295   2.998
 6781SOL     OW21241   5.648   0.221   4.961
 6781SOL    HW121242   5.629   0.176   4.874
 6781SOL    HW221243   5.732   0.184   5.001
 6782SOL     OW21244   6.978   0.356   2.912
 6782SOL    HW121245   6.929   0.337   2.826
 6782SOL    HW221246   6.925   0.320   2.989
 6783SOL     OW21247   6.787   0.773   6.336
 6783SOL    HW121248   6.706   0.828   6.315
 6783SOL    HW221249   6.759   0.685   6.373
 6784SOL     OW21250   3.222   3.734   0.567
 6784SOL    HW121251   3.314   3.707   0.536
 6784SOL    HW221252   3.174   3.779   0.492
 6785SOL     OW21253   5.103   4.454   2.616
 6785SOL    HW121254   5.048   4.380   2.655
 6785SOL    HW221255   5.164   4.491   2.686
 6786SOL     OW21256   1.472   1.728   0.197
 6786SOL    HW121257   1.486   1.630   0.181
 6786SOL    HW221258   1.484   1.778   0.111
 6787SOL     OW21259   1.643   2.694   0.665
 6787SOL    HW121260   1.608   2.774   0.714
 6787SOL    HW221261   1.728   2.663   0.709
 6788SOL     OW21262   2.520   3.635   1.693
 6788SOL    HW121263   2.460   3.714   1.680
 6788SOL    HW221264   2.473   3.565   1.745
 6789SOL     OW21265   0.020   6.675   2.896
 6789SOL    HW121266   6.988   6.662   2.979
 6789SOL    HW221267   6.983   6.661   2.816
 6790SOL     OW21268   0.808   4.355   0.765
 6790SOL    HW121269   0.759   4.365   0.678
 6790SOL    HW221270   0.815   4.258   0.788
 6791SOL     OW21271   4.047   2.584   1.535
 6791SOL    HW121272   4.071   2.496   1.576
 6791SOL    HW221273   4.080   2.658   1.593
 6792SOL     OW21274   6.693   6.100   5.677
 6792SOL    HW121275   6.740   6.094   5.766
 6792SOL    HW221276   6.744   6.161   5.617
 6793SOL     OW21277   0.926   2.190   0.140
 6793SOL    HW121278   0.845   2.232   0.100
 6793SOL    HW221279   1.008   2.227   0.096
 6794SOL     OW21280   5.076   1.553   5.310
 6794SOL    HW121281   4.997   1.524   5.364
 6794SOL    HW221282   5.159   1.537   5.362
 6795SOL     OW21283   2.584   6.317   0.843
 6795SOL    HW121284   2.550   6.320   0.749
 6795SOL    HW221285   2.517   6.271   0.901
 6796SOL     OW21286   6.398   0.698   2.616
 6796SOL    HW121287   6.474   0.651   2.661
 6796SOL    HW221288   6.322   0.635   2.603
 6797SOL     OW21289   5.261   3.426   1.550
 6797SOL    HW121290   5.248   3.377   1.464
 6797SOL    HW221291   5.291   3.362   1.620
 6798SOL     OW21292   5.498   6.095   2.889
 6798SOL    HW121293   5.520   6.190   2.866
 6798SOL    HW221294   5.532   6.034   2.818
 6799SOL     OW21295   6.652   5.816   6.920
 6799SOL    HW121296   6.744   5.781   6.903
 6799SOL    HW221297   6.650   5.864   7.007
 6800SOL     OW21298   2.201   4.178   1.187
 6800SOL    HW121299   2.285   4.126   1.176
 6800SOL    HW221300   2.128   4.118   1.219
 6801SOL     OW21301   1.165   0.933   2.797
 6801SOL    HW121302   1.099   0.968   2.864
 6801SOL    HW221303   1.253   0.978   2.811
 6802SOL     OW21304   3.428   6.126   0.367
 6802SOL    HW121305   3.345   6.140   0.313
 6802SOL    HW221306   3.494   6.074   0.313
 6803SOL     OW21307   5.064   2.868   6.312
 6803SOL    HW121308   5.009   2.816   6.377
 6803SOL    HW221309   5.145   2.815   6.287
 6804SOL     OW21310   2.833   5.461   3.688
 6804SOL    HW121311   2.784   5.374   3.689
 6804SOL    HW221312   2.821   5.506   3.599
 6805SOL     OW21313   5.660   5.890   5.308
 6805SOL    HW121314   5.689   5.896   5.404
 6805SOL    HW221315   5.628   5.798   5.289
 6806SOL     OW21316   5.618   0.894   3.328
 6806SOL    HW121317   5.534   0.843   3.347
 6806SOL    HW221318   5.694   0.830   3.316
 6807SOL     OW21319   2.967   2.935   0.834
 6807SOL    HW121320   2.922   3.024   0.841
 6807SOL    HW221321   3.030   2.923   0.911
 6808SOL     OW21322   0.304   2.188   5.522
 6808SOL    HW121323   0.380   2.168   5.460
 6808SOL    HW221324   0.218   2.173   5.475
 6809SOL     OW21325   1.277   3.391   1.001
 6809SOL    HW121326   1.231   3.325   1.060
 6809SOL    HW221327   1.320   3.343   0.924
 6810SOL     OW21328   1.730   6.939   2.015
 6810SOL    HW121329   1.638   6.930   1.979
 6810SOL    HW221330   1.726   6.960   2.113
 6811SOL     OW21331   5.126   3.718   0.125
 6811SOL    HW121332   5.082   3.799   0.165
 6811SOL    HW221333   5.220   3.740   0.100
 6812SOL     OW21334   3.585   3.825   3.340
 6812SOL    HW121335   3.614   3.919   3.361
 6812SOL    HW221336   3.486   3.824   3.326
 6813SOL     OW21337   5.064   2.041   2.577
 6813SOL    HW121338   4.972   2.006   2.556
 6813SOL    HW221339   5.116   1.970   2.625
 6814SOL     OW21340   3.194   2.717   0.638
 6814SOL    HW121341   3.185   2.654   0.561
 6814SOL    HW221342   3.114   2.708   0.697
 6815SOL     OW21343   3.388   0.196   1.333
 6815SOL    HW121344   3.434   0.235   1.253
 6815SOL    HW221345   3.356   0.104   1.312
 6816SOL     OW21346   0.422   6.835   6.122
 6816SOL    HW121347   0.512   6.793   6.133
 6816SOL    HW221348   0.351   6.767   6.141
 6817SOL     OW21349   0.043   1.738   4.874
 6817SOL    HW121350   0.042   1.832   4.842
 6817SOL    HW221351   6.976   1.715   4.914
 6818SOL     OW21352   2.815   5.321   1.856
 6818SOL    HW121353   2.801   5.294   1.951
 6818SOL    HW221354   2.736   5.374   1.824
 6819SOL     OW21355   4.557   1.363   4.440
 6819SOL    HW121356   4.622   1.311   4.384
 6819SOL    HW221357   4.563   1.460   4.417
 6820SOL     OW21358   1.074   5.522   2.850
 6820SOL    HW121359   1.139   5.461   2.805
 6820SOL    HW221360   1.086   5.518   2.949
 6821SOL     OW21361   3.078   1.195   5.280
 6821SOL    HW121362   3.117   1.207   5.371
 6821SOL    HW221363   3.105   1.272   5.222
 6822SOL     OW21364   5.792   2.359   6.021
 6822SOL    HW121365   5.844   2.356   5.935
 6822SOL    HW221366   5.740   2.444   6.026
 6823SOL     OW21367   3.728   3.276   3.836
 6823SOL    HW121368   3.778   3.318   3.911
 6823SOL    HW221369   3.762   3.183   3.822
 6824SOL     OW21370   0.762   3.366   6.099
 6824SOL    HW121371   0.775   3.269   6.118
 6824SOL    HW221372   0.708   3.407   6.173
 6825SOL     OW21373   5.200   6.314   2.494
 6825SOL    HW121374   5.186   6.254   2.573
 6825SOL    HW221375   5.189   6.409   2.524
 6826SOL     OW21376   2.120   4.193   2.963
 6826SOL    HW121377   2.211   4.219   2.930
 6826SOL    HW221378   2.050   4.250   2.919
 6827SOL     OW21379   4.630   6.164   0.051
 6827SOL    HW121380   4.675   6.215   6.999
 6827SOL    HW221381   4.621   6.069   0.024
 6828SOL     OW21382   2.491   1.636   2.072
 6828SOL    HW121383   2.555   1.692   2.019
 6828SOL    HW221384   2.497   1.660   2.168
 6829SOL     OW21385   4.509   6.794   4.201
 6829SOL    HW121386   4.494   6.714   4.259
 6829SOL    HW221387   4.542   6.870   4.257
 6830SOL     OW21388   5.521   1.427   3.875
 6830SOL    HW121389   5.612   1.389   3.858
 6830SOL    HW221390   5.469   1.364   3.933
 6831SOL     OW21391   1.006   0.403   6.142
 6831SOL    HW121392   0.994   0.314   6.185
 6831SOL    HW221393   1.028   0.471   6.212
 6832SOL     OW21394   3.214   3.971   1.441
 6832SOL    HW121395   3.237   3.914   1.520
 6832SOL    HW221396   3.278   4.048   1.437
 6833SOL     OW21397   4.494   4.678   6.912
 6833SOL    HW121398   4.506   4.587   6.952
 6833SOL    HW221399   4.409   4.681   6.860
 6834SOL     OW21400   5.420   6.964   1.981
 6834SOL    HW121401   5.448   6.878   1.938
 6834SOL    HW221402   5.349   6.946   2.048
 6835SOL     OW21403   4.377   0.224   5.320
 6835SOL    HW121404   4.303   0.253   5.258
 6835SOL    HW221405   4.386   0.291   5.394
 6836SOL     OW21406   3.483   5.506   0.142
 6836SOL    HW121407   3.389   5.526   0.115
 6836SOL    HW221408   3.484   5.423   0.199
 6837SOL     OW21409   1.493   2.075   2.371
 6837SOL    HW121410   1.394   2.087   2.367
 6837SOL    HW221411   1.522   2.061   2.466
 6838SOL     OW21412   2.157   6.196   0.989
 6838SOL    HW121413   2.067   6.157   0.971
 6838SOL    HW221414   2.172   6.202   1.088
 6839SOL     OW21415   5.051   0.934   6.827
 6839SOL    HW121416   5.038   0.835   6.828
 6839SOL    HW221417   5.082   0.962   6.736
 6840SOL     OW21418   2.549   1.875   5.076
 6840SOL    HW121419   2.554   1.789   5.127
 6840SOL    HW221420   2.581   1.860   4.982
 6841SOL     OW21421   5.500   3.713   6.159
 6841SOL    HW121422   5.573   3.772   6.127
 6841SOL    HW221423   5.465   3.658   6.083
 6842SOL     OW21424   2.898   4.508   1.153
 6842SOL    HW121425   2.972   4.496   1.219
 6842SOL    HW221426   2.845   4.423   1.147
 6843SOL     OW21427   5.836   6.593   0.426
 6843SOL    HW121428   5.745   6.610   0.387
 6843SOL    HW221429   5.847   6.647   0.510
 6844SOL     OW21430   5.355   0.831   4.489
 6844SOL    HW121431   5.280   0.846   4.424
 6844SOL    HW221432   5.439   0.811   4.439
 6845SOL     OW21433   6.323   3.341   2.627
 6845SOL    HW121434   6.246   3.364   2.568
 6845SOL    HW221435   6.349   3.245   2.613
 6846SOL     OW21436   3.265   4.141   7.010
 6846SOL    HW121437   3.224   4.133   6.918
 6846SOL    HW221438   3.362   4.162   7.001
 6847SOL     OW21439   0.409   3.719   5.103
 6847SOL    HW121440   0.343   3.676   5.165
 6847SOL    HW221441   0.435   3.655   5.031
 6848SOL     OW21442   5.170   4.128   3.595
 6848SOL    HW121443   5.110   4.099   3.669
 6848SOL    HW221444   5.170   4.059   3.523
 6849SOL     OW21445   3.824   3.855   5.700
 6849SOL    HW121446   3.828   3.758   5.724
 6849SOL    HW221447   3.879   3.872   5.619
 6850SOL     OW21448   4.783   2.679   3.052
 6850SOL    HW121449   4.738   2.706   3.137
 6850SOL    HW221450   4.795   2.760   2.994
 6851SOL     OW21451   1.224   2.717   2.307
 6851SOL    HW121452   1.184   2.666   2.384
 6851SOL    HW221453   1.175   2.695   2.223
 6852SOL     OW21454   2.905   5.369   0.985
 6852SOL    HW121455   2.837   5.436   1.016
 6852SOL    HW221456   2.904   5.291   1.048
 6853SOL     OW21457   5.084   3.873   6.346
 6853SOL    HW121458   5.181   3.857   6.331
 6853SOL    HW221459   5.049   3.809   6.415
 6854SOL     OW21460   5.962   0.408   5.719
 6854SOL    HW121461   5.953   0.312   5.743
 6854SOL    HW221462   6.059   0.431   5.709
 6855SOL     OW21463   4.249   5.869   3.892
 6855SOL    HW121464   4.272   5.854   3.796
 6855SOL    HW221465   4.211   5.962   3.902
 6856SOL     OW21466   0.782   1.993   5.713
 6856SOL    HW121467   0.747   1.915   5.662
 6856SOL    HW221468   0.783   2.074   5.654
 6857SOL     OW21469   0.905   3.278   6.832
 6857SOL    HW121470   0.995   3.302   6.868
 6857SOL    HW221471   0.905   3.184   6.800
 6858SOL     OW21472   3.554   4.289   1.793
 6858SOL    HW121473   3.551   4.389   1.803
 6858SOL    HW221474   3.564   4.247   1.883
 6859SOL     OW21475   0.620   0.791   1.867
 6859SOL    HW121476   0.571   0.776   1.781
 6859SOL    HW221477   0.564   0.759   1.943
 6860SOL     OW21478   6.475   4.750   1.459
 6860SOL    HW121479   6.456   4.835   1.507
 6860SOL    HW221480   6.392   4.694   1.455
 6861SOL     OW21481   4.764   3.645   6.113
 6861SOL    HW121482   4.851   3.601   6.092
 6861SOL    HW221483   4.701   3.633   6.036
 6862SOL     OW21484   0.404   5.045   5.583
 6862SOL    HW121485   0.391   5.004   5.674
 6862SOL    HW221486   0.322   5.096   5.557
 6863SOL     OW21487   6.952   6.113   5.103
 6863SOL    HW121488   6.869   6.103   5.158
 6863SOL    HW221489   6.964   6.209   5.079
 6864SOL     OW21490   2.375   4.655   5.325
 6864SOL    HW121491   2.368   4.572   5.380
 6864SOL    HW221492   2.468   4.665   5.290
 6865SOL     OW21493   1.005   0.486   5.346
 6865SOL    HW121494   1.076   0.554   5.365
 6865SOL    HW221495   0.943   0.521   5.276
 6866SOL     OW21496   6.216   4.771   2.392
 6866SOL    HW121497   6.281   4.767   2.467
 6866SOL    HW221498   6.247   4.837   2.324
 6867SOL     OW21499   1.958   3.739   1.165
 6867SOL    HW121500   1.910   3.703   1.244
 6867SOL    HW221501   2.019   3.669   1.127
 6868SOL     OW21502   2.419   6.273   5.148
 6868SOL    HW121503   2.503   6.274   5.093
 6868SOL    HW221504   2.431   6.211   5.226
 6869SOL     OW21505   4.285   0.788   5.819
 6869SOL    HW121506   4.307   0.737   5.737
 6869SOL    HW221507   4.352   0.861   5.832
 6870SOL     OW21508   0.152   3.932   0.872
 6870SOL    HW121509   0.250   3.911   0.874
 6870SOL    HW221510   0.120   3.947   0.965
 6871SOL     OW21511   6.878   4.046   2.703
 6871SOL    HW121512   6.784   4.047   2.670
 6871SOL    HW221513   6.907   3.952   2.720
 6872SOL     OW21514   0.741   2.623   2.097
 6872SOL    HW121515   0.740   2.576   2.009
 6872SOL    HW221516   0.661   2.682   2.105
 6873SOL     OW21517   1.157   4.313   3.826
 6873SOL    HW121518   1.209   4.275   3.903
 6873SOL    HW221519   1.164   4.412   3.827
 6874SOL     OW21520   6.547   5.875   3.458
 6874SOL    HW121521   6.515   5.968   3.473
 6874SOL    HW221522   6.565   5.830   3.546
 6875SOL     OW21523   2.163   2.111   2.318
 6875SOL    HW121524   2.183   2.015   2.301
 6875SOL    HW221525   2.065   2.123   2.331
 6876SOL     OW21526   3.115   0.143   3.758
 6876SOL    HW121527   3.116   0.178   3.665
 6876SOL    HW221528   3.154   0.051   3.760
 6877SOL     OW21529   3.161   4.285   1.671
 6877SOL    HW121530   3.230   4.343   1.715
 6877SOL    HW221531   3.163   4.194   1.711
 6878SOL     OW21532   2.645   2.074   3.418
 6878SOL    HW121533   2.555   2.041   3.389
 6878SOL    HW221534   2.694   2.109   3.339
 6879SOL     OW21535   2.334   2.559   0.177
 6879SOL    HW121536   2.391   2.527   0.101
 6879SOL    HW221537   2.392   2.585   0.254
 6880SOL     OW21538   1.258   6.819   5.876
 6880SOL    HW121539   1.331   6.825   5.808
 6880SOL    HW221540   1.173   6.856   5.838
 6881SOL     OW21541   1.450   3.129   1.570
 6881SOL    HW121542   1.505   3.077   1.635
 6881SOL    HW221543   1.499   3.213   1.545
 6882SOL     OW21544   2.879   1.161   0.548
 6882SOL    HW121545   2.808   1.229   0.536
 6882SOL    HW221546   2.896   1.146   0.646
 6883SOL     OW21547   5.651   1.224   5.928
 6883SOL    HW121548   5.621   1.134   5.960
 6883SOL    HW221549   5.596   1.295   5.973
 6884SOL     OW21550   1.435   3.955   2.796
 6884SOL    HW121551   1.427   4.024   2.724
 6884SOL    HW221552   1.348   3.905   2.803
 6885SOL     OW21553   4.884   5.104   4.029
 6885SOL    HW121554   4.958   5.125   3.965
 6885SOL    HW221555   4.798   5.093   3.978
 6886SOL     OW21556   6.740   1.571   5.140
 6886SOL    HW121557   6.647   1.601   5.120
 6886SOL    HW221558   6.805   1.638   5.102
 6887SOL     OW21559   4.523   5.893   6.994
 6887SOL    HW121560   4.454   5.934   0.032
 6887SOL    HW221561   4.496   5.905   6.898
 6888SOL     OW21562   5.121   4.644   6.149
 6888SOL    HW121563   5.028   4.661   6.119
 6888SOL    HW221564   5.133   4.678   6.243
 6889SOL     OW21565   2.031   2.341   5.656
 6889SOL    HW121566   2.051   2.357   5.753
 6889SOL    HW221567   1.941   2.299   5.646
 6890SOL     OW21568   3.949   5.820   2.998
 6890SOL    HW121569   3.963   5.884   3.074
 6890SOL    HW221570   3.859   5.776   3.009
 6891SOL     OW21571   2.083   3.026   1.414
 6891SOL    HW121572   2.050   2.936   1.445
 6891SOL    HW221573   2.134   3.069   1.489
 6892SOL     OW21574   3.054   1.164   3.677
 6892SOL    HW121575   3.099   1.124   3.597
 6892SOL    HW221576   2.956   1.176   3.657
 6893SOL     OW21577   5.731   3.228   0.351
 6893SOL    HW121578   5.706   3.275   0.436
 6893SOL    HW221579   5.670   3.257   0.278
 6894SOL     OW21580   5.138   4.631   1.043
 6894SOL    HW121581   5.182   4.577   0.971
 6894SOL    HW221582   5.039   4.624   1.035
 6895SOL     OW21583   2.188   5.825   0.958
 6895SOL    HW121584   2.104   5.775   0.978
 6895SOL    HW221585   2.166   5.911   0.913
 6896SOL     OW21586   2.975   1.542   4.028
 6896SOL    HW121587   2.985   1.454   3.983
 6896SOL    HW221588   3.026   1.612   3.978
 6897SOL     OW21589   4.922   3.937   5.097
 6897SOL    HW121590   4.939   3.841   5.117
 6897SOL    HW221591   4.891   3.947   5.002
 6898SOL     OW21592   3.130   0.903   1.916
 6898SOL    HW121593   3.157   0.832   1.851
 6898SOL    HW221594   3.156   0.876   2.009
 6899SOL     OW21595   4.604   6.383   2.866
 6899SOL    HW121596   4.609   6.314   2.939
 6899SOL    HW221597   4.671   6.455   2.884
 6900SOL     OW21598   6.919   4.810   5.889
 6900SOL    HW121599   7.012   4.797   5.924
 6900SOL    HW221600   6.858   4.744   5.933
 6901SOL     OW21601   4.432   5.173   6.183
 6901SOL    HW121602   4.382   5.091   6.155
 6901SOL    HW221603   4.436   5.237   6.106
 6902SOL     OW21604   6.434   5.979   5.274
 6902SOL    HW121605   6.421   5.928   5.189
 6902SOL    HW221606   6.348   5.982   5.325
 6903SOL     OW21607   3.110   4.769   5.179
 6903SOL    HW121608   3.080   4.676   5.161
 6903SOL    HW221609   3.050   4.833   5.130
 6904SOL     OW21610   6.659   6.731   5.520
 6904SOL    HW121611   6.686   6.699   5.611
 6904SOL    HW221612   6.741   6.743   5.463
 6905SOL     OW21613   5.744   5.212   6.961
 6905SOL    HW121614   5.743   5.113   6.949
 6905SOL    HW221615   5.822   5.251   6.911
 6906SOL     OW21616   3.366   1.017   3.151
 6906SOL    HW121617   3.383   1.100   3.204
 6906SOL    HW221618   3.283   1.029   3.096
 6907SOL     OW21619   6.482   2.602   1.740
 6907SOL    HW121620   6.450   2.690   1.706
 6907SOL    HW221621   6.422   2.529   1.707
 6908SOL     OW21622   2.441   5.265   6.614
 6908SOL    HW121623   2.507   5.281   6.688
 6908SOL    HW221624   2.474   5.191   6.555
 6909SOL     OW21625   5.451   4.663   1.786
 6909SOL    HW121626   5.459   4.601   1.709
 6909SOL    HW221627   5.369   4.641   1.839
 6910SOL     OW21628   1.590   2.656   2.890
 6910SOL    HW121629   1.600   2.585   2.959
 6910SOL    HW221630   1.535   2.731   2.927
 6911SOL     OW21631   4.371   6.988   4.866
 6911SOL    HW121632   4.357   6.949   4.775
 6911SOL    HW221633   4.347   6.921   4.936
 6912SOL     OW21634   2.531   3.286   6.795
 6912SOL    HW121635   2.556   3.382   6.804
 6912SOL    HW221636   2.482   3.256   6.876
 6913SOL     OW21637   5.141   6.492   4.782
 6913SOL    HW121638   5.143   6.582   4.739
 6913SOL    HW221639   5.168   6.500   4.878
 6914SOL     OW21640   6.323   4.162   2.989
 6914SOL    HW121641   6.242   4.215   3.012
 6914SOL    HW221642   6.342   4.170   2.891
 6915SOL     OW21643   1.050   2.373   2.385
 6915SOL    HW121644   0.951   2.362   2.371
 6915SOL    HW221645   1.088   2.424   2.309
 6916SOL     OW21646   5.449   1.489   5.790
 6916SOL    HW121647   5.393   1.414   5.755
 6916SOL    HW221648   5.543   1.479   5.758
 6917SOL     OW21649   4.325   5.983   1.996
 6917SOL    HW121650   4.299   6.028   2.082
 6917SOL    HW221651   4.299   5.887   2.000
 6918SOL     OW21652   6.999   2.628   3.291
 6918SOL    HW121653   0.062   2.681   3.282
 6918SOL    HW221654   6.958   2.644   3.381
 6919SOL     OW21655   6.370   6.111   3.127
 6919SOL    HW121656   6.432   6.038   3.154
 6919SOL    HW221657   6.345   6.166   3.206
 6920SOL     OW21658   5.607   6.957   5.893
 6920SOL    HW121659   5.545   6.899   5.840
 6920SOL    HW221660   5.595   0.031   5.865
 6921SOL     OW21661   3.995   0.372   3.785
 6921SOL    HW121662   4.083   0.356   3.740
 6921SOL    HW221663   3.935   0.424   3.723
 6922SOL     OW21664   1.852   6.297   5.054
 6922SOL    HW121665   1.882   6.204   5.034
 6922SOL    HW221666   1.791   6.296   5.134
 6923SOL     OW21667   6.157   6.380   2.477
 6923SOL    HW121668   6.089   6.343   2.413
 6923SOL    HW221669   6.248   6.371   2.437
 6924SOL     OW21670   2.961   5.215   0.562
 6924SOL    HW121671   2.906   5.265   0.629
 6924SOL    HW221672   2.927   5.235   0.470
 6925SOL     OW21673   4.696   5.558   5.488
 6925SOL    HW121674   4.668   5.619   5.562
 6925SOL    HW221675   4.756   5.606   5.425
 6926SOL     OW21676   1.940   1.933   0.417
 6926SOL    HW121677   1.881   1.913   0.495
 6926SOL    HW221678   1.942   2.032   0.401
 6927SOL     OW21679   3.643   1.699   0.120
 6927SOL    HW121680   3.706   1.723   0.195
 6927SOL    HW221681   3.569   1.766   0.117
 6928SOL     OW21682   5.020   5.724   1.040
 6928SOL    HW121683   4.935   5.693   1.081
 6928SOL    HW221684   5.006   5.812   0.995
 6929SOL     OW21685   5.208   6.025   1.834
 6929SOL    HW121686   5.127   6.081   1.816
 6929SOL    HW221687   5.281   6.049   1.770
 6930SOL     OW21688   0.684   0.834   0.766
 6930SOL    HW121689   0.721   0.868   0.853
 6930SOL    HW221690   0.696   0.735   0.762
 6931SOL     OW21691   1.511   1.856   1.507
 6931SOL    HW121692   1.593   1.855   1.450
 6931SOL    HW221693   1.538   1.864   1.603
 6932SOL     OW21694   4.816   5.660   1.288
 6932SOL    HW121695   4.727   5.657   1.335
 6932SOL    HW221696   4.827   5.577   1.233
 6933SOL     OW21697   3.516   6.768   6.236
 6933SOL    HW121698   3.470   6.692   6.282
 6933SOL    HW221699   3.454   6.846   6.230
 6934SOL     OW21700   5.269   3.573   6.025
 6934SOL    HW121701   5.210   3.648   6.054
 6934SOL    HW221702   5.228   3.486   6.053
 6935SOL     OW21703   4.450   5.777   2.775
 6935SOL    HW121704   4.406   5.717   2.709
 6935SOL    HW221705   4.468   5.866   2.733
 6936SOL     OW21706   0.023   2.371   4.161
 6936SOL    HW121707   0.017   2.459   4.209
 6936SOL    HW221708   0.110   2.328   4.183
 6937SOL     OW21709   5.718   6.367   0.846
 6937SOL    HW121710   5.662   6.369   0.763
 6937SOL    HW221711   5.729   6.273   0.877
 6938SOL     OW21712   0.623   1.637   4.194
 6938SOL    HW121713   0.592   1.649   4.288
 6938SOL    HW221714   0.546   1.650   4.131
 6939SOL     OW21715   6.227   5.493   2.960
 6939SOL    HW121716   6.141   5.543   2.943
 6939SOL    HW221717   6.239   5.480   3.058
 6940SOL     OW21718   4.358   6.831   0.297
 6940SOL    HW121719   4.440   6.853   0.350
 6940SOL    HW221720   4.382   6.772   0.221
 6941SOL     OW21721   2.956   3.832   2.444
 6941SOL    HW121722   2.856   3.842   2.441
 6941SOL    HW221723   2.997   3.901   2.384
 6942SOL     OW21724   6.049   6.865   1.723
 6942SOL    HW121725   5.950   6.855   1.715
 6942SOL    HW221726   6.086   6.796   1.786
 6943SOL     OW21727   4.139   4.750   0.384
 6943SOL    HW121728   4.114   4.833   0.334
 6943SOL    HW221729   4.236   4.755   0.410
 6944SOL     OW21730   0.959   5.190   6.238
 6944SOL    HW121731   0.861   5.168   6.239
 6944SOL    HW221732   0.989   5.205   6.144
 6945SOL     OW21733   6.959   2.574   1.217
 6945SOL    HW121734   6.859   2.569   1.219
 6945SOL    HW221735   6.994   2.553   1.308
 6946SOL     OW21736   3.766   6.007   1.804
 6946SOL    HW121737   3.807   6.086   1.848
 6946SOL    HW221738   3.777   5.927   1.863
 6947SOL     OW21739   4.044   5.197   6.454
 6947SOL    HW121740   4.008   5.118   6.504
 6947SOL    HW221741   3.993   5.279   6.480
 6948SOL     OW21742   0.763   5.980   1.036
 6948SOL    HW121743   0.834   5.912   1.021
 6948SOL    HW221744   0.697   5.945   1.104
 6949SOL     OW21745   2.755   2.290   2.989
 6949SOL    HW121746   2.755   2.383   3.025
 6949SOL    HW221747   2.716   2.290   2.897
 6950SOL     OW21748   1.948   0.235   4.600
 6950SOL    HW121749   1.916   0.324   4.567
 6950SOL    HW221750   2.000   0.189   4.529
 6951SOL     OW21751   6.565   5.779   6.525
 6951SOL    HW121752   6.632   5.843   6.561
 6951SOL    HW221753   6.603   5.687   6.524
 6952SOL     OW21754   2.307   5.010   2.813
 6952SOL    HW121755   2.281   4.915   2.796
 6952SOL    HW221756   2.376   5.037   2.746
 6953SOL     OW21757   4.914   6.934   0.416
 6953SOL    HW121758   4.907   6.905   0.512
 6953SOL    HW221759   4.942   6.856   0.360
 6954SOL     OW21760   0.087   3.889   1.655
 6954SOL    HW121761   0.083   3.885   1.754
 6954SOL    HW221762   0.115   3.800   1.619
 6955SOL     OW21763   4.776   0.538   2.148
 6955SOL    HW121764   4.752   0.576   2.059
 6955SOL    HW221765   4.843   0.598   2.192
 6956SOL     OW21766   5.043   5.674   3.180
 6956SOL    HW121767   5.061   5.576   3.191
 6956SOL    HW221768   4.944   5.690   3.181
 6957SOL     OW21769   6.046   6.098   0.030
 6957SOL    HW121770   5.984   6.044   0.087
 6957SOL    HW221771   6.042   6.066   6.957
 6958SOL     OW21772   3.555   3.487   4.271
 6958SOL    HW121773   3.609   3.413   4.229
 6958SOL    HW221774   3.530   3.554   4.201
 6959SOL     OW21775   1.752   3.695   2.613
 6959SOL    HW121776   1.749   3.733   2.706
 6959SOL    HW221777   1.811   3.615   2.612
 6960SOL     OW21778   2.653   4.055   1.045
 6960SOL    HW121779   2.708   4.100   1.116
 6960SOL    HW221780   2.694   3.967   1.023
 6961SOL     OW21781   5.180   1.188   4.708
 6961SOL    HW121782   5.146   1.129   4.781
 6961SOL    HW221783   5.271   1.158   4.679
 6962SOL     OW21784   4.355   5.696   1.070
 6962SOL    HW121785   4.361   5.794   1.086
 6962SOL    HW221786   4.262   5.665   1.088
 6963SOL     OW21787   5.321   4.635   0.109
 6963SOL    HW121788   5.401   4.579   0.087
 6963SOL    HW221789   5.263   4.643   0.029
 6964SOL     OW21790   3.513   0.147   5.524
 6964SOL    HW121791   3.590   0.126   5.463
 6964SOL    HW221792   3.537   0.122   5.618
 6965SOL     OW21793   1.857   1.866   0.044
 6965SOL    HW121794   1.932   1.932   0.043
 6965SOL    HW221795   1.849   1.825   0.135
 6966SOL     OW21796   0.851   0.539   2.371
 6966SOL    HW121797   0.850   0.612   2.302
 6966SOL    HW221798   0.933   0.548   2.428
 6967SOL     OW21799   3.422   1.361   5.972
 6967SOL    HW121800   3.352   1.292   5.991
 6967SOL    HW221801   3.400   1.446   6.019
 6968SOL     OW21802   2.436   0.953   3.066
 6968SOL    HW121803   2.457   0.991   2.976
 6968SOL    HW221804   2.410   1.027   3.128
 6969SOL     OW21805   3.563   2.040   1.210
 6969SOL    HW121806   3.593   2.097   1.287
 6969SOL    HW221807   3.477   1.996   1.234
 6970SOL     OW21808   4.056   3.844   5.510
 6970SOL    HW121809   4.106   3.923   5.545
 6970SOL    HW221810   4.121   3.772   5.486
 6971SOL     OW21811   5.553   5.114   1.395
 6971SOL    HW121812   5.579   5.036   1.337
 6971SOL    HW221813   5.631   5.141   1.451
 6972SOL     OW21814   5.502   3.469   2.356
 6972SOL    HW121815   5.435   3.463   2.282
 6972SOL    HW221816   5.591   3.495   2.319
 6973SOL     OW21817   0.880   2.619   3.471
 6973SOL    HW121818   0.785   2.608   3.441
 6973SOL    HW221819   0.942   2.599   3.395
 6974SOL     OW21820   2.921   3.751   2.721
 6974SOL    HW121821   2.996   3.687   2.704
 6974SOL    HW221822   2.912   3.813   2.643
 6975SOL     OW21823   2.230   6.583   4.686
 6975SOL    HW121824   2.161   6.630   4.631
 6975SOL    HW221825   2.213   6.600   4.783
 6976SOL     OW21826   5.663   4.196   5.768
 6976SOL    HW121827   5.605   4.241   5.836
 6976SOL    HW221828   5.606   4.143   5.706
 6977SOL     OW21829   4.081   4.091   1.452
 6977SOL    HW121830   4.047   4.014   1.398
 6977SOL    HW221831   4.096   4.062   1.546
 6978SOL     OW21832   5.042   3.097   1.196
 6978SOL    HW121833   5.135   3.058   1.190
 6978SOL    HW221834   4.981   3.029   1.237
 6979SOL     OW21835   1.447   2.985   1.343
 6979SOL    HW121836   1.445   3.066   1.403
 6979SOL    HW221837   1.367   2.987   1.282
 6980SOL     OW21838   1.670   1.216   3.436
 6980SOL    HW121839   1.750   1.275   3.431
 6980SOL    HW221840   1.699   1.122   3.456
 6981SOL     OW21841   3.631   3.395   5.979
 6981SOL    HW121842   3.711   3.414   6.035
 6981SOL    HW221843   3.556   3.454   6.007
 6982SOL     OW21844   0.963   0.823   3.816
 6982SOL    HW121845   0.959   0.838   3.717
 6982SOL    HW221846   0.974   0.910   3.863
 6983SOL     OW21847   4.943   1.689   4.878
 6983SOL    HW121848   4.879   1.621   4.841
 6983SOL    HW221849   4.961   1.670   4.974
 6984SOL     OW21850   1.501   1.950   2.620
 6984SOL    HW121851   1.414   1.990   2.648
 6984SOL    HW221852   1.486   1.881   2.550
 6985SOL     OW21853   6.331   5.103   6.975
 6985SOL    HW121854   6.263   5.160   0.001
 6985SOL    HW221855   6.350   5.142   6.885
 6986SOL     OW21856   3.537   0.015   6.613
 6986SOL    HW121857   3.598   6.961   6.586
 6986SOL    HW221858   3.572   0.058   6.696
 6987SOL     OW21859   0.066   1.660   5.483
 6987SOL    HW121860   0.068   1.584   5.547
 6987SOL    HW221861   0.158   1.697   5.471
 6988SOL     OW21862   1.900   0.197   6.066
 6988SOL    HW121863   1.974   0.202   6.132
 6988SOL    HW221864   1.855   0.286   6.058
 6989SOL     OW21865   6.338   4.756   2.667
 6989SOL    HW121866   6.274   4.792   2.735
 6989SOL    HW221867   6.422   4.811   2.668
 6990SOL     OW21868   3.864   2.758   1.750
 6990SOL    HW121869   3.829   2.664   1.755
 6990SOL    HW221870   3.958   2.756   1.716
 6991SOL     OW21871   5.356   4.228   3.164
 6991SOL    HW121872   5.452   4.216   3.138
 6991SOL    HW221873   5.350   4.283   3.247
 6992SOL     OW21874   6.888   5.729   0.315
 6992SOL    HW121875   6.960   5.692   0.374
 6992SOL    HW221876   6.904   5.827   0.300
 6993SOL     OW21877   6.394   0.474   1.654
 6993SOL    HW121878   6.465   0.520   1.707
 6993SOL    HW221879   6.322   0.441   1.716
 6994SOL     OW21880   1.716   0.515   4.298
 6994SOL    HW121881   1.657   0.435   4.285
 6994SOL    HW221882   1.662   0.591   4.334
 6995SOL     OW21883   0.204   4.182   0.310
 6995SOL    HW121884   0.274   4.148   0.374
 6995SOL    HW221885   0.170   4.271   0.341
 6996SOL     OW21886   0.999   0.579   0.878
 6996SOL    HW121887   0.978   0.566   0.781
 6996SOL    HW221888   1.060   0.506   0.909
 6997SOL     OW21889   0.189   4.881   4.727
 6997SOL    HW121890   0.103   4.834   4.750
 6997SOL    HW221891   0.211   4.946   4.798
 6998SOL     OW21892   0.761   1.768   1.459
 6998SOL    HW121893   0.690   1.723   1.405
 6998SOL    HW221894   0.828   1.811   1.398
 6999SOL     OW21895   0.997   2.515   6.215
 6999SOL    HW121896   0.899   2.523   6.195
 6999SOL    HW221897   1.017   2.425   6.251
 7000SOL     OW21898   6.049   0.735   1.903
 7000SOL    HW121899   5.967   0.743   1.960
 7000SOL    HW221900   6.123   0.787   1.945
 7001SOL     OW21901   0.858   1.683   5.298
 7001SOL    HW121902   0.866   1.644   5.207
 7001SOL    HW221903   0.916   1.765   5.304
 7002SOL     OW21904   1.787   5.349   3.875
 7002SOL    HW121905   1.813   5.275   3.937
 7002SOL    HW221906   1.865   5.411   3.863
 7003SOL     OW21907   5.128   5.249   1.514
 7003SOL    HW121908   5.093   5.291   1.431
 7003SOL    HW221909   5.191   5.175   1.491
 7004SOL     OW21910   1.060   5.346   0.640
 7004SOL    HW121911   0.966   5.312   0.638
 7004SOL    HW221912   1.118   5.286   0.585
 7005SOL     OW21913   0.967   0.442   6.956
 7005SOL    HW121914   1.058   0.408   6.933
 7005SOL    HW221915   0.907   0.434   6.877
 7006SOL     OW21916   6.590   6.512   3.234
 7006SOL    HW121917   6.589   6.592   3.295
 7006SOL    HW221918   6.677   6.464   3.243
 7007SOL     OW21919   4.494   0.541   5.098
 7007SOL    HW121920   4.546   0.499   5.023
 7007SOL    HW221921   4.413   0.586   5.061
 7008SOL     OW21922   6.647   4.352   4.110
 7008SOL    HW121923   6.592   4.434   4.126
 7008SOL    HW221924   6.744   4.375   4.117
 7009SOL     OW21925   4.237   6.784   1.581
 7009SOL    HW121926   4.303   6.852   1.548
 7009SOL    HW221927   4.187   6.746   1.503
 7010SOL     OW21928   5.800   4.440   3.262
 7010SOL    HW121929   5.721   4.501   3.269
 7010SOL    HW221930   5.791   4.367   3.330
 7011SOL     OW21931   4.077   6.727   0.647
 7011SOL    HW121932   4.013   6.653   0.628
 7011SOL    HW221933   4.045   6.811   0.601
 7012SOL     OW21934   1.435   2.226   1.383
 7012SOL    HW121935   1.503   2.195   1.316
 7012SOL    HW221936   1.371   2.290   1.338
 7013SOL     OW21937   2.661   0.608   6.389
 7013SOL    HW121938   2.656   0.708   6.381
 7013SOL    HW221939   2.614   0.579   6.472
 7014SOL     OW21940   5.440   3.361   1.096
 7014SOL    HW121941   5.388   3.447   1.098
 7014SOL    HW221942   5.533   3.378   1.065
 7015SOL     OW21943   5.796   4.828   2.194
 7015SOL    HW121944   5.776   4.894   2.122
 7015SOL    HW221945   5.717   4.823   2.256
 7016SOL     OW21946   3.430   5.347   1.006
 7016SOL    HW121947   3.341   5.385   1.031
 7016SOL    HW221948   3.447   5.264   1.059
 7017SOL     OW21949   2.791   4.683   3.256
 7017SOL    HW121950   2.815   4.714   3.164
 7017SOL    HW221951   2.810   4.585   3.265
 7018SOL     OW21952   5.335   3.656   4.249
 7018SOL    HW121953   5.288   3.569   4.241
 7018SOL    HW221954   5.433   3.643   4.236
 7019SOL     OW21955   4.683   5.524   2.090
 7019SOL    HW121956   4.696   5.484   1.999
 7019SOL    HW221957   4.685   5.452   2.159
 7020SOL     OW21958   0.429   3.698   0.004
 7020SOL    HW121959   0.457   3.601   0.003
 7020SOL    HW221960   0.361   3.714   6.953
 7021SOL     OW21961   1.386   3.053   4.750
 7021SOL    HW121962   1.477   3.061   4.710
 7021SOL    HW221963   1.391   3.074   4.848
 7022SOL     OW21964   4.598   0.711   6.959
 7022SOL    HW121965   4.635   0.619   6.954
 7022SOL    HW221966   4.657   0.774   6.910
 7023SOL     OW21967   0.294   2.494   1.407
 7023SOL    HW121968   0.198   2.519   1.419
 7023SOL    HW221969   0.351   2.575   1.422
 7024SOL     OW21970   3.793   3.122   3.098
 7024SOL    HW121971   3.874   3.090   3.148
 7024SOL    HW221972   3.733   3.173   3.159
 7025SOL     OW21973   3.676   0.668   0.409
 7025SOL    HW121974   3.638   0.631   0.494
 7025SOL    HW221975   3.685   0.768   0.418
 7026SOL     OW21976   3.756   2.110   2.342
 7026SOL    HW121977   3.684   2.044   2.364
 7026SOL    HW221978   3.721   2.176   2.276
 7027SOL     OW21979   2.184   6.213   3.450
 7027SOL    HW121980   2.100   6.220   3.504
 7027SOL    HW221981   2.210   6.304   3.417
 7028SOL     OW21982   2.573   0.139   3.929
 7028SOL    HW121983   2.652   0.077   3.932
 7028SOL    HW221984   2.566   0.188   4.015
 7029SOL     OW21985   3.552   3.914   5.767
 7029SOL    HW121986   3.534   3.969   5.686
 7029SOL    HW221987   3.649   3.921   5.791
 7030SOL     OW21988   0.676   1.971   4.897
 7030SOL    HW121989   0.774   1.992   4.896
 7030SOL    HW221990   0.628   2.039   4.952
 7031SOL     OW21991   4.430   6.193   0.750
 7031SOL    HW121992   4.415   6.274   0.694
 7031SOL    HW221993   4.471   6.121   0.693
 7032SOL     OW21994   4.244   0.722   3.695
 7032SOL    HW121995   4.197   0.709   3.783
 7032SOL    HW221996   4.203   0.800   3.648
 7033SOL     OW21997   1.511   2.700   4.190
 7033SOL    HW121998   1.468   2.788   4.211
 7033SOL    HW221999   1.610   2.709   4.200
 7034SOL     OW22000   6.566   2.811   3.419
 7034SOL    HW122001   6.661   2.817   3.449
 7034SOL    HW222002   6.562   2.805   3.320
 7035SOL     OW22003   2.432   6.982   1.442
 7035SOL    HW122004   2.379   0.044   1.425
 7035SOL    HW222005   2.386   6.904   1.399
 7036SOL     OW22006   0.234   2.048   2.362
 7036SOL    HW122007   0.259   2.143   2.383
 7036SOL    HW222008   0.142   2.046   2.324
 7037SOL     OW22009   0.496   1.380   5.974
 7037SOL    HW122010   0.563   1.311   6.003
 7037SOL    HW222011   0.449   1.416   6.054
 7038SOL     OW22012   2.460   4.523   5.608
 7038SOL    HW122013   2.369   4.492   5.580
 7038SOL    HW222014   2.482   4.483   5.697
 7039SOL     OW22015   0.365   5.680   3.392
 7039SOL    HW122016   0.290   5.739   3.423
 7039SOL    HW222017   0.438   5.736   3.353
 7040SOL     OW22018   4.494   2.258   5.073
 7040SOL    HW122019   4.507   2.166   5.111
 7040SOL    HW222020   4.466   2.250   4.977
 7041SOL     OW22021   1.114   1.627   3.548
 7041SOL    HW122022   1.133   1.630   3.646
 7041SOL    HW222023   1.018   1.652   3.532
 7042SOL     OW22024   4.241   5.666   4.731
 7042SOL    HW122025   4.205   5.643   4.641
 7042SOL    HW222026   4.167   5.662   4.799
 7043SOL     OW22027   2.516   4.596   3.653
 7043SOL    HW122028   2.479   4.519   3.601
 7043SOL    HW222029   2.487   4.589   3.748
 7044SOL     OW22030   4.877   0.405   4.964
 7044SOL    HW122031   4.960   0.370   5.009
 7044SOL    HW222032   4.876   0.505   4.970
 7045SOL     OW22033   5.765   5.384   2.435
 7045SOL    HW122034   5.842   5.336   2.394
 7045SOL    HW222035   5.767   5.371   2.534
 7046SOL     OW22036   3.258   2.117   3.824
 7046SOL    HW122037   3.339   2.059   3.823
 7046SOL    HW222038   3.235   2.143   3.730
 7047SOL     OW22039   0.247   1.098   1.052
 7047SOL    HW122040   0.344   1.114   1.035
 7047SOL    HW222041   0.203   1.069   0.967
 7048SOL     OW22042   5.841   6.461   4.584
 7048SOL    HW122043   5.805   6.538   4.636
 7048SOL    HW222044   5.861   6.490   4.491
 7049SOL     OW22045   4.075   0.929   2.267
 7049SOL    HW122046   4.058   0.849   2.324
 7049SOL    HW222047   4.046   1.012   2.316
 7050SOL     OW22048   3.648   4.807   0.866
 7050SOL    HW122049   3.742   4.838   0.847
 7050SOL    HW222050   3.629   4.817   0.963
 7051SOL     OW22051   6.562   6.568   1.247
 7051SOL    HW122052   6.561   6.660   1.207
 7051SOL    HW222053   6.549   6.500   1.176
 7052SOL     OW22054   5.788   6.924   3.372
 7052SOL    HW122055   5.787   0.002   3.366
 7052SOL    HW222056   5.883   6.893   3.383
 7053SOL     OW22057   2.147   3.754   3.944
 7053SOL    HW122058   2.055   3.751   3.905
 7053SOL    HW222059   2.173   3.848   3.963
 7054SOL     OW22060   0.017   6.801   1.108
 7054SOL    HW122061   0.023   6.862   1.187
 7054SOL    HW222062   0.065   6.715   1.129
 7055SOL     OW22063   2.730   0.479   0.206
 7055SOL    HW122064   2.684   0.540   0.142
 7055SOL    HW222065   2.827   0.474   0.184
 7056SOL     OW22066   6.774   5.415   1.127
 7056SOL    HW122067   6.675   5.408   1.142
 7056SOL    HW222068   6.800   5.511   1.131
 7057SOL     OW22069   2.957   5.511   4.517
 7057SOL    HW122070   2.971   5.544   4.611
 7057SOL    HW222071   2.956   5.411   4.518
 7058SOL     OW22072   5.450   2.014   6.543
 7058SOL    HW122073   5.425   2.047   6.452
 7058SOL    HW222074   5.527   2.067   6.578
 7059SOL     OW22075   1.512   1.133   4.893
 7059SOL    HW122076   1.612   1.138   4.897
 7059SOL    HW222077   1.478   1.194   4.822
 7060SOL     OW22078   3.492   6.322   2.037
 7060SOL    HW122079   3.546   6.245   2.071
 7060SOL    HW222080   3.505   6.330   1.938
 7061SOL     OW22081   0.558   2.305   2.176
 7061SOL    HW122082   0.514   2.395   2.171
 7061SOL    HW222083   0.644   2.313   2.226
 7062SOL     OW22084   4.386   1.834   4.054
 7062SOL    HW122085   4.312   1.811   3.991
 7062SOL    HW222086   4.347   1.853   4.144
 7063SOL     OW22087   0.604   6.281   2.127
 7063SOL    HW122088   0.580   6.241   2.216
 7063SOL    HW222089   0.592   6.380   2.130
 7064SOL     OW22090   4.633   1.630   6.179
 7064SOL    HW122091   4.645   1.670   6.269
 7064SOL    HW222092   4.723   1.609   6.140
 7065SOL     OW22093   3.427   4.678   5.375
 7065SOL    HW122094   3.413   4.579   5.371
 7065SOL    HW222095   3.483   4.701   5.455
 7066SOL     OW22096   4.584   0.979   6.677
 7066SOL    HW122097   4.485   0.969   6.688
 7066SOL    HW222098   4.612   1.069   6.708
 7067SOL     OW22099   1.326   3.408   6.962
 7067SOL    HW122100   1.280   3.341   6.903
 7067SOL    HW222101   1.354   3.487   6.908
 7068SOL     OW22102   5.838   4.564   4.188
 7068SOL    HW122103   5.922   4.580   4.238
 7068SOL    HW222104   5.832   4.628   4.111
 7069SOL     OW22105   6.031   1.906   5.691
 7069SOL    HW122106   6.047   1.864   5.780
 7069SOL    HW222107   6.118   1.920   5.644
 7070SOL     OW22108   0.532   6.691   4.679
 7070SOL    HW122109   0.528   6.595   4.654
 7070SOL    HW222110   0.442   6.722   4.709
 7071SOL     OW22111   4.960   6.546   6.622
 7071SOL    HW122112   4.894   6.574   6.553
 7071SOL    HW222113   4.918   6.549   6.713
 7072SOL     OW22114   1.784   4.270   6.874
 7072SOL    HW122115   1.878   4.238   6.888
 7072SOL    HW222116   1.776   4.363   6.909
 7073SOL     OW22117   3.807   0.270   3.076
 7073SOL    HW122118   3.730   0.334   3.073
 7073SOL    HW222119   3.814   0.232   3.168
 7074SOL     OW22120   6.743   3.528   3.882
 7074SOL    HW122121   6.810   3.580   3.935
 7074SOL    HW222122   6.669   3.497   3.941
 7075SOL     OW22123   3.132   4.996   4.950
 7075SOL    HW122124   3.040   5.019   4.980
 7075SOL    HW222125   3.194   4.995   5.029
 7076SOL     OW22126   5.983   3.273   1.993
 7076SOL    HW122127   6.017   3.360   1.958
 7076SOL    HW222128   6.022   3.198   1.940
 7077SOL     OW22129   2.563   4.622   2.860
 7077SOL    HW122130   2.608   4.564   2.792
 7077SOL    HW222131   2.484   4.666   2.820
 7078SOL     OW22132   5.155   6.602   0.603
 7078SOL    HW122133   5.123   6.628   0.694
 7078SOL    HW222134   5.148   6.502   0.592
 7079SOL     OW22135   1.351   6.729   4.126
 7079SOL    HW122136   1.423   6.745   4.058
 7079SOL    HW222137   1.312   6.638   4.112
 7080SOL     OW22138   3.887   1.817   4.509
 7080SOL    HW122139   3.879   1.742   4.575
 7080SOL    HW222140   3.810   1.812   4.445
 7081SOL     OW22141   1.375   0.010   0.344
 7081SOL    HW122142   1.304   0.060   0.294
 7081SOL    HW222143   1.350   6.935   0.351
 7082SOL     OW22144   6.856   3.617   1.504
 7082SOL    HW122145   6.847   3.636   1.602
 7082SOL    HW222146   6.881   3.521   1.491
 7083SOL     OW22147   0.074   1.804   2.197
 7083SOL    HW122148   0.099   1.713   2.162
 7083SOL    HW222149   0.068   1.868   2.120
 7084SOL     OW22150   0.389   5.664   4.971
 7084SOL    HW122151   0.356   5.571   4.984
 7084SOL    HW222152   0.379   5.716   5.056
 7085SOL     OW22153   6.761   2.252   2.586
 7085SOL    HW122154   6.709   2.336   2.569
 7085SOL    HW222155   6.717   2.175   2.539
 7086SOL     OW22156   6.032   0.311   6.949
 7086SOL    HW122157   6.082   0.263   0.000
 7086SOL    HW222158   6.049   0.266   6.861
 7087SOL     OW22159   5.328   3.464   2.739
 7087SOL    HW122160   5.320   3.399   2.663
 7087SOL    HW222161   5.363   3.417   2.820
 7088SOL     OW22162   5.804   2.062   5.005
 7088SOL    HW122163   5.881   2.043   4.945
 7088SOL    HW222164   5.720   2.072   4.951
 7089SOL     OW22165   3.152   4.907   2.615
 7089SOL    HW122166   3.225   4.901   2.683
 7089SOL    HW222167   3.170   4.841   2.542
 7090SOL     OW22168   2.992   1.162   0.804
 7090SOL    HW122169   2.979   1.143   0.902
 7090SOL    HW222170   3.048   1.090   0.763
 7091SOL     OW22171   0.761   0.583   1.063
 7091SOL    HW122172   0.674   0.573   1.014
 7091SOL    HW222173   0.837   0.572   0.998
 7092SOL     OW22174   4.449   2.764   6.214
 7092SOL    HW122175   4.510   2.834   6.177
 7092SOL    HW222176   4.440   2.689   6.147
 7093SOL     OW22177   3.502   4.132   1.358
 7093SOL    HW122178   3.590   4.172   1.332
 7093SOL    HW222179   3.482   4.156   1.452
 7094SOL     OW22180   1.846   6.550   5.463
 7094SOL    HW122181   1.904   6.515   5.389
 7094SOL    HW222182   1.899   6.611   5.521
 7095SOL     OW22183   3.122   4.587   5.630
 7095SOL    HW122184   3.217   4.560   5.644
 7095SOL    HW222185   3.097   4.659   5.695
 7096SOL     OW22186   6.839   0.897   1.327
 7096SOL    HW122187   6.871   0.927   1.237
 7096SOL    HW222188   6.864   0.965   1.396
 7097SOL     OW22189   5.399   0.417   2.289
 7097SOL    HW122190   5.395   0.326   2.328
 7097SOL    HW222191   5.437   0.413   2.197
 7098SOL     OW22192   1.892   6.854   4.888
 7098SOL    HW122193   1.950   6.935   4.874
 7098SOL    HW222194   1.914   6.811   4.975
 7099SOL     OW22195   3.503   1.940   3.801
 7099SOL    HW122196   3.531   1.994   3.722
 7099SOL    HW222197   3.584   1.917   3.856
 7100SOL     OW22198   0.420   3.822   0.904
 7100SOL    HW122199   0.428   3.862   0.995
 7100SOL    HW222200   0.473   3.737   0.899
 7101SOL     OW22201   2.581   6.546   4.922
 7101SOL    HW122202   2.680   6.561   4.925
 7101SOL    HW222203   2.561   6.468   4.862
 7102SOL     OW22204   5.222   0.559   1.139
 7102SOL    HW122205   5.261   0.528   1.052
 7102SOL    HW222206   5.127   0.528   1.146
 7103SOL     OW22207   5.118   5.008   2.030
 7103SOL    HW122208   5.020   4.988   2.031
 7103SOL    HW222209   5.151   5.004   1.935
 7104SOL     OW22210   5.206   3.079   2.947
 7104SOL    HW122211   5.301   3.048   2.957
 7104SOL    HW222212   5.197   3.173   2.981
 7105SOL     OW22213   3.785   4.092   4.339
 7105SOL    HW122214   3.876   4.051   4.343
 7105SOL    HW222215   3.780   4.168   4.404
 7106SOL     OW22216   3.603   3.167   0.981
 7106SOL    HW122217   3.666   3.120   0.920
 7106SOL    HW222218   3.637   3.259   0.999
 7107SOL     OW22219   4.037   0.291   6.794
 7107SOL    HW122220   3.993   0.319   6.879
 7107SOL    HW222221   4.133   0.266   6.813
 7108SOL     OW22222   2.671   6.629   2.845
 7108SOL    HW122223   2.699   6.552   2.786
 7108SOL    HW222224   2.712   6.713   2.811
 7109SOL     OW22225   1.643   0.532   6.905
 7109SOL    HW122226   1.614   0.458   6.845
 7109SOL    HW222227   1.740   0.550   6.891
 7110SOL     OW22228   3.380   6.746   4.431
 7110SOL    HW122229   3.445   6.703   4.493
 7110SOL    HW222230   3.392   6.845   4.434
 7111SOL     OW22231   1.200   1.177   3.717
 7111SOL    HW122232   1.262   1.103   3.691
 7111SOL    HW222233   1.149   1.152   3.799
 7112SOL     OW22234   2.503   4.497   4.571
 7112SOL    HW122235   2.473   4.582   4.614
 7112SOL    HW222236   2.603   4.489   4.578
 7113SOL     OW22237   2.812   5.240   5.079
 7113SOL    HW122238   2.769   5.209   5.163
 7113SOL    HW222239   2.890   5.299   5.101
 7114SOL     OW22240   4.442   5.429   1.570
 7114SOL    HW122241   4.480   5.481   1.493
 7114SOL    HW222242   4.426   5.490   1.647
 7115SOL     OW22243   5.430   4.528   6.844
 7115SOL    HW122244   5.513   4.517   6.899
 7115SOL    HW222245   5.454   4.522   6.747
 7116SOL     OW22246   5.816   4.286   3.483
 7116SOL    HW122247   5.896   4.260   3.536
 7116SOL    HW222248   5.748   4.328   3.543
 7117SOL     OW22249   6.006   6.824   4.184
 7117SOL    HW122250   5.956   6.768   4.250
 7117SOL    HW222251   5.948   6.898   4.151
 7118SOL     OW22252   3.818   4.290   5.409
 7118SOL    HW122253   3.752   4.216   5.416
 7118SOL    HW222254   3.855   4.292   5.316
 7119SOL     OW22255   5.226   0.886   5.122
 7119SOL    HW122256   5.164   0.840   5.186
 7119SOL    HW222257   5.294   0.820   5.089
 7120SOL     OW22258   5.469   1.440   1.341
 7120SOL    HW122259   5.462   1.340   1.343
 7120SOL    HW222260   5.387   1.478   1.299
 7121SOL     OW22261   0.954   6.513   3.718
 7121SOL    HW122262   0.899   6.491   3.638
 7121SOL    HW222263   0.981   6.429   3.764
 7122SOL     OW22264   2.580   6.768   5.806
 7122SOL    HW122265   2.568   6.727   5.715
 7122SOL    HW222266   2.593   6.695   5.873
 7123SOL     OW22267   6.288   4.738   4.850
 7123SOL    HW122268   6.199   4.693   4.852
 7123SOL    HW222269   6.285   4.816   4.787
 7124SOL     OW22270   1.476   2.340   1.637
 7124SOL    HW122271   1.389   2.382   1.663
 7124SOL    HW222272   1.468   2.304   1.544
 7125SOL     OW22273   0.593   0.291   1.980
 7125SOL    HW122274   0.567   0.362   2.046
 7125SOL    HW222275   0.539   0.300   1.897
 7126SOL     OW22276   4.064   6.158   1.206
 7126SOL    HW122277   4.002   6.140   1.130
 7126SOL    HW222278   4.110   6.245   1.192
 7127SOL     OW22279   3.441   6.159   5.612
 7127SOL    HW122280   3.360   6.136   5.559
 7127SOL    HW222281   3.435   6.254   5.644
 7128SOL     OW22282   3.899   4.251   6.663
 7128SOL    HW122283   3.865   4.161   6.689
 7128SOL    HW222284   3.951   4.291   6.739
 7129SOL     OW22285   6.907   1.717   0.531
 7129SOL    HW122286   6.848   1.788   0.570
 7129SOL    HW222287   6.951   1.753   0.448
 7130SOL     OW22288   3.060   0.398   4.601
 7130SOL    HW122289   3.145   0.397   4.547
 7130SOL    HW222290   3.055   0.483   4.653
 7131SOL     OW22291   3.152   0.726   2.153
 7131SOL    HW122292   3.071   0.687   2.109
 7131SOL    HW222293   3.201   0.655   2.202
 7132SOL     OW22294   4.940   3.982   6.662
 7132SOL    HW122295   4.953   3.905   6.599
 7132SOL    HW222296   5.026   4.000   6.710
 7133SOL     OW22297   3.699   5.492   3.683
 7133SOL    HW122298   3.789   5.535   3.691
 7133SOL    HW222299   3.679   5.440   3.767
 7134SOL     OW22300   5.532   6.261   2.008
 7134SOL    HW122301   5.482   6.262   2.095
 7134SOL    HW222302   5.539   6.167   1.975
 7135SOL     OW22303   2.102   3.209   2.016
 7135SOL    HW122304   2.134   3.288   2.068
 7135SOL    HW222305   2.101   3.231   1.919
 7136SOL     OW22306   2.914   1.711   1.475
 7136SOL    HW122307   2.841   1.737   1.539
 7136SOL    HW222308   3.003   1.737   1.514
 7137SOL     OW22309   3.131   1.947   1.057
 7137SOL    HW122310   3.186   1.918   0.978
 7137SOL    HW222311   3.037   1.915   1.046
 7138SOL     OW22312   2.424   0.899   1.392
 7138SOL    HW122313   2.382   0.827   1.447
 7138SOL    HW222314   2.441   0.865   1.300
 7139SOL     OW22315   4.989   5.550   2.276
 7139SOL    HW122316   5.075   5.596   2.300
 7139SOL    HW222317   5.006   5.485   2.202
 7140SOL     OW22318   6.194   4.193   0.542
 7140SOL    HW122319   6.278   4.152   0.509
 7140SOL    HW222320   6.117   4.133   0.520
 7141SOL     OW22321   4.259   5.965   1.138
 7141SOL    HW122322   4.191   6.008   1.197
 7141SOL    HW222323   4.249   6.001   1.045
 7142SOL     OW22324   3.169   0.724   4.522
 7142SOL    HW122325   3.083   0.734   4.471
 7142SOL    HW222326   3.222   0.649   4.484
 7143SOL     OW22327   2.537   4.389   6.645
 7143SOL    HW122328   2.537   4.489   6.652
 7143SOL    HW222329   2.558   4.362   6.551
 7144SOL     OW22330   0.053   1.016   4.301
 7144SOL    HW122331   0.075   1.094   4.242
 7144SOL    HW222332   6.987   0.977   4.271
 7145SOL     OW22333   4.634   1.701   6.979
 7145SOL    HW122334   4.582   1.714   6.896
 7145SOL    HW222335   4.684   1.785   7.001
 7146SOL     OW22336   2.038   1.385   5.116
 7146SOL    HW122337   2.054   1.472   5.162
 7146SOL    HW222338   2.103   1.373   5.042
 7147SOL     OW22339   5.319   5.130   3.213
 7147SOL    HW122340   5.310   5.219   3.168
 7147SOL    HW222341   5.282   5.135   3.305
 7148SOL     OW22342   6.358   6.507   0.963
 7148SOL    HW122343   6.340   6.605   0.973
 7148SOL    HW222344   6.351   6.463   1.053
 7149SOL     OW22345   6.922   4.745   3.345
 7149SOL    HW122346   7.002   4.721   3.399
 7149SOL    HW222347   6.923   4.843   3.326
 7150SOL     OW22348   4.060   3.325   7.000
 7150SOL    HW122349   4.133   3.260   0.001
 7150SOL    HW222350   4.092   3.418   7.017
 7151SOL     OW22351   3.633   0.275   0.728
 7151SOL    HW122352   3.588   0.218   0.797
 7151SOL    HW222353   3.635   0.226   0.641
 7152SOL     OW22354   6.617   0.846   6.682
 7152SOL    HW122355   6.571   0.897   6.610
 7152SOL    HW222356   6.708   0.820   6.651
 7153SOL     OW22357   4.020   5.788   1.645
 7153SOL    HW122358   3.951   5.719   1.668
 7153SOL    HW222359   3.974   5.874   1.623
 7154SOL     OW22360   4.425   1.248   2.289
 7154SOL    HW122361   4.354   1.197   2.240
 7154SOL    HW222362   4.427   1.342   2.254
 7155SOL     OW22363   3.509   1.702   1.730
 7155SOL    HW122364   3.512   1.694   1.631
 7155SOL    HW222365   3.594   1.744   1.763
 7156SOL     OW22366   5.568   3.172   1.922
 7156SOL    HW122367   5.491   3.205   1.868
 7156SOL    HW222368   5.540   3.092   1.975
 7157SOL     OW22369   6.081   4.094   6.905
 7157SOL    HW122370   6.101   4.133   6.995
 7157SOL    HW222371   6.004   4.030   6.913
 7158SOL     OW22372   6.125   6.969   3.851
 7158SOL    HW122373   6.199   0.005   3.887
 7158SOL    HW222374   6.137   6.957   3.752
 7159SOL     OW22375   6.672   4.873   4.324
 7159SOL    HW122376   6.735   4.951   4.329
 7159SOL    HW222377   6.721   4.789   4.348
 7160SOL     OW22378   5.861   6.596   2.478
 7160SOL    HW122379   5.769   6.596   2.518
 7160SOL    HW222380   5.923   6.647   2.538
 7161SOL     OW22381   3.750   3.619   3.220
 7161SOL    HW122382   3.691   3.551   3.175
 7161SOL    HW222383   3.694   3.697   3.248
 7162SOL     OW22384   0.038   4.770   1.711
 7162SOL    HW122385   0.022   4.849   1.651
 7162SOL    HW222386   0.040   4.686   1.657
 7163SOL     OW22387   1.083   1.660   2.510
 7163SOL    HW122388   1.143   1.667   2.431
 7163SOL    HW222389   0.994   1.701   2.488
 7164SOL     OW22390   1.757   0.861   6.268
 7164SOL    HW122391   1.697   0.799   6.216
 7164SOL    HW222392   1.842   0.813   6.291
 7165SOL     OW22393   5.566   7.019   0.433
 7165SOL    HW122394   5.600   0.066   0.499
 7165SOL    HW222395   5.573   6.928   0.473
 7166SOL     OW22396   5.413   0.399   5.685
 7166SOL    HW122397   5.393   0.491   5.651
 7166SOL    HW222398   5.397   0.333   5.611
 7167SOL     OW22399   6.013   2.367   5.117
 7167SOL    HW122400   6.071   2.288   5.095
 7167SOL    HW222401   5.949   2.342   5.190
 7168SOL     OW22402   2.568   0.844   2.583
 7168SOL    HW122403   2.635   0.879   2.517
 7168SOL    HW222404   2.593   0.752   2.611
 7169SOL     OW22405   1.747   4.542   4.957
 7169SOL    HW122406   1.802   4.500   4.884
 7169SOL    HW222407   1.765   4.640   4.961
 7170SOL     OW22408   4.627   0.289   2.022
 7170SOL    HW122409   4.636   0.336   2.110
 7170SOL    HW222410   4.568   0.208   2.033
 7171SOL     OW22411   5.467   5.186   0.957
 7171SOL    HW122412   5.431   5.149   0.872
 7171SOL    HW222413   5.474   5.113   1.026
 7172SOL     OW22414   1.705   1.455   5.295
 7172SOL    HW122415   1.632   1.394   5.326
 7172SOL    HW222416   1.727   1.435   5.200
 7173SOL     OW22417   5.824   5.814   6.836
 7173SOL    HW122418   5.749   5.820   6.902
 7173SOL    HW222419   5.788   5.787   6.747
 7174SOL     OW22420   5.571   4.733   1.409
 7174SOL    HW122421   5.607   4.655   1.358
 7174SOL    HW222422   5.647   4.789   1.442
 7175SOL     OW22423   6.205   3.947   5.033
 7175SOL    HW122424   6.256   4.010   5.092
 7175SOL    HW222425   6.152   3.884   5.090
 7176SOL     OW22426   0.879   1.485   3.880
 7176SOL    HW122427   0.813   1.460   3.951
 7176SOL    HW222428   0.921   1.573   3.904
 7177SOL     OW22429   1.830   5.609   5.721
 7177SOL    HW122430   1.772   5.687   5.742
 7177SOL    HW222431   1.888   5.588   5.800
 7178SOL     OW22432   0.185   0.604   5.589
 7178SOL    HW122433   0.192   0.624   5.492
 7178SOL    HW222434   0.276   0.586   5.627
 7179SOL     OW22435   2.150   4.732   6.102
 7179SOL    HW122436   2.142   4.632   6.095
 7179SOL    HW222437   2.063   4.770   6.133
 7180SOL     OW22438   1.874   4.750   1.213
 7180SOL    HW122439   1.967   4.718   1.228
 7180SOL    HW222440   1.819   4.676   1.173
 7181SOL     OW22441   2.231   1.271   5.753
 7181SOL    HW122442   2.187   1.189   5.717
 7181SOL    HW222443   2.269   1.324   5.677
 7182SOL     OW22444   0.401   2.913   4.412
 7182SOL    HW122445   0.476   2.975   4.388
 7182SOL    HW222446   0.361   2.940   4.499
 7183SOL     OW22447   1.913   6.566   1.606
 7183SOL    HW122448   1.903   6.512   1.690
 7183SOL    HW222449   1.902   6.663   1.627
 7184SOL     OW22450   5.843   1.167   3.316
 7184SOL    HW122451   5.895   1.104   3.373
 7184SOL    HW222452   5.813   1.245   3.371
 7185SOL     OW22453   5.062   1.276   5.684
 7185SOL    HW122454   5.026   1.217   5.757
 7185SOL    HW222455   4.985   1.321   5.638
 7186SOL     OW22456   0.109   6.848   0.287
 7186SOL    HW122457   0.185   6.798   0.329
 7186SOL    HW222458   0.058   6.898   0.357
 7187SOL     OW22459   2.908   3.617   4.526
 7187SOL    HW122460   2.902   3.699   4.469
 7187SOL    HW222461   2.898   3.643   4.622
 7188SOL     OW22462   4.669   4.468   6.610
 7188SOL    HW122463   4.737   4.441   6.679
 7188SOL    HW222464   4.579   4.434   6.638
 7189SOL     OW22465   6.450   2.959   5.243
 7189SOL    HW122466   6.377   2.938   5.308
 7189SOL    HW222467   6.464   3.058   5.240
 7190SOL     OW22468   6.003   5.614   1.158
 7190SOL    HW122469   5.965   5.660   1.238
 7190SOL    HW222470   6.072   5.673   1.115
 7191SOL     OW22471   0.645   4.319   3.153
 7191SOL    HW122472   0.551   4.294   3.178
 7191SOL    HW222473   0.643   4.399   3.094
 7192SOL     OW22474   1.740   4.175   6.517
 7192SOL    HW122475   1.659   4.118   6.530
 7192SOL    HW222476   1.819   4.117   6.495
 7193SOL     OW22477   2.994   1.840   2.293
 7193SOL    HW122478   2.983   1.799   2.384
 7193SOL    HW222479   3.001   1.939   2.302
 7194SOL     OW22480   2.374   2.213   0.324
 7194SOL    HW122481   2.342   2.235   0.232
 7194SOL    HW222482   2.471   2.235   0.331
 7195SOL     OW22483   0.063   3.970   6.927
 7195SOL    HW122484   0.091   4.015   6.842
 7195SOL    HW222485   6.989   3.940   6.919
 7196SOL     OW22486   3.411   4.035   2.629
 7196SOL    HW122487   3.336   4.037   2.695
 7196SOL    HW222488   3.494   4.071   2.672
 7197SOL     OW22489   1.273   3.504   5.403
 7197SOL    HW122490   1.218   3.422   5.415
 7197SOL    HW222491   1.333   3.516   5.482
 7198SOL     OW22492   0.191   0.664   0.565
 7198SOL    HW122493   0.277   0.650   0.613
 7198SOL    HW222494   0.204   0.645   0.467
 7199SOL     OW22495   0.741   0.302   2.316
 7199SOL    HW122496   0.742   0.401   2.331
 7199SOL    HW222497   0.651   0.275   2.282
 7200SOL     OW22498   1.835   2.160   0.753
 7200SOL    HW122499   1.825   2.182   0.849
 7200SOL    HW222500   1.898   2.083   0.743
 7201SOL     OW22501   6.981   5.236   3.860
 7201SOL    HW122502   0.016   5.169   3.811
 7201SOL    HW222503   0.014   5.280   3.931
 7202SOL     OW22504   5.244   7.006   6.458
 7202SOL    HW122505   5.251   7.012   6.358
 7202SOL    HW222506   5.266   6.913   6.487
 7203SOL     OW22507   0.584   1.071   1.966
 7203SOL    HW122508   0.591   1.048   2.064
 7203SOL    HW222509   0.605   0.990   1.912
 7204SOL     OW22510   6.421   1.427   0.271
 7204SOL    HW122511   6.460   1.355   0.328
 7204SOL    HW222512   6.489   1.500   0.258
 7205SOL     OW22513   1.565   3.314   4.930
 7205SOL    HW122514   1.513   3.351   5.007
 7205SOL    HW222515   1.650   3.274   4.963
 7206SOL     OW22516   1.348   1.666   1.450
 7206SOL    HW122517   1.416   1.737   1.468
 7206SOL    HW222518   1.336   1.654   1.352
 7207SOL     OW22519   1.879   2.357   4.021
 7207SOL    HW122520   1.963   2.335   3.970
 7207SOL    HW222521   1.866   2.290   4.094
 7208SOL     OW22522   3.918   0.734   4.392
 7208SOL    HW122523   3.826   0.745   4.356
 7208SOL    HW222524   3.964   0.823   4.395
 7209SOL     OW22525   2.218   2.401   2.645
 7209SOL    HW122526   2.256   2.474   2.701
 7209SOL    HW222527   2.257   2.405   2.553
 7210SOL     OW22528   3.056   1.969   3.138
 7210SOL    HW122529   3.154   1.978   3.120
 7210SOL    HW222530   3.039   1.884   3.188
 7211SOL     OW22531   2.651   6.344   5.527
 7211SOL    HW122532   2.640   6.292   5.442
 7211SOL    HW222533   2.684   6.436   5.505
 7212SOL     OW22534   6.103   5.830   6.125
 7212SOL    HW122535   6.098   5.847   6.027
 7212SOL    HW222536   6.013   5.803   6.159
 7213SOL     OW22537   3.690   6.981   0.402
 7213SOL    HW122538   3.684   0.054   0.437
 7213SOL    HW222539   3.711   6.983   0.304
 7214SOL     OW22540   6.909   1.155   5.985
 7214SOL    HW122541   6.882   1.112   5.899
 7214SOL    HW222542   6.961   1.091   6.040
 7215SOL     OW22543   6.805   2.601   3.874
 7215SOL    HW122544   6.783   2.696   3.895
 7215SOL    HW222545   6.721   2.547   3.870
 7216SOL     OW22546   3.049   6.413   2.317
 7216SOL    HW122547   3.083   6.487   2.260
 7216SOL    HW222548   3.113   6.396   2.391
 7217SOL     OW22549   1.109   4.657   3.597
 7217SOL    HW122550   1.175   4.633   3.668
 7217SOL    HW222551   1.049   4.731   3.630
 7218SOL     OW22552   0.073   2.868   4.025
 7218SOL    HW122553   0.080   2.795   3.957
 7218SOL    HW222554   7.000   2.872   4.060
 7219SOL     OW22555   3.203   6.523   1.548
 7219SOL    HW122556   3.249   6.510   1.636
 7219SOL    HW222557   3.104   6.510   1.560
 7220SOL     OW22558   6.608   4.039   4.803
 7220SOL    HW122559   6.623   4.123   4.751
 7220SOL    HW222560   6.660   3.964   4.763
 7221SOL     OW22561   3.155   6.198   4.796
 7221SOL    HW122562   3.190   6.158   4.712
 7221SOL    HW222563   3.056   6.188   4.800
 7222SOL     OW22564   5.628   6.407   3.125
 7222SOL    HW122565   5.536   6.370   3.130
 7222SOL    HW222566   5.634   6.490   3.181
 7223SOL     OW22567   2.458   1.976   1.076
 7223SOL    HW122568   2.535   1.955   1.136
 7223SOL    HW222569   2.442   2.075   1.076
 7224SOL     OW22570   4.616   2.583   4.222
 7224SOL    HW122571   4.615   2.638   4.138
 7224SOL    HW222572   4.537   2.521   4.222
 7225SOL     OW22573   2.134   6.362   0.093
 7225SOL    HW122574   2.163   6.436   0.154
 7225SOL    HW222575   2.107   6.283   0.147
 7226SOL     OW22576   5.917   0.790   0.473
 7226SOL    HW122577   6.007   0.762   0.439
 7226SOL    HW222578   5.849   0.779   0.401
 7227SOL     OW22579   2.886   0.803   1.937
 7227SOL    HW122580   2.965   0.861   1.915
 7227SOL    HW222581   2.802   0.850   1.910
 7228SOL     OW22582   0.316   1.554   3.124
 7228SOL    HW122583   0.407   1.536   3.087
 7228SOL    HW222584   0.255   1.585   3.051
 7229SOL     OW22585   6.901   6.816   4.390
 7229SOL    HW122586   6.973   6.856   4.447
 7229SOL    HW222587   6.814   6.819   4.440
 7230SOL     OW22588   2.681   5.308   3.946
 7230SOL    HW122589   2.696   5.214   3.914
 7230SOL    HW222590   2.769   5.354   3.957
 7231SOL     OW22591   3.600   6.895   0.748
 7231SOL    HW122592   3.678   6.926   0.693
 7231SOL    HW222593   3.618   6.913   0.844
 7232SOL     OW22594   4.682   6.570   2.574
 7232SOL    HW122595   4.711   6.657   2.615
 7232SOL    HW222596   4.585   6.554   2.595
 7233SOL     OW22597   6.254   2.011   5.590
 7233SOL    HW122598   6.351   1.985   5.588
 7233SOL    HW222599   6.246   2.104   5.624
 7234SOL     OW22600   5.287   3.935   2.302
 7234SOL    HW122601   5.371   3.914   2.351
 7234SOL    HW222602   5.219   3.972   2.366
 7235SOL     OW22603   6.325   5.491   1.530
 7235SOL    HW122604   6.279   5.485   1.618
 7235SOL    HW222605   6.310   5.407   1.479
 7236SOL     OW22606   1.891   2.683   2.951
 7236SOL    HW122607   1.811   2.684   2.890
 7236SOL    HW222608   1.972   2.657   2.898
 7237SOL     OW22609   4.760   0.057   6.697
 7237SOL    HW122610   4.780   7.006   6.763
 7237SOL    HW222611   4.845   0.086   6.652
 7238SOL     OW22612   4.427   2.683   6.927
 7238SOL    HW122613   4.419   2.772   6.972
 7238SOL    HW222614   4.501   2.631   6.970
 7239SOL     OW22615   0.505   3.299   2.621
 7239SOL    HW122616   0.494   3.337   2.529
 7239SOL    HW222617   0.589   3.335   2.661
 7240SOL     OW22618   6.684   2.142   6.983
 7240SOL    HW122619   6.620   2.190   6.923
 7240SOL    HW222620   6.744   2.083   6.928
 7241SOL     OW22621   2.253   0.215   0.240
 7241SOL    HW122622   2.350   0.230   0.259
 7241SOL    HW222623   2.231   0.248   0.149
 7242SOL     OW22624   0.121   5.889   5.150
 7242SOL    HW122625   0.051   5.956   5.126
 7242SOL    HW222626   0.210   5.934   5.153
 7243SOL     OW22627   6.783   3.659   6.884
 7243SOL    HW122628   6.684   3.659   6.901
 7243SOL    HW222629   6.810   3.749   6.851
 7244SOL     OW22630   0.380   6.691   0.823
 7244SOL    HW122631   0.432   6.765   0.780
 7244SOL    HW222632   0.288   6.723   0.845
 7245SOL     OW22633   1.611   2.295   5.758
 7245SOL    HW122634   1.590   2.258   5.849
 7245SOL    HW222635   1.636   2.392   5.766
 7246SOL     OW22636   2.313   0.401   4.422
 7246SOL    HW122637   2.397   0.455   4.435
 7246SOL    HW222638   2.332   0.305   4.441
 7247SOL     OW22639   3.188   2.266   5.631
 7247SOL    HW122640   3.184   2.166   5.631
 7247SOL    HW222641   3.115   2.303   5.574
 7248SOL     OW22642   2.980   0.516   4.066
 7248SOL    HW122643   3.010   0.443   4.004
 7248SOL    HW222644   2.885   0.539   4.047
 7249SOL     OW22645   4.322   4.836   1.771
 7249SOL    HW122646   4.365   4.808   1.685
 7249SOL    HW222647   4.279   4.757   1.814
 7250SOL     OW22648   5.281   4.654   5.930
 7250SOL    HW122649   5.201   4.639   5.987
 7250SOL    HW222650   5.364   4.651   5.987
 7251SOL     OW22651   0.544   0.188   5.766
 7251SOL    HW122652   0.513   0.249   5.693
 7251SOL    HW222653   0.475   0.118   5.783
 7252SOL     OW22654   2.941   3.794   1.895
 7252SOL    HW122655   2.888   3.784   1.810
 7252SOL    HW222656   2.972   3.704   1.926
 7253SOL     OW22657   1.828   6.902   6.410
 7253SOL    HW122658   1.752   6.838   6.422
 7253SOL    HW222659   1.838   6.925   6.313
 7254SOL     OW22660   5.806   5.212   3.992
 7254SOL    HW122661   5.888   5.262   3.966
 7254SOL    HW222662   5.829   5.142   4.060
 7255SOL     OW22663   4.838   3.462   6.866
 7255SOL    HW122664   4.804   3.546   6.823
 7255SOL    HW222665   4.937   3.470   6.880
 7256SOL     OW22666   3.909   6.187   5.871
 7256SOL    HW122667   3.821   6.140   5.871
 7256SOL    HW222668   3.927   6.223   5.963
 7257SOL     OW22669   0.042   2.030   4.807
 7257SOL    HW122670   7.004   2.107   4.783
 7257SOL    HW222671   0.118   2.062   4.863
 7258SOL     OW22672   5.380   1.941   2.420
 7258SOL    HW122673   5.467   1.943   2.371
 7258SOL    HW222674   5.375   2.019   2.483
 7259SOL     OW22675   1.123   3.244   2.436
 7259SOL    HW122676   1.087   3.299   2.511
 7259SOL    HW222677   1.207   3.198   2.465
 7260SOL     OW22678   5.144   2.110   1.200
 7260SOL    HW122679   5.054   2.146   1.222
 7260SOL    HW222680   5.161   2.026   1.251
 7261SOL     OW22681   0.428   4.401   1.421
 7261SOL    HW122682   0.473   4.356   1.499
 7261SOL    HW222683   0.492   4.464   1.377
 7262SOL     OW22684   5.517   0.989   6.460
 7262SOL    HW122685   5.453   0.990   6.536
 7262SOL    HW222686   5.486   1.054   6.389
 7263SOL     OW22687   0.074   6.199   0.241
 7263SOL    HW122688   0.156   6.224   0.293
 7263SOL    HW222689   0.006   6.160   0.303
 7264SOL     OW22690   5.435   0.778   1.029
 7264SOL    HW122691   5.450   0.685   0.995
 7264SOL    HW222692   5.522   0.817   1.058
 7265SOL     OW22693   5.730   4.971   5.002
 7265SOL    HW122694   5.810   4.992   5.059
 7265SOL    HW222695   5.648   4.968   5.059
 7266SOL     OW22696   6.525   0.656   3.771
 7266SOL    HW122697   6.460   0.729   3.792
 7266SOL    HW222698   6.562   0.669   3.679
 7267SOL     OW22699   6.362   6.960   5.254
 7267SOL    HW122700   6.289   6.934   5.191
 7267SOL    HW222701   6.444   6.983   5.202
 7268SOL     OW22702   0.141   5.875   4.309
 7268SOL    HW122703   0.042   5.888   4.316
 7268SOL    HW222704   0.185   5.915   4.390
 7269SOL     OW22705   1.709   6.078   5.936
 7269SOL    HW122706   1.680   6.171   5.915
 7269SOL    HW222707   1.705   6.064   6.035
 7270SOL     OW22708   0.150   1.872   3.930
 7270SOL    HW122709   0.172   1.970   3.927
 7270SOL    HW222710   0.208   1.823   3.865
 7271SOL     OW22711   1.670   5.219   4.140
 7271SOL    HW122712   1.576   5.216   4.174
 7271SOL    HW222713   1.697   5.314   4.125
 7272SOL     OW22714   6.203   5.789   2.022
 7272SOL    HW122715   6.189   5.750   1.930
 7272SOL    HW222716   6.141   5.744   2.086
 7273SOL     OW22717   5.165   3.265   0.028
 7273SOL    HW122718   5.112   3.328   6.992
 7273SOL    HW222719   5.226   3.211   6.992
 7274SOL     OW22720   0.069   4.550   6.953
 7274SOL    HW122721   0.146   4.534   6.892
 7274SOL    HW222722   7.008   4.507   6.915
 7275SOL     OW22723   0.287   5.846   2.749
 7275SOL    HW122724   0.321   5.818   2.839
 7275SOL    HW222725   0.210   5.909   2.760
 7276SOL     OW22726   5.685   0.557   3.440
 7276SOL    HW122727   5.737   0.510   3.512
 7276SOL    HW222728   5.616   0.494   3.403
 7277SOL     OW22729   4.961   0.669   5.031
 7277SOL    HW122730   5.032   0.708   5.089
 7277SOL    HW222731   4.968   0.708   4.939
 7278SOL     OW22732   3.495   3.863   1.336
 7278SOL    HW122733   3.498   3.962   1.340
 7278SOL    HW222734   3.582   3.828   1.301
 7279SOL     OW22735   4.288   6.023   0.111
 7279SOL    HW122736   4.348   6.103   0.106
 7279SOL    HW222737   4.193   6.051   0.097
 7280SOL     OW22738   6.799   0.198   3.958
 7280SOL    HW122739   6.803   0.284   4.010
 7280SOL    HW222740   6.809   0.121   4.021
 7281SOL     OW22741   2.862   1.759   0.296
 7281SOL    HW122742   2.889   1.833   0.234
 7281SOL    HW222743   2.823   1.798   0.379
 7282SOL     OW22744   5.968   5.276   2.325
 7282SOL    HW122745   6.000   5.204   2.263
 7282SOL    HW222746   6.030   5.354   2.319
 7283SOL     OW22747   2.991   1.740   3.275
 7283SOL    HW122748   2.903   1.697   3.294
 7283SOL    HW222749   3.036   1.693   3.199
 7284SOL     OW22750   0.537   3.530   6.000
 7284SOL    HW122751   0.503   3.450   5.951
 7284SOL    HW222752   0.635   3.518   6.019
 7285SOL     OW22753   5.321   3.466   2.157
 7285SOL    HW122754   5.300   3.369   2.143
 7285SOL    HW222755   5.236   3.518   2.162
 7286SOL     OW22756   2.686   1.743   0.812
 7286SOL    HW122757   2.618   1.685   0.856
 7286SOL    HW222758   2.758   1.685   0.773
 7287SOL     OW22759   6.705   2.387   6.369
 7287SOL    HW122760   6.721   2.290   6.349
 7287SOL    HW222761   6.623   2.397   6.425
 7288SOL     OW22762   3.182   0.860   0.086
 7288SOL    HW122763   3.086   0.884   0.105
 7288SOL    HW222764   3.235   0.865   0.171
 7289SOL     OW22765   6.097   1.560   3.527
 7289SOL    HW122766   6.015   1.612   3.551
 7289SOL    HW222767   6.100   1.546   3.428
 7290SOL     OW22768   3.739   6.857   5.898
 7290SOL    HW122769   3.640   6.861   5.913
 7290SOL    HW222770   3.771   6.763   5.913
 7291SOL     OW22771   1.492   6.620   0.996
 7291SOL    HW122772   1.469   6.523   0.988
 7291SOL    HW222773   1.590   6.630   1.010
 7292SOL     OW22774   2.456   1.256   4.273
 7292SOL    HW122775   2.376   1.244   4.215
 7292SOL    HW222776   2.491   1.349   4.264
 7293SOL     OW22777   1.592   1.741   5.418
 7293SOL    HW122778   1.523   1.813   5.424
 7293SOL    HW222779   1.553   1.655   5.453
 7294SOL     OW22780   2.276   5.005   0.173
 7294SOL    HW122781   2.194   4.957   0.142
 7294SOL    HW222782   2.337   4.940   0.219
 7295SOL     OW22783   0.760   2.268   0.971
 7295SOL    HW122784   0.776   2.289   0.875
 7295SOL    HW222785   0.662   2.263   0.989
 7296SOL     OW22786   2.487   5.325   1.372
 7296SOL    HW122787   2.479   5.290   1.278
 7296SOL    HW222788   2.409   5.294   1.426
 7297SOL     OW22789   3.542   5.596   0.897
 7297SOL    HW122790   3.639   5.579   0.915
 7297SOL    HW222791   3.489   5.517   0.925
 7298SOL     OW22792   4.617   4.361   5.556
 7298SOL    HW122793   4.606   4.269   5.594
 7298SOL    HW222794   4.710   4.372   5.521
 7299SOL     OW22795   0.376   1.877   0.533
 7299SOL    HW122796   0.366   1.928   0.619
 7299SOL    HW222797   0.355   1.781   0.549
 7300SOL     OW22798   6.152   6.058   2.353
 7300SOL    HW122799   6.241   6.012   2.347
 7300SOL    HW222800   6.144   6.104   2.441
 7301SOL     OW22801   6.598   1.189   4.822
 7301SOL    HW122802   6.635   1.117   4.881
 7301SOL    HW222803   6.558   1.147   4.740
 7302SOL     OW22804   1.064   1.575   6.318
 7302SOL    HW122805   1.100   1.666   6.295
 7302SOL    HW222806   0.966   1.572   6.296
 7303SOL     OW22807   4.713   0.441   6.066
 7303SOL    HW122808   4.782   0.467   5.999
 7303SOL    HW222809   4.696   0.518   6.128
 7304SOL     OW22810   4.038   4.537   0.243
 7304SOL    HW122811   4.074   4.617   0.290
 7304SOL    HW222812   4.050   4.456   0.300
 7305SOL     OW22813   4.823   1.076   0.706
 7305SOL    HW122814   4.874   1.103   0.624
 7305SOL    HW222815   4.768   0.995   0.686
 7306SOL     OW22816   5.181   2.164   1.570
 7306SOL    HW122817   5.272   2.148   1.531
 7306SOL    HW222818   5.190   2.187   1.666
 7307SOL     OW22819   2.418   0.488   2.431
 7307SOL    HW122820   2.505   0.532   2.413
 7307SOL    HW222821   2.418   0.449   2.523
 7308SOL     OW22822   0.038   4.038   5.363
 7308SOL    HW122823   0.109   3.978   5.399
 7308SOL    HW222824   0.073   4.090   5.286
 7309SOL     OW22825   5.169   6.098   0.252
 7309SOL    HW122826   5.257   6.071   0.290
 7309SOL    HW222827   5.100   6.099   0.324
 7310SOL     OW22828   2.102   3.595   1.489
 7310SOL    HW122829   2.176   3.646   1.446
 7310SOL    HW222830   2.020   3.652   1.493
 7311SOL     OW22831   3.489   2.025   2.075
 7311SOL    HW122832   3.564   2.087   2.051
 7311SOL    HW222833   3.441   1.996   1.993
 7312SOL     OW22834   6.957   3.688   6.319
 7312SOL    HW122835   7.017   3.644   6.252
 7312SOL    HW222836   7.012   3.737   6.386
 7313SOL     OW22837   3.415   2.181   6.438
 7313SOL    HW122838   3.396   2.143   6.528
 7313SOL    HW222839   3.514   2.184   6.423
 7314SOL     OW22840   6.760   3.535   5.182
 7314SOL    HW122841   6.815   3.452   5.173
 7314SOL    HW222842   6.693   3.538   5.108
 7315SOL     OW22843   6.413   0.333   2.559
 7315SOL    HW122844   6.365   0.384   2.487
 7315SOL    HW222845   6.511   0.338   2.544
 7316SOL     OW22846   2.526   4.123   6.136
 7316SOL    HW122847   2.519   4.047   6.072
 7316SOL    HW222848   2.558   4.204   6.087
 7317SOL     OW22849   4.495   0.981   2.371
 7317SOL    HW122850   4.496   1.073   2.331
 7317SOL    HW222851   4.482   0.913   2.298
 7318SOL     OW22852   1.041   0.962   0.958
 7318SOL    HW122853   1.114   0.897   0.937
 7318SOL    HW222854   0.962   0.913   0.995
 7319SOL     OW22855   6.252   4.287   5.848
 7319SOL    HW122856   6.344   4.262   5.877
 7319SOL    HW222857   6.224   4.230   5.771
 7320SOL     OW22858   6.306   3.630   1.686
 7320SOL    HW122859   6.354   3.715   1.707
 7320SOL    HW222860   6.279   3.629   1.590
 7321SOL     OW22861   2.734   6.244   5.130
 7321SOL    HW122862   2.683   6.178   5.186
 7321SOL    HW222863   2.810   6.281   5.184
 7322SOL     OW22864   6.883   2.425   3.553
 7322SOL    HW122865   6.840   2.371   3.481
 7322SOL    HW222866   6.976   2.392   3.568
 7323SOL     OW22867   2.180   1.889   1.985
 7323SOL    HW122868   2.141   1.936   2.065
 7323SOL    HW222869   2.204   1.795   2.010
 7324SOL     OW22870   4.595   6.157   2.418
 7324SOL    HW122871   4.539   6.235   2.389
 7324SOL    HW222872   4.659   6.187   2.489
 7325SOL     OW22873   3.666   6.530   0.117
 7325SOL    HW122874   3.577   6.497   0.149
 7325SOL    HW222875   3.680   6.500   0.023
 7326SOL     OW22876   3.161   6.390   5.064
 7326SOL    HW122877   3.146   6.396   4.965
 7326SOL    HW222878   3.249   6.344   5.081
 7327SOL     OW22879   6.846   2.711   5.469
 7327SOL    HW122880   6.791   2.792   5.448
 7327SOL    HW222881   6.870   2.664   5.384
 7328SOL     OW22882   3.301   1.152   6.093
 7328SOL    HW122883   3.373   1.087   6.118
 7328SOL    HW222884   3.231   1.106   6.039
 7329SOL     OW22885   4.975   4.332   1.640
 7329SOL    HW122886   4.935   4.345   1.731
 7329SOL    HW222887   5.071   4.305   1.650
 7330SOL     OW22888   2.621   2.293   0.328
 7330SOL    HW122889   2.635   2.364   0.260
 7330SOL    HW222890   2.674   2.314   0.410
 7331SOL     OW22891   5.705   6.953   2.318
 7331SOL    HW122892   5.792   6.923   2.280
 7331SOL    HW222893   5.663   7.021   2.257
 7332SOL     OW22894   2.185   5.515   0.531
 7332SOL    HW122895   2.129   5.595   0.512
 7332SOL    HW222896   2.264   5.514   0.469
 7333SOL     OW22897   7.012   3.281   3.153
 7333SOL    HW122898   6.963   3.304   3.237
 7333SOL    HW222899   6.994   3.350   3.083
 7334SOL     OW22900   3.383   6.216   6.572
 7334SOL    HW122901   3.329   6.282   6.624
 7334SOL    HW222902   3.478   6.219   6.602
 7335SOL     OW22903   1.750   2.666   2.657
 7335SOL    HW122904   1.671   2.681   2.717
 7335SOL    HW222905   1.784   2.573   2.670
 7336SOL     OW22906   1.367   6.683   3.212
 7336SOL    HW122907   1.357   6.781   3.194
 7336SOL    HW222908   1.423   6.669   3.294
 7337SOL     OW22909   0.434   2.884   1.936
 7337SOL    HW122910   0.408   2.978   1.915
 7337SOL    HW222911   0.534   2.877   1.940
 7338SOL     OW22912   6.196   2.958   1.343
 7338SOL    HW122913   6.282   2.907   1.349
 7338SOL    HW222914   6.133   2.911   1.282
 7339SOL     OW22915   5.304   6.283   3.699
 7339SOL    HW122916   5.246   6.300   3.619
 7339SOL    HW222917   5.293   6.357   3.765
 7340SOL     OW22918   2.038   0.951   1.043
 7340SOL    HW122919   2.004   1.039   1.075
 7340SOL    HW222920   2.010   0.936   0.948
 7341SOL     OW22921   6.522   2.868   0.050
 7341SOL    HW122922   6.552   2.959   0.080
 7341SOL    HW222923   6.532   2.862   6.972
 7342SOL     OW22924   6.971   1.681   1.946
 7342SOL    HW122925   6.953   1.704   1.850
 7342SOL    HW222926   6.884   1.665   1.992
 7343SOL     OW22927   4.931   3.077   0.085
 7343SOL    HW122928   4.975   3.166   0.091
 7343SOL    HW222929   4.947   3.026   0.170
 7344SOL     OW22930   0.668   0.216   6.023
 7344SOL    HW122931   0.629   0.199   5.932
 7344SOL    HW222932   0.735   0.290   6.017
 7345SOL     OW22933   4.304   3.336   5.337
 7345SOL    HW122934   4.299   3.401   5.412
 7345SOL    HW222935   4.212   3.318   5.302
 7346SOL     OW22936   3.721   5.872   2.762
 7346SOL    HW122937   3.785   5.821   2.819
 7346SOL    HW222938   3.665   5.808   2.709
 7347SOL     OW22939   0.640   1.769   0.703
 7347SOL    HW122940   0.692   1.753   0.787
 7347SOL    HW222941   0.625   1.867   0.691
 7348SOL     OW22942   1.695   4.109   3.847
 7348SOL    HW122943   1.629   4.057   3.793
 7348SOL    HW222944   1.774   4.133   3.791
 7349SOL     OW22945   4.291   0.551   2.148
 7349SOL    HW122946   4.229   0.486   2.191
 7349SOL    HW222947   4.383   0.538   2.185
 7350SOL     OW22948   2.564   2.062   5.869
 7350SOL    HW122949   2.563   2.135   5.801
 7350SOL    HW222950   2.507   1.986   5.839
 7351SOL     OW22951   5.769   5.848   3.651
 7351SOL    HW122952   5.732   5.757   3.669
 7351SOL    HW222953   5.697   5.916   3.664
 7352SOL     OW22954   0.512   1.458   2.486
 7352SOL    HW122955   0.448   1.477   2.412
 7352SOL    HW222956   0.552   1.544   2.517
 7353SOL     OW22957   0.169   0.544   6.350
 7353SOL    HW122958   0.255   0.592   6.336
 7353SOL    HW222959   0.173   0.454   6.307
 7354SOL     OW22960   1.465   1.300   5.190
 7354SOL    HW122961   1.401   1.236   5.232
 7354SOL    HW222962   1.496   1.262   5.102
 7355SOL     OW22963   0.691   1.589   6.950
 7355SOL    HW122964   0.709   1.576   0.026
 7355SOL    HW222965   0.618   1.527   6.921
 7356SOL     OW22966   3.713   3.461   6.240
 7356SOL    HW122967   3.808   3.452   6.210
 7356SOL    HW222968   3.685   3.378   6.289
 7357SOL     OW22969   2.917   5.901   2.241
 7357SOL    HW122970   2.850   5.976   2.237
 7357SOL    HW222971   2.893   5.838   2.315
 7358SOL     OW22972   6.370   3.758   2.581
 7358SOL    HW122973   6.311   3.775   2.503
 7358SOL    HW222974   6.412   3.668   2.572
 7359SOL     OW22975   4.214   2.245   5.600
 7359SOL    HW122976   4.247   2.288   5.685
 7359SOL    HW222977   4.114   2.240   5.602
 7360SOL     OW22978   2.517   3.414   5.397
 7360SOL    HW122979   2.441   3.427   5.461
 7360SOL    HW222980   2.509   3.325   5.352
 7361SOL     OW22981   5.377   0.941   2.696
 7361SOL    HW122982   5.442   0.867   2.681
 7361SOL    HW222983   5.306   0.911   2.759
 7362SOL     OW22984   2.383   6.092   6.305
 7362SOL    HW122985   2.377   6.000   6.268
 7362SOL    HW222986   2.336   6.156   6.244
 7363SOL     OW22987   4.874   1.152   1.322
 7363SOL    HW122988   4.829   1.241   1.316
 7363SOL    HW222989   4.834   1.100   1.397
 7364SOL     OW22990   4.241   0.272   1.975
 7364SOL    HW122991   4.218   0.259   2.072
 7364SOL    HW222992   4.170   0.328   1.932
 7365SOL     OW22993   0.828   5.834   2.142
 7365SOL    HW122994   0.790   5.915   2.098
 7365SOL    HW222995   0.914   5.809   2.097
 7366SOL     OW22996   2.240   6.426   5.574
 7366SOL    HW122997   2.186   6.343   5.584
 7366SOL    HW222998   2.255   6.444   5.476
 7367SOL     OW22999   3.535   2.786   0.166
 7367SOL    HW123000   3.607   2.840   0.211
 7367SOL    HW223001   3.495   2.723   0.232
 7368SOL     OW23002   3.928   3.028   2.475
 7368SOL    HW123003   3.951   3.113   2.428
 7368SOL    HW223004   3.884   2.966   2.411
 7369SOL     OW23005   3.612   2.835   1.091
 7369SOL    HW123006   3.669   2.753   1.087
 7369SOL    HW223007   3.572   2.852   1.001
 7370SOL     OW23008   2.444   2.263   6.292
 7370SOL    HW123009   2.365   2.284   6.351
 7370SOL    HW223010   2.411   2.241   6.200
 7371SOL     OW23011   3.203   6.391   3.735
 7371SOL    HW123012   3.135   6.318   3.734
 7371SOL    HW223013   3.294   6.351   3.744
 7372SOL     OW23014   4.375   6.763   4.672
 7372SOL    HW123015   4.462   6.798   4.636
 7372SOL    HW223016   4.393   6.703   4.751
 7373SOL     OW23017   5.807   2.235   5.283
 7373SOL    HW123018   5.820   2.191   5.195
 7373SOL    HW223019   5.775   2.168   5.350
 7374SOL     OW23020   1.859   1.786   4.611
 7374SOL    HW123021   1.889   1.875   4.645
 7374SOL    HW223022   1.868   1.718   4.684
 7375SOL     OW23023   2.146   2.222   1.925
 7375SOL    HW123024   2.143   2.301   1.986
 7375SOL    HW223025   2.080   2.154   1.956
 7376SOL     OW23026   1.196   2.589   1.205
 7376SOL    HW123027   1.229   2.624   1.293
 7376SOL    HW223028   1.096   2.580   1.209
 7377SOL     OW23029   4.183   4.906   0.683
 7377SOL    HW123030   4.197   4.881   0.587
 7377SOL    HW223031   4.121   4.841   0.726
 7378SOL     OW23032   1.362   7.021   5.223
 7378SOL    HW123033   1.406   0.074   5.174
 7378SOL    HW223034   1.263   0.005   5.209
 7379SOL     OW23035   2.982   0.553   2.005
 7379SOL    HW123036   3.014   0.499   1.927
 7379SOL    HW223037   2.937   0.635   1.973
 7380SOL     OW23038   6.689   4.099   3.767
 7380SOL    HW123039   6.733   4.119   3.855
 7380SOL    HW223040   6.743   4.139   3.693
 7381SOL     OW23041   3.939   2.869   0.503
 7381SOL    HW123042   3.840   2.853   0.512
 7381SOL    HW223043   3.955   2.940   0.435
 7382SOL     OW23044   0.078   2.024   5.886
 7382SOL    HW123045   0.066   2.062   5.794
 7382SOL    HW223046   0.001   2.050   5.944
 7383SOL     OW23047   2.714   5.616   1.628
 7383SOL    HW123048   2.667   5.608   1.540
 7383SOL    HW223049   2.740   5.711   1.644
 7384SOL     OW23050   6.678   0.217   1.687
 7384SOL    HW123051   6.617   0.225   1.608
 7384SOL    HW223052   6.768   0.186   1.657
 7385SOL     OW23053   2.729   5.128   2.840
 7385SOL    HW123054   2.707   5.077   2.923
 7385SOL    HW223055   2.828   5.122   2.823
 7386SOL     OW23056   6.374   3.023   6.320
 7386SOL    HW123057   6.297   2.980   6.368
 7386SOL    HW223058   6.414   2.958   6.256
 7387SOL     OW23059   6.693   5.331   5.203
 7387SOL    HW123060   6.621   5.355   5.269
 7387SOL    HW223061   6.682   5.386   5.120
 7388SOL     OW23062   1.226   4.833   2.289
 7388SOL    HW123063   1.197   4.739   2.305
 7388SOL    HW223064   1.292   4.835   2.215
 7389SOL     OW23065   6.915   3.715   0.530
 7389SOL    HW123066   6.971   3.675   0.458
 7389SOL    HW223067   6.821   3.727   0.497
 7390SOL     OW23068   2.852   1.855   2.068
 7390SOL    HW123069   2.884   1.835   2.160
 7390SOL    HW223070   2.891   1.942   2.037
 7391SOL     OW23071   4.082   3.385   2.670
 7391SOL    HW123072   3.998   3.394   2.615
 7391SOL    HW223073   4.122   3.295   2.654
 7392SOL     OW23074   3.577   5.841   6.958
 7392SOL    HW123075   3.663   5.791   6.954
 7392SOL    HW223076   3.502   5.779   6.934
 7393SOL     OW23077   6.030   4.588   3.271
 7393SOL    HW123078   6.084   4.523   3.325
 7393SOL    HW223079   5.937   4.553   3.261
 7394SOL     OW23080   1.596   3.175   6.160
 7394SOL    HW123081   1.675   3.134   6.205
 7394SOL    HW223082   1.550   3.238   6.223
 7395SOL     OW23083   2.067   2.775   0.886
 7395SOL    HW123084   1.982   2.827   0.884
 7395SOL    HW223085   2.115   2.792   0.972
 7396SOL     OW23086   2.309   6.455   1.812
 7396SOL    HW123087   2.401   6.420   1.799
 7396SOL    HW223088   2.303   6.500   1.901
 7397SOL     OW23089   4.897   3.762   4.262
 7397SOL    HW123090   4.845   3.845   4.285
 7397SOL    HW223091   4.872   3.689   4.325
 7398SOL     OW23092   0.920   5.951   2.965
 7398SOL    HW123093   0.873   5.863   2.968
 7398SOL    HW223094   1.017   5.939   2.987
 7399SOL     OW23095   6.406   3.369   5.068
 7399SOL    HW123096   6.459   3.320   5.137
 7399SOL    HW223097   6.328   3.314   5.040
 7400SOL     OW23098   5.033   2.260   5.665
 7400SOL    HW123099   5.077   2.349   5.673
 7400SOL    HW223100   4.989   2.236   5.752
 7401SOL     OW23101   1.666   2.815   3.363
 7401SOL    HW123102   1.575   2.820   3.320
 7401SOL    HW223103   1.655   2.805   3.462
 7402SOL     OW23104   3.438   4.171   6.260
 7402SOL    HW123105   3.464   4.134   6.171
 7402SOL    HW223106   3.375   4.248   6.247
 7403SOL     OW23107   1.427   2.997   2.688
 7403SOL    HW123108   1.510   2.967   2.640
 7403SOL    HW223109   1.348   2.988   2.628
 7404SOL     OW23110   2.824   4.018   1.590
 7404SOL    HW123111   2.739   4.012   1.643
 7404SOL    HW223112   2.877   4.097   1.621
 7405SOL     OW23113   2.714   5.314   4.835
 7405SOL    HW123114   2.756   5.295   4.924
 7405SOL    HW223115   2.616   5.297   4.839
 7406SOL     OW23116   0.856   1.679   4.985
 7406SOL    HW123117   0.878   1.774   5.009
 7406SOL    HW223118   0.757   1.666   4.988
 7407SOL     OW23119   1.246   6.541   5.842
 7407SOL    HW123120   1.251   6.489   5.928
 7407SOL    HW223121   1.240   6.638   5.863
 7408SOL     OW23122   3.629   4.229   5.016
 7408SOL    HW123123   3.634   4.304   4.951
 7408SOL    HW223124   3.693   4.157   4.989
 7409SOL     OW23125   5.436   4.140   0.357
 7409SOL    HW123126   5.400   4.104   0.271
 7409SOL    HW223127   5.536   4.146   0.351
 7410SOL     OW23128   0.512   0.564   0.490
 7410SOL    HW123129   0.554   0.654   0.485
 7410SOL    HW223130   0.504   0.536   0.585
 7411SOL     OW23131   1.858   0.360   6.779
 7411SOL    HW123132   1.831   0.341   6.873
 7411SOL    HW223133   1.946   0.315   6.760
 7412SOL     OW23134   3.870   6.126   1.012
 7412SOL    HW123135   3.868   6.213   0.963
 7412SOL    HW223136   3.784   6.114   1.062
 7413SOL     OW23137   4.716   4.373   3.757
 7413SOL    HW123138   4.696   4.315   3.836
 7413SOL    HW223139   4.702   4.320   3.673
 7414SOL     OW23140   1.853   1.751   4.117
 7414SOL    HW123141   1.805   1.836   4.093
 7414SOL    HW223142   1.787   1.680   4.137
 7415SOL     OW23143   2.798   5.559   5.879
 7415SOL    HW123144   2.802   5.546   5.978
 7415SOL    HW223145   2.888   5.589   5.846
 7416SOL     OW23146   2.054   1.265   2.353
 7416SOL    HW123147   2.010   1.180   2.326
 7416SOL    HW223148   2.067   1.266   2.452
 7417SOL     OW23149   1.870   1.883   2.427
 7417SOL    HW123150   1.783   1.839   2.448
 7417SOL    HW223151   1.880   1.893   2.328
 7418SOL     OW23152   2.223   4.542   6.838
 7418SOL    HW123153   2.282   4.564   6.916
 7418SOL    HW223154   2.128   4.564   6.861
 7419SOL     OW23155   6.545   3.831   3.833
 7419SOL    HW123156   6.581   3.915   3.792
 7419SOL    HW223157   6.564   3.831   3.931
 7420SOL     OW23158   6.850   5.986   1.189
 7420SOL    HW123159   6.888   6.075   1.162
 7420SOL    HW223160   6.899   5.952   1.268
 7421SOL     OW23161   4.184   3.729   1.466
 7421SOL    HW123162   4.262   3.785   1.493
 7421SOL    HW223163   4.109   3.742   1.532
 7422SOL     OW23164   6.450   4.000   2.036
 7422SOL    HW123165   6.362   4.032   2.002
 7422SOL    HW223166   6.470   4.043   2.124
 7423SOL     OW23167   6.188   2.934   5.357
 7423SOL    HW123168   6.187   3.031   5.383
 7423SOL    HW223169   6.128   2.883   5.419
 7424SOL     OW23170   0.085   1.921   5.272
 7424SOL    HW123171   7.013   1.885   5.277
 7424SOL    HW223172   0.138   1.868   5.207
 7425SOL     OW23173   5.364   6.916   0.247
 7425SOL    HW123174   5.336   6.822   0.270
 7425SOL    HW223175   5.434   6.946   0.312
 7426SOL     OW23176   3.349   1.946   5.768
 7426SOL    HW123177   3.265   1.958   5.716
 7426SOL    HW223178   3.328   1.938   5.865
 7427SOL     OW23179   3.497   1.001   4.014
 7427SOL    HW123180   3.514   0.938   3.937
 7427SOL    HW223181   3.583   1.019   4.061
 7428SOL     OW23182   4.736   0.708   5.190
 7428SOL    HW123183   4.669   0.634   5.188
 7428SOL    HW223184   4.815   0.683   5.134
 7429SOL     OW23185   1.115   6.381   2.861
 7429SOL    HW123186   1.034   6.326   2.881
 7429SOL    HW223187   1.151   6.355   2.772
 7430SOL     OW23188   6.630   4.179   1.731
 7430SOL    HW123189   6.662   4.257   1.677
 7430SOL    HW223190   6.701   4.151   1.795
 7431SOL     OW23191   1.630   2.174   3.731
 7431SOL    HW123192   1.634   2.214   3.822
 7431SOL    HW223193   1.647   2.244   3.662
 7432SOL     OW23194   2.041   6.951   3.523
 7432SOL    HW123195   2.076   0.014   3.567
 7432SOL    HW223196   1.998   6.975   3.436
 7433SOL     OW23197   3.434   6.576   6.754
 7433SOL    HW123198   3.420   6.664   6.800
 7433SOL    HW223199   3.473   6.592   6.663
 7434SOL     OW23200   4.678   5.957   5.483
 7434SOL    HW123201   4.659   6.052   5.459
 7434SOL    HW223202   4.754   5.923   5.427
 7435SOL     OW23203   4.468   6.168   1.837
 7435SOL    HW123204   4.537   6.212   1.894
 7435SOL    HW223205   4.405   6.116   1.895
 7436SOL     OW23206   4.567   4.714   6.135
 7436SOL    HW123207   4.495   4.748   6.195
 7436SOL    HW223208   4.567   4.767   6.050
 7437SOL     OW23209   3.160   5.915   1.577
 7437SOL    HW123210   3.148   5.871   1.488
 7437SOL    HW223211   3.147   6.014   1.568
 7438SOL     OW23212   2.086   0.310   0.438
 7438SOL    HW123213   2.154   0.299   0.366
 7438SOL    HW223214   2.002   0.349   0.399
 7439SOL     OW23215   1.274   5.735   5.168
 7439SOL    HW123216   1.324   5.732   5.082
 7439SOL    HW223217   1.223   5.650   5.180
 7440SOL     OW23218   6.086   3.181   3.885
 7440SOL    HW123219   6.027   3.249   3.928
 7440SOL    HW223220   6.157   3.227   3.833
 7441SOL     OW23221   6.095   6.886   3.598
 7441SOL    HW123222   6.183   6.864   3.557
 7441SOL    HW223223   6.026   6.822   3.563
 7442SOL     OW23224   6.118   1.296   6.364
 7442SOL    HW123225   6.195   1.254   6.316
 7442SOL    HW223226   6.033   1.275   6.316
 7443SOL     OW23227   0.024   5.325   1.748
 7443SOL    HW123228   6.995   5.392   1.804
 7443SOL    HW223229   0.096   5.283   1.804
 7444SOL     OW23230   6.529   1.385   6.176
 7444SOL    HW123231   6.518   1.380   6.076
 7444SOL    HW223232   6.469   1.456   6.212
 7445SOL     OW23233   3.768   0.246   1.060
 7445SOL    HW123234   3.856   0.234   1.106
 7445SOL    HW223235   3.718   0.159   1.061
 7446SOL     OW23236   5.055   2.446   0.459
 7446SOL    HW123237   4.965   2.459   0.417
 7446SOL    HW223238   5.066   2.510   0.535
 7447SOL     OW23239   6.892   4.574   6.292
 7447SOL    HW123240   6.846   4.641   6.349
 7447SOL    HW223241   6.991   4.585   6.301
 7448SOL     OW23242   5.186   6.258   5.372
 7448SOL    HW123243   5.206   6.344   5.420
 7448SOL    HW223244   5.226   6.261   5.280
 7449SOL     OW23245   0.372   5.608   0.255
 7449SOL    HW123246   0.429   5.597   0.336
 7449SOL    HW223247   0.356   5.705   0.238
 7450SOL     OW23248   5.055   2.610   5.568
 7450SOL    HW123249   5.065   2.661   5.482
 7450SOL    HW223250   4.986   2.654   5.625
 7451SOL     OW23251   5.662   5.264   2.657
 7451SOL    HW123252   5.653   5.280   2.755
 7451SOL    HW223253   5.572   5.270   2.614
 7452SOL     OW23254   6.629   6.066   4.307
 7452SOL    HW123255   6.642   6.012   4.390
 7452SOL    HW223256   6.533   6.064   4.280
 7453SOL     OW23257   4.705   5.233   6.299
 7453SOL    HW123258   4.670   5.197   6.213
 7453SOL    HW223259   4.797   5.197   6.315
 7454SOL     OW23260   2.646   1.266   0.446
 7454SOL    HW123261   2.646   1.316   0.360
 7454SOL    HW223262   2.583   1.309   0.510
 7455SOL     OW23263   6.254   3.259   2.236
 7455SOL    HW123264   6.312   3.317   2.294
 7455SOL    HW223265   6.246   3.299   2.145
 7456SOL     OW23266   2.758   2.063   5.136
 7456SOL    HW123267   2.704   1.979   5.131
 7456SOL    HW223268   2.798   2.082   5.047
 7457SOL     OW23269   3.231   0.534   4.190
 7457SOL    HW123270   3.139   0.520   4.154
 7457SOL    HW223271   3.241   0.629   4.222
 7458SOL     OW23272   1.312   0.494   6.106
 7458SOL    HW123273   1.224   0.502   6.154
 7458SOL    HW223274   1.386   0.526   6.165
 7459SOL     OW23275   6.594   1.053   2.295
 7459SOL    HW123276   6.559   1.092   2.210
 7459SOL    HW223277   6.693   1.046   2.291
 7460SOL     OW23278   1.559   6.220   6.899
 7460SOL    HW123279   1.563   6.160   6.819
 7460SOL    HW223280   1.466   6.254   6.912
 7461SOL     OW23281   6.288   6.093   5.475
 7461SOL    HW123282   6.260   6.119   5.567
 7461SOL    HW223283   6.297   6.176   5.418
 7462SOL     OW23284   1.683   4.880   1.922
 7462SOL    HW123285   1.656   4.961   1.870
 7462SOL    HW223286   1.779   4.888   1.948
 7463SOL     OW23287   3.431   4.168   0.457
 7463SOL    HW123288   3.478   4.229   0.393
 7463SOL    HW223289   3.491   4.092   0.481
 7464SOL     OW23290   6.775   6.533   5.273
 7464SOL    HW123291   6.742   6.445   5.305
 7464SOL    HW223292   6.811   6.523   5.180
 7465SOL     OW23293   2.870   5.245   0.299
 7465SOL    HW123294   2.788   5.293   0.269
 7465SOL    HW223295   2.916   5.203   0.221
 7466SOL     OW23296   0.728   0.546   6.381
 7466SOL    HW123297   0.647   0.489   6.361
 7466SOL    HW223298   0.719   0.584   6.473
 7467SOL     OW23299   0.415   2.383   6.241
 7467SOL    HW123300   0.358   2.417   6.316
 7467SOL    HW223301   0.511   2.381   6.271
 7468SOL     OW23302   4.943   2.559   4.118
 7468SOL    HW123303   4.983   2.578   4.028
 7468SOL    HW223304   4.911   2.644   4.160
 7469SOL     OW23305   6.405   1.975   0.293
 7469SOL    HW123306   6.313   1.953   0.260
 7469SOL    HW223307   6.446   2.044   0.234
 7470SOL     OW23308   5.335   4.090   3.847
 7470SOL    HW123309   5.302   4.154   3.916
 7470SOL    HW223310   5.287   4.002   3.857
 7471SOL     OW23311   4.802   6.019   5.790
 7471SOL    HW123312   4.824   5.972   5.705
 7471SOL    HW223313   4.861   5.984   5.863
 7472SOL     OW23314   6.198   1.017   5.349
 7472SOL    HW123315   6.125   1.055   5.405
 7472SOL    HW223316   6.184   1.043   5.254
 7473SOL     OW23317   5.209   6.515   3.861
 7473SOL    HW123318   5.263   6.569   3.925
 7473SOL    HW223319   5.141   6.573   3.816
 7474SOL     OW23320   6.341   2.623   6.591
 7474SOL    HW123321   6.252   2.670   6.589
 7474SOL    HW223322   6.368   2.610   6.686
 7475SOL     OW23323   4.268   2.367   1.969
 7475SOL    HW123324   4.168   2.360   1.975
 7475SOL    HW223325   4.309   2.283   2.005
 7476SOL     OW23326   1.948   1.995   3.108
 7476SOL    HW123327   1.849   1.983   3.118
 7476SOL    HW223328   1.991   1.905   3.093
 7477SOL     OW23329   0.434   3.141   5.351
 7477SOL    HW123330   0.461   3.048   5.376
 7477SOL    HW223331   0.480   3.167   5.266
 7478SOL     OW23332   5.613   3.616   5.338
 7478SOL    HW123333   5.666   3.551   5.392
 7478SOL    HW223334   5.662   3.636   5.253
 7479SOL     OW23335   5.301   3.059   0.450
 7479SOL    HW123336   5.207   3.051   0.481
 7479SOL    HW223337   5.304   3.075   0.352
 7480SOL     OW23338   2.178   5.111   2.447
 7480SOL    HW123339   2.131   5.047   2.387
 7480SOL    HW223340   2.239   5.169   2.393
 7481SOL     OW23341   6.369   4.721   6.793
 7481SOL    HW123342   6.332   4.629   6.789
 7481SOL    HW223343   6.301   4.786   6.759
 7482SOL     OW23344   4.340   2.367   2.694
 7482SOL    HW123345   4.381   2.447   2.737
 7482SOL    HW223346   4.390   2.285   2.722
 7483SOL     OW23347   4.727   2.614   4.847
 7483SOL    HW123348   4.743   2.548   4.921
 7483SOL    HW223349   4.735   2.707   4.882
 7484SOL     OW23350   1.615   5.360   4.832
 7484SOL    HW123351   1.577   5.368   4.740
 7484SOL    HW223352   1.636   5.264   4.852
 7485SOL     OW23353   2.738   6.986   3.638
 7485SOL    HW123354   2.711   0.057   3.611
 7485SOL    HW223355   2.798   6.947   3.567
 7486SOL     OW23356   0.729   5.796   0.187
 7486SOL    HW123357   0.746   5.883   0.141
 7486SOL    HW223358   0.807   5.735   0.173
 7487SOL     OW23359   3.939   0.575   3.042
 7487SOL    HW123360   3.906   0.482   3.061
 7487SOL    HW223361   3.996   0.606   3.118
 7488SOL     OW23362   1.728   6.009   4.582
 7488SOL    HW123363   1.807   6.043   4.633
 7488SOL    HW223364   1.755   5.993   4.487
 7489SOL     OW23365   6.535   3.436   6.973
 7489SOL    HW123366   6.438   3.418   6.990
 7489SOL    HW223367   6.557   3.417   6.878
 7490SOL     OW23368   1.538   1.907   2.137
 7490SOL    HW123369   1.516   1.961   2.218
 7490SOL    HW223370   1.476   1.932   2.062
 7491SOL     OW23371   4.824   2.709   0.454
 7491SOL    HW123372   4.837   2.648   0.377
 7491SOL    HW223373   4.778   2.661   0.529
 7492SOL     OW23374   1.735   1.360   4.466
 7492SOL    HW123375   1.660   1.297   4.489
 7492SOL    HW223376   1.793   1.318   4.396
 7493SOL     OW23377   6.581   3.269   5.291
 7493SOL    HW123378   6.617   3.302   5.379
 7493SOL    HW223379   6.657   3.249   5.230
 7494SOL     OW23380   5.510   1.127   3.956
 7494SOL    HW123381   5.600   1.171   3.958
 7494SOL    HW223382   5.509   1.058   3.883
 7495SOL     OW23383   1.655   2.735   4.610
 7495SOL    HW123384   1.694   2.808   4.668
 7495SOL    HW223385   1.651   2.650   4.662
 7496SOL     OW23386   5.477   3.201   4.125
 7496SOL    HW123387   5.536   3.122   4.141
 7496SOL    HW223388   5.382   3.178   4.147
 7497SOL     OW23389   1.717   6.252   1.474
 7497SOL    HW123390   1.791   6.306   1.435
 7497SOL    HW223391   1.753   6.196   1.549
 7498SOL     OW23392   2.186   0.947   4.373
 7498SOL    HW123393   2.095   0.920   4.341
 7498SOL    HW223394   2.178   1.027   4.433
 7499SOL     OW23395   4.275   1.808   3.376
 7499SOL    HW123396   4.181   1.806   3.410
 7499SOL    HW223397   4.276   1.788   3.278
 7500SOL     OW23398   3.493   5.708   3.599
 7500SOL    HW123399   3.457   5.756   3.518
 7500SOL    HW223400   3.568   5.648   3.571
 7501SOL     OW23401   5.899   3.363   3.952
 7501SOL    HW123402   5.817   3.347   3.897
 7501SOL    HW223403   5.872   3.391   4.044
 7502SOL     OW23404   3.701   0.349   3.953
 7502SOL    HW123405   3.791   0.384   3.931
 7502SOL    HW223406   3.645   0.344   3.870
 7503SOL     OW23407   1.888   6.228   0.452
 7503SOL    HW123408   1.884   6.288   0.531
 7503SOL    HW223409   1.803   6.176   0.444
 7504SOL     OW23410   0.675   6.158   1.912
 7504SOL    HW123411   0.623   6.087   1.865
 7504SOL    HW223412   0.620   6.195   1.988
 7505SOL     OW23413   0.991   1.623   5.820
 7505SOL    HW123414   0.993   1.537   5.769
 7505SOL    HW223415   1.076   1.673   5.804
 7506SOL     OW23416   3.927   2.183   3.629
 7506SOL    HW123417   3.918   2.129   3.545
 7506SOL    HW223418   3.862   2.259   3.626
 7507SOL     OW23419   6.682   3.062   4.156
 7507SOL    HW123420   6.586   3.039   4.140
 7507SOL    HW223421   6.698   3.157   4.129
 7508SOL     OW23422   1.760   5.485   0.681
 7508SOL    HW123423   1.742   5.387   0.679
 7508SOL    HW223424   1.798   5.514   0.594
 7509SOL     OW23425   5.752   3.433   0.552
 7509SOL    HW123426   5.673   3.390   0.596
 7509SOL    HW223427   5.768   3.523   0.592
 7510SOL     OW23428   4.029   3.432   3.643
 7510SOL    HW123429   4.083   3.513   3.664
 7510SOL    HW223430   4.055   3.358   3.704
 7511SOL     OW23431   2.881   6.189   3.589
 7511SOL    HW123432   2.936   6.229   3.662
 7511SOL    HW223433   2.819   6.120   3.628
 7512SOL     OW23434   2.985   0.890   6.665
 7512SOL    HW123435   3.063   0.906   6.725
 7512SOL    HW223436   3.015   0.889   6.570
 7513SOL     OW23437   2.459   2.085   3.203
 7513SOL    HW123438   2.452   2.161   3.267
 7513SOL    HW223439   2.415   2.110   3.117
 7514SOL     OW23440   1.748   4.963   4.009
 7514SOL    HW123441   1.820   4.933   4.072
 7514SOL    HW223442   1.707   5.047   4.045
 7515SOL     OW23443   6.995   4.162   4.989
 7515SOL    HW123444   0.048   4.180   5.054
 7515SOL    HW223445   6.928   4.101   5.030
 7516SOL     OW23446   0.701   5.536   6.169
 7516SOL    HW123447   0.676   5.573   6.259
 7516SOL    HW223448   0.621   5.538   6.109
 7517SOL     OW23449   1.359   2.518   0.182
 7517SOL    HW123450   1.411   2.433   0.181
 7517SOL    HW223451   1.316   2.530   0.272
 7518SOL     OW23452   4.877   2.954   3.722
 7518SOL    HW123453   4.831   2.901   3.794
 7518SOL    HW223454   4.974   2.932   3.722
 7519SOL     OW23455   5.322   0.016   4.208
 7519SOL    HW123456   5.263   6.981   4.149
 7519SOL    HW223457   5.293   0.112   4.202
 7520SOL     OW23458   1.258   1.418   2.580
 7520SOL    HW123459   1.217   1.509   2.586
 7520SOL    HW223460   1.285   1.401   2.485
 7521SOL     OW23461   4.715   2.078   4.506
 7521SOL    HW123462   4.702   2.176   4.498
 7521SOL    HW223463   4.799   2.059   4.557
 7522SOL     OW23464   1.013   0.169   4.720
 7522SOL    HW123465   1.091   0.120   4.679
 7522SOL    HW223466   1.046   0.227   4.795
 7523SOL     OW23467   5.133   0.895   5.995
 7523SOL    HW123468   5.041   0.881   6.032
 7523SOL    HW223469   5.193   0.820   6.026
 7524SOL     OW23470   0.099   2.848   4.869
 7524SOL    HW123471   0.197   2.865   4.868
 7524SOL    HW223472   0.050   2.935   4.875
 7525SOL     OW23473   4.095   6.781   6.683
 7525SOL    HW123474   4.011   6.814   6.726
 7525SOL    HW223475   4.073   6.749   6.590
 7526SOL     OW23476   2.465   2.742   1.871
 7526SOL    HW123477   2.471   2.697   1.961
 7526SOL    HW223478   2.409   2.688   1.810
 7527SOL     OW23479   3.507   5.785   4.061
 7527SOL    HW123480   3.499   5.686   4.070
 7527SOL    HW223481   3.584   5.808   4.003
 7528SOL     OW23482   5.188   2.342   6.629
 7528SOL    HW123483   5.239   2.295   6.557
 7528SOL    HW223484   5.249   2.402   6.680
 7529SOL     OW23485   5.395   2.159   3.756
 7529SOL    HW123486   5.332   2.232   3.784
 7529SOL    HW223487   5.489   2.192   3.762
 7530SOL     OW23488   6.545   1.406   1.960
 7530SOL    HW123489   6.567   1.451   2.047
 7530SOL    HW223490   6.521   1.475   1.892
 7531SOL     OW23491   4.947   3.036   3.038
 7531SOL    HW123492   4.888   3.091   2.979
 7531SOL    HW223493   5.037   3.027   2.996
 7532SOL     OW23494   4.468   6.238   6.298
 7532SOL    HW123495   4.441   6.298   6.222
 7532SOL    HW223496   4.530   6.168   6.264
 7533SOL     OW23497   4.362   2.689   1.703
 7533SOL    HW123498   4.450   2.718   1.740
 7533SOL    HW223499   4.360   2.589   1.696
 7534SOL     OW23500   4.641   6.288   4.357
 7534SOL    HW123501   4.542   6.300   4.369
 7534SOL    HW223502   4.672   6.211   4.411
 7535SOL     OW23503   1.512   6.783   4.924
 7535SOL    HW123504   1.536   6.880   4.928
 7535SOL    HW223505   1.544   6.744   4.838
 7536SOL     OW23506   5.501   6.153   3.923
 7536SOL    HW123507   5.439   6.168   3.846
 7536SOL    HW223508   5.452   6.105   3.996
 7537SOL     OW23509   2.056   4.923   2.253
 7537SOL    HW123510   2.095   4.950   2.165
 7537SOL    HW223511   2.045   4.823   2.255
 7538SOL     OW23512   1.702   2.516   1.595
 7538SOL    HW123513   1.606   2.494   1.615
 7538SOL    HW223514   1.731   2.592   1.653
 7539SOL     OW23515   1.802   5.306   3.213
 7539SOL    HW123516   1.789   5.369   3.290
 7539SOL    HW223517   1.891   5.322   3.171
 7540SOL     OW23518   4.847   6.177   4.561
 7540SOL    HW123519   4.909   6.246   4.598
 7540SOL    HW223520   4.760   6.180   4.611
 7541SOL     OW23521   0.663   4.386   6.399
 7541SOL    HW123522   0.661   4.447   6.478
 7541SOL    HW223523   0.723   4.308   6.418
 7542SOL     OW23524   6.643   5.689   5.255
 7542SOL    HW123525   6.713   5.706   5.324
 7542SOL    HW223526   6.581   5.767   5.249
 7543SOL     OW23527   2.899   0.755   5.068
 7543SOL    HW123528   2.881   0.839   5.119
 7543SOL    HW223529   2.812   0.720   5.030
 7544SOL     OW23530   0.709   2.843   4.506
 7544SOL    HW123531   0.661   2.794   4.434
 7544SOL    HW223532   0.651   2.848   4.587
 7545SOL     OW23533   0.466   5.836   5.865
 7545SOL    HW123534   0.377   5.861   5.903
 7545SOL    HW223535   0.465   5.852   5.766
 7546SOL     OW23536   4.685   2.394   1.609
 7546SOL    HW123537   4.718   2.309   1.569
 7546SOL    HW223538   4.637   2.375   1.695
 7547SOL     OW23539   4.622   0.680   1.202
 7547SOL    HW123540   4.681   0.605   1.233
 7547SOL    HW223541   4.666   0.727   1.125
 7548SOL     OW23542   4.293   2.328   6.755
 7548SOL    HW123543   4.257   2.247   6.801
 7548SOL    HW223544   4.245   2.342   6.669
 7549SOL     OW23545   3.561   2.873   6.714
 7549SOL    HW123546   3.569   2.919   6.803
 7549SOL    HW223547   3.564   2.774   6.728
 7550SOL     OW23548   1.626   4.430   3.498
 7550SOL    HW123549   1.712   4.382   3.516
 7550SOL    HW223550   1.640   4.497   3.425
 7551SOL     OW23551   5.287   2.997   5.273
 7551SOL    HW123552   5.302   3.020   5.177
 7551SOL    HW223553   5.333   2.910   5.294
 7552SOL     OW23554   1.341   5.681   4.720
 7552SOL    HW123555   1.263   5.743   4.717
 7552SOL    HW223556   1.424   5.734   4.736
 7553SOL     OW23557   5.720   6.086   6.075
 7553SOL    HW123558   5.638   6.123   6.031
 7553SOL    HW223559   5.700   6.067   6.171
 7554SOL     OW23560   5.134   0.867   0.381
 7554SOL    HW123561   5.134   0.799   0.307
 7554SOL    HW223562   5.201   0.938   0.360
 7555SOL     OW23563   3.061   5.926   6.305
 7555SOL    HW123564   2.988   5.971   6.254
 7555SOL    HW223565   3.118   5.873   6.243
 7556SOL     OW23566   1.018   1.682   0.611
 7556SOL    HW123567   0.989   1.745   0.539
 7556SOL    HW223568   1.026   1.589   0.575
 7557SOL     OW23569   4.447   0.026   0.048
 7557SOL    HW123570   4.535   0.043   0.004
 7557SOL    HW223571   4.413   6.957   0.022
 7558SOL     OW23572   1.546   2.826   3.632
 7558SOL    HW123573   1.455   2.866   3.621
 7558SOL    HW223574   1.540   2.727   3.630
 7559SOL     OW23575   3.888   2.229   5.355
 7559SOL    HW123576   3.871   2.218   5.257
 7559SOL    HW223577   3.947   2.308   5.370
 7560SOL     OW23578   6.430   0.005   0.025
 7560SOL    HW123579   6.417   6.948   6.985
 7560SOL    HW223580   6.357   0.007   0.094
 7561SOL     OW23581   5.829   3.435   5.476
 7561SOL    HW123582   5.909   3.480   5.516
 7561SOL    HW223583   5.809   3.351   5.526
 7562SOL     OW23584   0.960   5.103   4.792
 7562SOL    HW123585   1.048   5.116   4.838
 7562SOL    HW223586   0.923   5.193   4.767
 7563SOL     OW23587   2.813   6.105   2.799
 7563SOL    HW123588   2.836   6.118   2.895
 7563SOL    HW223589   2.733   6.045   2.791
 7564SOL     OW23590   4.256   0.617   4.928
 7564SOL    HW123591   4.247   0.541   4.864
 7564SOL    HW223592   4.339   0.668   4.908
 7565SOL     OW23593   5.992   4.392   5.637
 7565SOL    HW123594   5.895   4.416   5.646
 7565SOL    HW223595   6.024   4.416   5.545
 7566SOL     OW23596   5.199   4.874   2.245
 7566SOL    HW123597   5.225   4.781   2.218
 7566SOL    HW223598   5.162   4.922   2.165
 7567SOL     OW23599   0.928   1.215   5.127
 7567SOL    HW123600   0.998   1.227   5.057
 7567SOL    HW223601   0.839   1.241   5.090
 7568SOL     OW23602   5.492   5.445   1.896
 7568SOL    HW123603   5.460   5.351   1.902
 7568SOL    HW223604   5.562   5.453   1.825
 7569SOL     OW23605   4.192   4.476   6.478
 7569SOL    HW123606   4.289   4.465   6.458
 7569SOL    HW223607   4.143   4.392   6.453
 7570SOL     OW23608   0.027   2.441   3.893
 7570SOL    HW123609   6.962   2.480   3.860
 7570SOL    HW223610   0.019   2.421   3.991
 7571SOL     OW23611   5.440   3.838   2.761
 7571SOL    HW123612   5.388   3.802   2.684
 7571SOL    HW223613   5.483   3.763   2.811
 7572SOL     OW23614   5.238   6.543   3.086
 7572SOL    HW123615   5.163   6.492   3.128
 7572SOL    HW223616   5.300   6.575   3.157
 7573SOL     OW23617   5.786   0.637   5.698
 7573SOL    HW123618   5.810   0.706   5.767
 7573SOL    HW223619   5.845   0.557   5.709
 7574SOL     OW23620   5.747   1.449   4.404
 7574SOL    HW123621   5.704   1.510   4.337
 7574SOL    HW223622   5.833   1.414   4.367
 7575SOL     OW23623   6.328   6.358   0.743
 7575SOL    HW123624   6.332   6.408   0.830
 7575SOL    HW223625   6.232   6.350   0.714
 7576SOL     OW23626   5.063   2.599   0.685
 7576SOL    HW123627   4.968   2.626   0.673
 7576SOL    HW223628   5.122   2.680   0.676
 7577SOL     OW23629   6.934   6.400   0.087
 7577SOL    HW123630   6.978   6.351   0.162
 7577SOL    HW223631   6.896   6.334   0.022
 7578SOL     OW23632   1.226   5.109   2.327
 7578SOL    HW123633   1.286   5.143   2.255
 7578SOL    HW223634   1.218   5.010   2.320
 7579SOL     OW23635   6.708   1.799   1.326
 7579SOL    HW123636   6.636   1.852   1.282
 7579SOL    HW223637   6.752   1.739   1.259
 7580SOL     OW23638   1.605   4.845   3.631
 7580SOL    HW123639   1.675   4.916   3.637
 7580SOL    HW223640   1.630   4.780   3.560
 7581SOL     OW23641   0.537   1.095   0.947
 7581SOL    HW123642   0.614   1.094   1.011
 7581SOL    HW223643   0.509   1.002   0.927
 7582SOL     OW23644   4.437   1.474   3.812
 7582SOL    HW123645   4.361   1.494   3.873
 7582SOL    HW223646   4.424   1.522   3.726
 7583SOL     OW23647   5.510   3.943   3.220
 7583SOL    HW123648   5.415   3.928   3.193
 7583SOL    HW223649   5.554   3.854   3.234
 7584SOL     OW23650   1.103   6.556   2.598
 7584SOL    HW123651   1.076   6.595   2.686
 7584SOL    HW223652   1.152   6.471   2.614
 7585SOL     OW23653   0.930   2.478   6.963
 7585SOL    HW123654   0.866   2.425   7.019
 7585SOL    HW223655   1.015   2.425   6.952
 7586SOL     OW23656   1.877   0.265   2.117
 7586SOL    HW123657   1.955   0.327   2.109
 7586SOL    HW223658   1.800   0.301   2.065
 7587SOL     OW23659   3.072   1.416   0.796
 7587SOL    HW123660   3.043   1.320   0.797
 7587SOL    HW223661   3.022   1.466   0.866
 7588SOL     OW23662   1.302   2.687   4.026
 7588SOL    HW123663   1.222   2.660   4.080
 7588SOL    HW223664   1.384   2.683   4.084
 7589SOL     OW23665   7.008   1.334   3.160
 7589SOL    HW123666   7.016   1.433   3.165
 7589SOL    HW223667   6.959   1.308   3.076
 7590SOL     OW23668   6.165   1.331   6.667
 7590SOL    HW123669   6.143   1.287   6.580
 7590SOL    HW223670   6.169   1.262   6.739
 7591SOL     OW23671   4.790   3.057   6.684
 7591SOL    HW123672   4.810   3.042   6.588
 7591SOL    HW223673   4.704   3.107   6.693
 7592SOL     OW23674   6.441   4.521   4.605
 7592SOL    HW123675   6.457   4.549   4.699
 7592SOL    HW223676   6.440   4.421   4.600
 7593SOL     OW23677   6.755   2.673   6.096
 7593SOL    HW123678   6.833   2.650   6.155
 7593SOL    HW223679   6.736   2.596   6.035
 7594SOL     OW23680   0.952   4.562   1.561
 7594SOL    HW123681   0.948   4.565   1.661
 7594SOL    HW223682   1.029   4.618   1.529
 7595SOL     OW23683   6.783   3.500   6.069
 7595SOL    HW123684   6.849   3.432   6.102
 7595SOL    HW223685   6.830   3.568   6.012
 7596SOL     OW23686   3.338   0.232   4.943
 7596SOL    HW123687   3.281   0.169   4.890
 7596SOL    HW223688   3.280   0.283   5.007
 7597SOL     OW23689   1.868   6.275   2.690
 7597SOL    HW123690   1.965   6.293   2.674
 7597SOL    HW223691   1.814   6.333   2.629
 7598SOL     OW23692   6.148   0.621   2.995
 7598SOL    HW123693   6.244   0.623   3.021
 7598SOL    HW223694   6.092   0.651   3.072
 7599SOL     OW23695   4.810   2.955   1.259
 7599SOL    HW123696   4.741   3.010   1.210
 7599SOL    HW223697   4.764   2.884   1.311
 7600SOL     OW23698   1.579   0.833   3.691
 7600SOL    HW123699   1.623   0.839   3.602
 7600SOL    HW223700   1.586   0.740   3.726
 7601SOL     OW23701   3.206   5.266   2.063
 7601SOL    HW123702   3.131   5.310   2.113
 7601SOL    HW223703   3.293   5.304   2.094
 7602SOL     OW23704   0.076   2.868   0.413
 7602SOL    HW123705   0.027   2.925   0.479
 7602SOL    HW223706   0.147   2.921   0.368
 7603SOL     OW23707   2.245   6.679   5.987
 7603SOL    HW123708   2.213   6.609   5.923
 7603SOL    HW223709   2.341   6.664   6.009
 7604SOL     OW23710   1.619   2.050   5.087
 7604SOL    HW123711   1.632   2.074   5.184
 7604SOL    HW223712   1.579   1.958   5.081
 7605SOL     OW23713   0.628   0.370   0.330
 7605SOL    HW123714   0.725   0.394   0.322
 7605SOL    HW223715   0.581   0.437   0.388
 7606SOL     OW23716   5.695   2.787   4.668
 7606SOL    HW123717   5.742   2.814   4.585
 7606SOL    HW223718   5.741   2.707   4.708
 7607SOL     OW23719   3.734   5.840   0.711
 7607SOL    HW123720   3.668   5.881   0.648
 7607SOL    HW223721   3.791   5.774   0.662
 7608SOL     OW23722   5.020   2.293   6.255
 7608SOL    HW123723   5.005   2.338   6.343
 7608SOL    HW223724   5.053   2.200   6.270
 7609SOL     OW23725   0.318   3.481   4.000
 7609SOL    HW123726   0.363   3.421   4.066
 7609SOL    HW223727   0.248   3.430   3.951
 7610SOL     OW23728   3.706   4.949   6.411
 7610SOL    HW123729   3.754   5.024   6.457
 7610SOL    HW223730   3.620   4.930   6.458
 7611SOL     OW23731   5.076   3.646   1.529
 7611SOL    HW123732   5.124   3.559   1.540
 7611SOL    HW223733   5.140   3.716   1.500
 7612SOL     OW23734   3.915   2.105   3.090
 7612SOL    HW123735   3.834   2.045   3.091
 7612SOL    HW223736   3.933   2.134   2.996
 7613SOL     OW23737   0.693   2.249   1.792
 7613SOL    HW123738   0.774   2.245   1.851
 7613SOL    HW223739   0.713   2.304   1.711
 7614SOL     OW23740   5.138   3.228   0.982
 7614SOL    HW123741   5.099   3.200   1.070
 7614SOL    HW223742   5.160   3.326   0.985
 7615SOL     OW23743   5.512   4.027   5.580
 7615SOL    HW123744   5.511   4.060   5.485
 7615SOL    HW223745   5.509   3.927   5.580
 7616SOL     OW23746   6.265   0.238   3.082
 7616SOL    HW123747   6.314   0.234   2.995
 7616SOL    HW223748   6.182   0.293   3.070
 7617SOL     OW23749   5.083   4.792   3.028
 7617SOL    HW123750   5.075   4.702   3.070
 7617SOL    HW223751   5.066   4.784   2.930
 7618SOL     OW23752   1.259   2.476   0.412
 7618SOL    HW123753   1.270   2.500   0.508
 7618SOL    HW223754   1.174   2.424   0.400
 7619SOL     OW23755   0.279   2.358   4.465
 7619SOL    HW123756   0.222   2.276   4.469
 7619SOL    HW223757   0.372   2.336   4.496
 7620SOL     OW23758   3.560   4.343   0.297
 7620SOL    HW123759   3.500   4.400   0.241
 7620SOL    HW223760   3.631   4.302   0.240
 7621SOL     OW23761   0.155   6.088   0.897
 7621SOL    HW123762   0.055   6.089   0.901
 7621SOL    HW223763   0.193   6.132   0.978
 7622SOL     OW23764   4.387   4.409   0.310
 7622SOL    HW123765   4.411   4.450   0.222
 7622SOL    HW223766   4.460   4.425   0.376
 7623SOL     OW23767   4.079   4.648   0.802
 7623SOL    HW123768   4.018   4.669   0.878
 7623SOL    HW223769   4.160   4.601   0.837
 7624SOL     OW23770   0.310   2.578   2.720
 7624SOL    HW123771   0.259   2.602   2.803
 7624SOL    HW223772   0.297   2.481   2.700
 7625SOL     OW23773   5.495   2.294   6.953
 7625SOL    HW123774   5.471   2.300   0.029
 7625SOL    HW223775   5.444   2.219   6.911
 7626SOL     OW23776   6.571   0.982   5.757
 7626SOL    HW123777   6.661   1.019   5.777
 7626SOL    HW223778   6.578   0.911   5.687
 7627SOL     OW23779   3.443   1.950   0.893
 7627SOL    HW123780   3.480   2.043   0.890
 7627SOL    HW223781   3.493   1.896   0.961
 7628SOL     OW23782   4.194   3.362   1.133
 7628SOL    HW123783   4.147   3.319   1.211
 7628SOL    HW223784   4.130   3.371   1.057
 7629SOL     OW23785   6.288   3.744   3.961
 7629SOL    HW123786   6.261   3.712   4.052
 7629SOL    HW223787   6.366   3.805   3.968
 7630SOL     OW23788   1.448   6.836   5.674
 7630SOL    HW123789   1.406   6.772   5.610
 7630SOL    HW223790   1.536   6.867   5.638
 7631SOL     OW23791   1.499   0.189   5.743
 7631SOL    HW123792   1.581   0.236   5.776
 7631SOL    HW223793   1.522   0.139   5.659
 7632SOL     OW23794   4.462   5.248   1.074
 7632SOL    HW123795   4.363   5.260   1.072
 7632SOL    HW223796   4.488   5.207   1.162
 7633SOL     OW23797   6.198   0.157   1.376
 7633SOL    HW123798   6.251   0.109   1.446
 7633SOL    HW223799   6.241   0.142   1.287
 7634SOL     OW23800   1.442   1.290   1.454
 7634SOL    HW123801   1.360   1.344   1.470
 7634SOL    HW223802   1.475   1.252   1.541
 7635SOL     OW23803   2.530   5.033   4.861
 7635SOL    HW123804   2.444   5.059   4.818
 7635SOL    HW223805   2.520   5.034   4.960
 7636SOL     OW23806   0.182   4.034   4.034
 7636SOL    HW123807   0.136   4.094   3.968
 7636SOL    HW223808   0.155   4.061   4.127
 7637SOL     OW23809   0.775   6.554   3.384
 7637SOL    HW123810   0.855   6.608   3.359
 7637SOL    HW223811   0.692   6.602   3.357
 7638SOL     OW23812   1.580   5.465   1.449
 7638SOL    HW123813   1.488   5.502   1.435
 7638SOL    HW223814   1.607   5.480   1.544
 7639SOL     OW23815   0.184   0.718   0.248
 7639SOL    HW123816   0.276   0.748   0.225
 7639SOL    HW223817   0.117   0.784   0.215
 7640SOL     OW23818   3.435   2.080   6.695
 7640SOL    HW123819   3.395   2.160   6.739
 7640SOL    HW223820   3.494   2.031   6.760
 7641SOL     OW23821   6.798   4.146   3.074
 7641SOL    HW123822   6.888   4.190   3.076
 7641SOL    HW223823   6.781   4.108   2.983
 7642SOL     OW23824   6.013   1.183   2.845
 7642SOL    HW123825   5.928   1.170   2.796
 7642SOL    HW223826   6.048   1.094   2.874
 7643SOL     OW23827   5.322   1.930   3.088
 7643SOL    HW123828   5.409   1.932   3.038
 7643SOL    HW223829   5.284   2.022   3.093
 7644SOL     OW23830   4.814   3.023   2.510
 7644SOL    HW123831   4.804   2.970   2.594
 7644SOL    HW223832   4.815   2.961   2.431
 7645SOL     OW23833   3.920   3.268   5.152
 7645SOL    HW123834   3.828   3.232   5.168
 7645SOL    HW223835   3.927   3.300   5.058
 7646SOL     OW23836   0.748   3.135   3.307
 7646SOL    HW123837   0.738   3.122   3.208
 7646SOL    HW223838   0.770   3.231   3.325
 7647SOL     OW23839   0.946   2.783   4.637
 7647SOL    HW123840   1.011   2.825   4.573
 7647SOL    HW223841   0.854   2.790   4.599
 7648SOL     OW23842   2.463   1.811   2.910
 7648SOL    HW123843   2.470   1.834   3.007
 7648SOL    HW223844   2.495   1.717   2.896
 7649SOL     OW23845   1.047   1.215   4.783
 7649SOL    HW123846   0.991   1.297   4.772
 7649SOL    HW223847   1.010   1.142   4.726
 7650SOL     OW23848   5.082   1.355   0.955
 7650SOL    HW123849   5.097   1.291   1.031
 7650SOL    HW223850   5.168   1.368   0.906
 7651SOL     OW23851   2.047   5.231   4.555
 7651SOL    HW123852   2.105   5.273   4.625
 7651SOL    HW223853   2.065   5.132   4.551
 7652SOL     OW23854   5.824   2.556   4.991
 7652SOL    HW123855   5.915   2.516   5.000
 7652SOL    HW223856   5.779   2.558   5.081
 7653SOL     OW23857   0.989   1.502   6.993
 7653SOL    HW123858   1.028   1.594   6.991
 7653SOL    HW223859   0.897   1.504   6.954
 7654SOL     OW23860   5.926   2.999   4.837
 7654SOL    HW123861   5.892   3.076   4.782
 7654SOL    HW223862   5.881   3.000   4.926
 7655SOL     OW23863   3.212   0.280   3.467
 7655SOL    HW123864   3.140   0.265   3.399
 7655SOL    HW223865   3.231   0.378   3.474
 7656SOL     OW23866   6.442   3.138   5.857
 7656SOL    HW123867   6.497   3.135   5.940
 7656SOL    HW223868   6.420   3.044   5.828
 7657SOL     OW23869   1.847   3.460   4.430
 7657SOL    HW123870   1.796   3.388   4.477
 7657SOL    HW223871   1.945   3.438   4.430
 7658SOL     OW23872   3.186   0.191   0.905
 7658SOL    HW123873   3.181   0.203   1.004
 7658SOL    HW223874   3.102   0.227   0.863
 7659SOL     OW23875   4.677   4.058   6.080
 7659SOL    HW123876   4.587   4.087   6.048
 7659SOL    HW223877   4.692   3.962   6.054
 7660SOL     OW23878   6.418   5.420   4.622
 7660SOL    HW123879   6.464   5.350   4.567
 7660SOL    HW223880   6.423   5.508   4.576
 7661SOL     OW23881   4.458   2.529   6.008
 7661SOL    HW123882   4.413   2.586   5.939
 7661SOL    HW223883   4.470   2.436   5.973
 7662SOL     OW23884   0.881   2.538   3.081
 7662SOL    HW123885   0.979   2.543   3.099
 7662SOL    HW223886   0.865   2.528   2.983
 7663SOL     OW23887   5.137   6.061   6.179
 7663SOL    HW123888   5.120   5.970   6.218
 7663SOL    HW223889   5.111   6.062   6.083
 7664SOL     OW23890   4.126   0.966   3.148
 7664SOL    HW123891   4.144   0.993   3.242
 7664SOL    HW223892   4.111   0.867   3.143
 7665SOL     OW23893   5.320   2.093   4.445
 7665SOL    HW123894   5.415   2.096   4.477
 7665SOL    HW223895   5.285   2.186   4.437
 7666SOL     OW23896   6.315   6.077   4.158
 7666SOL    HW123897   6.323   6.031   4.070
 7666SOL    HW223898   6.298   6.175   4.144
 7667SOL     OW23899   4.543   0.015   2.093
 7667SOL    HW123900   4.448   7.007   2.109
 7667SOL    HW223901   4.591   6.966   2.040
 7668SOL     OW23902   2.722   5.010   0.950
 7668SOL    HW123903   2.707   4.914   0.926
 7668SOL    HW223904   2.665   5.068   0.891
 7669SOL     OW23905   4.029   0.588   5.959
 7669SOL    HW123906   4.083   0.666   5.927
 7669SOL    HW223907   4.011   0.598   6.057
 7670SOL     OW23908   0.936   6.643   0.405
 7670SOL    HW123909   0.860   6.686   0.453
 7670SOL    HW223910   1.003   6.713   0.379
 7671SOL     OW23911   5.557   6.764   2.787
 7671SOL    HW123912   5.566   6.831   2.861
 7671SOL    HW223913   5.610   6.795   2.708
 7672SOL     OW23914   6.867   4.995   3.015
 7672SOL    HW123915   6.833   4.942   2.938
 7672SOL    HW223916   6.954   4.955   3.047
 7673SOL     OW23917   1.447   6.061   2.532
 7673SOL    HW123918   1.427   6.112   2.448
 7673SOL    HW223919   1.542   6.079   2.560
 7674SOL     OW23920   4.167   1.076   4.106
 7674SOL    HW123921   4.250   1.044   4.152
 7674SOL    HW223922   4.115   0.997   4.072
 7675SOL     OW23923   3.602   6.850   3.486
 7675SOL    HW123924   3.693   6.824   3.453
 7675SOL    HW223925   3.548   6.767   3.502
 7676SOL     OW23926   3.010   2.479   5.983
 7676SOL    HW123927   2.998   2.578   5.972
 7676SOL    HW223928   2.934   2.431   5.939
 7677SOL     OW23929   6.966   4.342   1.155
 7677SOL    HW123930   6.953   4.263   1.216
 7677SOL    HW223931   0.012   4.404   1.195
 7678SOL     OW23932   1.784   1.942   5.478
 7678SOL    HW123933   1.880   1.916   5.469
 7678SOL    HW223934   1.727   1.864   5.451
 7679SOL     OW23935   1.903   5.270   5.600
 7679SOL    HW123936   1.923   5.194   5.539
 7679SOL    HW223937   1.977   5.337   5.595
 7680SOL     OW23938   1.331   0.225   6.002
 7680SOL    HW123939   1.294   0.315   6.025
 7680SOL    HW223940   1.356   0.223   5.906
 7681SOL     OW23941   3.003   2.187   6.657
 7681SOL    HW123942   3.047   2.184   6.567
 7681SOL    HW223943   2.952   2.102   6.672
 7682SOL     OW23944   3.546   1.456   2.784
 7682SOL    HW123945   3.447   1.465   2.771
 7682SOL    HW223946   3.592   1.454   2.695
 7683SOL     OW23947   0.919   1.002   4.661
 7683SOL    HW123948   0.849   1.052   4.611
 7683SOL    HW223949   0.878   0.955   4.739
 7684SOL     OW23950   4.334   2.115   1.816
 7684SOL    HW123951   4.270   2.040   1.798
 7684SOL    HW223952   4.345   2.125   1.915
 7685SOL     OW23953   3.793   1.674   6.837
 7685SOL    HW123954   3.722   1.613   6.872
 7685SOL    HW223955   3.859   1.693   6.909
 7686SOL     OW23956   4.635   7.018   4.330
 7686SOL    HW123957   4.728   0.016   4.364
 7686SOL    HW223958   4.612   0.063   4.259
 7687SOL     OW23959   5.245   5.501   4.876
 7687SOL    HW123960   5.324   5.462   4.829
 7687SOL    HW223961   5.258   5.600   4.885
 7688SOL     OW23962   0.149   5.642   5.631
 7688SOL    HW123963   0.127   5.662   5.535
 7688SOL    HW223964   0.243   5.611   5.638
 7689SOL     OW23965   4.675   0.150   1.769
 7689SOL    HW123966   4.609   0.194   1.708
 7689SOL    HW223967   4.665   0.187   1.862
 7690SOL     OW23968   5.715   4.774   0.117
 7690SOL    HW123969   5.755   4.854   0.072
 7690SOL    HW223970   5.775   4.745   0.192
 7691SOL     OW23971   4.641   4.620   2.197
 7691SOL    HW123972   4.740   4.615   2.213
 7691SOL    HW223973   4.598   4.536   2.228
 7692SOL     OW23974   1.226   6.163   1.141
 7692SOL    HW123975   1.316   6.179   1.180
 7692SOL    HW223976   1.163   6.135   1.213
 7693SOL     OW23977   3.148   0.787   1.154
 7693SOL    HW123978   3.220   0.726   1.121
 7693SOL    HW223979   3.147   0.870   1.098
 7694SOL     OW23980   5.335   2.590   4.303
 7694SOL    HW123981   5.365   2.564   4.211
 7694SOL    HW223982   5.370   2.681   4.326
 7695SOL     OW23983   5.855   0.507   2.079
 7695SOL    HW123984   5.774   0.562   2.101
 7695SOL    HW223985   5.936   0.549   2.121
 7696SOL     OW23986   0.545   1.855   6.231
 7696SOL    HW123987   0.636   1.815   6.218
 7696SOL    HW223988   0.476   1.782   6.231
 7697SOL     OW23989   3.178   0.513   2.646
 7697SOL    HW123990   3.188   0.607   2.678
 7697SOL    HW223991   3.239   0.454   2.698
 7698SOL     OW23992   6.030   2.716   6.156
 7698SOL    HW123993   6.058   2.626   6.123
 7698SOL    HW223994   5.976   2.762   6.085
 7699SOL     OW23995   2.229   5.165   6.759
 7699SOL    HW123996   2.282   5.233   6.707
 7699SOL    HW223997   2.150   5.137   6.705
 7700SOL     OW23998   4.506   6.211   3.382
 7700SOL    HW123999   4.423   6.267   3.374
 7700SOL    HW224000   4.583   6.269   3.406
 7701SOL     OW24001   0.095   1.680   6.012
 7701SOL    HW124002   0.048   1.752   6.063
 7701SOL    HW224003   0.177   1.718   5.969
 7702SOL     OW24004   4.396   6.755   5.716
 7702SOL    HW124005   4.392   6.684   5.645
 7702SOL    HW224006   4.394   6.712   5.806
 7703SOL     OW24007   6.541   0.193   4.836
 7703SOL    HW124008   6.465   0.132   4.815
 7703SOL    HW224009   6.507   0.285   4.856
 7704SOL     OW24010   6.406   1.690   3.946
 7704SOL    HW124011   6.414   1.760   3.875
 7704SOL    HW224012   6.397   1.734   4.035
 7705SOL     OW24013   2.557   5.185   0.821
 7705SOL    HW124014   2.480   5.136   0.779
 7705SOL    HW224015   2.617   5.220   0.750
 7706SOL     OW24016   3.249   2.933   2.956
 7706SOL    HW124017   3.226   3.022   2.916
 7706SOL    HW224018   3.312   2.885   2.896
 7707SOL     OW24019   0.144   5.325   6.278
 7707SOL    HW124020   0.053   5.294   6.250
 7707SOL    HW224021   0.139   5.367   6.369
 7708SOL     OW24022   1.490   6.725   3.885
 7708SOL    HW124023   1.427   6.683   3.818
 7708SOL    HW224024   1.503   6.821   3.862
 7709SOL     OW24025   6.511   5.460   1.199
 7709SOL    HW124026   6.455   5.393   1.248
 7709SOL    HW224027   6.491   5.551   1.235
 7710SOL     OW24028   1.885   2.602   0.742
 7710SOL    HW124029   1.949   2.654   0.799
 7710SOL    HW224030   1.919   2.509   0.731
 7711SOL     OW24031   6.484   5.515   5.865
 7711SOL    HW124032   6.428   5.536   5.785
 7711SOL    HW224033   6.572   5.479   5.836
 7712SOL     OW24034   6.587   4.545   6.262
 7712SOL    HW124035   6.680   4.581   6.269
 7712SOL    HW224036   6.562   4.501   6.349
 7713SOL     OW24037   1.602   3.994   0.734
 7713SOL    HW124038   1.504   3.996   0.749
 7713SOL    HW224039   1.650   4.013   0.819
 7714SOL     OW24040   0.162   6.714   4.909
 7714SOL    HW124041   0.176   6.743   5.003
 7714SOL    HW224042   0.209   6.777   4.847
 7715SOL     OW24043   2.823   2.532   6.331
 7715SOL    HW124044   2.770   2.497   6.408
 7715SOL    HW224045   2.920   2.509   6.344
 7716SOL     OW24046   0.221   4.960   6.561
 7716SOL    HW124047   0.228   4.889   6.631
 7716SOL    HW224048   0.153   4.932   6.493
 7717SOL     OW24049   1.497   2.120   5.378
 7717SOL    HW124050   1.593   2.149   5.379
 7717SOL    HW224051   1.487   2.039   5.436
 7718SOL     OW24052   0.523   3.419   3.167
 7718SOL    HW124053   0.462   3.391   3.241
 7718SOL    HW224054   0.512   3.516   3.149
 7719SOL     OW24055   1.767   4.159   4.677
 7719SOL    HW124056   1.830   4.095   4.633
 7719SOL    HW224057   1.810   4.249   4.686
 7720SOL     OW24058   6.044   2.361   6.404
 7720SOL    HW124059   6.140   2.360   6.376
 7720SOL    HW224060   6.025   2.280   6.460
 7721SOL     OW24061   1.479   0.652   2.669
 7721SOL    HW124062   1.381   0.665   2.657
 7721SOL    HW224063   1.522   0.636   2.580
 7722SOL     OW24064   2.367   5.248   3.901
 7722SOL    HW124065   2.421   5.283   3.978
 7722SOL    HW224066   2.371   5.312   3.825
 7723SOL     OW24067   4.894   3.304   6.423
 7723SOL    HW124068   4.949   3.243   6.365
 7723SOL    HW224069   4.870   3.256   6.508
 7724SOL     OW24070   3.180   4.102   0.568
 7724SOL    HW124071   3.260   4.147   0.526
 7724SOL    HW224072   3.134   4.167   0.629
 7725SOL     OW24073   5.991   2.446   2.482
 7725SOL    HW124074   5.927   2.494   2.421
 7725SOL    HW224075   5.949   2.360   2.512
 7726SOL     OW24076   1.350   3.027   6.160
 7726SOL    HW124077   1.442   3.065   6.163
 7726SOL    HW224078   1.353   2.934   6.124
 7727SOL     OW24079   5.789   2.647   1.670
 7727SOL    HW124080   5.721   2.677   1.603
 7727SOL    HW224081   5.745   2.633   1.759
 7728SOL     OW24082   2.258   2.550   5.330
 7728SOL    HW124083   2.304   2.634   5.302
 7728SOL    HW224084   2.294   2.472   5.278
 7729SOL     OW24085   6.141   1.949   1.935
 7729SOL    HW124086   6.059   1.959   1.878
 7729SOL    HW224087   6.200   1.878   1.896
 7730SOL     OW24088   5.450   4.668   5.086
 7730SOL    HW124089   5.540   4.630   5.064
 7730SOL    HW224090   5.446   4.763   5.057
 7731SOL     OW24091   5.979   0.211   1.006
 7731SOL    HW124092   5.937   0.299   1.028
 7731SOL    HW224093   5.911   0.150   0.965
 7732SOL     OW24094   3.968   0.385   0.085
 7732SOL    HW124095   4.010   0.454   0.144
 7732SOL    HW224096   4.010   0.296   0.101
 7733SOL     OW24097   6.178   5.689   2.530
 7733SOL    HW124098   6.171   5.665   2.627
 7733SOL    HW224099   6.130   5.774   2.513
 7734SOL     OW24100   2.445   4.346   5.270
 7734SOL    HW124101   2.412   4.420   5.211
 7734SOL    HW224102   2.372   4.279   5.281
 7735SOL     OW24103   6.404   6.144   0.069
 7735SOL    HW124104   6.329   6.099   0.118
 7735SOL    HW224105   6.404   6.242   0.091
 7736SOL     OW24106   2.781   2.844   0.585
 7736SOL    HW124107   2.716   2.769   0.570
 7736SOL    HW224108   2.803   2.849   0.682
 7737SOL     OW24109   3.614   4.964   1.514
 7737SOL    HW124110   3.650   4.911   1.590
 7737SOL    HW224111   3.515   4.969   1.521
 7738SOL     OW24112   2.322   5.871   6.860
 7738SOL    HW124113   2.320   5.777   6.826
 7738SOL    HW224114   2.258   5.927   6.807
 7739SOL     OW24115   1.161   2.196   2.103
 7739SOL    HW124116   1.186   2.278   2.052
 7739SOL    HW224117   1.170   2.116   2.042
 7740SOL     OW24118   1.896   1.044   2.633
 7740SOL    HW124119   1.798   1.054   2.618
 7740SOL    HW224120   1.928   1.117   2.693
 7741SOL     OW24121   1.766   4.805   5.594
 7741SOL    HW124122   1.746   4.900   5.573
 7741SOL    HW224123   1.697   4.770   5.658
 7742SOL     OW24124   3.823   1.264   3.783
 7742SOL    HW124125   3.850   1.170   3.762
 7742SOL    HW224126   3.739   1.264   3.835
 7743SOL     OW24127   4.888   1.121   6.928
 7743SOL    HW124128   4.925   1.028   6.924
 7743SOL    HW224129   4.915   1.172   6.846
 7744SOL     OW24130   0.787   6.018   4.348
 7744SOL    HW124131   0.818   5.987   4.438
 7744SOL    HW224132   0.861   6.007   4.282
 7745SOL     OW24133   2.355   6.552   6.665
 7745SOL    HW124134   2.354   6.493   6.585
 7745SOL    HW224135   2.283   6.621   6.657
 7746SOL     OW24136   1.249   6.474   0.838
 7746SOL    HW124137   1.311   6.411   0.791
 7746SOL    HW224138   1.282   6.568   0.827
 7747SOL     OW24139   6.946   5.952   0.644
 7747SOL    HW124140   6.936   5.988   0.737
 7747SOL    HW224141   6.916   5.857   0.641
 7748SOL     OW24142   3.593   2.843   5.042
 7748SOL    HW124143   3.520   2.861   5.108
 7748SOL    HW224144   3.557   2.850   4.949
 7749SOL     OW24145   3.490   4.091   3.172
 7749SOL    HW124146   3.540   4.023   3.225
 7749SOL    HW224147   3.397   4.099   3.207
 7750SOL     OW24148   5.386   5.496   6.085
 7750SOL    HW124149   5.375   5.397   6.094
 7750SOL    HW224150   5.317   5.532   6.023
 7751SOL     OW24151   0.173   1.509   3.742
 7751SOL    HW124152   0.155   1.503   3.840
 7751SOL    HW224153   0.145   1.424   3.698
 7752SOL     OW24154   5.847   5.493   5.167
 7752SOL    HW124155   5.857   5.406   5.119
 7752SOL    HW224156   5.863   5.478   5.265
 7753SOL     OW24157   2.644   0.645   5.018
 7753SOL    HW124158   2.545   0.653   5.005
 7753SOL    HW224159   2.675   0.557   4.981
 7754SOL     OW24160   5.477   0.558   1.348
 7754SOL    HW124161   5.403   0.585   1.287
 7754SOL    HW224162   5.563   0.596   1.314
 7755SOL     OW24163   0.711   6.298   5.481
 7755SOL    HW124164   0.718   6.389   5.440
 7755SOL    HW224165   0.691   6.231   5.409
 7756SOL     OW24166   2.625   5.756   2.711
 7756SOL    HW124167   2.605   5.773   2.614
 7756SOL    HW224168   2.724   5.760   2.726
 7757SOL     OW24169   4.593   5.965   4.818
 7757SOL    HW124170   4.589   6.033   4.745
 7757SOL    HW224171   4.563   5.876   4.783
 7758SOL     OW24172   1.925   2.470   6.357
 7758SOL    HW124173   1.990   2.415   6.410
 7758SOL    HW224174   1.968   2.556   6.330
 7759SOL     OW24175   2.564   0.602   5.514
 7759SOL    HW124176   2.561   0.650   5.426
 7759SOL    HW224177   2.647   0.546   5.518
 7760SOL     OW24178   6.014   2.825   2.343
 7760SOL    HW124179   5.997   2.823   2.244
 7760SOL    HW224180   6.035   2.919   2.371
 7761SOL     OW24181   2.955   6.891   6.182
 7761SOL    HW124182   3.016   6.889   6.102
 7761SOL    HW224183   2.972   6.975   6.234
 7762SOL     OW24184   3.900   1.089   6.076
 7762SOL    HW124185   3.860   1.157   6.015
 7762SOL    HW224186   3.908   1.001   6.029
 7763SOL     OW24187   1.295   1.567   1.166
 7763SOL    HW124188   1.337   1.617   1.091
 7763SOL    HW224189   1.262   1.478   1.133
 7764SOL     OW24190   3.868   3.380   2.499
 7764SOL    HW124191   3.786   3.323   2.496
 7764SOL    HW224192   3.844   3.472   2.531
 7765SOL     OW24193   6.326   3.426   4.359
 7765SOL    HW124194   6.387   3.504   4.343
 7765SOL    HW224195   6.350   3.352   4.296
 7766SOL     OW24196   5.059   2.252   6.905
 7766SOL    HW124197   5.006   2.172   6.876
 7766SOL    HW224198   5.098   2.296   6.825
 7767SOL     OW24199   3.622   6.377   3.338
 7767SOL    HW124200   3.543   6.403   3.393
 7767SOL    HW224201   3.628   6.436   3.257
 7768SOL     OW24202   3.980   4.908   2.919
 7768SOL    HW124203   3.928   4.884   2.837
 7768SOL    HW224204   4.062   4.958   2.893
 7769SOL     OW24205   5.225   1.546   1.862
 7769SOL    HW124206   5.264   1.631   1.827
 7769SOL    HW224207   5.140   1.525   1.814
 7770SOL     OW24208   2.588   4.527   2.397
 7770SOL    HW124209   2.580   4.584   2.315
 7770SOL    HW224210   2.681   4.536   2.435
 7771SOL     OW24211   2.514   2.562   4.825
 7771SOL    HW124212   2.458   2.603   4.753
 7771SOL    HW224213   2.504   2.615   4.909
 7772SOL     OW24214   5.143   1.426   3.537
 7772SOL    HW124215   5.090   1.343   3.523
 7772SOL    HW224216   5.125   1.463   3.628
 7773SOL     OW24217   3.363   5.055   5.503
 7773SOL    HW124218   3.334   5.102   5.420
 7773SOL    HW224219   3.310   4.971   5.515
 7774SOL     OW24220   5.770   1.759   5.739
 7774SOL    HW124221   5.671   1.772   5.735
 7774SOL    HW224222   5.816   1.848   5.736
 7775SOL     OW24223   3.510   6.955   3.070
 7775SOL    HW124224   3.439   6.935   3.138
 7775SOL    HW224225   3.586   6.891   3.081
 7776SOL     OW24226   3.183   3.301   5.704
 7776SOL    HW124227   3.172   3.357   5.622
 7776SOL    HW224228   3.129   3.217   5.694
 7777SOL     OW24229   2.439   1.846   5.411
 7777SOL    HW124230   2.409   1.858   5.317
 7777SOL    HW224231   2.528   1.801   5.412
 7778SOL     OW24232   5.208   7.010   0.003
 7778SOL    HW124233   5.256   7.018   6.937
 7778SOL    HW224234   5.274   6.994   0.076
 7779SOL     OW24235   3.670   3.018   0.298
 7779SOL    HW124236   3.649   3.116   0.299
 7779SOL    HW224237   3.712   2.993   0.385
 7780SOL     OW24238   1.816   5.558   4.830
 7780SOL    HW124239   1.841   5.556   4.927
 7780SOL    HW224240   1.730   5.509   4.817
 7781SOL     OW24241   0.601   3.841   5.930
 7781SOL    HW124242   0.660   3.888   5.995
 7781SOL    HW224243   0.557   3.763   5.975
 7782SOL     OW24244   1.662   3.837   5.653
 7782SOL    HW124245   1.594   3.899   5.690
 7782SOL    HW224246   1.642   3.819   5.556
 7783SOL     OW24247   3.284   6.613   6.074
 7783SOL    HW124248   3.211   6.616   6.006
 7783SOL    HW224249   3.327   6.523   6.074
 7784SOL     OW24250   1.692   2.703   6.947
 7784SOL    HW124251   1.667   2.798   6.928
 7784SOL    HW224252   1.789   2.689   6.928
 7785SOL     OW24253   1.838   6.808   4.257
 7785SOL    HW124254   1.918   6.827   4.199
 7785SOL    HW224255   1.756   6.847   4.215
 7786SOL     OW24256   3.076   4.740   5.860
 7786SOL    HW124257   3.008   4.696   5.918
 7786SOL    HW224258   3.159   4.756   5.913
 7787SOL     OW24259   2.172   2.110   5.630
 7787SOL    HW124260   2.125   2.198   5.623
 7787SOL    HW224261   2.142   2.051   5.554
 7788SOL     OW24262   1.600   0.910   1.926
 7788SOL    HW124263   1.600   1.008   1.947
 7788SOL    HW224264   1.668   0.891   1.855
 7789SOL     OW24265   2.445   0.162   1.048
 7789SOL    HW124266   2.448   0.179   0.949
 7789SOL    HW224267   2.519   0.212   1.092
 7790SOL     OW24268   6.283   4.688   3.113
 7790SOL    HW124269   6.197   4.641   3.134
 7790SOL    HW224270   6.317   4.733   3.195
 7791SOL     OW24271   2.503   6.356   3.971
 7791SOL    HW124272   2.488   6.351   3.873
 7791SOL    HW224273   2.421   6.326   4.020
 7792SOL     OW24274   1.521   5.224   5.872
 7792SOL    HW124275   1.474   5.159   5.931
 7792SOL    HW224276   1.506   5.199   5.776
 7793SOL     OW24277   1.644   1.345   5.762
 7793SOL    HW124278   1.735   1.363   5.799
 7793SOL    HW224279   1.639   1.378   5.668
 7794SOL     OW24280   5.130   5.140   4.549
 7794SOL    HW124281   5.125   5.135   4.649
 7794SOL    HW224282   5.089   5.059   4.509
 7795SOL     OW24283   2.226   4.176   5.279
 7795SOL    HW124284   2.160   4.195   5.206
 7795SOL    HW224285   2.293   4.110   5.245
 7796SOL     OW24286   3.666   3.971   3.806
 7796SOL    HW124287   3.592   3.910   3.834
 7796SOL    HW224288   3.637   4.024   3.727
 7797SOL     OW24289   0.201   5.831   3.181
 7797SOL    HW124290   0.160   5.827   3.272
 7797SOL    HW224291   0.221   5.739   3.149
 7798SOL     OW24292   1.993   4.806   6.772
 7798SOL    HW124293   1.912   4.774   6.723
 7798SOL    HW224294   2.011   4.901   6.747
 7799SOL     OW24295   6.861   5.803   1.884
 7799SOL    HW124296   6.924   5.852   1.823
 7799SOL    HW224297   6.768   5.836   1.868
 7800SOL     OW24298   1.000   4.268   1.283
 7800SOL    HW124299   1.053   4.306   1.208
 7800SOL    HW224300   0.916   4.226   1.248
 7801SOL     OW24301   2.428   1.943   1.590
 7801SOL    HW124302   2.390   1.967   1.680
 7801SOL    HW224303   2.369   1.980   1.519
 7802SOL     OW24304   6.020   3.042   0.905
 7802SOL    HW124305   6.018   3.074   1.000
 7802SOL    HW224306   5.929   3.048   0.866
 7803SOL     OW24307   4.643   3.725   5.650
 7803SOL    HW124308   4.578   3.657   5.615
 7803SOL    HW224309   4.664   3.790   5.577
 7804SOL     OW24310   6.170   1.312   4.546
 7804SOL    HW124311   6.161   1.289   4.643
 7804SOL    HW224312   6.209   1.234   4.497
 7805SOL     OW24313   5.296   1.520   1.143
 7805SOL    HW124314   5.295   1.522   1.043
 7805SOL    HW224315   5.205   1.541   1.179
 7806SOL     OW24316   6.068   3.409   5.767
 7806SOL    HW124317   6.137   3.337   5.773
 7806SOL    HW224318   6.053   3.431   5.670
 7807SOL     OW24319   0.343   5.052   6.192
 7807SOL    HW124320   0.397   5.101   6.125
 7807SOL    HW224321   0.336   5.106   6.276
 7808SOL     OW24322   0.335   3.055   4.631
 7808SOL    HW124323   0.397   3.131   4.612
 7808SOL    HW224324   0.243   3.090   4.649
 7809SOL     OW24325   2.499   6.378   4.715
 7809SOL    HW124326   2.489   6.279   4.705
 7809SOL    HW224327   2.438   6.424   4.650
 7810SOL     OW24328   3.050   0.347   5.441
 7810SOL    HW124329   3.043   0.321   5.537
 7810SOL    HW224330   3.145   0.369   5.419
 7811SOL     OW24331   6.591   4.058   4.214
 7811SOL    HW124332   6.615   4.026   4.306
 7811SOL    HW224333   6.634   4.146   4.196
 7812SOL     OW24334   1.557   1.646   3.608
 7812SOL    HW124335   1.570   1.547   3.615
 7812SOL    HW224336   1.610   1.691   3.680
 7813SOL     OW24337   4.880   2.591   6.174
 7813SOL    HW124338   4.862   2.531   6.095
 7813SOL    HW224339   4.946   2.661   6.148
 7814SOL     OW24340   6.796   2.444   3.234
 7814SOL    HW124341   6.829   2.368   3.178
 7814SOL    HW224342   6.875   2.492   3.273
 7815SOL     OW24343   4.736   1.178   6.329
 7815SOL    HW124344   4.642   1.200   6.302
 7815SOL    HW224345   4.743   1.175   6.428
 7816SOL     OW24346   2.421   2.512   5.996
 7816SOL    HW124347   2.447   2.430   6.048
 7816SOL    HW224348   2.451   2.593   6.045
 7817SOL     OW24349   6.249   3.620   3.718
 7817SOL    HW124350   6.169   3.644   3.663
 7817SOL    HW224351   6.254   3.680   3.798
 7818SOL     OW24352   5.351   0.605   2.492
 7818SOL    HW124353   5.360   0.521   2.438
 7818SOL    HW224354   5.293   0.670   2.443
 7819SOL     OW24355   0.412   3.139   1.834
 7819SOL    HW124356   0.376   3.228   1.806
 7819SOL    HW224357   0.506   3.149   1.864
 7820SOL     OW24358   1.706   2.058   4.438
 7820SOL    HW124359   1.784   2.107   4.477
 7820SOL    HW224360   1.651   2.018   4.513
 7821SOL     OW24361   4.555   5.521   1.114
 7821SOL    HW124362   4.521   5.429   1.094
 7821SOL    HW224363   4.483   5.588   1.096
 7822SOL     OW24364   0.222   0.540   5.311
 7822SOL    HW124365   0.196   0.448   5.339
 7822SOL    HW224366   0.178   0.563   5.224
 7823SOL     OW24367   2.220   4.024   4.733
 7823SOL    HW124368   2.249   3.997   4.825
 7823SOL    HW224369   2.252   4.117   4.714
 7824SOL     OW24370   6.484   2.429   4.822
 7824SOL    HW124371   6.556   2.371   4.860
 7824SOL    HW224372   6.512   2.464   4.733
 7825SOL     OW24373   2.585   2.786   0.200
 7825SOL    HW124374   2.522   2.772   0.277
 7825SOL    HW224375   2.676   2.806   0.235
 7826SOL     OW24376   6.663   1.279   0.430
 7826SOL    HW124377   6.722   1.324   0.363
 7826SOL    HW224378   6.714   1.205   0.474
 7827SOL     OW24379   1.116   5.421   1.603
 7827SOL    HW124380   1.127   5.322   1.607
 7827SOL    HW224381   1.161   5.457   1.521
 7828SOL     OW24382   6.345   4.202   6.499
 7828SOL    HW124383   6.270   4.265   6.481
 7828SOL    HW224384   6.308   4.115   6.533
 7829SOL     OW24385   3.169   3.294   1.256
 7829SOL    HW124386   3.163   3.355   1.177
 7829SOL    HW224387   3.254   3.312   1.305
 7830SOL     OW24388   3.326   5.396   5.532
 7830SOL    HW124389   3.230   5.423   5.529
 7830SOL    HW224390   3.355   5.364   5.442
 7831SOL     OW24391   2.116   0.789   1.890
 7831SOL    HW124392   2.065   0.795   1.976
 7831SOL    HW224393   2.128   0.880   1.852
 7832SOL     OW24394   5.857   0.029   4.151
 7832SOL    HW124395   5.817   0.021   4.243
 7832SOL    HW224396   5.867   0.125   4.127
 7833SOL     OW24397   1.731   0.913   4.521
 7833SOL    HW124398   1.757   0.851   4.594
 7833SOL    HW224399   1.684   0.993   4.559
 7834SOL     OW24400   6.967   1.580   3.336
 7834SOL    HW124401   6.992   1.513   3.406
 7834SOL    HW224402   6.936   1.665   3.380
 7835SOL     OW24403   3.662   1.869   4.314
 7835SOL    HW124404   3.633   1.957   4.351
 7835SOL    HW224405   3.585   1.805   4.317
 7836SOL     OW24406   3.412   4.188   5.587
 7836SOL    HW124407   3.394   4.265   5.526
 7836SOL    HW224408   3.404   4.218   5.682
 7837SOL     OW24409   4.983   6.443   0.222
 7837SOL    HW124410   4.896   6.491   0.235
 7837SOL    HW224411   5.056   6.494   0.269
 7838SOL     OW24412   5.070   5.409   1.292
 7838SOL    HW124413   5.040   5.409   1.196
 7838SOL    HW224414   5.050   5.497   1.333
 7839SOL     OW24415   5.659   4.181   4.718
 7839SOL    HW124416   5.724   4.140   4.654
 7839SOL    HW224417   5.628   4.111   4.783
 7840SOL     OW24418   0.758   4.333   4.305
 7840SOL    HW124419   0.659   4.336   4.293
 7840SOL    HW224420   0.797   4.261   4.248
 7841SOL     OW24421   4.721   2.027   6.444
 7841SOL    HW124422   4.795   2.081   6.484
 7841SOL    HW224423   4.633   2.064   6.473
 7842SOL     OW24424   2.039   1.352   2.622
 7842SOL    HW124425   1.998   1.314   2.704
 7842SOL    HW224426   2.076   1.443   2.642
 7843SOL     OW24427   6.936   6.592   4.025
 7843SOL    HW124428   7.013   6.637   4.070
 7843SOL    HW224429   6.971   6.523   3.961
 7844SOL     OW24430   3.701   0.780   2.106
 7844SOL    HW124431   3.709   0.719   2.185
 7844SOL    HW224432   3.787   0.828   2.091
 7845SOL     OW24433   5.217   1.849   1.295
 7845SOL    HW124434   5.252   1.801   1.376
 7845SOL    HW224435   5.154   1.790   1.245
 7846SOL     OW24436   1.197   2.154   0.555
 7846SOL    HW124437   1.141   2.226   0.514
 7846SOL    HW224438   1.292   2.167   0.527
 7847SOL     OW24439   6.240   1.391   4.225
 7847SOL    HW124440   6.279   1.469   4.275
 7847SOL    HW224441   6.222   1.418   4.131
 7848SOL     OW24442   2.917   4.266   0.841
 7848SOL    HW124443   2.953   4.283   0.749
 7848SOL    HW224444   2.819   4.246   0.835
 7849SOL     OW24445   5.883   3.504   4.765
 7849SOL    HW124446   5.857   3.408   4.750
 7849SOL    HW224447   5.921   3.514   4.857
 7850SOL     OW24448   6.738   1.536   3.745
 7850SOL    HW124449   6.702   1.520   3.653
 7850SOL    HW224450   6.816   1.598   3.740
 7851SOL     OW24451   0.936   2.840   1.802
 7851SOL    HW124452   0.860   2.901   1.779
 7851SOL    HW224453   0.903   2.745   1.799
 7852SOL     OW24454   2.684   1.020   0.093
 7852SOL    HW124455   2.640   0.935   0.122
 7852SOL    HW224456   2.783   1.011   0.106
 7853SOL     OW24457   4.595   2.823   1.721
 7853SOL    HW124458   4.605   2.917   1.752
 7853SOL    HW224459   4.684   2.787   1.694
 7854SOL     OW24460   4.184   2.473   6.263
 7854SOL    HW124461   4.213   2.428   6.179
 7854SOL    HW224462   4.087   2.497   6.256
 7855SOL     OW24463   4.699   6.079   4.169
 7855SOL    HW124464   4.794   6.058   4.194
 7855SOL    HW224465   4.668   6.158   4.220
 7856SOL     OW24466   1.240   5.082   5.428
 7856SOL    HW124467   1.221   5.033   5.513
 7856SOL    HW224468   1.173   5.057   5.359
 7857SOL     OW24469   4.843   3.876   0.636
 7857SOL    HW124470   4.792   3.961   0.650
 7857SOL    HW224471   4.857   3.830   0.724
 7858SOL     OW24472   6.718   5.721   4.565
 7858SOL    HW124473   6.744   5.681   4.653
 7858SOL    HW224474   6.718   5.821   4.572
 7859SOL     OW24475   4.656   3.298   6.971
 7859SOL    HW124476   4.603   3.275   6.890
 7859SOL    HW224477   4.739   3.347   6.944
 7860SOL     OW24478   3.955   1.399   3.980
 7860SOL    HW124479   3.926   1.366   3.891
 7860SOL    HW224480   3.923   1.336   4.051
 7861SOL     OW24481   2.640   5.724   2.200
 7861SOL    HW124482   2.730   5.705   2.239
 7861SOL    HW224483   2.651   5.765   2.109
 7862SOL     OW24484   2.729   5.456   2.103
 7862SOL    HW124485   2.687   5.534   2.150
 7862SOL    HW224486   2.657   5.404   2.055
 7863SOL     OW24487   0.407   4.255   3.461
 7863SOL    HW124488   0.492   4.279   3.509
 7863SOL    HW224489   0.428   4.236   3.365
 7864SOL     OW24490   1.683   5.817   6.491
 7864SOL    HW124491   1.753   5.746   6.487
 7864SOL    HW224492   1.726   5.907   6.495
 7865SOL     OW24493   6.105   5.765   3.948
 7865SOL    HW124494   6.194   5.782   3.991
 7865SOL    HW224495   6.115   5.767   3.849
 7866SOL     OW24496   2.366   0.320   4.954
 7866SOL    HW124497   2.269   0.299   4.969
 7866SOL    HW224498   2.415   0.238   4.928
 7867SOL     OW24499   5.690   6.994   3.638
 7867SOL    HW124500   5.730   6.965   3.551
 7867SOL    HW224501   5.712   6.926   3.709
 7868SOL     OW24502   3.772   5.441   0.965
 7868SOL    HW124503   3.871   5.439   0.977
 7868SOL    HW224504   3.745   5.373   0.897
 7869SOL     OW24505   5.025   4.945   5.754
 7869SOL    HW124506   5.068   4.895   5.679
 7869SOL    HW224507   4.991   4.880   5.822
 7870SOL     OW24508   4.765   0.143   4.986
 7870SOL    HW124509   4.726   0.149   5.077
 7870SOL    HW224510   4.814   0.227   4.965
 7871SOL     OW24511   5.724   1.798   2.035
 7871SOL    HW124512   5.690   1.737   1.963
 7871SOL    HW224513   5.802   1.756   2.081
 7872SOL     OW24514   1.600   4.698   2.653
 7872SOL    HW124515   1.601   4.658   2.561
 7872SOL    HW224516   1.571   4.629   2.719
 7873SOL     OW24517   6.006   1.168   0.484
 7873SOL    HW124518   5.917   1.145   0.522
 7873SOL    HW224519   6.015   1.267   0.475
 7874SOL     OW24520   5.435   2.702   1.215
 7874SOL    HW124521   5.456   2.716   1.312
 7874SOL    HW224522   5.520   2.688   1.165
 7875SOL     OW24523   3.715   3.494   0.173
 7875SOL    HW124524   3.708   3.573   0.111
 7875SOL    HW224525   3.791   3.509   0.237
 7876SOL     OW24526   0.886   0.341   3.392
 7876SOL    HW124527   0.954   0.290   3.444
 7876SOL    HW224528   0.841   0.280   3.326
 7877SOL     OW24529   6.907   1.825   3.044
 7877SOL    HW124530   6.814   1.823   3.081
 7877SOL    HW224531   6.905   1.863   2.952
 7878SOL     OW24532   4.947   3.751   3.585
 7878SOL    HW124533   4.984   3.692   3.512
 7878SOL    HW224534   4.913   3.836   3.544
 7879SOL     OW24535   3.132   4.938   3.232
 7879SOL    HW124536   3.223   4.924   3.192
 7879SOL    HW224537   3.119   5.035   3.250
 7880SOL     OW24538   2.332   3.766   0.924
 7880SOL    HW124539   2.293   3.739   0.836
 7880SOL    HW224540   2.431   3.781   0.914
 7881SOL     OW24541   5.119   4.444   4.374
 7881SOL    HW124542   5.025   4.467   4.349
 7881SOL    HW224543   5.120   4.362   4.430
 7882SOL     OW24544   2.360   3.848   1.665
 7882SOL    HW124545   2.435   3.914   1.663
 7882SOL    HW224546   2.282   3.884   1.614
 7883SOL     OW24547   0.905   0.371   5.905
 7883SOL    HW124548   0.986   0.356   5.848
 7883SOL    HW224549   0.933   0.393   5.998
 7884SOL     OW24550   1.089   4.073   4.060
 7884SOL    HW124551   0.991   4.087   4.068
 7884SOL    HW224552   1.120   4.012   4.133
 7885SOL     OW24553   6.182   5.411   1.034
 7885SOL    HW124554   6.148   5.505   1.033
 7885SOL    HW224555   6.253   5.402   1.104
 7886SOL     OW24556   4.230   5.942   0.541
 7886SOL    HW124557   4.328   5.925   0.530
 7886SOL    HW224558   4.211   5.970   0.635
 7887SOL     OW24559   3.640   2.091   0.271
 7887SOL    HW124560   3.643   2.182   0.229
 7887SOL    HW224561   3.556   2.044   0.244
 7888SOL     OW24562   4.987   0.331   3.799
 7888SOL    HW124563   5.007   0.402   3.866
 7888SOL    HW224564   4.908   0.278   3.828
 7889SOL     OW24565   1.276   5.558   1.395
 7889SOL    HW124566   1.245   5.524   1.306
 7889SOL    HW224567   1.322   5.646   1.383
 7890SOL     OW24568   1.832   3.660   2.162
 7890SOL    HW124569   1.903   3.687   2.097
 7890SOL    HW224570   1.849   3.706   2.250
 7891SOL     OW24571   2.410   4.873   2.523
 7891SOL    HW124572   2.441   4.963   2.553
 7891SOL    HW224573   2.313   4.878   2.498
 7892SOL     OW24574   1.904   2.458   5.030
 7892SOL    HW124575   1.832   2.468   5.099
 7892SOL    HW224576   1.985   2.418   5.072
 7893SOL     OW24577   5.783   6.671   1.298
 7893SOL    HW124578   5.756   6.595   1.239
 7893SOL    HW224579   5.757   6.758   1.255
 7894SOL     OW24580   2.641   6.281   2.274
 7894SOL    HW124581   2.732   6.248   2.299
 7894SOL    HW224582   2.649   6.348   2.200
 7895SOL     OW24583   6.319   1.348   5.095
 7895SOL    HW124584   6.386   1.274   5.106
 7895SOL    HW224585   6.290   1.381   5.184
 7896SOL     OW24586   4.791   4.149   5.795
 7896SOL    HW124587   4.786   4.217   5.867
 7896SOL    HW224588   4.712   4.158   5.735
 7897SOL     OW24589   2.428   3.664   6.045
 7897SOL    HW124590   2.381   3.716   5.974
 7897SOL    HW224591   2.393   3.690   6.135
 7898SOL     OW24592   4.746   2.213   3.607
 7898SOL    HW124593   4.706   2.290   3.658
 7898SOL    HW224594   4.822   2.174   3.660
 7899SOL     OW24595   6.529   1.916   1.156
 7899SOL    HW124596   6.465   1.945   1.228
 7899SOL    HW224597   6.557   1.996   1.103
 7900SOL     OW24598   1.660   5.143   1.084
 7900SOL    HW124599   1.738   5.159   1.145
 7900SOL    HW224600   1.661   5.048   1.052
 7901SOL     OW24601   5.599   0.232   5.827
 7901SOL    HW124602   5.582   0.320   5.782
 7901SOL    HW224603   5.680   0.239   5.885
 7902SOL     OW24604   4.835   4.950   1.703
 7902SOL    HW124605   4.919   4.910   1.738
 7902SOL    HW224606   4.768   4.878   1.685
 7903SOL     OW24607   5.730   2.047   0.127
 7903SOL    HW124608   5.638   2.086   0.130
 7903SOL    HW224609   5.795   2.111   0.170
 7904SOL     OW24610   6.509   1.083   2.605
 7904SOL    HW124611   6.423   1.035   2.622
 7904SOL    HW224612   6.580   1.017   2.581
 7905SOL     OW24613   4.825   1.650   0.940
 7905SOL    HW124614   4.765   1.693   0.872
 7905SOL    HW224615   4.896   1.714   0.967
 7906SOL     OW24616   6.728   5.936   6.659
 7906SOL    HW124617   6.697   5.881   6.736
 7906SOL    HW224618   6.752   6.028   6.691
 7907SOL     OW24619   6.371   2.229   4.601
 7907SOL    HW124620   6.274   2.208   4.586
 7907SOL    HW224621   6.387   2.326   4.586
 7908SOL     OW24622   1.190   0.949   4.076
 7908SOL    HW124623   1.262   0.902   4.027
 7908SOL    HW224624   1.120   0.884   4.105
 7909SOL     OW24625   4.951   3.667   4.745
 7909SOL    HW124626   5.039   3.643   4.786
 7909SOL    HW224627   4.876   3.637   4.805
 7910SOL     OW24628   3.863   2.845   5.159
 7910SOL    HW124629   3.926   2.858   5.083
 7910SOL    HW224630   3.771   2.826   5.124
 7911SOL     OW24631   6.933   4.717   0.794
 7911SOL    HW124632   6.924   4.719   0.694
 7911SOL    HW224633   6.853   4.672   0.834
 7912SOL     OW24634   6.853   5.464   6.583
 7912SOL    HW124635   6.887   5.532   6.647
 7912SOL    HW224636   6.765   5.494   6.545
 7913SOL     OW24637   0.415   5.468   6.290
 7913SOL    HW124638   0.414   5.520   6.205
 7913SOL    HW224639   0.348   5.394   6.285
 7914SOL     OW24640   6.791   4.940   0.514
 7914SOL    HW124641   6.770   5.022   0.568
 7914SOL    HW224642   6.806   4.967   0.419
 7915SOL     OW24643   4.990   2.209   2.941
 7915SOL    HW124644   4.929   2.287   2.950
 7915SOL    HW224645   5.047   2.221   2.860
 7916SOL     OW24646   5.396   3.799   5.247
 7916SOL    HW124647   5.347   3.762   5.169
 7916SOL    HW224648   5.465   3.733   5.279
 7917SOL     OW24649   3.971   3.061   3.827
 7917SOL    HW124650   4.011   3.152   3.838
 7917SOL    HW224651   3.935   3.029   3.915
 7918SOL     OW24652   5.954   1.603   1.430
 7918SOL    HW124653   5.934   1.700   1.421
 7918SOL    HW224654   5.868   1.552   1.439
 7919SOL     OW24655   6.585   4.305   2.796
 7919SOL    HW124656   6.539   4.384   2.836
 7919SOL    HW224657   6.550   4.221   2.838
 7920SOL     OW24658   0.018   4.636   1.427
 7920SOL    HW124659   6.949   4.644   1.470
 7920SOL    HW224660   0.032   4.542   1.396
 7921SOL     OW24661   3.368   6.494   1.133
 7921SOL    HW124662   3.427   6.463   1.059
 7921SOL    HW224663   3.404   6.461   1.220
 7922SOL     OW24664   6.742   5.609   0.074
 7922SOL    HW124665   6.665   5.547   0.089
 7922SOL    HW224666   6.773   5.646   0.162
 7923SOL     OW24667   1.677   1.278   3.063
 7923SOL    HW124668   1.587   1.267   3.105
 7923SOL    HW224669   1.742   1.215   3.106
 7924SOL     OW24670   2.826   6.463   3.706
 7924SOL    HW124671   2.811   6.547   3.757
 7924SOL    HW224672   2.892   6.479   3.633
 7925SOL     OW24673   6.762   1.842   6.321
 7925SOL    HW124674   6.746   1.923   6.377
 7925SOL    HW224675   6.748   1.760   6.376
 7926SOL     OW24676   3.308   0.542   3.680
 7926SOL    HW124677   3.305   0.471   3.750
 7926SOL    HW224678   3.254   0.621   3.709
 7927SOL     OW24679   4.159   5.286   4.840
 7927SOL    HW124680   4.123   5.331   4.759
 7927SOL    HW224681   4.168   5.188   4.823
 7928SOL     OW24682   1.317   4.702   3.177
 7928SOL    HW124683   1.258   4.650   3.239
 7928SOL    HW224684   1.376   4.763   3.230
 7929SOL     OW24685   4.130   3.432   4.608
 7929SOL    HW124686   4.153   3.373   4.530
 7929SOL    HW224687   4.138   3.380   4.693
 7930SOL     OW24688   4.879   5.955   3.539
 7930SOL    HW124689   4.786   5.920   3.539
 7930SOL    HW224690   4.944   5.880   3.550
 7931SOL     OW24691   1.935   2.637   6.876
 7931SOL    HW124692   2.022   2.650   6.922
 7931SOL    HW224693   1.950   2.630   6.778
 7932SOL     OW24694   2.527   0.609   6.964
 7932SOL    HW124695   2.487   0.532   6.915
 7932SOL    HW224696   2.591   0.658   6.904
 7933SOL     OW24697   0.588   6.838   6.793
 7933SOL    HW124698   0.619   6.835   6.888
 7933SOL    HW224699   0.526   6.916   6.781
 7934SOL     OW24700   2.312   3.309   0.450
 7934SOL    HW124701   2.377   3.300   0.375
 7934SOL    HW224702   2.246   3.234   0.446
 7935SOL     OW24703   4.894   5.954   6.980
 7935SOL    HW124704   4.864   5.864   7.012
 7935SOL    HW224705   4.952   5.996   0.029
 7936SOL     OW24706   3.535   5.978   3.161
 7936SOL    HW124707   3.451   5.924   3.164
 7936SOL    HW224708   3.592   5.946   3.085
 7937SOL     OW24709   5.119   0.035   4.704
 7937SOL    HW124710   5.128   0.105   4.634
 7937SOL    HW224711   5.022   0.022   4.727
 7938SOL     OW24712   4.680   4.853   4.927
 7938SOL    HW124713   4.691   4.859   4.828
 7938SOL    HW224714   4.712   4.938   4.969
 7939SOL     OW24715   0.838   1.248   6.006
 7939SOL    HW124716   0.890   1.269   6.089
 7939SOL    HW224717   0.769   1.178   6.026
 7940SOL     OW24718   2.526   5.052   2.005
 7940SOL    HW124719   2.569   4.971   1.964
 7940SOL    HW224720   2.505   5.033   2.101
 7941SOL     OW24721   6.510   0.513   0.791
 7941SOL    HW124722   6.606   0.541   0.781
 7941SOL    HW224723   6.477   0.538   0.882
 7942SOL     OW24724   0.351   6.491   2.096
 7942SOL    HW124725   0.304   6.536   2.020
 7942SOL    HW224726   0.287   6.431   2.143
 7943SOL     OW24727   5.850   2.151   1.061
 7943SOL    HW124728   5.761   2.159   1.106
 7943SOL    HW224729   5.857   2.218   0.987
 7944SOL     OW24730   6.976   3.398   1.388
 7944SOL    HW124731   6.936   3.412   1.297
 7944SOL    HW224732   0.054   3.395   1.380
 7945SOL     OW24733   5.115   0.123   2.731
 7945SOL    HW124734   5.081   0.163   2.816
 7945SOL    HW224735   5.064   0.161   2.654
 7946SOL     OW24736   2.211   1.694   6.109
 7946SOL    HW124737   2.186   1.648   6.194
 7946SOL    HW224738   2.250   1.784   6.129
 7947SOL     OW24739   3.908   2.991   6.623
 7947SOL    HW124740   3.995   3.039   6.617
 7947SOL    HW224741   3.896   2.932   6.543
 7948SOL     OW24742   6.801   6.805   0.966
 7948SOL    HW124743   6.882   6.820   1.022
 7948SOL    HW224744   6.814   6.722   0.911
 7949SOL     OW24745   5.005   4.925   4.440
 7949SOL    HW124746   4.991   4.831   4.472
 7949SOL    HW224747   5.016   4.926   4.340
 7950SOL     OW24748   4.651   4.944   3.719
 7950SOL    HW124749   4.735   4.891   3.708
 7950SOL    HW224750   4.626   4.985   3.632
 7951SOL     OW24751   2.643   3.525   1.083
 7951SOL    HW124752   2.619   3.615   1.118
 7951SOL    HW224753   2.620   3.519   0.986
 7952SOL     OW24754   6.663   3.113   6.725
 7952SOL    HW124755   6.613   3.036   6.764
 7952SOL    HW224756   6.635   3.127   6.630
 7953SOL     OW24757   2.093   2.522   3.213
 7953SOL    HW124758   2.136   2.434   3.193
 7953SOL    HW224759   1.994   2.511   3.219
 7954SOL     OW24760   4.326   5.431   4.395
 7954SOL    HW124761   4.369   5.341   4.395
 7954SOL    HW224762   4.296   5.455   4.303
 7955SOL     OW24763   0.043   6.339   6.650
 7955SOL    HW124764   0.015   6.422   6.602
 7955SOL    HW224765   0.121   6.358   6.709
 7956SOL     OW24766   0.611   6.104   2.983
 7956SOL    HW124767   0.529   6.095   3.041
 7956SOL    HW224768   0.584   6.140   2.894
 7957SOL     OW24769   1.529   1.762   0.455
 7957SOL    HW124770   1.451   1.725   0.506
 7957SOL    HW224771   1.510   1.757   0.357
 7958SOL     OW24772   3.577   5.757   4.454
 7958SOL    HW124773   3.616   5.766   4.546
 7958SOL    HW224774   3.578   5.845   4.408
 7959SOL     OW24775   5.122   4.843   0.404
 7959SOL    HW124776   5.163   4.757   0.373
 7959SOL    HW224777   5.023   4.840   0.389
 7960SOL     OW24778   3.407   1.729   1.429
 7960SOL    HW124779   3.351   1.772   1.359
 7960SOL    HW224780   3.482   1.679   1.386
 7961SOL     OW24781   2.036   6.319   6.430
 7961SOL    HW124782   2.134   6.338   6.426
 7961SOL    HW224783   1.988   6.377   6.363
 7962SOL     OW24784   2.281   0.828   1.073
 7962SOL    HW124785   2.195   0.878   1.080
 7962SOL    HW224786   2.265   0.731   1.091
 7963SOL     OW24787   0.076   1.213   5.053
 7963SOL    HW124788   0.113   1.145   5.115
 7963SOL    HW224789   7.001   1.231   5.077
 7964SOL     OW24790   5.516   4.918   3.775
 7964SOL    HW124791   5.503   4.834   3.723
 7964SOL    HW224792   5.613   4.941   3.778
 7965SOL     OW24793   4.134   2.669   6.935
 7965SOL    HW124794   4.230   2.643   6.943
 7965SOL    HW224795   4.121   2.762   6.970
 7966SOL     OW24796   0.876   3.914   4.726
 7966SOL    HW124797   0.969   3.908   4.762
 7966SOL    HW224798   0.857   3.834   4.670
 7967SOL     OW24799   3.159   6.130   3.538
 7967SOL    HW124800   3.218   6.078   3.600
 7967SOL    HW224801   3.067   6.136   3.577
 7968SOL     OW24802   2.392   2.697   3.442
 7968SOL    HW124803   2.434   2.782   3.410
 7968SOL    HW224804   2.293   2.701   3.427
 7969SOL     OW24805   3.738   6.806   2.300
 7969SOL    HW124806   3.770   6.831   2.209
 7969SOL    HW224807   3.739   6.707   2.311
 7970SOL     OW24808   0.108   3.578   2.820
 7970SOL    HW124809   0.185   3.517   2.839
 7970SOL    HW224810   0.109   3.604   2.724
 7971SOL     OW24811   2.683   0.949   1.846
 7971SOL    HW124812   2.690   1.049   1.844
 7971SOL    HW224813   2.661   0.915   1.754
 7972SOL     OW24814   6.420   4.426   1.157
 7972SOL    HW124815   6.516   4.432   1.132
 7972SOL    HW224816   6.364   4.468   1.086
 7973SOL     OW24817   5.195   3.699   3.689
 7973SOL    HW124818   5.198   3.726   3.786
 7973SOL    HW224819   5.110   3.735   3.648
 7974SOL     OW24820   6.014   0.485   4.652
 7974SOL    HW124821   5.986   0.581   4.647
 7974SOL    HW224822   5.946   0.428   4.605
 7975SOL     OW24823   4.814   0.759   4.246
 7975SOL    HW124824   4.888   0.711   4.294
 7975SOL    HW224825   4.776   0.699   4.176
 7976SOL     OW24826   0.792   6.479   5.272
 7976SOL    HW124827   0.751   6.451   5.185
 7976SOL    HW224828   0.756   6.568   5.299
 7977SOL     OW24829   4.426   5.927   2.533
 7977SOL    HW124830   4.473   6.004   2.491
 7977SOL    HW224831   4.457   5.842   2.492
 7978SOL     OW24832   4.952   4.162   6.316
 7978SOL    HW124833   4.899   4.078   6.302
 7978SOL    HW224834   4.910   4.236   6.263
 7979SOL     OW24835   3.527   0.198   4.646
 7979SOL    HW124836   3.565   0.161   4.731
 7979SOL    HW224837   3.492   0.290   4.663
 7980SOL     OW24838   3.835   5.773   0.456
 7980SOL    HW124839   3.900   5.711   0.500
 7980SOL    HW224840   3.758   5.721   0.420
 7981SOL     OW24841   0.854   5.230   1.525
 7981SOL    HW124842   0.885   5.313   1.571
 7981SOL    HW224843   0.756   5.238   1.505
 7982SOL     OW24844   0.048   2.475   0.519
 7982SOL    HW124845   0.032   2.377   0.506
 7982SOL    HW224846   0.145   2.492   0.534
 7983SOL     OW24847   5.643   1.690   3.335
 7983SOL    HW124848   5.609   1.784   3.330
 7983SOL    HW224849   5.595   1.641   3.407
 7984SOL     OW24850   0.865   1.971   1.934
 7984SOL    HW124851   0.861   1.992   1.836
 7984SOL    HW224852   0.775   1.986   1.975
 7985SOL     OW24853   1.818   0.263   2.709
 7985SOL    HW124854   1.727   0.248   2.670
 7985SOL    HW224855   1.820   0.351   2.757
 7986SOL     OW24856   3.639   1.502   6.959
 7986SOL    HW124857   3.669   1.417   7.003
 7986SOL    HW224858   3.627   1.573   0.008
 7987SOL     OW24859   0.377   3.643   5.705
 7987SOL    HW124860   0.455   3.626   5.765
 7987SOL    HW224861   0.410   3.672   5.615
 7988SOL     OW24862   2.653   2.372   4.703
 7988SOL    HW124863   2.600   2.445   4.747
 7988SOL    HW224864   2.645   2.380   4.604
 7989SOL     OW24865   3.408   2.892   5.250
 7989SOL    HW124866   3.483   2.902   5.315
 7989SOL    HW224867   3.347   2.818   5.280
 7990SOL     OW24868   1.237   3.577   3.570
 7990SOL    HW124869   1.321   3.584   3.516
 7990SOL    HW224870   1.192   3.666   3.573
 7991SOL     OW24871   6.981   2.596   6.210
 7991SOL    HW124872   7.012   2.503   6.188
 7991SOL    HW224873   6.952   2.599   6.306
 7992SOL     OW24874   1.052   6.330   1.008
 7992SOL    HW124875   1.129   6.388   0.981
 7992SOL    HW224876   1.087   6.241   1.040
 7993SOL     OW24877   2.159   5.593   7.012
 7993SOL    HW124878   2.078   5.610   6.957
 7993SOL    HW224879   2.240   5.591   6.953
 7994SOL     OW24880   4.708   0.532   3.666
 7994SOL    HW124881   4.760   0.499   3.587
 7994SOL    HW224882   4.745   0.620   3.696
 7995SOL     OW24883   3.829   5.617   4.012
 7995SOL    HW124884   3.799   5.540   4.069
 7995SOL    HW224885   3.919   5.648   4.043
 7996SOL     OW24886   3.548   6.770   4.012
 7996SOL    HW124887   3.587   6.679   4.000
 7996SOL    HW224888   3.613   6.839   3.981
 7997SOL     OW24889   6.483   1.712   0.975
 7997SOL    HW124890   6.519   1.783   1.036
 7997SOL    HW224891   6.465   1.629   1.027
 7998SOL     OW24892   4.860   5.111   0.282
 7998SOL    HW124893   4.770   5.143   0.251
 7998SOL    HW224894   4.924   5.188   0.280
 7999SOL     OW24895   1.142   0.263   5.225
 7999SOL    HW124896   1.083   0.328   5.272
 7999SOL    HW224897   1.224   0.309   5.193
 8000SOL     OW24898   5.512   0.382   6.270
 8000SOL    HW124899   5.600   0.346   6.301
 8000SOL    HW224900   5.439   0.343   6.326
 8001SOL     OW24901   2.601   6.096   1.994
 8001SOL    HW124902   2.669   6.159   2.031
 8001SOL    HW224903   2.524   6.089   2.058
 8002SOL     OW24904   0.011   3.389   5.528
 8002SOL    HW124905   6.987   3.367   5.615
 8002SOL    HW224906   0.106   3.357   5.530
 8003SOL     OW24907   2.898   4.832   2.769
 8003SOL    HW124908   2.983   4.854   2.722
 8003SOL    HW224909   2.824   4.822   2.702
 8004SOL     OW24910   2.004   4.692   3.215
 8004SOL    HW124911   1.928   4.748   3.182
 8004SOL    HW224912   2.074   4.751   3.254
 8005SOL     OW24913   3.315   1.105   2.040
 8005SOL    HW124914   3.331   1.023   1.985
 8005SOL    HW224915   3.389   1.171   2.023
 8006SOL     OW24916   2.425   5.994   0.146
 8006SOL    HW124917   2.393   6.062   0.081
 8006SOL    HW224918   2.521   6.011   0.168
 8007SOL     OW24919   0.826   0.357   3.915
 8007SOL    HW124920   0.762   0.293   3.957
 8007SOL    HW224921   0.914   0.312   3.899
 8008SOL     OW24922   5.148   6.630   6.293
 8008SOL    HW124923   5.063   6.606   6.247
 8008SOL    HW224924   5.187   6.712   6.251
 8009SOL     OW24925   6.123   0.319   2.676
 8009SOL    HW124926   6.212   0.273   2.674
 8009SOL    HW224927   6.052   0.256   2.647
 8010SOL     OW24928   2.324   1.578   6.761
 8010SOL    HW124929   2.285   1.670   6.763
 8010SOL    HW224930   2.332   1.543   6.854
 8011SOL     OW24931   2.230   1.957   1.402
 8011SOL    HW124932   2.210   2.028   1.335
 8011SOL    HW224933   2.273   1.879   1.356
 8012SOL     OW24934   1.714   6.228   0.746
 8012SOL    HW124935   1.707   6.179   0.660
 8012SOL    HW224936   1.767   6.312   0.734
 8013SOL     OW24937   6.733   4.990   4.592
 8013SOL    HW124938   6.712   4.895   4.571
 8013SOL    HW224939   6.774   4.996   4.683
 8014SOL     OW24940   1.608   5.917   6.266
 8014SOL    HW124941   1.533   5.887   6.206
 8014SOL    HW224942   1.594   5.880   6.358
 8015SOL     OW24943   3.051   2.253   1.076
 8015SOL    HW124944   3.045   2.154   1.080
 8015SOL    HW224945   2.959   2.292   1.064
 8016SOL     OW24946   4.647   0.490   0.364
 8016SOL    HW124947   4.656   0.391   0.363
 8016SOL    HW224948   4.620   0.520   0.456
 8017SOL     OW24949   0.515   4.615   5.591
 8017SOL    HW124950   0.426   4.644   5.626
 8017SOL    HW224951   0.585   4.631   5.661
 8018SOL     OW24952   5.029   1.891   5.813
 8018SOL    HW124953   5.030   1.817   5.746
 8018SOL    HW224954   4.936   1.926   5.822
 8019SOL     OW24955   1.867   4.115   0.366
 8019SOL    HW124956   1.813   4.179   0.312
 8019SOL    HW224957   1.806   4.053   0.415
 8020SOL     OW24958   5.694   6.092   6.594
 8020SOL    HW124959   5.616   6.123   6.649
 8020SOL    HW224960   5.774   6.147   6.618
 8021SOL     OW24961   0.867   1.236   1.715
 8021SOL    HW124962   0.910   1.147   1.734
 8021SOL    HW224963   0.882   1.297   1.793
 8022SOL     OW24964   3.964   0.940   2.873
 8022SOL    HW124965   3.973   1.028   2.827
 8022SOL    HW224966   4.053   0.913   2.911
 8023SOL     OW24967   6.072   6.496   3.078
 8023SOL    HW124968   5.997   6.433   3.099
 8023SOL    HW224969   6.062   6.529   2.984
 8024SOL     OW24970   3.563   5.356   6.632
 8024SOL    HW124971   3.508   5.424   6.584
 8024SOL    HW224972   3.622   5.400   6.699
 8025SOL     OW24973   3.632   6.271   6.159
 8025SOL    HW124974   3.731   6.258   6.155
 8025SOL    HW224975   3.590   6.198   6.213
 8026SOL     OW24976   0.281   4.082   0.061
 8026SOL    HW124977   0.189   4.064   0.028
 8026SOL    HW224978   0.276   4.138   0.143
 8027SOL     OW24979   4.739   2.124   5.263
 8027SOL    HW124980   4.775   2.090   5.177
 8027SOL    HW224981   4.805   2.106   5.336
 8028SOL     OW24982   4.013   5.107   5.860
 8028SOL    HW124983   3.934   5.146   5.813
 8028SOL    HW224984   3.995   5.105   5.959
 8029SOL     OW24985   5.307   4.343   6.428
 8029SOL    HW124986   5.365   4.376   6.354
 8029SOL    HW224987   5.279   4.420   6.486
 8030SOL     OW24988   5.466   4.299   5.916
 8030SOL    HW124989   5.473   4.395   5.940
 8030SOL    HW224990   5.373   4.279   5.884
 8031SOL     OW24991   4.799   5.340   2.326
 8031SOL    HW124992   4.769   5.346   2.421
 8031SOL    HW224993   4.848   5.424   2.301
 8032SOL     OW24994   6.129   3.832   4.770
 8032SOL    HW124995   6.141   3.844   4.869
 8032SOL    HW224996   6.206   3.779   4.734
 8033SOL     OW24997   5.569   2.677   7.012
 8033SOL    HW124998   5.487   2.637   0.033
 8033SOL    HW224999   5.649   2.624   0.018
 8034SOL     OW25000   6.518   0.484   4.981
 8034SOL    HW125001   6.570   0.428   5.046
 8034SOL    HW225002   6.551   0.578   4.983
 8035SOL     OW25003   5.831   6.518   5.456
 8035SOL    HW125004   5.736   6.494   5.477
 8035SOL    HW225005   5.871   6.568   5.532
 8036SOL     OW25006   1.612   3.671   1.578
 8036SOL    HW125007   1.665   3.700   1.658
 8036SOL    HW225008   1.515   3.680   1.596
 8037SOL     OW25009   1.610   3.322   1.200
 8037SOL    HW125010   1.692   3.295   1.250
 8037SOL    HW225011   1.562   3.240   1.169
 8038SOL     OW25012   5.688   2.132   3.214
 8038SOL    HW125013   5.633   2.051   3.236
 8038SOL    HW225014   5.785   2.112   3.228
 8039SOL     OW25015   1.373   6.942   3.199
 8039SOL    HW125016   1.317   6.991   3.266
 8039SOL    HW225017   1.458   6.991   3.184
 8040SOL     OW25018   0.724   5.263   0.945
 8040SOL    HW125019   0.757   5.211   1.024
 8040SOL    HW225020   0.636   5.225   0.915
 8041SOL     OW25021   3.598   1.549   1.370
 8041SOL    HW125022   3.566   1.478   1.307
 8041SOL    HW225023   3.694   1.531   1.394
 8042SOL     OW25024   3.574   3.020   1.958
 8042SOL    HW125025   3.559   3.052   2.051
 8042SOL    HW225026   3.665   2.977   1.951
 8043SOL     OW25027   3.020   0.589   0.491
 8043SOL    HW125028   2.986   0.501   0.457
 8043SOL    HW225029   2.944   0.653   0.499
 8044SOL     OW25030   2.993   3.135   1.137
 8044SOL    HW125031   3.051   3.183   1.203
 8044SOL    HW225032   3.033   3.046   1.115
 8045SOL     OW25033   6.091   1.404   2.725
 8045SOL    HW125034   6.058   1.322   2.773
 8045SOL    HW225035   6.071   1.395   2.627
 8046SOL     OW25036   6.097   4.483   5.954
 8046SOL    HW125037   6.131   4.396   5.919
 8046SOL    HW225038   6.029   4.466   6.026
 8047SOL     OW25039   3.621   5.203   4.908
 8047SOL    HW125040   3.592   5.108   4.921
 8047SOL    HW225041   3.720   5.205   4.891
 8048SOL     OW25042   5.394   1.074   5.416
 8048SOL    HW125043   5.368   1.131   5.339
 8048SOL    HW225044   5.315   1.060   5.476
 8049SOL     OW25045   0.525   6.691   1.457
 8049SOL    HW125046   0.563   6.738   1.536
 8049SOL    HW225047   0.553   6.738   1.373
 8050SOL     OW25048   1.127   3.267   1.262
 8050SOL    HW125049   1.166   3.299   1.348
 8050SOL    HW225050   1.148   3.170   1.250
 8051SOL     OW25051   5.222   7.014   3.538
 8051SOL    HW125052   5.185   6.982   3.625
 8051SOL    HW225053   5.150   7.016   3.469
 8052SOL     OW25054   3.448   1.732   2.289
 8052SOL    HW125055   3.473   1.815   2.338
 8052SOL    HW225056   3.377   1.753   2.222
 8053SOL     OW25057   4.024   3.664   2.832
 8053SOL    HW125058   4.113   3.710   2.829
 8053SOL    HW225059   4.035   3.576   2.879
 8054SOL     OW25060   4.433   6.605   4.879
 8054SOL    HW125061   4.407   6.658   4.960
 8054SOL    HW225062   4.491   6.528   4.907
 8055SOL     OW25063   0.577   0.624   6.038
 8055SOL    HW125064   0.546   0.540   6.083
 8055SOL    HW225065   0.666   0.650   6.075
 8056SOL     OW25066   4.343   1.316   3.105
 8056SOL    HW125067   4.306   1.237   3.055
 8056SOL    HW225068   4.359   1.391   3.040
 8057SOL     OW25069   2.820   0.606   2.618
 8057SOL    HW125070   2.723   0.591   2.597
 8057SOL    HW225071   2.876   0.550   2.557
 8058SOL     OW25072   3.081   0.073   2.862
 8058SOL    HW125073   3.101   7.012   2.915
 8058SOL    HW225074   3.000   0.119   2.900
 8059SOL     OW25075   3.791   2.080   4.649
 8059SOL    HW125076   3.840   2.011   4.597
 8059SOL    HW225077   3.853   2.124   4.715
 8060SOL     OW25078   0.718   1.345   4.965
 8060SOL    HW125079   0.686   1.426   5.015
 8060SOL    HW225080   0.643   1.282   4.952
 8061SOL     OW25081   6.890   5.766   2.152
 8061SOL    HW125082   6.803   5.720   2.172
 8061SOL    HW225083   6.892   5.792   2.055
 8062SOL     OW25084   1.695   4.296   4.430
 8062SOL    HW125085   1.781   4.256   4.461
 8062SOL    HW225086   1.713   4.384   4.385
 8063SOL     OW25087   2.302   3.657   6.899
 8063SOL    HW125088   2.310   3.664   6.800
 8063SOL    HW225089   2.241   3.580   6.922
 8064SOL     OW25090   0.251   4.703   0.066
 8064SOL    HW125091   0.179   4.652   0.020
 8064SOL    HW225092   0.247   4.685   0.164
 8065SOL     OW25093   4.226   7.020   4.337
 8065SOL    HW125094   4.137   0.021   4.376
 8065SOL    HW225095   4.298   0.038   4.394
 8066SOL     OW25096   1.782   0.878   7.011
 8066SOL    HW125097   1.788   0.804   0.056
 8066SOL    HW225098   1.829   0.851   6.927
 8067SOL     OW25099   4.037   3.349   1.712
 8067SOL    HW125100   4.098   3.428   1.707
 8067SOL    HW225101   4.028   3.319   1.807
 8068SOL     OW25102   6.399   5.861   5.031
 8068SOL    HW125103   6.341   5.792   4.989
 8068SOL    HW225104   6.467   5.893   4.965
 8069SOL     OW25105   2.529   6.054   1.526
 8069SOL    HW125106   2.614   6.021   1.568
 8069SOL    HW225107   2.503   6.141   1.568
 8070SOL     OW25108   2.941   5.265   1.291
 8070SOL    HW125109   2.917   5.289   1.385
 8070SOL    HW225110   2.863   5.221   1.247
 8071SOL     OW25111   4.300   6.794   5.020
 8071SOL    HW125112   4.213   6.755   4.988
 8071SOL    HW225113   4.298   6.805   5.119
 8072SOL     OW25114   4.433   1.255   0.304
 8072SOL    HW125115   4.519   1.204   0.298
 8072SOL    HW225116   4.415   1.302   0.218
 8073SOL     OW25117   4.824   0.490   6.908
 8073SOL    HW125118   4.896   0.421   6.917
 8073SOL    HW225119   4.771   0.473   6.825
 8074SOL     OW25120   3.146   3.195   0.501
 8074SOL    HW125121   3.116   3.250   0.579
 8074SOL    HW225122   3.215   3.246   0.449
 8075SOL     OW25123   6.743   1.245   1.485
 8075SOL    HW125124   6.819   1.205   1.434
 8075SOL    HW225125   6.759   1.232   1.583
 8076SOL     OW25126   4.963   2.332   5.320
 8076SOL    HW125127   5.041   2.382   5.284
 8076SOL    HW225128   4.894   2.322   5.248
 8077SOL     OW25129   0.686   6.785   1.672
 8077SOL    HW125130   0.752   6.823   1.609
 8077SOL    HW225131   0.715   6.693   1.700
 8078SOL     OW25132   6.185   1.552   0.328
 8078SOL    HW125133   6.260   1.515   0.274
 8078SOL    HW225134   6.221   1.603   0.406
 8079SOL     OW25135   6.276   2.058   2.907
 8079SOL    HW125136   6.208   2.096   2.970
 8079SOL    HW225137   6.354   2.120   2.902
 8080SOL     OW25138   2.189   3.763   0.677
 8080SOL    HW125139   2.264   3.796   0.619
 8080SOL    HW225140   2.126   3.838   0.696
 8081SOL     OW25141   5.633   1.222   5.244
 8081SOL    HW125142   5.591   1.176   5.166
 8081SOL    HW225143   5.646   1.155   5.318
 8082SOL     OW25144   5.952   2.377   2.853
 8082SOL    HW125145   5.983   2.464   2.815
 8082SOL    HW225146   5.888   2.334   2.790
 8083SOL     OW25147   4.904   3.289   2.477
 8083SOL    HW125148   5.003   3.276   2.485
 8083SOL    HW225149   4.858   3.204   2.504
 8084SOL     OW25150   6.601   6.060   1.279
 8084SOL    HW125151   6.624   6.152   1.309
 8084SOL    HW225152   6.680   6.020   1.233
 8085SOL     OW25153   5.789   6.896   1.129
 8085SOL    HW125154   5.856   6.890   1.055
 8085SOL    HW225155   5.769   6.992   1.148
 8086SOL     OW25156   4.040   0.305   4.054
 8086SOL    HW125157   4.058   0.207   4.064
 8086SOL    HW225158   4.015   0.324   3.959
 8087SOL     OW25159   2.803   2.344   1.098
 8087SOL    HW125160   2.714   2.338   1.053
 8087SOL    HW225161   2.819   2.439   1.125
 8088SOL     OW25162   6.087   1.401   1.799
 8088SOL    HW125163   6.126   1.433   1.713
 8088SOL    HW225164   6.151   1.417   1.874
 8089SOL     OW25165   5.228   2.855   0.013
 8089SOL    HW125166   5.151   2.874   6.973
 8089SOL    HW225167   5.220   2.763   0.049
 8090SOL     OW25168   5.115   2.010   6.434
 8090SOL    HW125169   5.075   1.949   6.365
 8090SOL    HW225170   5.204   1.975   6.461
 8091SOL     OW25171   3.460   4.471   6.881
 8091SOL    HW125172   3.421   4.525   6.807
 8091SOL    HW225173   3.556   4.452   6.861
 8092SOL     OW25174   1.191   1.286   4.561
 8092SOL    HW125175   1.148   1.293   4.472
 8092SOL    HW225176   1.121   1.285   4.633
 8093SOL     OW25177   6.438   5.666   1.364
 8093SOL    HW125178   6.508   5.706   1.423
 8093SOL    HW225179   6.385   5.600   1.416
 8094SOL     OW25180   1.878   4.473   6.238
 8094SOL    HW125181   1.978   4.478   6.232
 8094SOL    HW225182   1.852   4.451   6.332
 8095SOL     OW25183   6.121   3.737   4.398
 8095SOL    HW125184   6.055   3.706   4.465
 8095SOL    HW225185   6.121   3.675   4.320
 8096SOL     OW25186   2.655   5.762   3.317
 8096SOL    HW125187   2.650   5.852   3.361
 8096SOL    HW225188   2.576   5.750   3.258
 8097SOL     OW25189   4.732   0.213   3.474
 8097SOL    HW125190   4.744   0.311   3.462
 8097SOL    HW225191   4.673   0.177   3.402
 8098SOL     OW25192   2.398   5.922   4.223
 8098SOL    HW125193   2.382   5.878   4.135
 8098SOL    HW225194   2.321   5.901   4.284
 8099SOL     OW25195   6.485   0.344   4.050
 8099SOL    HW125196   6.471   0.258   4.002
 8099SOL    HW225197   6.545   0.403   3.995
 8100SOL     OW25198   0.270   6.498   0.266
 8100SOL    HW125199   0.267   6.484   0.167
 8100SOL    HW225200   0.294   6.412   0.311
 8101SOL     OW25201   1.603   0.480   4.989
 8101SOL    HW125202   1.648   0.553   5.040
 8101SOL    HW225203   1.671   0.427   4.939
 8102SOL     OW25204   0.986   5.432   6.378
 8102SOL    HW125205   0.957   5.349   6.331
 8102SOL    HW225206   0.921   5.506   6.359
 8103SOL     OW25207   4.473   1.382   1.720
 8103SOL    HW125208   4.571   1.373   1.734
 8103SOL    HW225209   4.423   1.329   1.788
 8104SOL     OW25210   4.190   6.989   5.976
 8104SOL    HW125211   4.099   0.008   5.970
 8104SOL    HW225212   4.182   6.890   5.988
 8105SOL     OW25213   2.646   2.366   3.613
 8105SOL    HW125214   2.720   2.302   3.590
 8105SOL    HW225215   2.617   2.415   3.531
 8106SOL     OW25216   1.395   4.995   3.748
 8106SOL    HW125217   1.470   4.931   3.733
 8106SOL    HW225218   1.422   5.063   3.816
 8107SOL     OW25219   2.246   6.460   5.844
 8107SOL    HW125220   2.270   6.369   5.876
 8107SOL    HW225221   2.240   6.459   5.744
 8108SOL     OW25222   6.900   3.585   4.500
 8108SOL    HW125223   6.962   3.543   4.565
 8108SOL    HW225224   6.805   3.563   4.525
 8109SOL     OW25225   2.248   4.572   4.825
 8109SOL    HW125226   2.205   4.542   4.909
 8109SOL    HW225227   2.331   4.624   4.847
 8110SOL     OW25228   2.516   6.345   0.573
 8110SOL    HW125229   2.481   6.283   0.503
 8110SOL    HW225230   2.454   6.422   0.584
 8111SOL     OW25231   2.599   6.770   5.231
 8111SOL    HW125232   2.564   6.698   5.291
 8111SOL    HW225233   2.693   6.748   5.205
 8112SOL     OW25234   2.579   0.847   5.648
 8112SOL    HW125235   2.586   0.757   5.604
 8112SOL    HW225236   2.494   0.852   5.701
 8113SOL     OW25237   3.145   2.564   0.440
 8113SOL    HW125238   3.222   2.539   0.382
 8113SOL    HW225239   3.061   2.567   0.385
 8114SOL     OW25240   2.221   2.940   2.227
 8114SOL    HW125241   2.235   2.993   2.311
 8114SOL    HW225242   2.254   2.993   2.148
 8115SOL     OW25243   4.097   1.078   1.772
 8115SOL    HW125244   4.020   1.026   1.810
 8115SOL    HW225245   4.149   1.119   1.847
 8116SOL     OW25246   5.852   6.854   5.289
 8116SOL    HW125247   5.857   6.835   5.191
 8116SOL    HW225248   5.929   6.810   5.335
 8117SOL     OW25249   1.563   1.924   4.157
 8117SOL    HW125250   1.488   1.933   4.091
 8117SOL    HW225251   1.525   1.908   4.248
 8118SOL     OW25252   0.916   4.078   5.625
 8118SOL    HW125253   0.920   4.167   5.671
 8118SOL    HW225254   0.917   4.091   5.526
 8119SOL     OW25255   0.344   5.270   3.832
 8119SOL    HW125256   0.265   5.223   3.794
 8119SOL    HW225257   0.425   5.249   3.778
 8120SOL     OW25258   4.118   4.353   0.422
 8120SOL    HW125259   4.140   4.425   0.489
 8120SOL    HW225260   4.202   4.327   0.374
 8121SOL     OW25261   0.461   6.725   2.806
 8121SOL    HW125262   0.492   6.714   2.711
 8121SOL    HW225263   0.533   6.693   2.868
 8122SOL     OW25264   0.647   4.820   1.928
 8122SOL    HW125265   0.635   4.920   1.933
 8122SOL    HW225266   0.743   4.799   1.912
 8123SOL     OW25267   0.706   6.969   6.127
 8123SOL    HW125268   0.666   0.038   6.113
 8123SOL    HW225269   0.799   6.968   6.090
 8124SOL     OW25270   1.851   6.108   0.988
 8124SOL    HW125271   1.811   6.020   1.014
 8124SOL    HW225272   1.804   6.144   0.908
 8125SOL     OW25273   5.782   4.776   2.630
 8125SOL    HW125274   5.852   4.712   2.598
 8125SOL    HW225275   5.701   4.768   2.572
 8126SOL     OW25276   5.641   4.429   2.756
 8126SOL    HW125277   5.694   4.346   2.744
 8126SOL    HW225278   5.580   4.441   2.677
 8127SOL     OW25279   2.245   5.399   0.830
 8127SOL    HW125280   2.284   5.467   0.768
 8127SOL    HW225281   2.194   5.331   0.777
 8128SOL     OW25282   3.038   2.823   6.778
 8128SOL    HW125283   3.044   2.761   6.700
 8128SOL    HW225284   3.128   2.860   6.799
 8129SOL     OW25285   5.505   0.900   5.937
 8129SOL    HW125286   5.442   0.967   5.898
 8129SOL    HW225287   5.491   0.811   5.892
 8130SOL     OW25288   1.110   5.275   6.003
 8130SOL    HW125289   1.186   5.296   6.066
 8130SOL    HW225290   1.069   5.361   5.972
 8131SOL     OW25291   3.311   1.415   0.715
 8131SOL    HW125292   3.214   1.423   0.738
 8131SOL    HW225293   3.324   1.336   0.655
 8132SOL     OW25294   6.072   5.281   4.909
 8132SOL    HW125295   6.115   5.264   4.998
 8132SOL    HW225296   5.973   5.267   4.917
 8133SOL     OW25297   3.367   4.915   3.499
 8133SOL    HW125298   3.443   4.918   3.565
 8133SOL    HW225299   3.404   4.918   3.407
 8134SOL     OW25300   1.852   2.101   4.196
 8134SOL    HW125301   1.813   2.054   4.275
 8134SOL    HW225302   1.950   2.118   4.212
 8135SOL     OW25303   3.275   4.949   2.108
 8135SOL    HW125304   3.243   4.860   2.077
 8135SOL    HW225305   3.216   5.021   2.071
 8136SOL     OW25306   4.071   5.107   2.304
 8136SOL    HW125307   4.078   5.047   2.384
 8136SOL    HW225308   4.018   5.062   2.232
 8137SOL     OW25309   1.914   3.366   4.852
 8137SOL    HW125310   2.006   3.405   4.851
 8137SOL    HW225311   1.920   3.266   4.851
 8138SOL     OW25312   5.557   1.940   2.193
 8138SOL    HW125313   5.606   1.877   2.133
 8138SOL    HW225314   5.466   1.957   2.156
 8139SOL     OW25315   0.368   3.382   3.706
 8139SOL    HW125316   0.270   3.397   3.714
 8139SOL    HW225317   0.414   3.469   3.689
 8140SOL     OW25318   4.305   6.893   6.819
 8140SOL    HW125319   4.305   6.978   6.766
 8140SOL    HW225320   4.243   6.827   6.776
 8141SOL     OW25321   4.909   1.368   5.437
 8141SOL    HW125322   4.897   1.276   5.401
 8141SOL    HW225323   4.821   1.406   5.464
 8142SOL     OW25324   2.385   5.479   0.344
 8142SOL    HW125325   2.395   5.565   0.294
 8142SOL    HW225326   2.442   5.409   0.301
 8143SOL     OW25327   5.525   4.762   0.975
 8143SOL    HW125328   5.518   4.697   0.899
 8143SOL    HW225329   5.434   4.791   1.003
 8144SOL     OW25330   0.385   5.874   5.586
 8144SOL    HW125331   0.333   5.931   5.522
 8144SOL    HW225332   0.482   5.888   5.570
 8145SOL     OW25333   5.251   5.787   0.349
 8145SOL    HW125334   5.295   5.739   0.425
 8145SOL    HW225335   5.319   5.840   0.299
 8146SOL     OW25336   6.217   0.342   4.764
 8146SOL    HW125337   6.141   0.361   4.703
 8146SOL    HW225338   6.225   0.414   4.832
 8147SOL     OW25339   0.733   0.670   6.615
 8147SOL    HW125340   0.741   0.583   6.664
 8147SOL    HW225341   0.697   0.740   6.676
 8148SOL     OW25342   4.423   3.908   0.229
 8148SOL    HW125343   4.474   3.882   0.146
 8148SOL    HW225344   4.487   3.944   0.297
 8149SOL     OW25345   1.629   6.791   4.445
 8149SOL    HW125346   1.725   6.796   4.417
 8149SOL    HW225347   1.573   6.842   4.380
 8150SOL     OW25348   0.949   3.442   1.126
 8150SOL    HW125349   1.018   3.483   1.066
 8150SOL    HW225350   0.985   3.357   1.164
 8151SOL     OW25351   5.997   4.980   3.615
 8151SOL    HW125352   5.977   4.904   3.553
 8151SOL    HW225353   5.933   4.978   3.692
 8152SOL     OW25354   4.452   2.130   2.788
 8152SOL    HW125355   4.389   2.079   2.846
 8152SOL    HW225356   4.529   2.164   2.843
 8153SOL     OW25357   1.013   0.543   3.524
 8153SOL    HW125358   0.976   0.485   3.451
 8153SOL    HW225359   0.960   0.628   3.528
 8154SOL     OW25360   2.591   1.640   3.407
 8154SOL    HW125361   2.500   1.669   3.435
 8154SOL    HW225362   2.616   1.555   3.455
 8155SOL     OW25363   1.351   4.171   2.168
 8155SOL    HW125364   1.425   4.145   2.230
 8155SOL    HW225365   1.265   4.135   2.201
 8156SOL     OW25366   5.873   5.404   1.258
 8156SOL    HW125367   5.782   5.443   1.270
 8156SOL    HW225368   5.920   5.451   1.184
 8157SOL     OW25369   6.055   3.835   5.953
 8157SOL    HW125370   6.057   3.830   6.053
 8157SOL    HW225371   6.117   3.767   5.914
 8158SOL     OW25372   5.517   4.667   6.071
 8158SOL    HW125373   5.581   4.722   6.016
 8158SOL    HW225374   5.534   4.684   6.168
 8159SOL     OW25375   4.122   6.475   5.691
 8159SOL    HW125376   4.042   6.431   5.732
 8159SOL    HW225377   4.189   6.405   5.667
 8160SOL     OW25378   5.166   1.754   3.469
 8160SOL    HW125379   5.129   1.813   3.540
 8160SOL    HW225380   5.155   1.658   3.495
 8161SOL     OW25381   5.522   3.193   0.170
 8161SOL    HW125382   5.427   3.172   0.195
 8161SOL    HW225383   5.558   3.121   0.111
 8162SOL     OW25384   7.005   4.973   6.997
 8162SOL    HW125385   7.002   4.965   0.076
 8162SOL    HW225386   6.944   5.046   6.967
 8163SOL     OW25387   4.084   4.933   5.496
 8163SOL    HW125388   4.131   4.856   5.452
 8163SOL    HW225389   4.098   4.928   5.595
 8164SOL     OW25390   4.765   0.855   6.818
 8164SOL    HW125391   4.685   0.898   6.776
 8164SOL    HW225392   4.848   0.899   6.783
 8165SOL     OW25393   6.644   3.339   6.288
 8165SOL    HW125394   6.589   3.414   6.253
 8165SOL    HW225395   6.714   3.374   6.351
 8166SOL     OW25396   1.632   2.340   3.938
 8166SOL    HW125397   1.581   2.363   4.021
 8166SOL    HW225398   1.727   2.368   3.948
 8167SOL     OW25399   6.425   1.034   4.068
 8167SOL    HW125400   6.514   1.065   4.034
 8167SOL    HW225401   6.367   1.113   4.085
 8168SOL     OW25402   2.050   0.558   1.332
 8168SOL    HW125403   1.959   0.593   1.355
 8168SOL    HW225404   2.049   0.458   1.336
 8169SOL     OW25405   4.438   1.707   0.232
 8169SOL    HW125406   4.482   1.667   0.152
 8169SOL    HW225407   4.440   1.642   0.308
 8170SOL     OW25408   6.776   3.942   2.396
 8170SOL    HW125409   6.853   4.005   2.405
 8170SOL    HW225410   6.811   3.850   2.379
 8171SOL     OW25411   1.810   1.144   0.063
 8171SOL    HW125412   1.792   1.048   0.041
 8171SOL    HW225413   1.834   1.193   7.000
 8172SOL     OW25414   0.521   1.838   1.739
 8172SOL    HW125415   0.452   1.795   1.798
 8172SOL    HW225416   0.600   1.777   1.732
 8173SOL     OW25417   5.843   2.185   2.528
 8173SOL    HW125418   5.888   2.108   2.573
 8173SOL    HW225419   5.797   2.152   2.445
 8174SOL     OW25420   1.553   6.575   2.271
 8174SOL    HW125421   1.472   6.589   2.214
 8174SOL    HW225422   1.610   6.503   2.230
 8175SOL     OW25423   0.715   2.365   4.060
 8175SOL    HW125424   0.798   2.345   4.112
 8175SOL    HW225425   0.717   2.313   3.974
 8176SOL     OW25426   1.760   4.520   1.581
 8176SOL    HW125427   1.820   4.469   1.519
 8176SOL    HW225428   1.704   4.455   1.634
 8177SOL     OW25429   3.497   0.803   3.225
 8177SOL    HW125430   3.443   0.882   3.195
 8177SOL    HW225431   3.581   0.798   3.171
 8178SOL     OW25432   3.105   6.303   1.063
 8178SOL    HW125433   3.118   6.394   1.025
 8178SOL    HW225434   3.122   6.234   0.992
 8179SOL     OW25435   5.568   0.524   4.275
 8179SOL    HW125436   5.475   0.498   4.250
 8179SOL    HW225437   5.615   0.560   4.194
 8180SOL     OW25438   6.010   6.730   6.638
 8180SOL    HW125439   5.919   6.705   6.672
 8180SOL    HW225440   6.018   6.702   6.542
 8181SOL     OW25441   0.795   0.857   1.034
 8181SOL    HW125442   0.751   0.929   1.088
 8181SOL    HW225443   0.797   0.772   1.088
 8182SOL     OW25444   3.801   3.551   4.664
 8182SOL    HW125445   3.874   3.586   4.721
 8182SOL    HW225446   3.814   3.454   4.648
 8183SOL     OW25447   6.446   0.759   4.770
 8183SOL    HW125448   6.413   0.674   4.728
 8183SOL    HW225449   6.419   0.761   4.867
 8184SOL     OW25450   1.103   0.026   0.106
 8184SOL    HW125451   1.077   6.964   0.155
 8184SOL    HW225452   1.183   0.009   0.050
 8185SOL     OW25453   1.605   0.720   1.191
 8185SOL    HW125454   1.535   0.709   1.261
 8185SOL    HW225455   1.582   0.798   1.133
 8186SOL     OW25456   1.535   4.773   6.822
 8186SOL    HW125457   1.441   4.740   6.814
 8186SOL    HW225458   1.598   4.706   6.783
 8187SOL     OW25459   2.306   1.972   5.191
 8187SOL    HW125460   2.251   2.024   5.126
 8187SOL    HW225461   2.391   1.944   5.148
 8188SOL     OW25462   4.144   2.232   3.974
 8188SOL    HW125463   4.228   2.212   4.025
 8188SOL    HW225464   4.163   2.223   3.876
 8189SOL     OW25465   5.199   4.607   3.780
 8189SOL    HW125466   5.176   4.691   3.730
 8189SOL    HW225467   5.252   4.630   3.861
 8190SOL     OW25468   5.742   4.040   3.079
 8190SOL    HW125469   5.667   4.031   3.144
 8190SOL    HW225470   5.743   3.962   3.017
 8191SOL     OW25471   4.428   4.970   2.029
 8191SOL    HW125472   4.401   4.974   1.933
 8191SOL    HW225473   4.520   4.932   2.037
 8192SOL     OW25474   1.898   5.405   2.629
 8192SOL    HW125475   1.837   5.468   2.581
 8192SOL    HW225476   1.844   5.331   2.669
 8193SOL     OW25477   6.842   5.481   4.110
 8193SOL    HW125478   6.927   5.455   4.065
 8193SOL    HW225479   6.862   5.542   4.187
 8194SOL     OW25480   4.566   0.176   0.885
 8194SOL    HW125481   4.576   0.218   0.975
 8194SOL    HW225482   4.616   0.231   0.818
 8195SOL     OW25483   6.164   6.306   4.358
 8195SOL    HW125484   6.221   6.233   4.397
 8195SOL    HW225485   6.213   6.393   4.361
 8196SOL     OW25486   4.538   0.359   6.946
 8196SOL    HW125487   4.444   0.325   6.957
 8196SOL    HW225488   4.562   0.361   6.849
 8197SOL     OW25489   4.879   1.751   1.592
 8197SOL    HW125490   4.930   1.835   1.571
 8197SOL    HW225491   4.789   1.775   1.628
 8198SOL     OW25492   2.667   0.553   1.967
 8198SOL    HW125493   2.696   0.464   2.003
 8198SOL    HW225494   2.684   0.556   1.869
 8199SOL     OW25495   4.532   2.998   6.035
 8199SOL    HW125496   4.626   2.981   6.006
 8199SOL    HW225497   4.524   3.093   6.067
 8200SOL     OW25498   5.854   4.162   2.019
 8200SOL    HW125499   5.887   4.137   1.928
 8200SOL    HW225500   5.930   4.162   2.084
 8201SOL     OW25501   0.305   0.895   4.959
 8201SOL    HW125502   0.403   0.877   4.947
 8201SOL    HW225503   0.256   0.869   4.876
 8202SOL     OW25504   0.423   6.549   2.364
 8202SOL    HW125505   0.408   6.553   2.265
 8202SOL    HW225506   0.340   6.515   2.409
 8203SOL     OW25507   1.998   2.242   0.038
 8203SOL    HW125508   1.965   2.325   0.083
 8203SOL    HW225509   1.973   2.244   6.962
 8204SOL     OW25510   4.134   3.863   0.978
 8204SOL    HW125511   4.174   3.796   1.042
 8204SOL    HW225512   4.207   3.917   0.937
 8205SOL     OW25513   0.767   2.595   6.809
 8205SOL    HW125514   0.787   2.598   6.711
 8205SOL    HW225515   0.851   2.577   6.860
 8206SOL     OW25516   4.994   1.205   0.137
 8206SOL    HW125517   5.076   1.148   0.142
 8206SOL    HW225518   4.943   1.184   0.055
 8207SOL     OW25519   3.152   3.915   4.199
 8207SOL    HW125520   3.147   3.980   4.123
 8207SOL    HW225521   3.194   3.958   4.278
 8208SOL     OW25522   0.672   1.150   0.517
 8208SOL    HW125523   0.759   1.115   0.550
 8208SOL    HW225524   0.623   1.194   0.593
 8209SOL     OW25525   0.163   0.967   5.188
 8209SOL    HW125526   0.195   0.923   5.104
 8209SOL    HW225527   0.238   0.968   5.255
 8210SOL     OW25528   2.063   2.461   0.201
 8210SOL    HW125529   2.028   2.548   0.237
 8210SOL    HW225530   2.161   2.470   0.182
 8211SOL     OW25531   3.336   4.289   1.212
 8211SOL    HW125532   3.392   4.229   1.268
 8211SOL    HW225533   3.313   4.372   1.264
 8212SOL     OW25534   1.200   2.222   3.093
 8212SOL    HW125535   1.149   2.142   3.062
 8212SOL    HW225536   1.240   2.269   3.014
 8213SOL     OW25537   6.613   4.249   2.499
 8213SOL    HW125538   6.594   4.151   2.502
 8213SOL    HW225539   6.538   4.297   2.453
 8214SOL     OW25540   5.418   4.862   3.306
 8214SOL    HW125541   5.486   4.864   3.233
 8214SOL    HW225542   5.361   4.944   3.302
 8215SOL     OW25543   3.393   6.043   5.137
 8215SOL    HW125544   3.388   6.139   5.167
 8215SOL    HW225545   3.300   6.009   5.121
 8216SOL     OW25546   5.494   5.750   4.339
 8216SOL    HW125547   5.435   5.719   4.414
 8216SOL    HW225548   5.439   5.795   4.269
 8217SOL     OW25549   2.335   4.664   0.042
 8217SOL    HW125550   2.356   4.571   0.074
 8217SOL    HW225551   2.390   4.730   0.093
 8218SOL     OW25552   0.481   1.362   6.885
 8218SOL    HW125553   0.426   1.322   6.811
 8218SOL    HW225554   0.484   1.299   6.962
 8219SOL     OW25555   4.770   1.700   0.334
 8219SOL    HW125556   4.849   1.645   0.304
 8219SOL    HW225557   4.793   1.797   0.325
 8220SOL     OW25558   3.158   3.140   2.781
 8220SOL    HW125559   3.087   3.111   2.717
 8220SOL    HW225560   3.133   3.227   2.822
 8221SOL     OW25561   4.934   6.139   4.304
 8221SOL    HW125562   4.967   6.079   4.377
 8221SOL    HW225563   4.889   6.219   4.345
 8222SOL     OW25564   5.108   1.682   2.265
 8222SOL    HW125565   5.114   1.642   2.357
 8222SOL    HW225566   5.136   1.778   2.270
 8223SOL     OW25567   1.193   4.265   5.560
 8223SOL    HW125568   1.289   4.292   5.558
 8223SOL    HW225569   1.184   4.169   5.534
 8224SOL     OW25570   0.906   2.785   2.823
 8224SOL    HW125571   0.810   2.780   2.848
 8224SOL    HW225572   0.963   2.772   2.904
 8225SOL     OW25573   4.291   1.135   0.514
 8225SOL    HW125574   4.312   1.038   0.502
 8225SOL    HW225575   4.344   1.189   0.448
 8226SOL     OW25576   4.884   0.056   2.181
 8226SOL    HW125577   4.968   0.107   2.159
 8226SOL    HW225578   4.861   7.017   2.105
 8227SOL     OW25579   0.380   2.364   3.912
 8227SOL    HW125580   0.393   2.437   3.846
 8227SOL    HW225581   0.368   2.404   4.003
 8228SOL     OW25582   0.283   2.700   6.193
 8228SOL    HW125583   0.207   2.694   6.257
 8228SOL    HW225584   0.271   2.780   6.135
 8229SOL     OW25585   3.747   4.208   0.120
 8229SOL    HW125586   3.806   4.275   0.075
 8229SOL    HW225587   3.800   4.159   0.190
 8230SOL     OW25588   5.764   0.185   5.358
 8230SOL    HW125589   5.783   0.151   5.265
 8230SOL    HW225590   5.757   0.108   5.421
 8231SOL     OW25591   3.929   6.040   1.572
 8231SOL    HW125592   3.862   6.048   1.646
 8231SOL    HW225593   3.886   6.061   1.485
 8232SOL     OW25594   5.466   0.939   0.616
 8232SOL    HW125595   5.475   0.839   0.615
 8232SOL    HW225596   5.377   0.964   0.653
 8233SOL     OW25597   0.879   6.007   6.262
 8233SOL    HW125598   0.807   5.959   6.213
 8233SOL    HW225599   0.886   5.970   6.355
 8234SOL     OW25600   2.604   3.195   0.179
 8234SOL    HW125601   2.564   3.281   0.212
 8234SOL    HW225602   2.532   3.127   0.167
 8235SOL     OW25603   2.172   3.093   0.947
 8235SOL    HW125604   2.234   3.168   0.925
 8235SOL    HW225605   2.129   3.060   0.863
 8236SOL     OW25606   6.570   3.683   0.090
 8236SOL    HW125607   6.561   3.600   0.035
 8236SOL    HW225608   6.656   3.679   0.141
 8237SOL     OW25609   4.849   6.455   4.936
 8237SOL    HW125610   4.940   6.418   4.915
 8237SOL    HW225611   4.831   6.535   4.880
 8238SOL     OW25612   1.560   4.276   0.259
 8238SOL    HW125613   1.477   4.331   0.266
 8238SOL    HW225614   1.537   4.179   0.267
 8239SOL     OW25615   6.655   1.846   5.421
 8239SOL    HW125616   6.604   1.926   5.454
 8239SOL    HW225617   6.741   1.838   5.472
 8240SOL     OW25618   3.423   3.585   2.783
 8240SOL    HW125619   3.406   3.629   2.871
 8240SOL    HW225620   3.427   3.486   2.795
 8241SOL     OW25621   3.770   6.746   0.472
 8241SOL    HW125622   3.751   6.844   0.467
 8241SOL    HW225623   3.850   6.725   0.415
 8242SOL     OW25624   1.240   4.548   6.075
 8242SOL    HW125625   1.270   4.599   6.155
 8242SOL    HW225626   1.298   4.571   5.997
 8243SOL     OW25627   0.957   3.252   6.422
 8243SOL    HW125628   1.022   3.193   6.376
 8243SOL    HW225629   0.958   3.343   6.379
 8244SOL     OW25630   0.411   6.997   3.079
 8244SOL    HW125631   0.488   7.002   3.016
 8244SOL    HW225632   0.340   6.938   3.040
 8245SOL     OW25633   3.451   0.906   2.236
 8245SOL    HW125634   3.505   0.847   2.177
 8245SOL    HW225635   3.417   0.984   2.183
 8246SOL     OW25636   6.848   3.672   5.644
 8246SOL    HW125637   6.897   3.755   5.616
 8246SOL    HW225638   6.757   3.697   5.677
 8247SOL     OW25639   0.927   0.503   1.790
 8247SOL    HW125640   0.861   0.451   1.735
 8247SOL    HW225641   1.019   0.491   1.753
 8248SOL     OW25642   5.518   4.929   2.880
 8248SOL    HW125643   5.431   4.968   2.911
 8248SOL    HW225644   5.514   4.913   2.782
 8249SOL     OW25645   2.184   3.484   4.852
 8249SOL    HW125646   2.218   3.516   4.940
 8249SOL    HW225647   2.226   3.537   4.778
 8250SOL     OW25648   3.094   4.031   2.245
 8250SOL    HW125649   3.161   4.093   2.286
 8250SOL    HW225650   3.019   4.085   2.207
 8251SOL     OW25651   6.286   2.718   4.099
 8251SOL    HW125652   6.352   2.790   4.076
 8251SOL    HW225653   6.197   2.759   4.118
 8252SOL     OW25654   3.444   3.209   6.994
 8252SOL    HW125655   3.461   3.306   6.980
 8252SOL    HW225656   3.430   3.191   0.071
 8253SOL     OW25657   3.938   3.812   5.053
 8253SOL    HW125658   3.959   3.818   4.955
 8253SOL    HW225659   3.905   3.901   5.085
 8254SOL     OW25660   4.373   4.795   4.645
 8254SOL    HW125661   4.466   4.805   4.612
 8254SOL    HW225662   4.372   4.804   4.745
 8255SOL     OW25663   3.717   6.164   4.805
 8255SOL    HW125664   3.753   6.125   4.719
 8255SOL    HW225665   3.652   6.100   4.846
 8256SOL     OW25666   6.331   0.519   2.124
 8256SOL    HW125667   6.247   0.527   2.178
 8256SOL    HW225668   6.353   0.608   2.083
 8257SOL     OW25669   6.602   3.970   3.525
 8257SOL    HW125670   6.605   4.044   3.458
 8257SOL    HW225671   6.616   4.007   3.617
 8258SOL     OW25672   5.429   1.348   0.423
 8258SOL    HW125673   5.352   1.397   0.463
 8258SOL    HW225674   5.513   1.401   0.438
 8259SOL     OW25675   4.211   1.829   3.825
 8259SOL    HW125676   4.214   1.786   3.735
 8259SOL    HW225677   4.191   1.926   3.816
 8260SOL     OW25678   2.920   0.474   1.161
 8260SOL    HW125679   2.931   0.553   1.221
 8260SOL    HW225680   2.913   0.505   1.067
 8261SOL     OW25681   6.358   1.395   1.660
 8261SOL    HW125682   6.393   1.305   1.632
 8261SOL    HW225683   6.276   1.416   1.608
 8262SOL     OW25684   1.074   2.782   1.023
 8262SOL    HW125685   1.131   2.722   1.079
 8262SOL    HW225686   1.113   2.787   0.931
 8263SOL     OW25687   0.123   2.084   0.229
 8263SOL    HW125688   0.195   2.144   0.265
 8263SOL    HW225689   0.108   2.105   0.132
 8264SOL     OW25690   1.667   6.112   2.301
 8264SOL    HW125691   1.572   6.141   2.309
 8264SOL    HW225692   1.725   6.190   2.278
 8265SOL     OW25693   0.937   6.686   1.336
 8265SOL    HW125694   1.033   6.687   1.364
 8265SOL    HW225695   0.931   6.663   1.239
 8266SOL     OW25696   1.859   0.531   2.811
 8266SOL    HW125697   1.950   0.560   2.843
 8266SOL    HW225698   1.804   0.612   2.792
 8267SOL     OW25699   1.517   3.054   1.101
 8267SOL    HW125700   1.490   2.981   1.038
 8267SOL    HW225701   1.520   3.018   1.194
 8268SOL     OW25702   2.313   6.406   6.171
 8268SOL    HW125703   2.346   6.499   6.150
 8268SOL    HW225704   2.326   6.348   6.091
 8269SOL     OW25705   5.692   1.489   1.470
 8269SOL    HW125706   5.611   1.467   1.415
 8269SOL    HW225707   5.716   1.410   1.527
 8270SOL     OW25708   2.887   0.098   4.871
 8270SOL    HW125709   2.925   0.187   4.894
 8270SOL    HW225710   2.845   0.058   4.953
 8271SOL     OW25711   0.165   0.848   2.442
 8271SOL    HW125712   0.235   0.796   2.492
 8271SOL    HW225713   0.194   0.859   2.347
 8272SOL     OW25714   5.162   1.243   1.189
 8272SOL    HW125715   5.091   1.230   1.258
 8272SOL    HW225716   5.252   1.232   1.231
 8273SOL     OW25717   2.165   6.100   0.514
 8273SOL    HW125718   2.122   6.067   0.598
 8273SOL    HW225719   2.112   6.177   0.478
 8274SOL     OW25720   5.038   4.664   3.429
 8274SOL    HW125721   5.075   4.572   3.415
 8274SOL    HW225722   4.949   4.657   3.474
 8275SOL     OW25723   4.175   1.140   5.985
 8275SOL    HW125724   4.122   1.086   6.050
 8275SOL    HW225725   4.237   1.079   5.935
 8276SOL     OW25726   0.978   2.335   3.895
 8276SOL    HW125727   0.988   2.238   3.918
 8276SOL    HW225728   1.036   2.390   3.956
 8277SOL     OW25729   0.194   0.615   6.792
 8277SOL    HW125730   0.144   0.563   6.862
 8277SOL    HW225731   0.151   0.600   6.703
 8278SOL     OW25732   2.658   1.729   5.918
 8278SOL    HW125733   2.636   1.633   5.937
 8278SOL    HW225734   2.577   1.776   5.885
 8279SOL     OW25735   1.427   0.406   4.518
 8279SOL    HW125736   1.492   0.411   4.442
 8279SOL    HW225737   1.340   0.446   4.489
 8280SOL     OW25738   2.541   3.014   0.522
 8280SOL    HW125739   2.442   3.006   0.538
 8280SOL    HW225740   2.591   2.981   0.601
 8281SOL     OW25741   1.932   4.936   1.407
 8281SOL    HW125742   1.894   4.900   1.322
 8281SOL    HW225743   1.948   4.861   1.471
 8282SOL     OW25744   5.554   3.695   6.534
 8282SOL    HW125745   5.476   3.634   6.521
 8282SOL    HW225746   5.577   3.739   6.447
 8283SOL     OW25747   1.230   4.645   6.504
 8283SOL    HW125748   1.130   4.642   6.504
 8283SOL    HW225749   1.266   4.555   6.481
 8284SOL     OW25750   1.017   3.896   1.491
 8284SOL    HW125751   0.922   3.903   1.521
 8284SOL    HW225752   1.032   3.807   1.448
 8285SOL     OW25753   3.503   2.908   4.785
 8285SOL    HW125754   3.474   2.995   4.824
 8285SOL    HW225755   3.423   2.856   4.755
 8286SOL     OW25756   5.361   3.338   6.761
 8286SOL    HW125757   5.355   3.246   6.798
 8286SOL    HW225758   5.350   3.405   6.834
 8287SOL     OW25759   1.847   5.420   4.443
 8287SOL    HW125760   1.924   5.361   4.467
 8287SOL    HW225761   1.864   5.465   4.356
 8288SOL     OW25762   2.655   1.774   1.614
 8288SOL    HW125763   2.579   1.837   1.600
 8288SOL    HW225764   2.644   1.728   1.702
 8289SOL     OW25765   0.590   6.475   1.836
 8289SOL    HW125766   0.689   6.471   1.827
 8289SOL    HW225767   0.565   6.466   1.933
 8290SOL     OW25768   5.819   0.934   0.702
 8290SOL    HW125769   5.762   1.010   0.673
 8290SOL    HW225770   5.847   0.880   0.623
 8291SOL     OW25771   4.449   5.800   6.682
 8291SOL    HW125772   4.500   5.717   6.660
 8291SOL    HW225773   4.395   5.828   6.604
 8292SOL     OW25774   2.436   6.153   6.701
 8292SOL    HW125775   2.463   6.074   6.645
 8292SOL    HW225776   2.516   6.190   6.748
 8293SOL     OW25777   3.441   0.017   0.116
 8293SOL    HW125778   3.398   0.099   0.077
 8293SOL    HW225779   3.420   0.012   0.213
 8294SOL     OW25780   5.679   4.520   5.046
 8294SOL    HW125781   5.735   4.496   5.125
 8294SOL    HW225782   5.737   4.561   4.976
 8295SOL     OW25783   5.574   5.204   1.757
 8295SOL    HW125784   5.564   5.113   1.797
 8295SOL    HW225785   5.486   5.236   1.722
 8296SOL     OW25786   2.667   6.707   6.506
 8296SOL    HW125787   2.638   6.745   6.419
 8296SOL    HW225788   2.614   6.748   6.580
 8297SOL     OW25789   6.881   2.906   2.372
 8297SOL    HW125790   6.962   2.901   2.430
 8297SOL    HW225791   6.909   2.931   2.279
 8298SOL     OW25792   5.974   2.395   1.380
 8298SOL    HW125793   5.880   2.416   1.350
 8298SOL    HW225794   6.039   2.433   1.315
 8299SOL     OW25795   6.839   2.415   1.809
 8299SOL    HW125796   6.824   2.512   1.790
 8299SOL    HW225797   6.915   2.381   1.754
 8300SOL     OW25798   0.999   5.812   5.229
 8300SOL    HW125799   1.081   5.808   5.172
 8300SOL    HW225800   0.977   5.721   5.263
 8301SOL     OW25801   4.080   1.979   1.546
 8301SOL    HW125802   3.988   1.999   1.513
 8301SOL    HW225803   4.120   1.906   1.491
 8302SOL     OW25804   5.405   6.194   6.123
 8302SOL    HW125805   5.340   6.118   6.126
 8302SOL    HW225806   5.356   6.280   6.140
 8303SOL     OW25807   6.878   0.933   4.000
 8303SOL    HW125808   6.805   0.972   3.944
 8303SOL    HW225809   6.965   0.941   3.951
 8304SOL     OW25810   1.276   3.039   0.071
 8304SOL    HW125811   1.313   2.953   0.105
 8304SOL    HW225812   1.176   3.034   0.071
 8305SOL     OW25813   4.030   4.982   4.357
 8305SOL    HW125814   4.002   4.936   4.272
 8305SOL    HW225815   4.114   4.939   4.391
 8306SOL     OW25816   0.292   2.709   5.206
 8306SOL    HW125817   0.366   2.777   5.202
 8306SOL    HW225818   0.325   2.627   5.252
 8307SOL     OW25819   4.272   5.185   1.477
 8307SOL    HW125820   4.303   5.277   1.502
 8307SOL    HW225821   4.181   5.191   1.436
 8308SOL     OW25822   4.417   6.106   1.538
 8308SOL    HW125823   4.323   6.127   1.511
 8308SOL    HW225824   4.417   6.072   1.633
 8309SOL     OW25825   6.359   5.572   3.428
 8309SOL    HW125826   6.412   5.503   3.379
 8309SOL    HW225827   6.414   5.608   3.504
 8310SOL     OW25828   1.077   4.218   0.496
 8310SOL    HW125829   1.101   4.274   0.575
 8310SOL    HW225830   0.979   4.224   0.478
 8311SOL     OW25831   0.556   1.110   5.017
 8311SOL    HW125832   0.551   1.065   5.106
 8311SOL    HW225833   0.546   1.043   4.944
 8312SOL     OW25834   4.475   5.872   1.389
 8312SOL    HW125835   4.546   5.896   1.323
 8312SOL    HW225836   4.454   5.951   1.446
 8313SOL     OW25837   5.072   1.106   2.168
 8313SOL    HW125838   5.028   1.144   2.087
 8313SOL    HW225839   5.123   1.023   2.142
 8314SOL     OW25840   4.873   6.756   1.355
 8314SOL    HW125841   4.819   6.702   1.419
 8314SOL    HW225842   4.818   6.779   1.275
 8315SOL     OW25843   3.978   3.558   1.035
 8315SOL    HW125844   4.034   3.626   0.987
 8315SOL    HW225845   3.979   3.577   1.133
 8316SOL     OW25846   1.189   2.405   1.550
 8316SOL    HW125847   1.133   2.361   1.480
 8316SOL    HW225848   1.137   2.479   1.593
 8317SOL     OW25849   2.186   2.654   2.263
 8317SOL    HW125850   2.206   2.752   2.261
 8317SOL    HW225851   2.096   2.640   2.305
 8318SOL     OW25852   4.149   1.519   4.522
 8318SOL    HW125853   4.058   1.545   4.552
 8318SOL    HW225854   4.157   1.535   4.423
 8319SOL     OW25855   3.313   1.839   6.641
 8319SOL    HW125856   3.274   1.822   6.550
 8319SOL    HW225857   3.365   1.924   6.639
 8320SOL     OW25858   3.723   4.378   1.302
 8320SOL    HW125859   3.749   4.284   1.321
 8320SOL    HW225860   3.689   4.421   1.387
 8321SOL     OW25861   0.022   1.401   0.095
 8321SOL    HW125862   0.073   1.315   0.097
 8321SOL    HW225863   6.980   1.401   0.017
 8322SOL     OW25864   0.463   0.166   0.419
 8322SOL    HW125865   0.530   0.240   0.416
 8322SOL    HW225866   0.477   0.105   0.341
 8323SOL     OW25867   6.421   6.492   3.003
 8323SOL    HW125868   6.460   6.510   3.093
 8323SOL    HW225869   6.328   6.454   3.014
 8324SOL     OW25870   6.264   0.916   1.956
 8324SOL    HW125871   6.246   1.000   2.007
 8324SOL    HW225872   6.316   0.853   2.014
 8325SOL     OW25873   3.148   3.386   5.136
 8325SOL    HW125874   3.218   3.323   5.171
 8325SOL    HW225875   3.078   3.334   5.087
 8326SOL     OW25876   4.518   3.066   5.284
 8326SOL    HW125877   4.419   3.059   5.300
 8326SOL    HW225878   4.544   3.163   5.278
 8327SOL     OW25879   5.343   2.749   6.341
 8327SOL    HW125880   5.402   2.818   6.300
 8327SOL    HW225881   5.318   2.681   6.272
 8328SOL     OW25882   2.881   4.230   6.440
 8328SOL    HW125883   2.817   4.304   6.455
 8328SOL    HW225884   2.861   4.185   6.353
 8329SOL     OW25885   6.984   4.062   6.150
 8329SOL    HW125886   0.046   4.013   6.126
 8329SOL    HW225887   6.998   4.113   6.235
 8330SOL     OW25888   2.135   6.796   0.737
 8330SOL    HW125889   2.178   6.762   0.821
 8330SOL    HW225890   2.041   6.822   0.757
 8331SOL     OW25891   2.643   0.794   1.210
 8331SOL    HW125892   2.630   0.868   1.145
 8331SOL    HW225893   2.604   0.710   1.173
 8332SOL     OW25894   4.855   5.047   2.579
 8332SOL    HW125895   4.775   5.102   2.554
 8332SOL    HW225896   4.848   4.957   2.535
 8333SOL     OW25897   0.607   6.393   6.849
 8333SOL    HW125898   0.556   6.469   6.808
 8333SOL    HW225899   0.667   6.353   6.780
 8334SOL     OW25900   4.986   1.663   3.781
 8334SOL    HW125901   4.923   1.630   3.711
 8334SOL    HW225902   4.948   1.644   3.872
 8335SOL     OW25903   6.270   5.264   5.625
 8335SOL    HW125904   6.215   5.255   5.708
 8335SOL    HW225905   6.365   5.245   5.646
 8336SOL     OW25906   0.135   0.215   1.779
 8336SOL    HW125907   0.041   0.249   1.785
 8336SOL    HW225908   0.133   0.116   1.765
 8337SOL     OW25909   0.641   6.652   2.997
 8337SOL    HW125910   0.582   6.612   3.068
 8337SOL    HW225911   0.735   6.623   3.013
 8338SOL     OW25912   1.783   5.214   2.137
 8338SOL    HW125913   1.879   5.231   2.112
 8338SOL    HW225914   1.776   5.125   2.183
 8339SOL     OW25915   5.838   0.540   1.512
 8339SOL    HW125916   5.892   0.597   1.574
 8339SOL    HW225917   5.822   0.451   1.554
 8340SOL     OW25918   5.192   3.964   1.043
 8340SOL    HW125919   5.188   3.911   0.958
 8340SOL    HW225920   5.288   3.978   1.069
 8341SOL     OW25921   2.741   6.437   6.983
 8341SOL    HW125922   2.701   6.409   6.896
 8341SOL    HW225923   2.670   6.438   0.033
 8342SOL     OW25924   3.729   0.817   1.305
 8342SOL    HW125925   3.632   0.801   1.326
 8342SOL    HW225926   3.739   0.903   1.256
 8343SOL     OW25927   1.109   4.878   6.181
 8343SOL    HW125928   1.046   4.944   6.141
 8343SOL    HW225929   1.085   4.786   6.150
 8344SOL     OW25930   4.706   0.083   5.544
 8344SOL    HW125931   4.608   0.076   5.564
 8344SOL    HW225932   4.720   0.081   5.445
 8345SOL     OW25933   5.475   2.085   3.514
 8345SOL    HW125934   5.456   2.110   3.609
 8345SOL    HW225935   5.529   2.157   3.471
 8346SOL     OW25936   3.323   4.774   0.150
 8346SOL    HW125937   3.232   4.816   0.147
 8346SOL    HW225938   3.381   4.822   0.215
 8347SOL     OW25939   3.558   6.678   4.631
 8347SOL    HW125940   3.471   6.700   4.674
 8347SOL    HW225941   3.624   6.751   4.649
 8348SOL     OW25942   1.009   6.766   1.630
 8348SOL    HW125943   0.984   6.859   1.604
 8348SOL    HW225944   1.074   6.729   1.564
 8349SOL     OW25945   5.988   5.742   1.663
 8349SOL    HW125946   5.960   5.701   1.577
 8349SOL    HW225947   5.907   5.764   1.718
 8350SOL     OW25948   5.211   0.962   4.255
 8350SOL    HW125949   5.310   0.979   4.260
 8350SOL    HW225950   5.163   1.048   4.240
 8351SOL     OW25951   4.720   5.146   4.496
 8351SOL    HW125952   4.789   5.219   4.503
 8351SOL    HW225953   4.695   5.116   4.588
 8352SOL     OW25954   6.941   6.726   2.207
 8352SOL    HW125955   6.943   6.632   2.239
 8352SOL    HW225956   0.004   6.772   2.236
 8353SOL     OW25957   5.465   3.814   2.075
 8353SOL    HW125958   5.495   3.889   2.016
 8353SOL    HW225959   5.466   3.729   2.022
 8354SOL     OW25960   3.429   1.037   6.796
 8354SOL    HW125961   3.334   1.009   6.813
 8354SOL    HW225962   3.480   0.959   6.759
 8355SOL     OW25963   3.192   0.541   6.768
 8355SOL    HW125964   3.253   0.473   6.727
 8355SOL    HW225965   3.244   0.623   6.790
 8356SOL     OW25966   1.528   6.450   0.453
 8356SOL    HW125967   1.583   6.458   0.370
 8356SOL    HW225968   1.553   6.523   0.516
 8357SOL     OW25969   3.775   6.633   6.209
 8357SOL    HW125970   3.692   6.689   6.211
 8357SOL    HW225971   3.788   6.589   6.298
 8358SOL     OW25972   1.340   2.790   5.019
 8358SOL    HW125973   1.374   2.696   5.013
 8358SOL    HW225974   1.270   2.805   4.949
 8359SOL     OW25975   3.041   6.355   4.315
 8359SOL    HW125976   3.059   6.338   4.412
 8359SOL    HW225977   3.102   6.426   4.282
 8360SOL     OW25978   3.202   6.354   1.943
 8360SOL    HW125979   3.272   6.305   1.995
 8360SOL    HW225980   3.195   6.448   1.975
 8361SOL     OW25981   1.997   0.652   2.266
 8361SOL    HW125982   2.084   0.605   2.280
 8361SOL    HW225983   1.923   0.599   2.307
 8362SOL     OW25984   2.411   2.188   0.769
 8362SOL    HW125985   2.430   2.092   0.747
 8362SOL    HW225986   2.484   2.224   0.826
 8363SOL     OW25987   0.300   2.963   6.875
 8363SOL    HW125988   0.309   2.915   6.788
 8363SOL    HW225989   0.390   2.968   6.919
 8364SOL     OW25990   6.569   3.548   3.299
 8364SOL    HW125991   6.558   3.563   3.201
 8364SOL    HW225992   6.568   3.636   3.346
 8365SOL     OW25993   1.490   3.975   1.654
 8365SOL    HW125994   1.419   3.906   1.648
 8365SOL    HW225995   1.537   3.967   1.742
 8366SOL     OW25996   4.007   5.360   2.357
 8366SOL    HW125997   3.909   5.353   2.376
 8366SOL    HW225998   4.044   5.269   2.338
 8367SOL     OW25999   4.056   6.116   3.923
 8367SOL    HW126000   4.101   6.205   3.923
 8367SOL    HW226001   3.993   6.110   4.000
 8368SOL     OW26002   2.736   6.557   5.940
 8368SOL    HW126003   2.692   6.473   5.908
 8368SOL    HW226004   2.815   6.534   5.997
 8369SOL     OW26005   2.186   0.349   7.009
 8369SOL    HW126006   2.210   0.301   6.924
 8369SOL    HW226007   2.243   0.431   7.017
 8370SOL     OW26008   2.787   2.108   6.014
 8370SOL    HW126009   2.716   2.089   5.946
 8370SOL    HW226010   2.745   2.124   6.103
 8371SOL     OW26011   1.789   4.328   0.881
 8371SOL    HW126012   1.885   4.315   0.905
 8371SOL    HW226013   1.765   4.266   0.806
 8372SOL     OW26014   0.448   6.159   2.757
 8372SOL    HW126015   0.367   6.156   2.817
 8372SOL    HW226016   0.418   6.147   2.662
 8373SOL     OW26017   0.799   0.394   4.787
 8373SOL    HW126018   0.823   0.297   4.786
 8373SOL    HW226019   0.755   0.417   4.873
 8374SOL     OW26020   6.438   0.514   6.353
 8374SOL    HW126021   6.530   0.520   6.391
 8374SOL    HW226022   6.439   0.551   6.260
 8375SOL     OW26023   3.253   6.482   5.521
 8375SOL    HW126024   3.333   6.462   5.579
 8375SOL    HW226025   3.254   6.578   5.494
 8376SOL     OW26026   2.128   6.884   4.170
 8376SOL    HW126027   2.166   6.879   4.262
 8376SOL    HW226028   2.193   6.927   4.108
 8377SOL     OW26029   5.408   5.982   1.172
 8377SOL    HW126030   5.484   5.919   1.157
 8377SOL    HW226031   5.326   5.931   1.197
 8378SOL     OW26032   4.516   4.478   3.211
 8378SOL    HW126033   4.577   4.409   3.172
 8378SOL    HW226034   4.526   4.563   3.160
 8379SOL     OW26035   6.817   2.857   0.727
 8379SOL    HW126036   6.718   2.871   0.719
 8379SOL    HW226037   6.840   2.763   0.701
 8380SOL     OW26038   6.623   1.310   2.515
 8380SOL    HW126039   6.592   1.332   2.607
 8380SOL    HW226040   6.609   1.212   2.498
 8381SOL     OW26041   0.509   4.127   4.923
 8381SOL    HW126042   0.440   4.055   4.937
 8381SOL    HW226043   0.559   4.109   4.838
 8382SOL     OW26044   1.228   1.517   2.142
 8382SOL    HW126045   1.277   1.520   2.228
 8382SOL    HW226046   1.129   1.512   2.160
 8383SOL     OW26047   2.336   1.007   6.088
 8383SOL    HW126048   2.263   1.021   6.154
 8383SOL    HW226049   2.409   1.073   6.104
 8384SOL     OW26050   0.322   6.907   0.066
 8384SOL    HW126051   0.419   6.904   0.088
 8384SOL    HW226052   0.272   6.846   0.128
 8385SOL     OW26053   5.928   2.754   1.413
 8385SOL    HW126054   5.978   2.686   1.466
 8385SOL    HW226055   5.909   2.834   1.471
 8386SOL     OW26056   0.964   4.168   2.546
 8386SOL    HW126057   0.942   4.261   2.576
 8386SOL    HW226058   0.905   4.143   2.468
 8387SOL     OW26059   0.736   1.478   1.140
 8387SOL    HW126060   0.786   1.393   1.121
 8387SOL    HW226061   0.801   1.550   1.164
 8388SOL     OW26062   1.651   6.103   0.465
 8388SOL    HW126063   1.680   6.014   0.432
 8388SOL    HW226064   1.594   6.148   0.396
 8389SOL     OW26065   5.937   3.687   2.560
 8389SOL    HW126066   5.959   3.702   2.656
 8389SOL    HW226067   5.999   3.618   2.521
 8390SOL     OW26068   3.728   1.724   6.357
 8390SOL    HW126069   3.691   1.757   6.443
 8390SOL    HW226070   3.704   1.788   6.284
 8391SOL     OW26071   6.180   5.728   0.429
 8391SOL    HW126072   6.236   5.702   0.507
 8391SOL    HW226073   6.091   5.684   0.435
 8392SOL     OW26074   5.922   3.563   3.761
 8392SOL    HW126075   5.948   3.492   3.696
 8392SOL    HW226076   5.937   3.529   3.854
 8393SOL     OW26077   5.994   0.731   2.670
 8393SOL    HW126078   6.033   0.791   2.739
 8393SOL    HW226079   5.961   0.785   2.592
 8394SOL     OW26080   5.896   3.042   2.156
 8394SOL    HW126081   5.946   3.051   2.242
 8394SOL    HW226082   5.899   3.129   2.107
 8395SOL     OW26083   3.166   6.718   5.715
 8395SOL    HW126084   3.210   6.786   5.656
 8395SOL    HW226085   3.106   6.660   5.660
 8396SOL     OW26086   4.581   4.867   3.403
 8396SOL    HW126087   4.496   4.822   3.373
 8396SOL    HW226088   4.605   4.939   3.339
 8397SOL     OW26089   0.550   1.091   3.683
 8397SOL    HW126090   0.544   1.002   3.729
 8397SOL    HW226091   0.575   1.078   3.587
 8398SOL     OW26092   4.818   2.444   6.420
 8398SOL    HW126093   4.833   2.346   6.408
 8398SOL    HW226094   4.740   2.474   6.365
 8399SOL     OW26095   6.155   6.430   6.716
 8399SOL    HW126096   6.218   6.465   6.646
 8399SOL    HW226097   6.156   6.492   6.795
 8400SOL     OW26098   1.512   2.441   4.162
 8400SOL    HW126099   1.511   2.539   4.182
 8400SOL    HW226100   1.558   2.392   4.237
 8401SOL     OW26101   2.157   1.175   5.394
 8401SOL    HW126102   2.121   1.147   5.483
 8401SOL    HW226103   2.156   1.275   5.389
 8402SOL     OW26104   5.795   1.909   6.143
 8402SOL    HW126105   5.841   1.937   6.059
 8402SOL    HW226106   5.711   1.962   6.154
 8403SOL     OW26107   0.781   3.670   4.602
 8403SOL    HW126108   0.849   3.599   4.585
 8403SOL    HW226109   0.755   3.713   4.516
 8404SOL     OW26110   3.423   0.426   5.711
 8404SOL    HW126111   3.379   0.507   5.674
 8404SOL    HW226112   3.510   0.410   5.664
 8405SOL     OW26113   3.365   1.790   6.187
 8405SOL    HW126114   3.311   1.850   6.128
 8405SOL    HW226115   3.457   1.829   6.199
 8406SOL     OW26116   4.063   0.263   0.472
 8406SOL    HW126117   3.990   0.331   0.464
 8406SOL    HW226118   4.137   0.285   0.409
 8407SOL     OW26119   4.268   6.365   3.361
 8407SOL    HW126120   4.256   6.311   3.444
 8407SOL    HW226121   4.305   6.456   3.385
 8408SOL     OW26122   5.243   5.494   0.317
 8408SOL    HW126123   5.259   5.460   0.224
 8408SOL    HW226124   5.240   5.594   0.316
 8409SOL     OW26125   4.717   2.250   1.934
 8409SOL    HW126126   4.670   2.183   1.876
 8409SOL    HW226127   4.654   2.324   1.957
 8410SOL     OW26128   6.170   2.126   1.727
 8410SOL    HW126129   6.118   2.142   1.810
 8410SOL    HW226130   6.204   2.032   1.727
 8411SOL     OW26131   0.384   5.949   0.959
 8411SOL    HW126132   0.444   6.027   0.978
 8411SOL    HW226133   0.300   5.981   0.915
 8412SOL     OW26134   4.020   2.897   1.262
 8412SOL    HW126135   4.053   2.869   1.353
 8412SOL    HW226136   3.927   2.933   1.270
 8413SOL     OW26137   4.384   5.512   6.382
 8413SOL    HW126138   4.308   5.577   6.379
 8413SOL    HW226139   4.348   5.419   6.383
 8414SOL     OW26140   2.238   0.955   2.382
 8414SOL    HW126141   2.143   0.985   2.374
 8414SOL    HW226142   2.244   0.857   2.367
 8415SOL     OW26143   2.290   6.525   4.277
 8415SOL    HW126144   2.205   6.531   4.225
 8415SOL    HW226145   2.357   6.588   4.238
 8416SOL     OW26146   6.172   1.586   5.034
 8416SOL    HW126147   6.125   1.563   4.948
 8416SOL    HW226148   6.225   1.508   5.065
 8417SOL     OW26149   2.172   3.164   5.694
 8417SOL    HW126150   2.164   3.140   5.597
 8417SOL    HW226151   2.221   3.091   5.742
 8418SOL     OW26152   0.334   5.719   2.000
 8418SOL    HW126153   0.274   5.750   2.074
 8418SOL    HW226154   0.429   5.734   2.026
 8419SOL     OW26155   5.818   1.540   3.208
 8419SOL    HW126156   5.912   1.526   3.240
 8419SOL    HW226157   5.770   1.600   3.271
 8420SOL     OW26158   3.169   6.593   2.100
 8420SOL    HW126159   3.253   6.617   2.150
 8420SOL    HW226160   3.143   6.669   2.041
 8421SOL     OW26161   3.262   5.471   6.740
 8421SOL    HW126162   3.237   5.496   6.647
 8421SOL    HW226163   3.213   5.389   6.767
 8422SOL     OW26164   3.840   2.164   2.599
 8422SOL    HW126165   3.923   2.200   2.640
 8422SOL    HW226166   3.841   2.181   2.501
 8423SOL     OW26167   4.565   4.112   5.633
 8423SOL    HW126168   4.509   4.047   5.684
 8423SOL    HW226169   4.592   4.070   5.546
 8424SOL     OW26170   2.219   1.874   3.550
 8424SOL    HW126171   2.189   1.967   3.569
 8424SOL    HW226172   2.234   1.825   3.636
 8425SOL     OW26173   3.864   3.684   4.176
 8425SOL    HW126174   3.830   3.647   4.262
 8425SOL    HW226175   3.795   3.745   4.136
 8426SOL     OW26176   3.670   3.197   2.457
 8426SOL    HW126177   3.703   3.105   2.435
 8426SOL    HW226178   3.570   3.195   2.469
 8427SOL     OW26179   3.325   3.784   3.302
 8427SOL    HW126180   3.278   3.695   3.295
 8427SOL    HW226181   3.269   3.855   3.259
 8428SOL     OW26182   0.230   6.518   1.452
 8428SOL    HW126183   0.153   6.501   1.513
 8428SOL    HW226184   0.312   6.538   1.507
 8429SOL     OW26185   1.762   5.322   5.951
 8429SOL    HW126186   1.671   5.296   5.918
 8429SOL    HW226187   1.757   5.344   6.048
 8430SOL     OW26188   3.924   4.884   4.131
 8430SOL    HW126189   3.967   4.841   4.052
 8430SOL    HW226190   3.831   4.912   4.107
 8431SOL     OW26191   3.247   3.827   6.762
 8431SOL    HW126192   3.256   3.926   6.773
 8431SOL    HW226193   3.177   3.793   6.824
 8432SOL     OW26194   6.949   5.203   5.635
 8432SOL    HW126195   7.012   5.162   5.569
 8432SOL    HW226196   6.856   5.202   5.597
 8433SOL     OW26197   4.116   2.723   0.738
 8433SOL    HW126198   4.082   2.751   0.828
 8433SOL    HW226199   4.118   2.803   0.678
 8434SOL     OW26200   2.166   5.892   4.345
 8434SOL    HW126201   2.154   5.991   4.346
 8434SOL    HW226202   2.077   5.847   4.356
 8435SOL     OW26203   5.206   0.274   3.117
 8435SOL    HW126204   5.248   0.191   3.154
 8435SOL    HW226205   5.274   0.346   3.111
 8436SOL     OW26206   2.766   6.261   3.877
 8436SOL    HW126207   2.807   6.343   3.839
 8436SOL    HW226208   2.666   6.267   3.869
 8437SOL     OW26209   1.942   2.543   2.356
 8437SOL    HW126210   1.843   2.555   2.352
 8437SOL    HW226211   1.966   2.484   2.433
 8438SOL     OW26212   2.178   3.938   3.100
 8438SOL    HW126213   2.118   3.875   3.050
 8438SOL    HW226214   2.196   4.018   3.043
 8439SOL     OW26215   6.207   5.198   3.464
 8439SOL    HW126216   6.223   5.214   3.367
 8439SOL    HW226217   6.199   5.286   3.511
 8440SOL     OW26218   2.349   2.237   3.694
 8440SOL    HW126219   2.395   2.151   3.715
 8440SOL    HW226220   2.413   2.299   3.648
 8441SOL     OW26221   5.281   5.785   5.861
 8441SOL    HW126222   5.216   5.717   5.896
 8441SOL    HW226223   5.371   5.743   5.852
 8442SOL     OW26224   3.820   0.698   5.127
 8442SOL    HW126225   3.887   0.687   5.053
 8442SOL    HW226226   3.791   0.793   5.132
 8443SOL     OW26227   2.142   5.089   3.846
 8443SOL    HW126228   2.159   4.991   3.835
 8443SOL    HW226229   2.216   5.130   3.899
 8444SOL     OW26230   3.123   6.737   3.502
 8444SOL    HW126231   3.050   6.784   3.452
 8444SOL    HW226232   3.173   6.803   3.558
 8445SOL     OW26233   2.818   0.755   0.552
 8445SOL    HW126234   2.867   0.829   0.505
 8445SOL    HW226235   2.834   0.760   0.650
 8446SOL     OW26236   6.637   6.137   4.956
 8446SOL    HW126237   6.553   6.110   4.909
 8446SOL    HW226238   6.668   6.226   4.921
 8447SOL     OW26239   3.792   1.343   1.698
 8447SOL    HW126240   3.823   1.260   1.652
 8447SOL    HW226241   3.692   1.344   1.700
 8448SOL     OW26242   4.736   6.339   3.491
 8448SOL    HW126243   4.770   6.275   3.423
 8448SOL    HW226244   4.729   6.292   3.580
 8449SOL     OW26245   0.478   3.110   4.074
 8449SOL    HW126246   0.512   3.186   4.018
 8449SOL    HW226247   0.434   3.043   4.014
 8450SOL     OW26248   0.494   0.850   1.120
 8450SOL    HW126249   0.587   0.887   1.123
 8450SOL    HW226250   0.440   0.892   1.194
 8451SOL     OW26251   3.154   0.948   0.677
 8451SOL    HW126252   3.176   0.851   0.667
 8451SOL    HW226253   3.218   1.003   0.623
 8452SOL     OW26254   4.960   2.460   4.367
 8452SOL    HW126255   4.948   2.497   4.275
 8452SOL    HW226256   4.977   2.534   4.432
 8453SOL     OW26257   0.436   5.067   6.802
 8453SOL    HW126258   0.503   5.049   6.874
 8453SOL    HW226259   0.352   5.016   6.822
 8454SOL     OW26260   0.265   5.139   0.109
 8454SOL    HW126261   0.209   5.095   0.179
 8454SOL    HW226262   0.271   5.080   0.029
 8455SOL     OW26263   0.102   1.981   3.078
 8455SOL    HW126264   0.128   2.009   3.170
 8455SOL    HW226265   0.017   1.928   3.082
 8456SOL     OW26266   4.552   0.754   3.403
 8456SOL    HW126267   4.507   0.677   3.358
 8456SOL    HW226268   4.563   0.829   3.338
 8457SOL     OW26269   6.674   6.394   4.861
 8457SOL    HW126270   6.737   6.420   4.934
 8457SOL    HW226271   6.675   6.463   4.789
 8458SOL     OW26272   1.159   0.355   0.974
 8458SOL    HW126273   1.098   0.282   1.005
 8458SOL    HW226274   1.220   0.380   1.049
 8459SOL     OW26275   1.880   5.624   3.181
 8459SOL    HW126276   1.793   5.574   3.178
 8459SOL    HW226277   1.861   5.723   3.178
 8460SOL     OW26278   4.313   3.896   5.296
 8460SOL    HW126279   4.244   3.853   5.238
 8460SOL    HW226280   4.387   3.831   5.314
 8461SOL     OW26281   0.783   2.166   5.512
 8461SOL    HW126282   0.868   2.183   5.463
 8461SOL    HW226283   0.705   2.182   5.451
 8462SOL     OW26284   3.278   1.766   0.765
 8462SOL    HW126285   3.325   1.680   0.746
 8462SOL    HW226286   3.340   1.828   0.813
 8463SOL     OW26287   6.545   0.025   1.837
 8463SOL    HW126288   6.447   0.045   1.831
 8463SOL    HW226289   6.596   0.092   1.785
 8464SOL     OW26290   5.778   4.036   4.249
 8464SOL    HW126291   5.730   3.990   4.173
 8464SOL    HW226292   5.739   4.127   4.262
 8465SOL     OW26293   1.473   2.183   0.443
 8465SOL    HW126294   1.427   2.195   0.355
 8465SOL    HW226295   1.568   2.158   0.427
 8466SOL     OW26296   1.196   5.868   3.883
 8466SOL    HW126297   1.250   5.797   3.838
 8466SOL    HW226298   1.254   5.947   3.903
 8467SOL     OW26299   2.946   5.865   0.593
 8467SOL    HW126300   3.041   5.896   0.601
 8467SOL    HW226301   2.923   5.809   0.672
 8468SOL     OW26302   3.899   1.900   0.620
 8468SOL    HW126303   3.946   1.947   0.695
 8468SOL    HW226304   3.823   1.956   0.589
 8469SOL     OW26305   3.072   3.406   6.512
 8469SOL    HW126306   3.089   3.328   6.572
 8469SOL    HW226307   3.159   3.439   6.475
 8470SOL     OW26308   2.158   2.817   1.792
 8470SOL    HW126309   2.203   2.739   1.835
 8470SOL    HW226310   2.227   2.882   1.761
 8471SOL     OW26311   2.588   0.578   3.648
 8471SOL    HW126312   2.660   0.516   3.681
 8471SOL    HW226313   2.512   0.524   3.612
 8472SOL     OW26314   0.352   6.972   4.469
 8472SOL    HW126315   0.264   7.017   4.457
 8472SOL    HW226316   0.366   6.905   4.395
 8473SOL     OW26317   6.933   5.516   6.939
 8473SOL    HW126318   6.875   5.550   7.013
 8473SOL    HW226319   6.907   5.559   6.853
 8474SOL     OW26320   3.063   3.037   1.889
 8474SOL    HW126321   3.121   2.962   1.921
 8474SOL    HW226322   3.037   3.095   1.967
 8475SOL     OW26323   6.490   1.797   2.701
 8475SOL    HW126324   6.442   1.848   2.629
 8475SOL    HW226325   6.440   1.712   2.720
 8476SOL     OW26326   6.209   0.060   1.791
 8476SOL    HW126327   6.152   0.134   1.826
 8476SOL    HW226328   6.154   6.997   1.784
 8477SOL     OW26329   3.107   6.140   1.311
 8477SOL    HW126330   3.024   6.084   1.320
 8477SOL    HW226331   3.100   6.196   1.228
 8478SOL     OW26332   1.590   0.483   5.553
 8478SOL    HW126333   1.634   0.444   5.634
 8478SOL    HW226334   1.504   0.527   5.579
 8479SOL     OW26335   6.081   1.097   0.213
 8479SOL    HW126336   6.044   1.120   0.302
 8479SOL    HW226337   6.142   1.170   0.182
 8480SOL     OW26338   3.394   1.354   1.304
 8480SOL    HW126339   3.346   1.346   1.391
 8480SOL    HW226340   3.357   1.431   1.252
 8481SOL     OW26341   3.825   1.662   4.075
 8481SOL    HW126342   3.738   1.633   4.116
 8481SOL    HW226343   3.870   1.583   4.033
 8482SOL     OW26344   2.110   0.259   2.270
 8482SOL    HW126345   2.141   0.200   2.344
 8482SOL    HW226346   2.021   0.298   2.293
 8483SOL     OW26347   3.489   5.393   2.741
 8483SOL    HW126348   3.481   5.329   2.665
 8483SOL    HW226349   3.471   5.345   2.827
 8484SOL     OW26350   0.070   4.644   3.126
 8484SOL    HW126351   0.027   4.623   3.038
 8484SOL    HW226352   0.100   4.739   3.127
 8485SOL     OW26353   2.005   3.867   0.154
 8485SOL    HW126354   2.104   3.853   0.147
 8485SOL    HW226355   1.986   3.931   0.228
 8486SOL     OW26356   5.289   1.209   2.701
 8486SOL    HW126357   5.198   1.234   2.667
 8486SOL    HW226358   5.302   1.110   2.692
 8487SOL     OW26359   5.270   0.373   0.643
 8487SOL    HW126360   5.311   0.289   0.680
 8487SOL    HW226361   5.312   0.395   0.555
 8488SOL     OW26362   5.501   5.732   4.999
 8488SOL    HW126363   5.587   5.735   4.948
 8488SOL    HW226364   5.442   5.806   4.967
 8489SOL     OW26365   5.656   5.907   1.575
 8489SOL    HW126366   5.573   5.946   1.535
 8489SOL    HW226367   5.736   5.953   1.537
 8490SOL     OW26368   4.634   5.820   3.543
 8490SOL    HW126369   4.587   5.870   3.470
 8490SOL    HW226370   4.642   5.724   3.517
 8491SOL     OW26371   2.496   0.476   1.469
 8491SOL    HW126372   2.502   0.396   1.528
 8491SOL    HW226373   2.587   0.511   1.450
 8492SOL     OW26374   4.841   3.849   5.441
 8492SOL    HW126375   4.900   3.902   5.503
 8492SOL    HW226376   4.898   3.796   5.379
 8493SOL     OW26377   3.282   1.955   0.328
 8493SOL    HW126378   3.360   1.943   0.267
 8493SOL    HW226379   3.219   1.878   0.316
 8494SOL     OW26380   1.796   4.643   6.649
 8494SOL    HW126381   1.751   4.688   6.572
 8494SOL    HW226382   1.828   4.553   6.622
 8495SOL     OW26383   0.096   3.029   1.158
 8495SOL    HW126384   0.123   3.125   1.169
 8495SOL    HW226385   0.029   3.022   1.084
 8496SOL     OW26386   0.630   1.867   3.635
 8496SOL    HW126387   0.678   1.793   3.588
 8496SOL    HW226388   0.658   1.955   3.597
 8497SOL     OW26389   5.379   6.029   4.125
 8497SOL    HW126390   5.290   6.073   4.135
 8497SOL    HW226391   5.425   6.027   4.214
 8498SOL     OW26392   0.370   6.544   1.711
 8498SOL    HW126393   0.295   6.582   1.765
 8498SOL    HW226394   0.455   6.551   1.763
 8499SOL     OW26395   2.338   5.520   6.547
 8499SOL    HW126396   2.338   5.556   6.641
 8499SOL    HW226397   2.369   5.425   6.548
 8500SOL     OW26398   2.431   0.168   5.574
 8500SOL    HW126399   2.406   0.189   5.479
 8500SOL    HW226400   2.512   0.109   5.574
 8501SOL     OW26401   1.424   2.399   6.812
 8501SOL    HW126402   1.418   2.496   6.838
 8501SOL    HW226403   1.460   2.392   6.719
 8502SOL     OW26404   0.939   5.554   1.337
 8502SOL    HW126405   0.956   5.505   1.423
 8502SOL    HW226406   0.994   5.514   1.264
 8503SOL     OW26407   0.760   5.232   2.917
 8503SOL    HW126408   0.844   5.232   2.972
 8503SOL    HW226409   0.767   5.302   2.846
 8504SOL     OW26410   1.415   6.036   3.490
 8504SOL    HW126411   1.463   6.124   3.491
 8504SOL    HW226412   1.480   5.963   3.470
 8505SOL     OW26413   5.386   3.898   3.573
 8505SOL    HW126414   5.480   3.878   3.543
 8505SOL    HW226415   5.355   3.825   3.634
 8506SOL     OW26416   0.688   6.808   0.056
 8506SOL    HW126417   0.633   6.788   0.138
 8506SOL    HW226418   0.710   6.905   0.054
 8507SOL     OW26419   2.698   0.986   5.447
 8507SOL    HW126420   2.614   0.996   5.394
 8507SOL    HW226421   2.686   0.914   5.515
 8508SOL     OW26422   6.595   3.046   5.023
 8508SOL    HW126423   6.548   3.034   4.936
 8508SOL    HW226424   6.623   2.957   5.058
 8509SOL     OW26425   5.888   1.421   4.800
 8509SOL    HW126426   5.890   1.505   4.746
 8509SOL    HW226427   5.814   1.426   4.867
 8510SOL     OW26428   6.499   5.372   3.314
 8510SOL    HW126429   6.554   5.417   3.243
 8510SOL    HW226430   6.449   5.295   3.274
 8511SOL     OW26431   5.248   4.296   1.727
 8511SOL    HW126432   5.332   4.311   1.675
 8511SOL    HW226433   5.240   4.366   1.798
 8512SOL     OW26434   4.003   2.337   0.423
 8512SOL    HW126435   3.972   2.428   0.448
 8512SOL    HW226436   4.018   2.283   0.506
 8513SOL     OW26437   5.026   3.760   1.243
 8513SOL    HW126438   5.096   3.804   1.188
 8513SOL    HW226439   5.044   3.777   1.340
 8514SOL     OW26440   2.401   2.554   3.716
 8514SOL    HW126441   2.499   2.568   3.729
 8514SOL    HW226442   2.377   2.574   3.621
 8515SOL     OW26443   0.176   1.191   0.152
 8515SOL    HW126444   0.265   1.151   0.131
 8515SOL    HW226445   0.168   1.206   0.251
 8516SOL     OW26446   6.081   3.074   2.388
 8516SOL    HW126447   6.039   3.134   2.456
 8516SOL    HW226448   6.145   3.127   2.332
 8517SOL     OW26449   2.234   2.509   5.611
 8517SOL    HW126450   2.150   2.454   5.619
 8517SOL    HW226451   2.257   2.519   5.515
 8518SOL     OW26452   5.108   4.344   6.104
 8518SOL    HW126453   5.123   4.443   6.101
 8518SOL    HW226454   5.131   4.303   6.016
 8519SOL     OW26455   0.507   4.515   0.366
 8519SOL    HW126456   0.427   4.574   0.379
 8519SOL    HW226457   0.589   4.571   0.360
 8520SOL     OW26458   3.152   3.600   5.310
 8520SOL    HW126459   3.127   3.689   5.272
 8520SOL    HW226460   3.123   3.528   5.247
 8521SOL     OW26461   2.076   6.680   5.529
 8521SOL    HW126462   2.142   6.616   5.570
 8521SOL    HW226463   2.115   6.721   5.447
 8522SOL     OW26464   0.719   0.168   1.031
 8522SOL    HW126465   0.804   0.218   1.046
 8522SOL    HW226466   0.740   0.076   0.998
 8523SOL     OW26467   3.078   0.013   6.899
 8523SOL    HW126468   3.006   6.974   6.866
 8523SOL    HW226469   3.120   0.061   6.822
 8524SOL     OW26470   1.513   4.463   4.571
 8524SOL    HW126471   1.580   4.493   4.639
 8524SOL    HW226472   1.557   4.403   4.505
 8525SOL     OW26473   5.958   5.119   1.305
 8525SOL    HW126474   5.869   5.080   1.330
 8525SOL    HW226475   5.950   5.219   1.304
 8526SOL     OW26476   3.051   6.591   0.944
 8526SOL    HW126477   3.066   6.682   0.982
 8526SOL    HW226478   2.953   6.575   0.933
 8527SOL     OW26479   3.626   1.022   7.019
 8527SOL    HW126480   3.562   1.034   6.942
 8527SOL    HW226481   3.611   0.933   0.040
 8528SOL     OW26482   4.449   1.685   0.822
 8528SOL    HW126483   4.422   1.589   0.813
 8528SOL    HW226484   4.531   1.702   0.767
 8529SOL     OW26485   1.085   6.783   0.225
 8529SOL    HW126486   1.032   6.741   0.151
 8529SOL    HW226487   1.182   6.767   0.210
 8530SOL     OW26488   3.665   3.792   4.598
 8530SOL    HW126489   3.608   3.799   4.516
 8530SOL    HW226490   3.683   3.695   4.617
 8531SOL     OW26491   6.874   5.119   2.510
 8531SOL    HW126492   6.806   5.145   2.442
 8531SOL    HW226493   6.964   5.152   2.482
 8532SOL     OW26494   3.957   6.591   4.446
 8532SOL    HW126495   3.991   6.512   4.395
 8532SOL    HW226496   3.858   6.596   4.438
 8533SOL     OW26497   1.497   5.836   0.157
 8533SOL    HW126498   1.440   5.918   0.153
 8533SOL    HW226499   1.438   5.755   0.165
 8534SOL     OW26500   4.652   2.468   3.673
 8534SOL    HW126501   4.601   2.489   3.590
 8534SOL    HW226502   4.744   2.507   3.666
 8535SOL     OW26503   5.551   1.360   4.569
 8535SOL    HW126504   5.628   1.388   4.512
 8535SOL    HW226505   5.581   1.295   4.638
 8536SOL     OW26506   0.942   2.236   4.962
 8536SOL    HW126507   1.040   2.254   4.959
 8536SOL    HW226508   0.893   2.301   4.904
 8537SOL     OW26509   5.881   1.741   3.569
 8537SOL    HW126510   5.935   1.813   3.525
 8537SOL    HW226511   5.784   1.767   3.567
 8538SOL     OW26512   2.192   1.743   0.157
 8538SOL    HW126513   2.273   1.783   0.200
 8538SOL    HW226514   2.129   1.817   0.131
 8539SOL     OW26515   6.614   1.538   2.329
 8539SOL    HW126516   6.553   1.610   2.365
 8539SOL    HW226517   6.614   1.461   2.392
 8540SOL     OW26518   5.877   0.360   6.635
 8540SOL    HW126519   5.968   0.369   6.595
 8540SOL    HW226520   5.831   0.449   6.634
 8541SOL     OW26521   3.349   1.984   3.375
 8541SOL    HW126522   3.332   1.983   3.276
 8541SOL    HW226523   3.402   1.903   3.400
 8542SOL     OW26524   3.488   4.399   6.482
 8542SOL    HW126525   3.578   4.361   6.503
 8542SOL    HW226526   3.455   4.361   6.396
 8543SOL     OW26527   1.600   1.519   1.412
 8543SOL    HW126528   1.565   1.568   1.492
 8543SOL    HW226529   1.538   1.444   1.389
 8544SOL     OW26530   5.669   2.870   4.262
 8544SOL    HW126531   5.758   2.862   4.307
 8544SOL    HW226532   5.663   2.803   4.188
 8545SOL     OW26533   4.970   6.911   5.810
 8545SOL    HW126534   4.922   6.998   5.824
 8545SOL    HW226535   4.974   6.861   5.897
 8546SOL     OW26536   6.121   2.595   3.842
 8546SOL    HW126537   6.053   2.606   3.769
 8546SOL    HW226538   6.080   2.618   3.930
 8547SOL     OW26539   1.261   6.207   6.371
 8547SOL    HW126540   1.248   6.109   6.389
 8547SOL    HW226541   1.172   6.252   6.368
 8548SOL     OW26542   6.010   2.375   4.676
 8548SOL    HW126543   6.080   2.402   4.742
 8548SOL    HW226544   6.012   2.276   4.664
 8549SOL     OW26545   0.345   3.735   4.578
 8549SOL    HW126546   0.423   3.718   4.637
 8549SOL    HW226547   0.377   3.745   4.483
 8550SOL     OW26548   1.906   4.853   0.219
 8550SOL    HW126549   1.979   4.831   0.155
 8550SOL    HW226550   1.861   4.938   0.191
 8551SOL     OW26551   3.746   4.394   6.491
 8551SOL    HW126552   3.743   4.493   6.505
 8551SOL    HW226553   3.802   4.352   6.563
 8552SOL     OW26554   3.044   6.201   3.818
 8552SOL    HW126555   2.969   6.227   3.880
 8552SOL    HW226556   3.060   6.103   3.825
 8553SOL     OW26557   5.254   5.901   6.853
 8553SOL    HW126558   5.314   5.940   6.784
 8553SOL    HW226559   5.216   5.974   6.909
 8554SOL     OW26560   0.072   5.034   0.293
 8554SOL    HW126561   0.036   5.105   0.353
 8554SOL    HW226562   0.003   4.962   0.283
 8555SOL     OW26563   1.036   0.775   3.255
 8555SOL    HW126564   0.959   0.712   3.252
 8555SOL    HW226565   1.004   0.866   3.284
 8556SOL     OW26566   0.900   0.304   3.021
 8556SOL    HW126567   0.895   0.404   3.021
 8556SOL    HW226568   0.841   0.268   3.093
 8557SOL     OW26569   6.424   1.054   1.766
 8557SOL    HW126570   6.413   1.074   1.669
 8557SOL    HW226571   6.383   0.965   1.787
 8558SOL     OW26572   2.732   5.511   3.046
 8558SOL    HW126573   2.748   5.412   3.049
 8558SOL    HW226574   2.670   5.537   3.120
 8559SOL     OW26575   0.149   0.461   2.631
 8559SOL    HW126576   0.108   0.403   2.700
 8559SOL    HW226577   0.097   0.546   2.623
 8560SOL     OW26578   6.885   0.300   1.087
 8560SOL    HW126579   6.822   0.225   1.104
 8560SOL    HW226580   6.835   0.379   1.052
 8561SOL     OW26581   4.012   5.979   2.281
 8561SOL    HW126582   4.037   5.917   2.355
 8561SOL    HW226583   3.970   6.062   2.319
 8562SOL     OW26584   5.166   6.779   4.746
 8562SOL    HW126585   5.130   6.852   4.688
 8562SOL    HW226586   5.122   6.784   4.836
 8563SOL     OW26587   2.818   3.126   6.634
 8563SOL    HW126588   2.808   3.102   6.730
 8563SOL    HW226589   2.827   3.043   6.579
 8564SOL     OW26590   1.960   0.171   3.299
 8564SOL    HW126591   1.869   0.189   3.336
 8564SOL    HW226592   1.988   0.247   3.241
 8565SOL     OW26593   4.134   0.021   1.548
 8565SOL    HW126594   4.051   7.005   1.589
 8565SOL    HW226595   4.192   0.063   1.619
 8566SOL     OW26596   1.196   1.231   2.755
 8566SOL    HW126597   1.199   1.292   2.676
 8566SOL    HW226598   1.101   1.215   2.782
 8567SOL     OW26599   6.588   1.430   1.397
 8567SOL    HW126600   6.655   1.361   1.424
 8567SOL    HW226601   6.610   1.517   1.441
 8568SOL     OW26602   4.858   1.553   6.815
 8568SOL    HW126603   4.808   1.612   6.879
 8568SOL    HW226604   4.942   1.521   6.858
 8569SOL     OW26605   4.644   1.526   5.502
 8569SOL    HW126606   4.723   1.553   5.558
 8569SOL    HW226607   4.576   1.599   5.504
 8570SOL     OW26608   1.134   3.606   5.969
 8570SOL    HW126609   1.221   3.652   5.989
 8570SOL    HW226610   1.132   3.580   5.873
 8571SOL     OW26611   0.246   5.230   5.469
 8571SOL    HW126612   0.163   5.186   5.432
 8571SOL    HW226613   0.258   5.319   5.425
 8572SOL     OW26614   2.236   5.168   5.827
 8572SOL    HW126615   2.236   5.174   5.727
 8572SOL    HW226616   2.176   5.092   5.855
 8573SOL     OW26617   3.951   6.352   6.694
 8573SOL    HW126618   3.878   6.301   6.740
 8573SOL    HW226619   4.001   6.290   6.634
 8574SOL     OW26620   0.894   4.926   5.547
 8574SOL    HW126621   0.893   4.983   5.629
 8574SOL    HW226622   0.905   4.985   5.467
 8575SOL     OW26623   2.639   2.208   6.824
 8575SOL    HW126624   2.619   2.113   6.846
 8575SOL    HW226625   2.567   2.267   6.860
 8576SOL     OW26626   0.492   6.602   1.062
 8576SOL    HW126627   0.470   6.614   0.965
 8576SOL    HW226628   0.564   6.534   1.071
 8577SOL     OW26629   6.091   5.167   4.310
 8577SOL    HW126630   6.123   5.208   4.225
 8577SOL    HW226631   6.054   5.237   4.370
 8578SOL     OW26632   4.513   0.276   4.323
 8578SOL    HW126633   4.450   0.254   4.249
 8578SOL    HW226634   4.490   0.366   4.362
 8579SOL     OW26635   1.143   5.702   3.392
 8579SOL    HW126636   1.221   5.656   3.434
 8579SOL    HW226637   1.169   5.734   3.300
 8580SOL     OW26638   2.649   0.037   2.007
 8580SOL    HW126639   2.603   0.049   2.095
 8580SOL    HW226640   2.712   0.113   1.992
 8581SOL     OW26641   3.506   2.466   1.451
 8581SOL    HW126642   3.419   2.493   1.494
 8581SOL    HW226643   3.518   2.368   1.461
 8582SOL     OW26644   4.816   4.468   2.442
 8582SOL    HW126645   4.725   4.455   2.404
 8582SOL    HW226646   4.868   4.383   2.436
 8583SOL     OW26647   5.687   0.806   6.091
 8583SOL    HW126648   5.615   0.844   6.033
 8583SOL    HW226649   5.646   0.761   6.170
 8584SOL     OW26650   0.200   4.462   0.535
 8584SOL    HW126651   0.104   4.484   0.549
 8584SOL    HW226652   0.257   4.535   0.573
 8585SOL     OW26653   0.143   0.047   0.607
 8585SOL    HW126654   0.075   0.102   0.656
 8585SOL    HW226655   0.103   6.979   0.583
 8586SOL     OW26656   2.900   6.215   3.033
 8586SOL    HW126657   2.972   6.284   3.021
 8586SOL    HW226658   2.920   6.161   3.115
 8587SOL     OW26659   0.647   0.848   2.731
 8587SOL    HW126660   0.704   0.928   2.711
 8587SOL    HW226661   0.677   0.807   2.817
 8588SOL     OW26662   3.186   1.566   0.489
 8588SOL    HW126663   3.188   1.583   0.587
 8588SOL    HW226664   3.091   1.553   0.459
 8589SOL     OW26665   3.971   1.240   4.219
 8589SOL    HW126666   4.001   1.255   4.313
 8589SOL    HW226667   4.039   1.184   4.171
 8590SOL     OW26668   6.767   5.685   4.297
 8590SOL    HW126669   6.681   5.727   4.269
 8590SOL    HW226670   6.767   5.674   4.397
 8591SOL     OW26671   0.750   4.365   6.758
 8591SOL    HW126672   0.725   4.268   6.752
 8591SOL    HW226673   0.848   4.375   6.741
 8592SOL     OW26674   6.952   4.383   0.341
 8592SOL    HW126675   6.872   4.331   0.312
 8592SOL    HW226676   6.949   4.397   0.440
 8593SOL     OW26677   0.918   6.563   1.826
 8593SOL    HW126678   0.942   6.635   1.761
 8593SOL    HW226679   0.937   6.474   1.784
 8594SOL     OW26680   3.357   4.193   4.591
 8594SOL    HW126681   3.289   4.257   4.625
 8594SOL    HW226682   3.388   4.134   4.665
 8595SOL     OW26683   2.059   1.830   2.667
 8595SOL    HW126684   2.104   1.918   2.681
 8595SOL    HW226685   2.000   1.835   2.587
 8596SOL     OW26686   5.637   5.611   2.304
 8596SOL    HW126687   5.702   5.559   2.359
 8596SOL    HW226688   5.604   5.690   2.356
 8597SOL     OW26689   3.816   1.918   1.385
 8597SOL    HW126690   3.804   2.014   1.411
 8597SOL    HW226691   3.881   1.912   1.309
 8598SOL     OW26692   0.020   5.050   1.165
 8598SOL    HW126693   0.041   4.958   1.199
 8598SOL    HW226694   0.095   5.112   1.190
 8599SOL     OW26695   0.739   3.126   3.821
 8599SOL    HW126696   0.664   3.059   3.825
 8599SOL    HW226697   0.802   3.108   3.896
 8600SOL     OW26698   5.977   4.441   6.693
 8600SOL    HW126699   5.958   4.490   6.608
 8600SOL    HW226700   5.927   4.484   6.768
 8601SOL     OW26701   0.447   1.104   4.621
 8601SOL    HW126702   0.382   1.143   4.687
 8601SOL    HW226703   0.397   1.067   4.543
 8602SOL     OW26704   2.826   6.869   2.774
 8602SOL    HW126705   2.924   6.866   2.757
 8602SOL    HW226706   2.806   6.943   2.839
 8603SOL     OW26707   3.842   4.001   6.801
 8603SOL    HW126708   3.786   3.982   6.881
 8603SOL    HW226709   3.848   3.919   6.744
 8604SOL     OW26710   5.926   2.696   3.679
 8604SOL    HW126711   5.842   2.670   3.631
 8604SOL    HW226712   5.989   2.740   3.616
 8605SOL     OW26713   3.431   5.275   4.555
 8605SOL    HW126714   3.454   5.196   4.610
 8605SOL    HW226715   3.434   5.250   4.458
 8606SOL     OW26716   1.958   4.127   5.924
 8606SOL    HW126717   1.997   4.219   5.918
 8606SOL    HW226718   2.023   4.067   5.969
 8607SOL     OW26719   3.398   5.500   1.291
 8607SOL    HW126720   3.315   5.482   1.238
 8607SOL    HW226721   3.394   5.449   1.377
 8608SOL     OW26722   4.700   4.885   2.819
 8608SOL    HW126723   4.690   4.859   2.723
 8608SOL    HW226724   4.783   4.940   2.831
 8609SOL     OW26725   3.688   0.763   4.244
 8609SOL    HW126726   3.682   0.860   4.220
 8609SOL    HW226727   3.674   0.708   4.162
 8610SOL     OW26728   1.078   6.997   3.031
 8610SOL    HW126729   1.126   0.034   3.096
 8610SOL    HW226730   1.009   0.031   2.982
 8611SOL     OW26731   1.402   2.362   4.627
 8611SOL    HW126732   1.371   2.457   4.637
 8611SOL    HW226733   1.421   2.343   4.531
 8612SOL     OW26734   3.259   3.273   6.205
 8612SOL    HW126735   3.289   3.316   6.290
 8612SOL    HW226736   3.332   3.215   6.169
 8613SOL     OW26737   2.425   1.429   1.392
 8613SOL    HW126738   2.326   1.424   1.404
 8613SOL    HW226739   2.455   1.359   1.327
 8614SOL     OW26740   0.855   4.134   3.119
 8614SOL    HW126741   0.839   4.062   3.186
 8614SOL    HW226742   0.790   4.209   3.135
 8615SOL     OW26743   4.421   2.010   5.142
 8615SOL    HW126744   4.357   2.011   5.065
 8615SOL    HW226745   4.375   1.970   5.222
 8616SOL     OW26746   0.297   4.692   0.379
 8616SOL    HW126747   0.289   4.788   0.407
 8616SOL    HW226748   0.215   4.642   0.407
 8617SOL     OW26749   6.614   1.619   0.252
 8617SOL    HW126750   6.695   1.563   0.271
 8617SOL    HW226751   6.635   1.715   0.266
 8618SOL     OW26752   4.301   6.875   1.895
 8618SOL    HW126753   4.293   6.867   1.795
 8618SOL    HW226754   4.214   6.908   1.932
 8619SOL     OW26755   4.005   5.161   0.671
 8619SOL    HW126756   4.090   5.114   0.696
 8619SOL    HW226757   4.020   5.260   0.672
 8620SOL     OW26758   6.150   6.641   2.574
 8620SOL    HW126759   6.224   6.688   2.525
 8620SOL    HW226760   6.149   6.545   2.546
 8621SOL     OW26761   6.092   1.253   3.864
 8621SOL    HW126762   6.016   1.296   3.815
 8621SOL    HW226763   6.152   1.324   3.901
 8622SOL     OW26764   4.800   4.225   0.378
 8622SOL    HW126765   4.810   4.299   0.444
 8622SOL    HW226766   4.869   4.155   0.395
 8623SOL     OW26767   0.551   4.547   2.992
 8623SOL    HW126768   0.460   4.528   3.029
 8623SOL    HW226769   0.569   4.645   2.994
 8624SOL     OW26770   1.330   5.082   3.486
 8624SOL    HW126771   1.351   5.038   3.573
 8624SOL    HW226772   1.240   5.052   3.455
 8625SOL     OW26773   4.320   0.619   4.079
 8625SOL    HW126774   4.386   0.694   4.083
 8625SOL    HW226775   4.260   0.624   4.159
 8626SOL     OW26776   3.895   3.378   4.064
 8626SOL    HW126777   3.844   3.327   4.134
 8626SOL    HW226778   3.916   3.470   4.097
 8627SOL     OW26779   1.043   0.274   2.245
 8627SOL    HW126780   0.966   0.337   2.251
 8627SOL    HW226781   1.011   0.180   2.261
 8628SOL     OW26782   6.403   6.606   0.606
 8628SOL    HW126783   6.370   6.527   0.657
 8628SOL    HW226784   6.366   6.605   0.514
 8629SOL     OW26785   1.904   4.804   4.440
 8629SOL    HW126786   1.981   4.787   4.500
 8629SOL    HW226787   1.935   4.806   4.345
 8630SOL     OW26788   6.061   4.287   4.902
 8630SOL    HW126789   6.052   4.266   4.805
 8630SOL    HW226790   5.973   4.275   4.948
 8631SOL     OW26791   3.893   6.220   6.152
 8631SOL    HW126792   3.907   6.126   6.184
 8631SOL    HW226793   3.982   6.263   6.135
 8632SOL     OW26794   3.380   6.692   3.816
 8632SOL    HW126795   3.435   6.722   3.893
 8632SOL    HW226796   3.292   6.659   3.848
 8633SOL     OW26797   5.271   1.356   4.130
 8633SOL    HW126798   5.244   1.310   4.045
 8633SOL    HW226799   5.318   1.290   4.190
 8634SOL     OW26800   6.214   3.639   1.121
 8634SOL    HW126801   6.305   3.679   1.111
 8634SOL    HW226802   6.155   3.702   1.170
 8635SOL     OW26803   6.056   3.881   5.677
 8635SOL    HW126804   6.032   3.856   5.771
 8635SOL    HW226805   6.018   3.970   5.654
 8636SOL     OW26806   6.218   4.931   6.724
 8636SOL    HW126807   6.307   4.949   6.682
 8636SOL    HW226808   6.153   5.002   6.696
 8637SOL     OW26809   1.420   0.849   0.512
 8637SOL    HW126810   1.389   0.935   0.552
 8637SOL    HW226811   1.369   0.831   0.428
 8638SOL     OW26812   2.149   3.258   0.148
 8638SOL    HW126813   2.196   3.185   0.198
 8638SOL    HW226814   2.062   3.279   0.193
 8639SOL     OW26815   5.739   2.335   1.793
 8639SOL    HW126816   5.760   2.413   1.852
 8639SOL    HW226817   5.812   2.325   1.725
 8640SOL     OW26818   5.155   3.764   0.416
 8640SOL    HW126819   5.238   3.750   0.363
 8640SOL    HW226820   5.168   3.840   0.480
 8641SOL     OW26821   6.820   3.880   4.187
 8641SOL    HW126822   6.852   3.870   4.093
 8641SOL    HW226823   6.724   3.852   4.193
 8642SOL     OW26824   4.535   0.508   2.241
 8642SOL    HW126825   4.523   0.436   2.310
 8642SOL    HW226826   4.631   0.513   2.214
 8643SOL     OW26827   4.571   6.830   6.882
 8643SOL    HW126828   4.571   6.730   6.882
 8643SOL    HW226829   4.479   6.864   6.859
 8644SOL     OW26830   5.552   2.743   5.602
 8644SOL    HW126831   5.477   2.751   5.669
 8644SOL    HW226832   5.598   2.655   5.614
 8645SOL     OW26833   6.000   4.886   1.762
 8645SOL    HW126834   6.084   4.845   1.799
 8645SOL    HW226835   5.968   4.958   1.825
 8646SOL     OW26836   5.906   0.817   0.930
 8646SOL    HW126837   5.998   0.856   0.924
 8646SOL    HW226838   5.849   0.857   0.858
 8647SOL     OW26839   3.773   4.794   6.912
 8647SOL    HW126840   3.778   4.893   6.897
 8647SOL    HW226841   3.712   4.776   6.990
 8648SOL     OW26842   5.633   1.199   4.781
 8648SOL    HW126843   5.626   1.123   4.846
 8648SOL    HW226844   5.647   1.284   4.831
 8649SOL     OW26845   5.746   5.292   5.630
 8649SOL    HW126846   5.650   5.268   5.617
 8649SOL    HW226847   5.794   5.216   5.674
 8650SOL     OW26848   1.702   5.124   4.436
 8650SOL    HW126849   1.668   5.037   4.400
 8650SOL    HW226850   1.767   5.164   4.372
 8651SOL     OW26851   4.277   0.840   0.497
 8651SOL    HW126852   4.206   0.769   0.498
 8651SOL    HW226853   4.281   0.882   0.406
 8652SOL     OW26854   1.649   4.768   3.089
 8652SOL    HW126855   1.709   4.786   3.011
 8652SOL    HW226856   1.623   4.671   3.090
 8653SOL     OW26857   6.520   2.880   6.798
 8653SOL    HW126858   6.438   2.918   6.754
 8653SOL    HW226859   6.568   2.822   6.733
 8654SOL     OW26860   0.911   6.358   2.215
 8654SOL    HW126861   0.845   6.295   2.256
 8654SOL    HW226862   0.928   6.433   2.279
 8655SOL     OW26863   5.847   0.215   3.803
 8655SOL    HW126864   5.751   0.200   3.827
 8655SOL    HW226865   5.906   0.159   3.861
 8656SOL     OW26866   5.714   1.289   1.021
 8656SOL    HW126867   5.733   1.366   1.082
 8656SOL    HW226868   5.796   1.265   0.970
 8657SOL     OW26869   4.310   5.269   6.384
 8657SOL    HW126870   4.363   5.231   6.308
 8657SOL    HW226871   4.222   5.221   6.391
 8658SOL     OW26872   4.723   5.412   0.049
 8658SOL    HW126873   4.680   5.495   0.083
 8658SOL    HW226874   4.684   5.333   0.096
 8659SOL     OW26875   4.577   1.076   2.921
 8659SOL    HW126876   4.614   1.166   2.943
 8659SOL    HW226877   4.502   1.086   2.855
 8660SOL     OW26878   5.743   3.892   0.460
 8660SOL    HW126879   5.725   3.964   0.528
 8660SOL    HW226880   5.784   3.813   0.505
 8661SOL     OW26881   5.584   4.058   1.970
 8661SOL    HW126882   5.560   4.116   1.893
 8661SOL    HW226883   5.669   4.090   2.011
 8662SOL     OW26884   5.488   6.715   1.867
 8662SOL    HW126885   5.397   6.677   1.883
 8662SOL    HW226886   5.524   6.680   1.781
 8663SOL     OW26887   2.390   5.833   0.463
 8663SOL    HW126888   2.429   5.899   0.526
 8663SOL    HW226889   2.403   5.865   0.369
 8664SOL     OW26890   4.315   5.327   0.479
 8664SOL    HW126891   4.380   5.350   0.406
 8664SOL    HW226892   4.223   5.355   0.453
 8665SOL     OW26893   4.969   5.832   5.580
 8665SOL    HW126894   5.008   5.920   5.555
 8665SOL    HW226895   4.968   5.772   5.499
 8666SOL     OW26896   5.243   2.510   5.363
 8666SOL    HW126897   5.206   2.487   5.453
 8666SOL    HW226898   5.332   2.466   5.351
 8667SOL     OW26899   5.137   2.128   3.142
 8667SOL    HW126900   5.081   2.144   3.060
 8667SOL    HW226901   5.081   2.140   3.224
 8668SOL     OW26902   5.095   2.648   3.880
 8668SOL    HW126903   5.141   2.581   3.822
 8668SOL    HW226904   5.131   2.739   3.859
 8669SOL     OW26905   3.595   0.319   6.472
 8669SOL    HW126906   3.641   0.361   6.393
 8669SOL    HW226907   3.632   0.228   6.488
 8670SOL     OW26908   3.583   4.985   5.234
 8670SOL    HW126909   3.512   4.919   5.207
 8670SOL    HW226910   3.623   4.957   5.321
 8671SOL     OW26911   5.152   0.833   3.985
 8671SOL    HW126912   5.233   0.819   4.042
 8671SOL    HW226913   5.180   0.839   3.889
 8672SOL     OW26914   2.691   6.146   4.477
 8672SOL    HW126915   2.665   6.201   4.398
 8672SOL    HW226916   2.615   6.143   4.542
 8673SOL     OW26917   0.331   0.852   6.795
 8673SOL    HW126918   0.284   0.764   6.807
 8673SOL    HW226919   0.264   0.923   6.773
 8674SOL     OW26920   6.588   5.884   1.838
 8674SOL    HW126921   6.546   5.905   1.926
 8674SOL    HW226922   6.538   5.929   1.765
 8675SOL     OW26923   3.149   2.204   4.353
 8675SOL    HW126924   3.172   2.293   4.312
 8675SOL    HW226925   3.176   2.131   4.291
 8676SOL     OW26926   3.282   6.983   3.261
 8676SOL    HW126927   3.231   6.967   3.346
 8676SOL    HW226928   3.219   6.982   3.183
 8677SOL     OW26929   2.021   5.379   6.539
 8677SOL    HW126930   1.959   5.458   6.537
 8677SOL    HW226931   2.111   5.406   6.504
 8678SOL     OW26932   0.222   0.181   6.939
 8678SOL    HW126933   0.172   0.103   6.976
 8678SOL    HW226934   0.250   0.241   7.014
 8679SOL     OW26935   6.085   2.468   4.369
 8679SOL    HW126936   6.151   2.394   4.355
 8679SOL    HW226937   6.002   2.431   4.411
 8680SOL     OW26938   0.549   3.600   0.894
 8680SOL    HW126939   0.608   3.547   0.833
 8680SOL    HW226940   0.482   3.539   0.936
 8681SOL     OW26941   4.714   4.262   0.120
 8681SOL    HW126942   4.757   4.342   0.078
 8681SOL    HW226943   4.749   4.250   0.213
 8682SOL     OW26944   3.566   6.479   3.087
 8682SOL    HW126945   3.643   6.474   3.025
 8682SOL    HW226946   3.521   6.568   3.080
 8683SOL     OW26947   1.691   2.225   2.223
 8683SOL    HW126948   1.635   2.230   2.140
 8683SOL    HW226949   1.667   2.143   2.275
 8684SOL     OW26950   0.453   3.301   4.818
 8684SOL    HW126951   0.549   3.274   4.810
 8684SOL    HW226952   0.394   3.223   4.798
 8685SOL     OW26953   1.299   2.117   6.042
 8685SOL    HW126954   1.219   2.096   6.097
 8685SOL    HW226955   1.355   2.186   6.088
 8686SOL     OW26956   6.293   1.787   1.770
 8686SOL    HW126957   6.376   1.743   1.803
 8686SOL    HW226958   6.293   1.787   1.670
 8687SOL     OW26959   3.484   6.128   2.540
 8687SOL    HW126960   3.505   6.079   2.455
 8687SOL    HW226961   3.390   6.108   2.567
 8688SOL     OW26962   3.115   6.234   6.927
 8688SOL    HW126963   3.059   6.308   6.966
 8688SOL    HW226964   3.178   6.273   6.859
 8689SOL     OW26965   3.547   5.948   0.205
 8689SOL    HW126966   3.582   5.914   0.118
 8689SOL    HW226967   3.456   5.911   0.221
 8690SOL     OW26968   1.575   2.552   3.663
 8690SOL    HW126969   1.588   2.489   3.587
 8690SOL    HW226970   1.483   2.542   3.701
 8691SOL     OW26971   4.255   3.015   6.127
 8691SOL    HW126972   4.188   2.945   6.153
 8691SOL    HW226973   4.348   2.978   6.138
 8692SOL     OW26974   3.288   2.019   2.581
 8692SOL    HW126975   3.271   2.028   2.679
 8692SOL    HW226976   3.206   2.045   2.530
 8693SOL     OW26977   5.681   1.705   0.801
 8693SOL    HW126978   5.628   1.700   0.885
 8693SOL    HW226979   5.624   1.676   0.724
 8694SOL     OW26980   4.304   0.774   6.505
 8694SOL    HW126981   4.311   0.682   6.543
 8694SOL    HW226982   4.307   0.841   6.579
 8695SOL     OW26983   4.640   2.770   5.634
 8695SOL    HW126984   4.587   2.704   5.580
 8695SOL    HW226985   4.584   2.800   5.712
 8696SOL     OW26986   3.534   5.959   0.846
 8696SOL    HW126987   3.533   6.055   0.815
 8696SOL    HW226988   3.619   5.916   0.817
 8697SOL     OW26989   6.348   3.831   0.780
 8697SOL    HW126990   6.400   3.906   0.739
 8697SOL    HW226991   6.410   3.754   0.796
 8698SOL     OW26992   5.976   5.986   3.742
 8698SOL    HW126993   6.065   5.941   3.738
 8698SOL    HW226994   5.908   5.930   3.694
 8699SOL     OW26995   1.217   2.044   5.601
 8699SOL    HW126996   1.160   2.018   5.679
 8699SOL    HW226997   1.205   2.141   5.580
 8700SOL     OW26998   2.363   0.898   4.827
 8700SOL    HW126999   2.278   0.890   4.879
 8700SOL    HW227000   2.434   0.940   4.884
 8701SOL     OW27001   1.496   0.910   7.008
 8701SOL    HW127002   1.594   0.924   6.994
 8701SOL    HW227003   1.449   0.916   6.920
 8702SOL     OW27004   5.435   4.877   0.225
 8702SOL    HW127005   5.375   4.813   0.177
 8702SOL    HW227006   5.529   4.844   0.222
 8703SOL     OW27007   2.987   5.544   1.295
 8703SOL    HW127008   2.976   5.445   1.300
 8703SOL    HW227009   3.008   5.570   1.201
 8704SOL     OW27010   6.264   3.368   2.896
 8704SOL    HW127011   6.283   3.357   2.799
 8704SOL    HW227012   6.212   3.452   2.911
 8705SOL     OW27013   5.213   1.237   6.890
 8705SOL    HW127014   5.242   1.166   6.953
 8705SOL    HW227015   5.243   1.326   6.924
 8706SOL     OW27016   4.867   2.672   5.775
 8706SOL    HW127017   4.830   2.580   5.782
 8706SOL    HW227018   4.813   2.725   5.709
 8707SOL     OW27019   4.741   2.033   0.058
 8707SOL    HW127020   4.673   2.040   0.131
 8707SOL    HW227021   4.699   2.060   6.992
 8708SOL     OW27022   4.326   2.124   2.094
 8708SOL    HW127023   4.271   2.060   2.149
 8708SOL    HW227024   4.406   2.153   2.147
 8709SOL     OW27025   6.573   5.495   6.586
 8709SOL    HW127026   6.519   5.449   6.516
 8709SOL    HW227027   6.545   5.463   6.676
 8710SOL     OW27028   2.160   3.121   2.979
 8710SOL    HW127029   2.182   3.136   2.883
 8710SOL    HW227030   2.060   3.118   2.991
 8711SOL     OW27031   6.942   6.012   2.288
 8711SOL    HW127032   6.851   6.046   2.314
 8711SOL    HW227033   6.932   5.935   2.225
 8712SOL     OW27034   4.093   2.291   4.394
 8712SOL    HW127035   4.036   2.347   4.453
 8712SOL    HW227036   4.038   2.252   4.320
 8713SOL     OW27037   0.128   4.353   3.534
 8713SOL    HW127038   0.227   4.343   3.523
 8713SOL    HW227039   0.083   4.267   3.513
 8714SOL     OW27040   0.350   1.076   6.026
 8714SOL    HW127041   0.338   1.135   6.105
 8714SOL    HW227042   0.303   1.115   5.947
 8715SOL     OW27043   5.194   0.410   1.450
 8715SOL    HW127044   5.113   0.401   1.509
 8715SOL    HW227045   5.178   0.484   1.384
 8716SOL     OW27046   1.067   1.120   1.247
 8716SOL    HW127047   1.052   1.219   1.254
 8716SOL    HW227048   1.119   1.101   1.163
 8717SOL     OW27049   4.046   3.629   2.536
 8717SOL    HW127050   4.080   3.552   2.590
 8717SOL    HW227051   3.950   3.644   2.557
 8718SOL     OW27052   1.438   2.822   5.503
 8718SOL    HW127053   1.479   2.744   5.457
 8718SOL    HW227054   1.338   2.818   5.494
 8719SOL     OW27055   1.799   0.464   6.097
 8719SOL    HW127056   1.873   0.469   6.163
 8719SOL    HW227057   1.738   0.542   6.108
 8720SOL     OW27058   6.398   5.002   5.392
 8720SOL    HW127059   6.356   5.019   5.303
 8720SOL    HW227060   6.400   5.088   5.444
 8721SOL     OW27061   5.847   2.348   3.866
 8721SOL    HW127062   5.942   2.338   3.839
 8721SOL    HW227063   5.836   2.323   3.962
 8722SOL     OW27064   4.012   0.632   0.711
 8722SOL    HW127065   3.924   0.585   0.714
 8722SOL    HW227066   4.085   0.565   0.703
 8723SOL     OW27067   5.413   6.112   1.682
 8723SOL    HW127068   5.368   6.081   1.598
 8723SOL    HW227069   5.421   6.212   1.681
 8724SOL     OW27070   6.051   6.638   4.832
 8724SOL    HW127071   5.958   6.673   4.821
 8724SOL    HW227072   6.053   6.571   4.906
 8725SOL     OW27073   2.368   6.816   0.007
 8725SOL    HW127074   2.441   6.840   0.071
 8725SOL    HW227075   2.384   6.725   6.991
 8726SOL     OW27076   6.416   0.663   1.012
 8726SOL    HW127077   6.489   0.661   1.080
 8726SOL    HW227078   6.378   0.755   1.006
 8727SOL     OW27079   6.376   6.513   1.689
 8727SOL    HW127080   6.425   6.468   1.613
 8727SOL    HW227081   6.441   6.554   1.751
 8728SOL     OW27082   4.051   0.077   4.726
 8728SOL    HW127083   4.089   0.163   4.691
 8728SOL    HW227084   4.106   0.000   4.694
 8729SOL     OW27085   4.832   5.995   3.213
 8729SOL    HW127086   4.859   6.037   3.300
 8729SOL    HW227087   4.908   6.002   3.148
 8730SOL     OW27088   6.855   5.286   2.795
 8730SOL    HW127089   6.763   5.265   2.829
 8730SOL    HW227090   6.872   5.235   2.711
 8731SOL     OW27091   2.141   1.855   2.938
 8731SOL    HW127092   2.115   1.831   2.845
 8731SOL    HW227093   2.229   1.904   2.937
 8732SOL     OW27094   4.856   4.548   1.815
 8732SOL    HW127095   4.837   4.594   1.902
 8732SOL    HW227096   4.811   4.459   1.815
 8733SOL     OW27097   1.632   5.890   3.395
 8733SOL    HW127098   1.722   5.933   3.390
 8733SOL    HW227099   1.610   5.850   3.306
 8734SOL     OW27100   1.153   4.422   1.890
 8734SOL    HW127101   1.180   4.515   1.866
 8734SOL    HW227102   1.207   4.357   1.837
 8735SOL     OW27103   0.593   1.892   6.865
 8735SOL    HW127104   0.497   1.869   6.884
 8735SOL    HW227105   0.653   1.835   6.921
 8736SOL     OW27106   0.535   6.555   0.171
 8736SOL    HW127107   0.551   6.515   0.080
 8736SOL    HW227108   0.446   6.524   0.204
 8737SOL     OW27109   3.423   0.005   6.350
 8737SOL    HW127110   3.450   0.008   6.446
 8737SOL    HW227111   3.328   6.995   6.343
 8738SOL     OW27112   1.860   4.048   4.149
 8738SOL    HW127113   1.955   4.075   4.163
 8738SOL    HW227114   1.844   3.958   4.190
 8739SOL     OW27115   6.588   5.327   6.170
 8739SOL    HW127116   6.555   5.240   6.134
 8739SOL    HW227117   6.515   5.396   6.161
 8740SOL     OW27118   4.251   1.249   5.627
 8740SOL    HW127119   4.154   1.229   5.643
 8740SOL    HW227120   4.260   1.342   5.592
 8741SOL     OW27121   1.977   1.432   2.071
 8741SOL    HW127122   2.039   1.458   1.997
 8741SOL    HW227123   2.000   1.340   2.103
 8742SOL     OW27124   4.955   6.132   1.668
 8742SOL    HW127125   4.876   6.076   1.694
 8742SOL    HW227126   4.943   6.225   1.705
 8743SOL     OW27127   2.178   6.733   2.765
 8743SOL    HW127128   2.112   6.782   2.708
 8743SOL    HW227129   2.271   6.761   2.739
 8744SOL     OW27130   3.669   2.716   6.118
 8744SOL    HW127131   3.640   2.672   6.033
 8744SOL    HW227132   3.645   2.657   6.195
 8745SOL     OW27133   6.343   2.566   5.672
 8745SOL    HW127134   6.378   2.587   5.581
 8745SOL    HW227135   6.243   2.564   5.670
 8746SOL     OW27136   4.085   4.228   5.265
 8746SOL    HW127137   4.153   4.220   5.338
 8746SOL    HW227138   4.118   4.293   5.196
 8747SOL     OW27139   0.879   2.801   3.748
 8747SOL    HW127140   0.892   2.748   3.664
 8747SOL    HW227141   0.967   2.841   3.775
 8748SOL     OW27142   0.590   0.880   6.744
 8748SOL    HW127143   0.597   0.947   6.671
 8748SOL    HW227144   0.494   0.855   6.758
 8749SOL     OW27145   2.749   0.409   4.934
 8749SOL    HW127146   2.731   0.375   5.026
 8749SOL    HW227147   2.845   0.396   4.911
 8750SOL     OW27148   2.371   3.138   5.434
 8750SOL    HW127149   2.418   3.104   5.516
 8750SOL    HW227150   2.411   3.096   5.353
 8751SOL     OW27151   6.666   6.814   1.970
 8751SOL    HW127152   6.764   6.834   1.973
 8751SOL    HW227153   6.615   6.897   1.948
 8752SOL     OW27154   2.837   4.094   0.198
 8752SOL    HW127155   2.747   4.050   0.200
 8752SOL    HW227156   2.901   4.037   0.147
 8753SOL     OW27157   5.066   1.498   4.623
 8753SOL    HW127158   5.138   1.492   4.692
 8753SOL    HW227159   4.977   1.495   4.667
 8754SOL     OW27160   1.030   1.982   5.795
 8754SOL    HW127161   1.038   2.011   5.891
 8754SOL    HW227162   0.933   1.975   5.771
 8755SOL     OW27163   2.876   1.500   6.796
 8755SOL    HW127164   2.963   1.469   6.834
 8755SOL    HW227165   2.816   1.422   6.780
 8756SOL     OW27166   2.100   3.319   3.561
 8756SOL    HW127167   2.138   3.380   3.631
 8756SOL    HW227168   2.135   3.226   3.576
 8757SOL     OW27169   5.717   6.339   6.304
 8757SOL    HW127170   5.751   6.311   6.215
 8757SOL    HW227171   5.668   6.426   6.296
 8758SOL     OW27172   5.102   5.968   2.446
 8758SOL    HW127173   5.042   6.048   2.437
 8758SOL    HW227174   5.159   5.979   2.527
 8759SOL     OW27175   4.348   1.668   6.281
 8759SOL    HW127176   4.379   1.603   6.351
 8759SOL    HW227177   4.312   1.617   6.202
 8760SOL     OW27178   1.922   1.633   4.825
 8760SOL    HW127179   1.893   1.651   4.920
 8760SOL    HW227180   1.902   1.538   4.802
 8761SOL     OW27181   4.475   0.384   1.110
 8761SOL    HW127182   4.471   0.339   1.199
 8761SOL    HW227183   4.512   0.476   1.121
 8762SOL     OW27184   1.405   3.267   2.807
 8762SOL    HW127185   1.425   3.174   2.774
 8762SOL    HW227186   1.491   3.311   2.834
 8763SOL     OW27187   6.120   5.990   4.840
 8763SOL    HW127188   6.107   5.921   4.769
 8763SOL    HW227189   6.039   5.993   4.899
 8764SOL     OW27190   4.898   1.111   3.820
 8764SOL    HW127191   4.880   1.188   3.881
 8764SOL    HW227192   4.885   1.025   3.870
 8765SOL     OW27193   6.185   6.256   4.933
 8765SOL    HW127194   6.267   6.290   4.887
 8765SOL    HW227195   6.176   6.158   4.915
 8766SOL     OW27196   3.851   4.893   3.523
 8766SOL    HW127197   3.868   4.990   3.540
 8766SOL    HW227198   3.904   4.838   3.587
 8767SOL     OW27199   4.380   0.686   3.161
 8767SOL    HW127200   4.299   0.671   3.104
 8767SOL    HW227201   4.430   0.766   3.127
 8768SOL     OW27202   1.935   2.876   0.066
 8768SOL    HW127203   1.949   2.925   0.153
 8768SOL    HW227204   2.014   2.818   0.048
 8769SOL     OW27205   0.775   0.320   5.434
 8769SOL    HW127206   0.700   0.290   5.376
 8769SOL    HW227207   0.844   0.367   5.378
 8770SOL     OW27208   4.885   3.777   2.212
 8770SOL    HW127209   4.865   3.680   2.205
 8770SOL    HW227210   4.861   3.823   2.126
 8771SOL     OW27211   2.102   0.505   5.880
 8771SOL    HW127212   2.030   0.484   5.946
 8771SOL    HW227213   2.187   0.525   5.929
 8772SOL     OW27214   5.863   6.821   0.125
 8772SOL    HW127215   5.855   6.916   0.094
 8772SOL    HW227216   5.942   6.778   0.081
 8773SOL     OW27217   4.317   2.026   3.524
 8773SOL    HW127218   4.284   1.951   3.466
 8773SOL    HW227219   4.373   2.088   3.469
 8774SOL     OW27220   1.569   1.132   0.724
 8774SOL    HW127221   1.579   1.230   0.742
 8774SOL    HW227222   1.494   1.117   0.659
 8775SOL     OW27223   5.508   6.973   4.045
 8775SOL    HW127224   5.458   7.012   4.123
 8775SOL    HW227225   5.563   6.895   4.076
 8776SOL     OW27226   3.247   2.983   4.698
 8776SOL    HW127227   3.236   3.060   4.635
 8776SOL    HW227228   3.158   2.954   4.731
 8777SOL     OW27229   6.669   4.437   1.473
 8777SOL    HW127230   6.593   4.490   1.510
 8777SOL    HW227231   6.737   4.423   1.545
 8778SOL     OW27232   0.255   2.198   4.202
 8778SOL    HW127233   0.333   2.260   4.207
 8778SOL    HW227234   0.237   2.159   4.292
 8779SOL     OW27235   1.994   5.406   2.368
 8779SOL    HW127236   1.953   5.490   2.331
 8779SOL    HW227237   1.978   5.402   2.467
 8780SOL     OW27238   1.659   5.748   3.665
 8780SOL    HW127239   1.653   5.801   3.581
 8780SOL    HW227240   1.755   5.735   3.689
 8781SOL     OW27241   6.582   1.456   3.520
 8781SOL    HW127242   6.483   1.454   3.528
 8781SOL    HW227243   6.608   1.478   3.425
 8782SOL     OW27244   5.731   1.037   1.511
 8782SOL    HW127245   5.691   1.059   1.422
 8782SOL    HW227246   5.684   1.087   1.583
 8783SOL     OW27247   6.229   4.006   3.836
 8783SOL    HW127248   6.216   4.086   3.895
 8783SOL    HW227249   6.193   3.925   3.881
 8784SOL     OW27250   5.116   4.737   5.052
 8784SOL    HW127251   5.178   4.725   4.974
 8784SOL    HW227252   5.059   4.655   5.061
 8785SOL     OW27253   5.883   3.449   0.018
 8785SOL    HW127254   5.944   3.453   0.098
 8785SOL    HW227255   5.788   3.445   0.049
 8786SOL     OW27256   2.513   6.795   6.735
 8786SOL    HW127257   2.569   6.827   6.812
 8786SOL    HW227258   2.481   6.702   6.754
 8787SOL     OW27259   1.604   2.951   2.240
 8787SOL    HW127260   1.591   2.853   2.249
 8787SOL    HW227261   1.702   2.972   2.232
 8788SOL     OW27262   6.408   2.211   5.068
 8788SOL    HW127263   6.318   2.168   5.072
 8788SOL    HW227264   6.402   2.306   5.097
 8789SOL     OW27265   5.834   0.243   6.006
 8789SOL    HW127266   5.933   0.257   6.019
 8789SOL    HW227267   5.800   0.177   6.072
 8790SOL     OW27268   6.482   0.907   6.929
 8790SOL    HW127269   6.535   0.872   6.852
 8790SOL    HW227270   6.512   1.000   6.950
 8791SOL     OW27271   5.273   0.082   5.503
 8791SOL    HW127272   5.266   0.094   5.404
 8791SOL    HW227273   5.188   0.112   5.546
 8792SOL     OW27274   3.885   0.010   3.077
 8792SOL    HW127275   3.845   0.099   3.053
 8792SOL    HW227276   3.959   7.010   3.014
 8793SOL     OW27277   1.881   5.755   4.043
 8793SOL    HW127278   1.844   5.693   4.112
 8793SOL    HW227279   1.806   5.807   4.002
 8794SOL     OW27280   3.240   6.358   2.485
 8794SOL    HW127281   3.334   6.389   2.471
 8794SOL    HW227282   3.198   6.414   2.557
 8795SOL     OW27283   1.645   6.650   5.149
 8795SOL    HW127284   1.632   6.555   5.120
 8795SOL    HW227285   1.620   6.711   5.074
 8796SOL     OW27286   3.678   1.475   5.407
 8796SOL    HW127287   3.750   1.419   5.366
 8796SOL    HW227288   3.591   1.427   5.402
 8797SOL     OW27289   1.730   6.412   6.336
 8797SOL    HW127290   1.757   6.339   6.273
 8797SOL    HW227291   1.737   6.501   6.290
 8798SOL     OW27292   5.626   4.326   5.459
 8798SOL    HW127293   5.556   4.388   5.424
 8798SOL    HW227294   5.592   4.232   5.459
 8799SOL     OW27295   2.362   4.411   3.515
 8799SOL    HW127296   2.400   4.394   3.424
 8799SOL    HW227297   2.272   4.454   3.507
 8800SOL     OW27298   5.190   3.639   5.367
 8800SOL    HW127299   5.161   3.597   5.453
 8800SOL    HW227300   5.201   3.738   5.381
 8801SOL     OW27301   2.192   1.151   3.848
 8801SOL    HW127302   2.227   1.115   3.935
 8801SOL    HW227303   2.205   1.250   3.846
 8802SOL     OW27304   1.033   0.074   1.228
 8802SOL    HW127305   0.978   0.156   1.240
 8802SOL    HW227306   0.986   0.011   1.167
 8803SOL     OW27307   1.524   4.681   6.221
 8803SOL    HW127308   1.518   4.592   6.266
 8803SOL    HW227309   1.477   4.750   6.277
 8804SOL     OW27310   4.348   0.925   1.688
 8804SOL    HW127311   4.256   0.965   1.699
 8804SOL    HW227312   4.344   0.850   1.623
 8805SOL     OW27313   1.953   6.908   3.769
 8805SOL    HW127314   1.926   6.812   3.758
 8805SOL    HW227315   1.988   6.942   3.682
 8806SOL     OW27316   2.070   5.137   1.781
 8806SOL    HW127317   2.160   5.160   1.746
 8806SOL    HW227318   2.029   5.218   1.825
 8807SOL     OW27319   6.657   5.709   5.954
 8807SOL    HW127320   6.591   5.639   5.927
 8807SOL    HW227321   6.611   5.797   5.963
 8808SOL     OW27322   5.421   1.751   0.642
 8808SOL    HW127323   5.377   1.674   0.596
 8808SOL    HW227324   5.469   1.807   0.575
 8809SOL     OW27325   5.469   3.594   1.924
 8809SOL    HW127326   5.546   3.531   1.912
 8809SOL    HW227327   5.408   3.558   1.995
 8810SOL     OW27328   5.849   1.755   5.041
 8810SOL    HW127329   5.776   1.822   5.053
 8810SOL    HW227330   5.820   1.684   4.976
 8811SOL     OW27331   2.134   1.797   4.036
 8811SOL    HW127332   2.039   1.774   4.057
 8811SOL    HW227333   2.140   1.892   4.006
 8812SOL     OW27334   0.677   0.532   0.716
 8812SOL    HW127335   0.652   0.435   0.723
 8812SOL    HW227336   0.771   0.540   0.685
 8813SOL     OW27337   1.450   5.065   1.564
 8813SOL    HW127338   1.482   5.107   1.479
 8813SOL    HW227339   1.523   5.066   1.631
 8814SOL     OW27340   6.867   0.719   6.943
 8814SOL    HW127341   6.817   0.665   6.874
 8814SOL    HW227342   6.825   0.704   0.012
 8815SOL     OW27343   6.603   5.689   0.818
 8815SOL    HW127344   6.607   5.752   0.740
 8815SOL    HW227345   6.672   5.714   0.886
 8816SOL     OW27346   1.268   6.766   0.732
 8816SOL    HW127347   1.294   6.739   0.639
 8816SOL    HW227348   1.328   6.839   0.763
 8817SOL     OW27349   0.429   5.605   5.576
 8817SOL    HW127350   0.523   5.572   5.576
 8817SOL    HW227351   0.428   5.705   5.586
 8818SOL     OW27352   0.069   3.727   3.213
 8818SOL    HW127353   0.034   3.635   3.199
 8818SOL    HW227354   0.155   3.738   3.164
 8819SOL     OW27355   4.567   6.635   3.785
 8819SOL    HW127356   4.486   6.595   3.741
 8819SOL    HW227357   4.600   6.572   3.855
 8820SOL     OW27358   2.197   2.531   4.158
 8820SOL    HW127359   2.244   2.464   4.100
 8820SOL    HW227360   2.265   2.595   4.195
 8821SOL     OW27361   1.616   6.744   6.511
 8821SOL    HW127362   1.668   6.661   6.534
 8821SOL    HW227363   1.524   6.719   6.481
 8822SOL     OW27364   0.666   0.707   2.987
 8822SOL    HW127365   0.583   0.651   2.992
 8822SOL    HW227366   0.745   0.648   2.972
 8823SOL     OW27367   2.232   0.526   1.118
 8823SOL    HW127368   2.180   0.497   1.038
 8823SOL    HW227369   2.170   0.539   1.196
 8824SOL     OW27370   2.645   3.427   0.550
 8824SOL    HW127371   2.657   3.510   0.495
 8824SOL    HW227372   2.554   3.390   0.535
 8825SOL     OW27373   1.813   0.471   3.523
 8825SOL    HW127374   1.820   0.555   3.469
 8825SOL    HW227375   1.762   0.402   3.472
 8826SOL     OW27376   6.118   2.434   0.190
 8826SOL    HW127377   6.051   2.497   0.152
 8826SOL    HW227378   6.177   2.483   0.254
 8827SOL     OW27379   3.103   1.073   3.139
 8827SOL    HW127380   3.031   1.013   3.103
 8827SOL    HW227381   3.103   1.069   3.238
 8828SOL     OW27382   4.159   5.469   3.689
 8828SOL    HW127383   4.196   5.429   3.773
 8828SOL    HW227384   4.079   5.525   3.712
 8829SOL     OW27385   7.020   3.166   0.270
 8829SOL    HW127386   0.080   3.180   0.213
 8829SOL    HW227387   6.950   3.118   0.217
 8830SOL     OW27388   6.968   1.677   6.628
 8830SOL    HW127389   6.874   1.678   6.663
 8830SOL    HW227390   6.994   1.583   6.606
 8831SOL     OW27391   5.549   1.126   3.506
 8831SOL    HW127392   5.573   1.062   3.432
 8831SOL    HW227393   5.471   1.181   3.477
 8832SOL     OW27394   0.041   6.415   2.025
 8832SOL    HW127395   7.005   6.438   2.104
 8832SOL    HW227396   0.050   6.316   2.017
 8833SOL     OW27397   2.070   6.029   5.352
 8833SOL    HW127398   2.131   6.051   5.276
 8833SOL    HW227399   1.979   6.065   5.332
 8834SOL     OW27400   5.543   3.369   4.354
 8834SOL    HW127401   5.515   3.321   4.271
 8834SOL    HW227402   5.497   3.457   4.359
 8835SOL     OW27403   6.246   0.558   5.505
 8835SOL    HW127404   6.289   0.627   5.448
 8835SOL    HW227405   6.201   0.490   5.447
 8836SOL     OW27406   4.494   0.929   0.870
 8836SOL    HW127407   4.486   0.985   0.953
 8836SOL    HW227408   4.436   0.967   0.798
 8837SOL     OW27409   1.231   0.199   2.713
 8837SOL    HW127410   1.188   0.274   2.763
 8837SOL    HW227411   1.176   0.116   2.724
 8838SOL     OW27412   3.098   5.183   3.397
 8838SOL    HW127413   3.194   5.210   3.396
 8838SOL    HW227414   3.073   5.154   3.490
 8839SOL     OW27415   5.701   5.899   3.149
 8839SOL    HW127416   5.671   5.986   3.110
 8839SOL    HW227417   5.743   5.914   3.238
 8840SOL     OW27418   6.515   2.262   2.215
 8840SOL    HW127419   6.588   2.199   2.191
 8840SOL    HW227420   6.507   2.332   2.144
 8841SOL     OW27421   1.302   0.786   5.016
 8841SOL    HW127422   1.300   0.882   4.986
 8841SOL    HW227423   1.380   0.772   5.077
 8842SOL     OW27424   3.737   2.677   0.720
 8842SOL    HW127425   3.800   2.712   0.789
 8842SOL    HW227426   3.705   2.752   0.662
 8843SOL     OW27427   1.703   2.565   5.795
 8843SOL    HW127428   1.682   2.646   5.850
 8843SOL    HW227429   1.729   2.593   5.703
 8844SOL     OW27430   5.900   1.286   6.234
 8844SOL    HW127431   5.885   1.194   6.196
 8844SOL    HW227432   5.818   1.315   6.284
 8845SOL     OW27433   4.134   3.422   0.294
 8845SOL    HW127434   4.042   3.461   0.300
 8845SOL    HW227435   4.197   3.489   0.255
 8846SOL     OW27436   2.083   5.935   4.043
 8846SOL    HW127437   2.142   5.914   4.121
 8846SOL    HW227438   1.994   5.892   4.056
 8847SOL     OW27439   2.958   0.847   2.682
 8847SOL    HW127440   2.905   0.765   2.704
 8847SOL    HW227441   2.962   0.858   2.583
 8848SOL     OW27442   2.485   1.001   1.090
 8848SOL    HW127443   2.391   0.971   1.078
 8848SOL    HW227444   2.542   0.959   1.020
 8849SOL     OW27445   2.442   5.778   3.141
 8849SOL    HW127446   2.359   5.728   3.118
 8849SOL    HW227447   2.418   5.869   3.177
 8850SOL     OW27448   2.365   1.566   0.009
 8850SOL    HW127449   2.298   1.625   0.055
 8850SOL    HW227450   2.402   1.500   0.075
 8851SOL     OW27451   1.893   4.507   2.247
 8851SOL    HW127452   1.830   4.561   2.192
 8851SOL    HW227453   1.841   4.450   2.311
 8852SOL     OW27454   1.462   1.951   5.569
 8852SOL    HW127455   1.372   1.994   5.573
 8852SOL    HW227456   1.482   1.909   5.658
 8853SOL     OW27457   2.987   1.180   1.867
 8853SOL    HW127458   3.029   1.090   1.857
 8853SOL    HW227459   3.055   1.244   1.904
 8854SOL     OW27460   1.756   3.157   5.059
 8854SOL    HW127461   1.815   3.208   5.121
 8854SOL    HW227462   1.794   3.066   5.045
 8855SOL     OW27463   6.215   5.330   1.719
 8855SOL    HW127464   6.137   5.332   1.781
 8855SOL    HW227465   6.203   5.257   1.652
 8856SOL     OW27466   6.285   5.769   6.512
 8856SOL    HW127467   6.382   5.746   6.520
 8856SOL    HW227468   6.242   5.766   6.602
 8857SOL     OW27469   6.861   2.232   4.758
 8857SOL    HW127470   6.913   2.273   4.683
 8857SOL    HW227471   6.827   2.303   4.818
 8858SOL     OW27472   0.420   4.781   5.230
 8858SOL    HW127473   0.422   4.752   5.135
 8858SOL    HW227474   0.340   4.740   5.275
 8859SOL     OW27475   1.016   0.683   4.037
 8859SOL    HW127476   1.078   0.606   4.021
 8859SOL    HW227477   1.006   0.736   3.953
 8860SOL     OW27478   6.919   3.064   1.624
 8860SOL    HW127479   7.006   3.113   1.620
 8860SOL    HW227480   6.845   3.126   1.599
 8861SOL     OW27481   4.228   1.114   0.802
 8861SOL    HW127482   4.260   1.144   0.712
 8861SOL    HW227483   4.184   1.024   0.793
 8862SOL     OW27484   4.588   5.538   4.395
 8862SOL    HW127485   4.532   5.455   4.405
 8862SOL    HW227486   4.612   5.550   4.298
 8863SOL     OW27487   2.099   4.491   3.538
 8863SOL    HW127488   2.040   4.459   3.464
 8863SOL    HW227489   2.077   4.586   3.560
 8864SOL     OW27490   4.695   3.781   6.360
 8864SOL    HW127491   4.705   3.765   6.261
 8864SOL    HW227492   4.627   3.852   6.376
 8865SOL     OW27493   2.727   1.520   5.689
 8865SOL    HW127494   2.700   1.582   5.615
 8865SOL    HW227495   2.670   1.438   5.686
 8866SOL     OW27496   5.590   6.500   2.563
 8866SOL    HW127497   5.580   6.521   2.466
 8866SOL    HW227498   5.535   6.565   2.617
 8867SOL     OW27499   6.555   3.575   2.992
 8867SOL    HW127500   6.492   3.652   2.996
 8867SOL    HW227501   6.522   3.508   2.926
 8868SOL     OW27502   6.982   3.228   2.364
 8868SOL    HW127503   6.902   3.170   2.354
 8868SOL    HW227504   7.005   3.236   2.461
 8869SOL     OW27505   4.489   5.082   4.641
 8869SOL    HW127506   4.483   5.144   4.719
 8869SOL    HW227507   4.468   5.131   4.557
 8870SOL     OW27508   2.412   6.865   2.051
 8870SOL    HW127509   2.486   6.910   2.000
 8870SOL    HW227510   2.326   6.914   2.037
 8871SOL     OW27511   1.015   1.260   3.269
 8871SOL    HW127512   1.081   1.326   3.233
 8871SOL    HW227513   1.003   1.274   3.367
 8872SOL     OW27514   0.780   4.471   6.122
 8872SOL    HW127515   0.764   4.402   6.051
 8872SOL    HW227516   0.788   4.425   6.211
 8873SOL     OW27517   1.874   0.573   1.842
 8873SOL    HW127518   1.870   0.658   1.789
 8873SOL    HW227519   1.966   0.534   1.836
 8874SOL     OW27520   1.457   5.177   1.311
 8874SOL    HW127521   1.462   5.269   1.272
 8874SOL    HW227522   1.453   5.110   1.237
 8875SOL     OW27523   6.940   3.248   3.941
 8875SOL    HW127524   6.911   3.154   3.920
 8875SOL    HW227525   6.867   3.295   3.992
 8876SOL     OW27526   3.202   0.683   6.359
 8876SOL    HW127527   3.263   0.724   6.292
 8876SOL    HW227528   3.108   0.688   6.325
 8877SOL     OW27529   1.429   3.328   1.812
 8877SOL    HW127530   1.457   3.271   1.735
 8877SOL    HW227531   1.339   3.369   1.792
 8878SOL     OW27532   3.613   4.458   0.548
 8878SOL    HW127533   3.656   4.382   0.598
 8878SOL    HW227534   3.597   4.431   0.453
 8879SOL     OW27535   6.556   4.944   2.713
 8879SOL    HW127536   6.610   4.888   2.776
 8879SOL    HW227537   6.595   5.036   2.709
 8880SOL     OW27538   3.974   6.541   3.873
 8880SOL    HW127539   3.905   6.540   3.800
 8880SOL    HW227540   4.047   6.604   3.849
 8881SOL     OW27541   4.946   4.505   3.860
 8881SOL    HW127542   5.037   4.508   3.817
 8881SOL    HW227543   4.880   4.466   3.797
 8882SOL     OW27544   3.980   0.947   0.337
 8882SOL    HW127545   4.003   0.871   0.397
 8882SOL    HW227546   3.936   1.019   0.389
 8883SOL     OW27547   0.085   6.973   6.011
 8883SOL    HW127548   0.110   6.879   6.032
 8883SOL    HW227549   0.116   0.012   6.085
 8884SOL     OW27550   5.281   4.433   5.031
 8884SOL    HW127551   5.198   4.451   4.977
 8884SOL    HW227552   5.324   4.520   5.055
 8885SOL     OW27553   5.701   5.346   0.213
 8885SOL    HW127554   5.777   5.341   0.277
 8885SOL    HW227555   5.723   5.292   0.131
 8886SOL     OW27556   3.781   5.125   6.598
 8886SOL    HW127557   3.829   5.091   6.679
 8886SOL    HW227558   3.686   5.144   6.621
 8887SOL     OW27559   4.196   0.423   0.719
 8887SOL    HW127560   4.180   0.324   0.721
 8887SOL    HW227561   4.236   0.448   0.631
 8888SOL     OW27562   1.987   2.031   3.603
 8888SOL    HW127563   1.895   2.058   3.573
 8888SOL    HW227564   2.010   2.077   3.688
 8889SOL     OW27565   6.975   6.505   5.937
 8889SOL    HW127566   6.951   6.488   5.842
 8889SOL    HW227567   6.956   6.423   5.991
 8890SOL     OW27568   0.186   6.133   0.006
 8890SOL    HW127569   0.132   6.151   0.089
 8890SOL    HW227570   0.132   6.077   6.963
 8891SOL     OW27571   5.165   4.615   6.879
 8891SOL    HW127572   5.258   4.596   6.848
 8891SOL    HW227573   5.101   4.552   6.834
 8892SOL     OW27574   3.778   5.156   3.726
 8892SOL    HW127575   3.743   5.241   3.766
 8892SOL    HW227576   3.844   5.114   3.788
 8893SOL     OW27577   1.371   5.034   5.150
 8893SOL    HW127578   1.337   5.049   5.243
 8893SOL    HW227579   1.338   4.946   5.116
 8894SOL     OW27580   4.994   1.929   0.784
 8894SOL    HW127581   5.050   2.004   0.821
 8894SOL    HW227582   4.903   1.933   0.826
 8895SOL     OW27583   0.866   2.979   0.746
 8895SOL    HW127584   0.796   2.972   0.675
 8895SOL    HW227585   0.874   3.074   0.776
 8896SOL     OW27586   1.077   2.887   4.893
 8896SOL    HW127587   1.095   2.985   4.884
 8896SOL    HW227588   1.025   2.855   4.814
 8897SOL     OW27589   2.096   3.956   3.738
 8897SOL    HW127590   2.016   3.904   3.768
 8897SOL    HW227591   2.148   3.901   3.672
 8898SOL     OW27592   5.676   3.663   2.580
 8898SOL    HW127593   5.775   3.673   2.569
 8898SOL    HW227594   5.629   3.709   2.505
 8899SOL     OW27595   6.700   4.695   6.001
 8899SOL    HW127596   6.674   4.754   6.078
 8899SOL    HW227597   6.626   4.630   5.983
 8900SOL     OW27598   5.708   2.251   3.501
 8900SOL    HW127599   5.789   2.266   3.444
 8900SOL    HW227600   5.735   2.205   3.586
 8901SOL     OW27601   0.753   2.103   3.536
 8901SOL    HW127602   0.783   2.085   3.443
 8901SOL    HW227603   0.831   2.093   3.598
 8902SOL     OW27604   1.272   4.623   0.185
 8902SOL    HW127605   1.323   4.558   0.127
 8902SOL    HW227606   1.335   4.667   0.249
 8903SOL     OW27607   1.252   1.159   5.310
 8903SOL    HW127608   1.200   1.084   5.268
 8903SOL    HW227609   1.192   1.239   5.318
 8904SOL     OW27610   0.138   1.479   2.586
 8904SOL    HW127611   0.207   1.435   2.528
 8904SOL    HW227612   0.122   1.572   2.554
 8905SOL     OW27613   1.661   2.925   2.576
 8905SOL    HW127614   1.706   2.837   2.591
 8905SOL    HW227615   1.730   2.997   2.566
 8906SOL     OW27616   0.676   6.815   0.553
 8906SOL    HW127617   0.727   6.882   0.607
 8906SOL    HW227618   0.665   6.731   0.606
 8907SOL     OW27619   3.258   2.638   5.293
 8907SOL    HW127620   3.228   2.543   5.284
 8907SOL    HW227621   3.179   2.699   5.284
 8908SOL     OW27622   1.419   4.694   0.432
 8908SOL    HW127623   1.433   4.793   0.437
 8908SOL    HW227624   1.359   4.665   0.506
 8909SOL     OW27625   2.789   0.816   6.064
 8909SOL    HW127626   2.704   0.806   6.117
 8909SOL    HW227627   2.812   0.913   6.056
 8910SOL     OW27628   0.804   2.420   5.308
 8910SOL    HW127629   0.769   2.440   5.400
 8910SOL    HW227630   0.895   2.459   5.298
 8911SOL     OW27631   5.064   1.807   4.223
 8911SOL    HW127632   5.118   1.724   4.237
 8911SOL    HW227633   4.984   1.806   4.283
 8912SOL     OW27634   4.051   3.115   5.634
 8912SOL    HW127635   4.020   3.089   5.543
 8912SOL    HW227636   4.065   3.214   5.637
 8913SOL     OW27637   5.515   5.333   6.886
 8913SOL    HW127638   5.435   5.328   6.945
 8913SOL    HW227639   5.593   5.289   6.931
 8914SOL     OW27640   5.166   6.742   5.231
 8914SOL    HW127641   5.262   6.769   5.237
 8914SOL    HW227642   5.108   6.820   5.253
 8915SOL     OW27643   1.038   1.350   4.069
 8915SOL    HW127644   0.967   1.410   4.031
 8915SOL    HW227645   1.032   1.350   4.168
 8916SOL     OW27646   5.608   1.936   6.780
 8916SOL    HW127647   5.671   1.905   6.851
 8916SOL    HW227648   5.514   1.915   6.807
 8917SOL     OW27649   5.919   1.610   0.673
 8917SOL    HW127650   6.011   1.613   0.712
 8917SOL    HW227651   5.855   1.656   0.735
 8918SOL     OW27652   1.757   5.618   1.032
 8918SOL    HW127653   1.790   5.525   1.016
 8918SOL    HW227654   1.662   5.614   1.065
 8919SOL     OW27655   5.186   4.972   6.576
 8919SOL    HW127656   5.228   4.991   6.665
 8919SOL    HW227657   5.124   5.046   6.551
 8920SOL     OW27658   0.470   1.263   0.319
 8920SOL    HW127659   0.479   1.258   0.220
 8920SOL    HW227660   0.555   1.232   0.362
 8921SOL     OW27661   1.425   2.620   1.064
 8921SOL    HW127662   1.500   2.609   1.130
 8921SOL    HW227663   1.338   2.600   1.110
 8922SOL     OW27664   3.790   6.816   2.833
 8922SOL    HW127665   3.773   6.851   2.925
 8922SOL    HW227666   3.865   6.750   2.835
 8923SOL     OW27667   1.426   1.959   5.865
 8923SOL    HW127668   1.375   2.029   5.914
 8923SOL    HW227669   1.523   1.982   5.865
 8924SOL     OW27670   5.347   5.646   4.575
 8924SOL    HW127671   5.266   5.675   4.627
 8924SOL    HW227672   5.345   5.547   4.562
 8925SOL     OW27673   0.614   0.627   2.558
 8925SOL    HW127674   0.647   0.706   2.609
 8925SOL    HW227675   0.685   0.597   2.494
 8926SOL     OW27676   6.458   3.836   5.390
 8926SOL    HW127677   6.484   3.918   5.340
 8926SOL    HW227678   6.405   3.862   5.471
 8927SOL     OW27679   6.337   2.281   5.602
 8927SOL    HW127680   6.315   2.378   5.612
 8927SOL    HW227681   6.415   2.258   5.660
 8928SOL     OW27682   2.351   0.477   5.617
 8928SOL    HW127683   2.430   0.529   5.583
 8928SOL    HW227684   2.367   0.379   5.601
 8929SOL     OW27685   6.180   2.393   4.877
 8929SOL    HW127686   6.278   2.398   4.857
 8929SOL    HW227687   6.160   2.306   4.922
 8930SOL     OW27688   0.908   3.618   2.892
 8930SOL    HW127689   0.834   3.553   2.907
 8930SOL    HW227690   0.992   3.584   2.935
 8931SOL     OW27691   2.992   2.744   1.499
 8931SOL    HW127692   3.056   2.709   1.431
 8931SOL    HW227693   3.041   2.764   1.584
 8932SOL     OW27694   0.192   1.696   3.342
 8932SOL    HW127695   0.241   1.648   3.269
 8932SOL    HW227696   0.097   1.663   3.346
 8933SOL     OW27697   2.881   2.380   6.803
 8933SOL    HW127698   2.811   2.325   6.848
 8933SOL    HW227699   2.946   2.320   6.757
 8934SOL     OW27700   3.292   5.329   4.885
 8934SOL    HW127701   3.346   5.386   4.824
 8934SOL    HW227702   3.353   5.284   4.950
 8935SOL     OW27703   0.492   5.070   0.885
 8935SOL    HW127704   0.435   4.994   0.856
 8935SOL    HW227705   0.435   5.142   0.924
 8936SOL     OW27706   1.859   3.491   0.860
 8936SOL    HW127707   1.857   3.469   0.762
 8936SOL    HW227708   1.898   3.414   0.911
 8937SOL     OW27709   0.168   6.796   5.178
 8937SOL    HW127710   0.071   6.800   5.154
 8937SOL    HW227711   0.184   6.717   5.238
 8938SOL     OW27712   0.292   5.247   1.260
 8938SOL    HW127713   0.353   5.310   1.309
 8938SOL    HW227714   0.298   5.265   1.162
 8939SOL     OW27715   4.724   2.406   5.028
 8939SOL    HW127716   4.645   2.350   5.054
 8939SOL    HW227717   4.800   2.346   5.003
 8940SOL     OW27718   0.240   0.985   4.053
 8940SOL    HW127719   0.251   0.893   4.091
 8940SOL    HW227720   0.327   1.015   4.014
 8941SOL     OW27721   5.951   2.319   5.787
 8941SOL    HW127722   5.940   2.305   5.689
 8941SOL    HW227723   6.049   2.325   5.809
 8942SOL     OW27724   0.497   3.287   5.837
 8942SOL    HW127725   0.529   3.363   5.781
 8942SOL    HW227726   0.423   3.239   5.789
 8943SOL     OW27727   5.005   4.061   0.463
 8943SOL    HW127728   4.944   4.030   0.536
 8943SOL    HW227729   5.100   4.054   0.493
 8944SOL     OW27730   5.035   5.359   5.782
 8944SOL    HW127731   5.104   5.292   5.756
 8944SOL    HW227732   5.017   5.421   5.706
 8945SOL     OW27733   2.039   0.697   4.580
 8945SOL    HW127734   2.134   0.668   4.575
 8945SOL    HW227735   2.020   0.761   4.505
 8946SOL     OW27736   3.361   2.057   4.844
 8946SOL    HW127737   3.352   2.092   4.751
 8946SOL    HW227738   3.303   2.110   4.905
 8947SOL     OW27739   1.405   3.688   5.033
 8947SOL    HW127740   1.482   3.626   5.020
 8947SOL    HW227741   1.379   3.689   5.129
 8948SOL     OW27742   5.581   5.281   3.827
 8948SOL    HW127743   5.631   5.308   3.745
 8948SOL    HW227744   5.644   5.242   3.894
 8949SOL     OW27745   2.031   0.123   0.717
 8949SOL    HW127746   2.016   0.200   0.656
 8949SOL    HW227747   2.125   0.090   0.706
 8950SOL     OW27748   4.656   3.128   5.784
 8950SOL    HW127749   4.698   3.051   5.832
 8950SOL    HW227750   4.640   3.103   5.688
 8951SOL     OW27751   1.835   2.124   4.949
 8951SOL    HW127752   1.823   2.223   4.935
 8951SOL    HW227753   1.764   2.091   5.011
 8952SOL     OW27754   1.224   0.723   2.596
 8952SOL    HW127755   1.191   0.791   2.663
 8952SOL    HW227756   1.250   0.770   2.512
 8953SOL     OW27757   1.085   3.620   6.942
 8953SOL    HW127758   1.091   3.648   6.846
 8953SOL    HW227759   0.990   3.612   6.969
 8954SOL     OW27760   0.497   5.911   5.208
 8954SOL    HW127761   0.486   5.837   5.274
 8954SOL    HW227762   0.585   5.900   5.160
 8955SOL     OW27763   0.072   4.226   2.906
 8955SOL    HW127764   0.152   4.270   2.865
 8955SOL    HW227765   7.010   4.267   2.869
 8956SOL     OW27766   7.007   1.396   6.635
 8956SOL    HW127767   6.981   1.338   6.558
 8956SOL    HW227768   6.977   1.354   6.721
 8957SOL     OW27769   3.083   4.334   1.400
 8957SOL    HW127770   3.036   4.253   1.365
 8957SOL    HW227771   3.134   4.311   1.483
 8958SOL     OW27772   0.931   0.652   4.298
 8958SOL    HW127773   0.873   0.573   4.282
 8958SOL    HW227774   0.963   0.688   4.210
 8959SOL     OW27775   0.845   4.333   0.413
 8959SOL    HW127776   0.910   4.323   0.338
 8959SOL    HW227777   0.840   4.429   0.440
 8960SOL     OW27778   4.486   5.290   2.940
 8960SOL    HW127779   4.476   5.367   3.003
 8960SOL    HW227780   4.574   5.295   2.894
 8961SOL     OW27781   1.248   2.283   4.347
 8961SOL    HW127782   1.237   2.234   4.260
 8961SOL    HW227783   1.345   2.287   4.371
 8962SOL     OW27784   5.959   6.673   2.218
 8962SOL    HW127785   5.931   6.633   2.305
 8962SOL    HW227786   5.976   6.771   2.231
 8963SOL     OW27787   4.663   6.490   4.020
 8963SOL    HW127788   4.703   6.548   4.092
 8963SOL    HW227789   4.735   6.435   3.978
 8964SOL     OW27790   6.081   4.084   2.540
 8964SOL    HW127791   6.169   4.093   2.587
 8964SOL    HW227792   6.042   4.174   2.524
 8965SOL     OW27793   1.716   4.882   0.994
 8965SOL    HW127794   1.718   4.839   0.904
 8965SOL    HW227795   1.770   4.828   1.058
 8966SOL     OW27796   1.741   3.206   5.500
 8966SOL    HW127797   1.810   3.155   5.552
 8966SOL    HW227798   1.777   3.230   5.410
 8967SOL     OW27799   2.894   6.096   1.735
 8967SOL    HW127800   2.914   6.098   1.833
 8967SOL    HW227801   2.952   6.162   1.687
 8968SOL     OW27802   4.674   5.336   2.563
 8968SOL    HW127803   4.689   5.319   2.661
 8968SOL    HW227804   4.594   5.284   2.533
 8969SOL     OW27805   6.163   0.463   3.940
 8969SOL    HW127806   6.252   0.435   3.904
 8969SOL    HW227807   6.149   0.423   4.031
 8970SOL     OW27808   3.226   2.938   0.458
 8970SOL    HW127809   3.221   2.862   0.522
 8970SOL    HW227810   3.179   3.018   0.497
 8971SOL     OW27811   3.437   5.757   2.446
 8971SOL    HW127812   3.474   5.830   2.389
 8971SOL    HW227813   3.413   5.679   2.388
 8972SOL     OW27814   4.811   6.081   6.773
 8972SOL    HW127815   4.858   6.027   6.843
 8972SOL    HW227816   4.716   6.097   6.802
 8973SOL     OW27817   0.612   3.659   1.977
 8973SOL    HW127818   0.652   3.749   1.993
 8973SOL    HW227819   0.527   3.669   1.925
 8974SOL     OW27820   1.176   4.278   6.043
 8974SOL    HW127821   1.193   4.376   6.055
 8974SOL    HW227822   1.085   4.255   6.076
 8975SOL     OW27823   2.246   1.096   6.898
 8975SOL    HW127824   2.317   1.134   6.957
 8975SOL    HW227825   2.197   1.024   6.948
 8976SOL     OW27826   1.057   4.945   5.283
 8976SOL    HW127827   1.032   4.869   5.344
 8976SOL    HW227828   1.012   4.934   5.195
 8977SOL     OW27829   6.045   1.582   6.655
 8977SOL    HW127830   6.039   1.605   6.558
 8977SOL    HW227831   6.096   1.497   6.666
 8978SOL     OW27832   6.437   6.229   6.771
 8978SOL    HW127833   6.467   6.151   6.826
 8978SOL    HW227834   6.350   6.207   6.726
 8979SOL     OW27835   1.486   3.405   4.245
 8979SOL    HW127836   1.485   3.369   4.338
 8979SOL    HW227837   1.394   3.433   4.219
 8980SOL     OW27838   2.470   3.004   5.645
 8980SOL    HW127839   2.397   2.979   5.709
 8980SOL    HW227840   2.543   3.051   5.695
 8981SOL     OW27841   3.903   1.634   4.954
 8981SOL    HW127842   3.843   1.606   5.030
 8981SOL    HW227843   3.999   1.631   4.985
 8982SOL     OW27844   1.213   2.826   0.383
 8982SOL    HW127845   1.308   2.795   0.383
 8982SOL    HW227846   1.172   2.809   0.473
 8983SOL     OW27847   2.855   6.057   6.986
 8983SOL    HW127848   2.927   6.026   6.924
 8983SOL    HW227849   2.767   6.018   6.958
 8984SOL     OW27850   1.279   6.946   3.674
 8984SOL    HW127851   1.197   6.889   3.663
 8984SOL    HW227852   1.292   7.000   3.591
 8985SOL     OW27853   4.051   2.217   1.072
 8985SOL    HW127854   4.011   2.280   1.138
 8985SOL    HW227855   4.127   2.262   1.026
 8986SOL     OW27856   4.191   5.063   2.878
 8986SOL    HW127857   4.172   5.159   2.900
 8986SOL    HW227858   4.285   5.054   2.846
 8987SOL     OW27859   3.779   6.541   2.332
 8987SOL    HW127860   3.846   6.519   2.262
 8987SOL    HW227861   3.755   6.459   2.383
 8988SOL     OW27862   1.261   5.059   4.066
 8988SOL    HW127863   1.351   5.097   4.046
 8988SOL    HW227864   1.236   5.081   4.160
 8989SOL     OW27865   4.334   3.152   6.969
 8989SOL    HW127866   4.365   3.174   6.877
 8989SOL    HW227867   4.345   3.054   6.986
 8990SOL     OW27868   1.134   5.008   3.836
 8990SOL    HW127869   1.171   5.026   3.927
 8990SOL    HW227870   1.203   4.965   3.779
 8991SOL     OW27871   1.673   3.708   4.737
 8991SOL    HW127872   1.712   3.672   4.822
 8991SOL    HW227873   1.594   3.766   4.758
 8992SOL     OW27874   4.740   1.960   0.879
 8992SOL    HW127875   4.711   1.995   0.790
 8992SOL    HW227876   4.663   1.917   0.925
 8993SOL     OW27877   4.019   3.246   0.916
 8993SOL    HW127878   3.929   3.287   0.905
 8993SOL    HW227879   4.033   3.175   0.848
 8994SOL     OW27880   1.424   4.519   5.366
 8994SOL    HW127881   1.365   4.595   5.340
 8994SOL    HW227882   1.468   4.481   5.285
 8995SOL     OW27883   0.304   1.839   0.138
 8995SOL    HW127884   0.248   1.758   0.156
 8995SOL    HW227885   0.346   1.831   0.047
 8996SOL     OW27886   5.432   4.107   6.473
 8996SOL    HW127887   5.527   4.139   6.471
 8996SOL    HW227888   5.371   4.186   6.463
 8997SOL     OW27889   4.476   1.382   5.887
 8997SOL    HW127890   4.461   1.283   5.894
 8997SOL    HW227891   4.464   1.423   5.977
 8998SOL     OW27892   5.833   3.474   4.196
 8998SOL    HW127893   5.752   3.532   4.194
 8998SOL    HW227894   5.870   3.472   4.289
 8999SOL     OW27895   4.903   6.527   6.176
 8999SOL    HW127896   4.925   6.432   6.199
 8999SOL    HW227897   4.836   6.562   6.241
 9000SOL     OW27898   1.896   2.970   2.262
 9000SOL    HW127899   1.875   3.068   2.267
 9000SOL    HW227900   1.937   2.949   2.174
 9001SOL     OW27901   1.278   4.937   1.745
 9001SOL    HW127902   1.232   5.020   1.777
 9001SOL    HW227903   1.337   4.959   1.668
 9002SOL     OW27904   1.698   5.045   5.503
 9002SOL    HW127905   1.667   5.068   5.411
 9002SOL    HW227906   1.641   5.094   5.570
 9003SOL     OW27907   5.455   3.960   1.583
 9003SOL    HW127908   5.501   3.887   1.633
 9003SOL    HW227909   5.523   4.026   1.551
 9004SOL     OW27910   4.594   5.035   0.617
 9004SOL    HW127911   4.551   5.072   0.534
 9004SOL    HW227912   4.693   5.027   0.602
 9005SOL     OW27913   6.806   1.959   5.223
 9005SOL    HW127914   6.767   2.051   5.226
 9005SOL    HW227915   6.751   1.897   5.280
 9006SOL     OW27916   2.863   5.964   1.306
 9006SOL    HW127917   2.809   5.881   1.315
 9006SOL    HW227918   2.810   6.033   1.256
 9007SOL     OW27919   2.934   1.101   2.770
 9007SOL    HW127920   2.903   1.151   2.689
 9007SOL    HW227921   2.974   1.014   2.743
 9008SOL     OW27922   0.132   4.918   2.483
 9008SOL    HW127923   0.069   4.874   2.548
 9008SOL    HW227924   0.226   4.892   2.505
 9009SOL     OW27925   3.480   5.024   0.938
 9009SOL    HW127926   3.521   5.090   1.001
 9009SOL    HW227927   3.552   4.970   0.894
 9010SOL     OW27928   1.776   6.469   4.398
 9010SOL    HW127929   1.802   6.559   4.362
 9010SOL    HW227930   1.774   6.473   4.498
 9011SOL     OW27931   4.353   1.005   1.368
 9011SOL    HW127932   4.353   0.920   1.421
 9011SOL    HW227933   4.333   0.984   1.272
 9012SOL     OW27934   2.402   4.993   6.885
 9012SOL    HW127935   2.325   5.036   6.837
 9012SOL    HW227936   2.388   5.000   6.983
 9013SOL     OW27937   1.294   0.949   6.185
 9013SOL    HW127938   1.206   0.976   6.148
 9013SOL    HW227939   1.336   0.881   6.124
 9014SOL     OW27940   6.563   2.237   0.583
 9014SOL    HW127941   6.637   2.261   0.520
 9014SOL    HW227942   6.479   2.224   0.532
 9015SOL     OW27943   4.745   2.136   1.497
 9015SOL    HW127944   4.827   2.085   1.525
 9015SOL    HW227945   4.740   2.139   1.397
 9016SOL     OW27946   6.213   5.726   6.795
 9016SOL    HW127947   6.273   5.647   6.812
 9016SOL    HW227948   6.260   5.810   6.823
 9017SOL     OW27949   4.804   1.233   4.061
 9017SOL    HW127950   4.870   1.280   4.120
 9017SOL    HW227951   4.757   1.300   4.004
 9018SOL     OW27952   2.528   3.693   5.445
 9018SOL    HW127953   2.618   3.735   5.436
 9018SOL    HW227954   2.536   3.593   5.437
 9019SOL     OW27955   1.144   5.096   2.696
 9019SOL    HW127956   1.167   5.100   2.793
 9019SOL    HW227957   1.152   5.001   2.665
 9020SOL     OW27958   0.011   4.294   0.862
 9020SOL    HW127959   0.102   4.334   0.856
 9020SOL    HW227960   6.995   4.308   0.954
 9021SOL     OW27961   6.489   1.095   3.411
 9021SOL    HW127962   6.426   1.136   3.345
 9021SOL    HW227963   6.558   1.163   3.438
 9022SOL     OW27964   3.374   1.380   0.165
 9022SOL    HW127965   3.448   1.357   0.102
 9022SOL    HW227966   3.412   1.430   0.243
 9023SOL     OW27967   4.040   3.738   1.683
 9023SOL    HW127968   4.114   3.674   1.707
 9023SOL    HW227969   3.955   3.687   1.669
 9024SOL     OW27970   1.483   4.143   5.419
 9024SOL    HW127971   1.483   4.213   5.491
 9024SOL    HW227972   1.410   4.077   5.437
 9025SOL     OW27973   0.272   5.239   0.958
 9025SOL    HW127974   0.187   5.221   0.908
 9025SOL    HW227975   0.281   5.338   0.973
 9026SOL     OW27976   3.677   2.294   1.157
 9026SOL    HW127977   3.644   2.199   1.154
 9026SOL    HW227978   3.637   2.345   1.080
 9027SOL     OW27979   0.667   3.490   2.933
 9027SOL    HW127980   0.604   3.566   2.921
 9027SOL    HW227981   0.649   3.445   3.020
 9028SOL     OW27982   3.324   3.172   5.262
 9028SOL    HW127983   3.368   3.235   5.326
 9028SOL    HW227984   3.390   3.103   5.233
 9029SOL     OW27985   4.075   6.672   4.980
 9029SOL    HW127986   3.994   6.705   5.029
 9029SOL    HW227987   4.047   6.632   4.893
 9030SOL     OW27988   2.499   2.041   3.844
 9030SOL    HW127989   2.527   1.961   3.791
 9030SOL    HW227990   2.551   2.044   3.930
 9031SOL     OW27991   4.198   6.730   4.375
 9031SOL    HW127992   4.112   6.697   4.412
 9031SOL    HW227993   4.199   6.830   4.377
 9032SOL     OW27994   4.644   4.195   0.998
 9032SOL    HW127995   4.716   4.263   1.006
 9032SOL    HW227996   4.579   4.204   1.074
 9033SOL     OW27997   0.809   4.733   2.537
 9033SOL    HW127998   0.838   4.731   2.441
 9033SOL    HW227999   0.888   4.745   2.596
 9034SOL     OW28000   3.288   6.125   4.552
 9034SOL    HW128001   3.260   6.040   4.506
 9034SOL    HW228002   3.359   6.170   4.499
 9035SOL     OW28003   2.571   5.248   0.194
 9035SOL    HW128004   2.597   5.151   0.191
 9035SOL    HW228005   2.531   5.275   0.106
 9036SOL     OW28006   2.004   3.424   5.636
 9036SOL    HW128007   2.029   3.495   5.570
 9036SOL    HW228008   2.087   3.384   5.674
 9037SOL     OW28009   1.118   3.711   3.831
 9037SOL    HW128010   1.195   3.724   3.893
 9037SOL    HW228011   1.086   3.616   3.837
 9038SOL     OW28012   4.458   2.530   6.704
 9038SOL    HW128013   4.392   2.456   6.714
 9038SOL    HW228014   4.443   2.598   6.776
 9039SOL     OW28015   2.586   4.699   6.361
 9039SOL    HW128016   2.629   4.733   6.277
 9039SOL    HW228017   2.494   4.666   6.340
 9040SOL     OW28018   2.626   2.439   2.511
 9040SOL    HW128019   2.533   2.474   2.525
 9040SOL    HW228020   2.675   2.500   2.448
 9041SOL     OW28021   1.091   2.253   1.323
 9041SOL    HW128022   1.036   2.275   1.242
 9041SOL    HW228023   1.126   2.159   1.315
 9042SOL     OW28024   3.712   0.441   4.344
 9042SOL    HW128025   3.752   0.415   4.431
 9042SOL    HW228026   3.691   0.359   4.290
 9043SOL     OW28027   2.729   1.099   6.286
 9043SOL    HW128028   2.828   1.090   6.299
 9043SOL    HW228029   2.711   1.160   6.208
 9044SOL     OW28030   6.810   1.020   0.229
 9044SOL    HW128031   6.764   0.938   0.265
 9044SOL    HW228032   6.898   0.993   0.190
 9045SOL     OW28033   3.453   0.779   2.468
 9045SOL    HW128034   3.533   0.796   2.526
 9045SOL    HW228035   3.446   0.851   2.400
 9046SOL     OW28036   3.856   3.893   2.759
 9046SOL    HW128037   3.915   3.817   2.731
 9046SOL    HW228038   3.808   3.868   2.843
 9047SOL     OW28039   1.457   3.838   4.817
 9047SOL    HW128040   1.387   3.829   4.747
 9047SOL    HW228041   1.422   3.800   4.903
 9048SOL     OW28042   6.267   2.824   6.052
 9048SOL    HW128043   6.308   2.819   5.961
 9048SOL    HW228044   6.198   2.753   6.062
 9049SOL     OW28045   4.270   6.255   5.648
 9049SOL    HW128046   4.244   6.168   5.689
 9049SOL    HW228047   4.346   6.295   5.700
 9050SOL     OW28048   0.160   3.669   1.550
 9050SOL    HW128049   0.082   3.618   1.514
 9050SOL    HW228050   0.227   3.683   1.478
 9051SOL     OW28051   2.384   0.051   1.738
 9051SOL    HW128052   2.422   6.999   1.682
 9051SOL    HW228053   2.326   0.013   1.809
 9052SOL     OW28054   2.193   2.740   3.958
 9052SOL    HW128055   2.186   2.829   4.003
 9052SOL    HW228056   2.174   2.667   4.024
 9053SOL     OW28057   2.183   1.275   1.450
 9053SOL    HW128058   2.155   1.301   1.542
 9053SOL    HW228059   2.170   1.177   1.438
 9054SOL     OW28060   2.483   5.874   4.872
 9054SOL    HW128061   2.550   5.946   4.893
 9054SOL    HW228062   2.416   5.910   4.807
 9055SOL     OW28063   6.536   2.497   3.894
 9055SOL    HW128064   6.515   2.492   3.992
 9055SOL    HW228065   6.471   2.559   3.850
 9056SOL     OW28066   6.971   2.185   1.408
 9056SOL    HW128067   6.979   2.102   1.463
 9056SOL    HW228068   7.015   2.171   1.319
 9057SOL     OW28069   4.471   2.584   5.092
 9057SOL    HW128070   4.561   2.594   5.052
 9057SOL    HW228071   4.401   2.611   5.026
 9058SOL     OW28072   1.487   0.850   1.512
 9058SOL    HW128073   1.529   0.918   1.452
 9058SOL    HW228074   1.387   0.856   1.504
 9059SOL     OW28075   1.184   2.515   3.142
 9059SOL    HW128076   1.203   2.544   3.236
 9059SOL    HW228077   1.208   2.419   3.131
 9060SOL     OW28078   5.888   2.757   4.418
 9060SOL    HW128079   5.905   2.693   4.493
 9060SOL    HW228080   5.972   2.806   4.397
 9061SOL     OW28081   3.104   5.599   2.313
 9061SOL    HW128082   3.063   5.527   2.257
 9061SOL    HW228083   3.121   5.680   2.257
 9062SOL     OW28084   1.185   6.342   1.460
 9062SOL    HW128085   1.202   6.405   1.384
 9062SOL    HW228086   1.267   6.335   1.517
 9063SOL     OW28087   2.900   0.598   3.453
 9063SOL    HW128088   2.823   0.540   3.427
 9063SOL    HW228089   2.871   0.663   3.523
 9064SOL     OW28090   6.504   3.568   6.183
 9064SOL    HW128091   6.505   3.624   6.266
 9064SOL    HW228092   6.547   3.618   6.108
 9065SOL     OW28093   3.711   0.228   0.068
 9065SOL    HW128094   3.660   0.260   0.148
 9065SOL    HW228095   3.802   0.269   0.068
 9066SOL     OW28096   5.140   0.052   0.286
 9066SOL    HW128097   5.225   0.004   0.264
 9066SOL    HW228098   5.064   7.008   0.289
 9067SOL     OW28099   1.416   0.510   3.740
 9067SOL    HW128100   1.331   0.562   3.742
 9067SOL    HW228101   1.491   0.567   3.774
 9068SOL     OW28102   0.991   0.082   5.048
 9068SOL    HW128103   1.056   0.150   5.083
 9068SOL    HW228104   1.038   7.017   5.031
 9069SOL     OW28105   1.233   3.174   6.849
 9069SOL    HW128106   1.251   3.085   6.807
 9069SOL    HW228107   1.243   3.167   6.949
 9070SOL     OW28108   1.962   3.811   4.860
 9070SOL    HW128109   2.025   3.789   4.786
 9070SOL    HW228110   1.965   3.740   4.930
 9071SOL     OW28111   6.664   6.199   0.793
 9071SOL    HW128112   6.695   6.242   0.708
 9071SOL    HW228113   6.664   6.267   0.866
 9072SOL     OW28114   6.905   3.013   0.985
 9072SOL    HW128115   6.891   2.973   0.895
 9072SOL    HW228116   6.838   2.975   1.049
 9073SOL     OW28117   1.995   6.917   2.012
 9073SOL    HW128118   2.012   6.821   1.988
 9073SOL    HW228119   1.897   6.934   2.013
 9074SOL     OW28120   1.534   0.836   2.854
 9074SOL    HW128121   1.467   0.906   2.828
 9074SOL    HW228122   1.505   0.747   2.818
 9075SOL     OW28123   6.879   1.299   2.394
 9075SOL    HW128124   6.779   1.298   2.387
 9075SOL    HW228125   6.912   1.393   2.396
 9076SOL     OW28126   0.710   1.412   6.653
 9076SOL    HW128127   0.802   1.447   6.640
 9076SOL    HW228128   0.704   1.365   6.741
 9077SOL     OW28129   4.386   6.420   1.720
 9077SOL    HW128130   4.459   6.486   1.737
 9077SOL    HW228131   4.419   6.328   1.741
 9078SOL     OW28132   3.519   3.135   4.371
 9078SOL    HW128133   3.480   3.170   4.457
 9078SOL    HW228134   3.445   3.099   4.314
 9079SOL     OW28135   2.719   0.536   4.609
 9079SOL    HW128136   2.766   0.538   4.521
 9079SOL    HW228137   2.784   0.553   4.682
 9080SOL     OW28138   4.783   2.698   6.735
 9080SOL    HW128139   4.751   2.606   6.757
 9080SOL    HW228140   4.834   2.735   6.813
 9081SOL     OW28141   5.187   6.293   2.880
 9081SOL    HW128142   5.207   6.390   2.890
 9081SOL    HW228143   5.091   6.277   2.903
 9082SOL     OW28144   1.608   0.005   4.672
 9082SOL    HW128145   1.514   0.040   4.664
 9082SOL    HW228146   1.610   6.930   4.644
 9083SOL     OW28147   4.801   4.583   5.750
 9083SOL    HW128148   4.769   4.489   5.766
 9083SOL    HW228149   4.723   4.641   5.727
 9084SOL     OW28150   3.735   3.546   2.870
 9084SOL    HW128151   3.831   3.520   2.868
 9084SOL    HW228152   3.679   3.471   2.834
 9085SOL     OW28153   2.535   0.975   0.657
 9085SOL    HW128154   2.549   0.983   0.559
 9085SOL    HW228155   2.589   0.898   0.692
 9086SOL     OW28156   0.345   4.208   0.565
 9086SOL    HW128157   0.442   4.232   0.555
 9086SOL    HW228158   0.288   4.285   0.539
 9087SOL     OW28159   5.281   2.903   2.509
 9087SOL    HW128160   5.254   2.911   2.413
 9087SOL    HW228161   5.380   2.889   2.514
 9088SOL     OW28162   6.076   0.449   0.607
 9088SOL    HW128163   6.142   0.509   0.653
 9088SOL    HW228164   6.122   0.397   0.536
 9089SOL     OW28165   4.917   6.476   5.784
 9089SOL    HW128166   4.957   6.548   5.727
 9089SOL    HW228167   4.989   6.426   5.831
 9090SOL     OW28168   6.170   1.067   5.099
 9090SOL    HW128169   6.229   1.098   5.024
 9090SOL    HW228170   6.079   1.108   5.089
 9091SOL     OW28171   2.928   3.430   6.926
 9091SOL    HW128172   2.888   3.369   6.995
 9091SOL    HW228173   2.857   3.457   6.861
 9092SOL     OW28174   6.699   1.437   6.719
 9092SOL    HW128175   6.616   1.407   6.765
 9092SOL    HW228176   6.780   1.401   6.766
 9093SOL     OW28177   1.498   5.883   5.209
 9093SOL    HW128178   1.572   5.846   5.265
 9093SOL    HW228179   1.421   5.819   5.208
 9094SOL     OW28180   0.527   3.710   3.249
 9094SOL    HW128181   0.526   3.742   3.343
 9094SOL    HW228182   0.440   3.732   3.205
 9095SOL     OW28183   4.356   4.679   5.729
 9095SOL    HW128184   4.446   4.709   5.697
 9095SOL    HW228185   4.304   4.642   5.652
 9096SOL     OW28186   6.612   4.761   3.464
 9096SOL    HW128187   6.703   4.721   3.456
 9096SOL    HW228188   6.619   4.850   3.510
 9097SOL     OW28189   1.083   2.755   6.346
 9097SOL    HW128190   1.040   2.672   6.310
 9097SOL    HW228191   1.176   2.734   6.375
 9098SOL     OW28192   2.049   2.233   5.159
 9098SOL    HW128193   2.138   2.254   5.202
 9098SOL    HW228194   2.062   2.166   5.087
 9099SOL     OW28195   2.545   2.731   6.118
 9099SOL    HW128196   2.562   2.770   6.028
 9099SOL    HW228197   2.632   2.720   6.166
 9100SOL     OW28198   1.131   3.829   2.453
 9100SOL    HW128199   1.071   3.815   2.532
 9100SOL    HW228200   1.182   3.745   2.434
 9101SOL     OW28201   2.921   1.302   2.549
 9101SOL    HW128202   2.830   1.325   2.583
 9101SOL    HW228203   2.983   1.380   2.563
 9102SOL     OW28204   4.394   6.380   2.690
 9102SOL    HW128205   4.482   6.396   2.735
 9102SOL    HW228206   4.348   6.303   2.734
 9103SOL     OW28207   6.348   1.556   6.718
 9103SOL    HW128208   6.344   1.518   6.810
 9103SOL    HW228209   6.318   1.487   6.652
 9104SOL     OW28210   6.633   0.694   1.182
 9104SOL    HW128211   6.646   0.665   1.277
 9104SOL    HW228212   6.650   0.792   1.175
 9105SOL     OW28213   1.121   0.067   5.402
 9105SOL    HW128214   1.149   0.145   5.346
 9105SOL    HW228215   1.051   0.015   5.355
 9106SOL     OW28216   0.584   4.140   0.288
 9106SOL    HW128217   0.644   4.120   0.365
 9106SOL    HW228218   0.539   4.056   0.257
 9107SOL     OW28219   2.602   0.387   6.222
 9107SOL    HW128220   2.675   0.377   6.154
 9107SOL    HW228221   2.620   0.466   6.280
 9108SOL     OW28222   5.329   4.994   5.494
 9108SOL    HW128223   5.302   4.971   5.400
 9108SOL    HW228224   5.358   4.911   5.542
 9109SOL     OW28225   5.178   3.183   2.467
 9109SOL    HW128226   5.220   3.104   2.513
 9109SOL    HW228227   5.185   3.171   2.368
 9110SOL     OW28228   1.036   5.659   4.934
 9110SOL    HW128229   0.959   5.608   4.896
 9110SOL    HW228230   1.065   5.730   4.870
 9111SOL     OW28231   4.752   2.910   5.925
 9111SOL    HW128232   4.794   2.843   5.864
 9111SOL    HW228233   4.818   2.937   5.996
 9112SOL     OW28234   1.937   4.983   2.756
 9112SOL    HW128235   1.918   5.025   2.667
 9112SOL    HW228236   2.004   5.039   2.805
 9113SOL     OW28237   5.289   2.377   3.261
 9113SOL    HW128238   5.226   2.440   3.217
 9113SOL    HW228239   5.277   2.285   3.223
 9114SOL     OW28240   1.511   6.111   4.184
 9114SOL    HW128241   1.588   6.051   4.203
 9114SOL    HW228242   1.537   6.206   4.201
 9115SOL     OW28243   5.304   4.833   3.579
 9115SOL    HW128244   5.364   4.761   3.616
 9115SOL    HW228245   5.308   4.831   3.480
 9116SOL     OW28246   0.245   6.716   3.230
 9116SOL    HW128247   0.232   6.814   3.240
 9116SOL    HW228248   0.202   6.685   3.145
 9117SOL     OW28249   4.321   1.199   6.850
 9117SOL    HW128250   4.307   1.127   6.782
 9117SOL    HW228251   4.418   1.205   6.872
 9118SOL     OW28252   6.035   3.635   0.364
 9118SOL    HW128253   6.109   3.680   0.412
 9118SOL    HW228254   5.956   3.697   0.358
 9119SOL     OW28255   3.630   6.076   1.142
 9119SOL    HW128256   3.590   5.985   1.149
 9119SOL    HW228257   3.557   6.143   1.128
 9120SOL     OW28258   6.462   2.478   6.149
 9120SOL    HW128259   6.457   2.516   6.056
 9120SOL    HW228260   6.547   2.506   6.192
 9121SOL     OW28261   4.092   0.577   5.427
 9121SOL    HW128262   4.070   0.495   5.479
 9121SOL    HW228263   4.161   0.630   5.476
 9122SOL     OW28264   2.330   4.311   2.065
 9122SOL    HW128265   2.298   4.232   2.117
 9122SOL    HW228266   2.306   4.395   2.113
 9123SOL     OW28267   1.670   0.248   3.409
 9123SOL    HW128268   1.657   0.162   3.457
 9123SOL    HW228269   1.583   0.276   3.367
 9124SOL     OW28270   3.504   5.146   1.179
 9124SOL    HW128271   3.455   5.059   1.178
 9124SOL    HW228272   3.531   5.168   1.272
 9125SOL     OW28273   3.526   6.024   6.750
 9125SOL    HW128274   3.528   5.965   6.831
 9125SOL    HW228275   3.462   6.099   6.765
 9126SOL     OW28276   4.284   4.474   0.864
 9126SOL    HW128277   4.308   4.407   0.933
 9126SOL    HW228278   4.363   4.533   0.845
 9127SOL     OW28279   6.909   3.607   4.905
 9127SOL    HW128280   6.837   3.675   4.889
 9127SOL    HW228281   6.957   3.629   4.990
 9128SOL     OW28282   6.186   2.963   4.697
 9128SOL    HW128283   6.179   2.871   4.661
 9128SOL    HW228284   6.108   2.982   4.756
 9129SOL     OW28285   2.319   1.745   0.996
 9129SOL    HW128286   2.344   1.719   0.902
 9129SOL    HW228287   2.385   1.811   1.031
 9130SOL     OW28288   2.873   4.421   5.620
 9130SOL    HW128289   2.825   4.436   5.533
 9130SOL    HW228290   2.957   4.475   5.621
 9131SOL     OW28291   6.297   3.014   0.842
 9131SOL    HW128292   6.310   3.064   0.756
 9131SOL    HW228293   6.234   2.938   0.828
 9132SOL     OW28294   1.015   4.685   3.124
 9132SOL    HW128295   1.083   4.612   3.111
 9132SOL    HW228296   0.929   4.645   3.153
 9133SOL     OW28297   4.379   0.799   1.106
 9133SOL    HW128298   4.449   0.742   1.149
 9133SOL    HW228299   4.411   0.827   1.015
 9134SOL     OW28300   4.722   5.281   0.878
 9134SOL    HW128301   4.815   5.259   0.907
 9134SOL    HW228302   4.723   5.359   0.816
 9135SOL     OW28303   1.362   6.033   1.503
 9135SOL    HW128304   1.271   6.021   1.463
 9135SOL    HW228305   1.394   5.945   1.539
 9136SOL     OW28306   5.479   4.997   6.465
 9136SOL    HW128307   5.492   5.094   6.444
 9136SOL    HW228308   5.382   4.978   6.476
 9137SOL     OW28309   4.396   6.287   6.627
 9137SOL    HW128310   4.393   6.254   6.533
 9137SOL    HW228311   4.384   6.386   6.627
 9138SOL     OW28312   2.909   2.594   0.325
 9138SOL    HW128313   2.881   2.560   0.236
 9138SOL    HW228314   2.908   2.694   0.325
 9139SOL     OW28315   0.083   6.947   1.307
 9139SOL    HW128316   0.127   0.000   1.257
 9139SOL    HW228317   0.151   6.878   1.330
 9140SOL     OW28318   0.630   3.969   2.826
 9140SOL    HW128319   0.626   3.918   2.740
 9140SOL    HW228320   0.680   3.915   2.894
 9141SOL     OW28321   0.022   5.600   5.999
 9141SOL    HW128322   6.982   5.602   5.919
 9141SOL    HW228323   6.994   5.632   6.079
 9142SOL     OW28324   0.966   3.762   2.654
 9142SOL    HW128325   0.948   3.700   2.730
 9142SOL    HW228326   0.911   3.845   2.664
 9143SOL     OW28327   0.324   3.756   3.076
 9143SOL    HW128328   0.343   3.852   3.054
 9143SOL    HW228329   0.338   3.699   2.995
 9144SOL     OW28330   2.757   4.916   5.300
 9144SOL    HW128331   2.733   5.008   5.331
 9144SOL    HW228332   2.674   4.863   5.284
 9145SOL     OW28333   1.082   6.905   6.672
 9145SOL    HW128334   1.091   6.981   6.736
 9145SOL    HW228335   0.985   6.885   6.658
 9146SOL     OW28336   5.689   3.281   3.438
 9146SOL    HW128337   5.760   3.234   3.489
 9146SOL    HW228338   5.609   3.221   3.428
 9147SOL     OW28339   5.108   6.867   4.095
 9147SOL    HW128340   5.014   6.879   4.128
 9147SOL    HW228341   5.106   6.842   3.998
 9148SOL     OW28342   6.571   0.351   1.441
 9148SOL    HW128343   6.547   0.304   1.356
 9148SOL    HW228344   6.488   0.366   1.495
 9149SOL     OW28345   5.912   4.209   1.308
 9149SOL    HW128346   5.905   4.139   1.380
 9149SOL    HW228347   5.981   4.181   1.241
 9150SOL     OW28348   2.745   4.282   6.793
 9150SOL    HW128349   2.760   4.185   6.774
 9150SOL    HW228350   2.661   4.312   6.748
 9151SOL     OW28351   1.866   3.848   3.874
 9151SOL    HW128352   1.807   3.926   3.894
 9151SOL    HW228353   1.846   3.815   3.781
 9152SOL     OW28354   2.090   4.393   3.802
 9152SOL    HW128355   2.090   4.447   3.717
 9152SOL    HW228356   2.171   4.336   3.806
 9153SOL     OW28357   0.587   2.508   6.573
 9153SOL    HW128358   0.527   2.541   6.501
 9153SOL    HW228359   0.563   2.552   6.659
 9154SOL     OW28360   5.713   5.038   3.128
 9154SOL    HW128361   5.657   4.990   3.061
 9154SOL    HW228362   5.714   4.986   3.214
 9155SOL     OW28363   0.937   5.880   2.381
 9155SOL    HW128364   0.860   5.864   2.319
 9155SOL    HW228365   0.984   5.964   2.354
 9156SOL     OW28366   7.007   3.995   0.291
 9156SOL    HW128367   0.011   3.919   0.231
 9156SOL    HW228368   0.054   4.068   0.281
 9157SOL     OW28369   3.240   4.371   6.668
 9157SOL    HW128370   3.339   4.371   6.657
 9157SOL    HW228371   3.212   4.448   6.726
 9158SOL     OW28372   0.489   3.689   3.891
 9158SOL    HW128373   0.537   3.663   3.807
 9158SOL    HW228374   0.411   3.628   3.905
 9159SOL     OW28375   3.691   0.242   3.502
 9159SOL    HW128376   3.609   0.204   3.460
 9159SOL    HW228377   3.763   0.250   3.434
 9160SOL     OW28378   0.265   4.724   6.696
 9160SOL    HW128379   0.331   4.668   6.747
 9160SOL    HW228380   0.173   4.706   6.732
 9161SOL     OW28381   5.573   3.717   1.704
 9161SOL    HW128382   5.670   3.695   1.714
 9161SOL    HW228383   5.522   3.676   1.780
 9162SOL     OW28384   4.987   2.165   2.217
 9162SOL    HW128385   4.921   2.186   2.289
 9162SOL    HW228386   5.046   2.244   2.203
 9163SOL     OW28387   1.414   2.016   2.965
 9163SOL    HW128388   1.506   1.996   2.933
 9163SOL    HW228389   1.402   1.981   3.057
 9164SOL     OW28390   2.951   0.621   6.733
 9164SOL    HW128391   2.963   0.715   6.702
 9164SOL    HW228392   3.031   0.593   6.787
 9165SOL     OW28393   4.822   2.647   5.276
 9165SOL    HW128394   4.809   2.616   5.370
 9165SOL    HW228395   4.748   2.710   5.252
 9166SOL     OW28396   5.011   5.383   2.059
 9166SOL    HW128397   4.943   5.365   1.989
 9166SOL    HW228398   5.082   5.443   2.023
 9167SOL     OW28399   1.123   0.519   5.659
 9167SOL    HW128400   1.035   0.555   5.627
 9167SOL    HW228401   1.127   0.421   5.641
 9168SOL     OW28402   6.464   5.712   4.468
 9168SOL    HW128403   6.471   5.728   4.370
 9168SOL    HW228404   6.556   5.717   4.509
 9169SOL     OW28405   6.191   6.170   0.288
 9169SOL    HW128406   6.148   6.253   0.323
 9169SOL    HW228407   6.123   6.114   0.240
 9170SOL     OW28408   1.355   1.500   6.230
 9170SOL    HW128409   1.305   1.535   6.309
 9170SOL    HW228410   1.300   1.513   6.147
 9171SOL     OW28411   3.504   4.683   0.658
 9171SOL    HW128412   3.536   4.589   0.646
 9171SOL    HW228413   3.547   4.723   0.738
 9172SOL     OW28414   5.111   1.197   4.434
 9172SOL    HW128415   5.116   1.244   4.522
 9172SOL    HW228416   5.034   1.234   4.381
 9173SOL     OW28417   6.256   2.263   4.243
 9173SOL    HW128418   6.181   2.224   4.190
 9173SOL    HW228419   6.342   2.223   4.214
 9174SOL     OW28420   0.459   5.813   0.057
 9174SOL    HW128421   0.459   5.872   6.998
 9174SOL    HW228422   0.550   5.810   0.097
 9175SOL     OW28423   1.833   0.070   0.033
 9175SOL    HW128424   1.877   0.026   6.976
 9175SOL    HW228425   1.808   0.000   0.101
 9176SOL     OW28426   1.533   1.358   2.639
 9176SOL    HW128427   1.445   1.398   2.615
 9176SOL    HW228428   1.576   1.414   2.710
 9177SOL     OW28429   0.087   4.405   3.892
 9177SOL    HW128430   0.084   4.312   3.855
 9177SOL    HW228431   0.041   4.467   3.829
 9178SOL     OW28432   1.707   6.477   0.242
 9178SOL    HW128433   1.658   6.405   0.193
 9178SOL    HW228434   1.690   6.565   0.198
 9179SOL     OW28435   4.443   6.204   5.131
 9179SOL    HW128436   4.499   6.152   5.195
 9179SOL    HW228437   4.401   6.282   5.179
 9180SOL     OW28438   6.684   1.558   4.010
 9180SOL    HW128439   6.590   1.588   4.025
 9180SOL    HW228440   6.704   1.559   3.912
 9181SOL     OW28441   3.747   1.868   3.899
 9181SOL    HW128442   3.806   1.949   3.905
 9181SOL    HW228443   3.789   1.793   3.950
 9182SOL     OW28444   1.947   1.423   3.262
 9182SOL    HW128445   1.969   1.486   3.188
 9182SOL    HW228446   1.924   1.334   3.224
 9183SOL     OW28447   5.835   2.855   6.005
 9183SOL    HW128448   5.774   2.821   6.076
 9183SOL    HW228449   5.787   2.923   5.949
 9184SOL     OW28450   3.783   3.355   1.267
 9184SOL    HW128451   3.782   3.266   1.221
 9184SOL    HW228452   3.774   3.342   1.366
 9185SOL     OW28453   0.504   0.412   6.334
 9185SOL    HW128454   0.433   0.406   6.264
 9185SOL    HW228455   0.463   0.401   6.425
 9186SOL     OW28456   5.324   0.728   6.197
 9186SOL    HW128457   5.414   0.736   6.240
 9186SOL    HW228458   5.314   0.637   6.156
 9187SOL     OW28459   5.121   1.717   0.349
 9187SOL    HW128460   5.091   1.783   0.419
 9187SOL    HW228461   5.123   1.626   0.389
 9188SOL     OW28462   0.838   6.937   2.035
 9188SOL    HW128463   0.917   6.900   2.083
 9188SOL    HW228464   0.859   0.009   2.003
 9189SOL     OW28465   3.277   1.361   3.649
 9189SOL    HW128466   3.178   1.352   3.645
 9189SOL    HW228467   3.302   1.426   3.720
 9190SOL     OW28468   5.862   4.038   5.403
 9190SOL    HW128469   5.880   4.066   5.497
 9190SOL    HW228470   5.791   4.096   5.364
 9191SOL     OW28471   4.907   5.905   6.368
 9191SOL    HW128472   4.816   5.864   6.378
 9191SOL    HW228473   4.908   5.996   6.409
 9192SOL     OW28474   6.555   4.271   5.489
 9192SOL    HW128475   6.469   4.251   5.535
 9192SOL    HW228476   6.630   4.262   5.554
 9193SOL     OW28477   3.445   2.933   3.151
 9193SOL    HW128478   3.355   2.900   3.122
 9193SOL    HW228479   3.455   2.919   3.250
 9194SOL     OW28480   2.828   5.293   3.408
 9194SOL    HW128481   2.824   5.393   3.422
 9194SOL    HW228482   2.923   5.264   3.400
 9195SOL     OW28483   0.564   2.939   3.434
 9195SOL    HW128484   0.549   2.867   3.366
 9195SOL    HW228485   0.641   2.996   3.405
 9196SOL     OW28486   4.502   0.206   2.885
 9196SOL    HW128487   4.585   0.163   2.850
 9196SOL    HW228488   4.522   0.249   2.973
 9197SOL     OW28489   3.128   2.935   6.481
 9197SOL    HW128490   3.104   2.848   6.524
 9197SOL    HW228491   3.123   2.925   6.381
 9198SOL     OW28492   5.923   3.016   6.203
 9198SOL    HW128493   5.884   2.959   6.131
 9198SOL    HW228494   5.996   3.073   6.165
 9199SOL     OW28495   1.563   4.347   6.669
 9199SOL    HW128496   1.630   4.315   6.602
 9199SOL    HW228497   1.604   4.347   6.760
 9200SOL     OW28498   6.428   0.056   0.439
 9200SOL    HW128499   6.482   0.036   0.521
 9200SOL    HW228500   6.481   0.115   0.378
 9201SOL     OW28501   0.249   3.861   2.181
 9201SOL    HW128502   0.185   3.910   2.122
 9201SOL    HW228503   0.315   3.926   2.218
 9202SOL     OW28504   2.827   5.299   4.341
 9202SOL    HW128505   2.841   5.389   4.298
 9202SOL    HW228506   2.915   5.253   4.348
 9203SOL     OW28507   5.135   1.016   5.547
 9203SOL    HW128508   5.119   1.110   5.577
 9203SOL    HW228509   5.063   0.957   5.584
 9204SOL     OW28510   5.365   4.145   2.726
 9204SOL    HW128511   5.327   4.091   2.651
 9204SOL    HW228512   5.455   4.109   2.750
 9205SOL     OW28513   5.951   2.678   2.857
 9205SOL    HW128514   5.951   2.669   2.758
 9205SOL    HW228515   5.856   2.684   2.890
 9206SOL     OW28516   1.069   6.659   3.329
 9206SOL    HW128517   1.167   6.659   3.308
 9206SOL    HW228518   1.052   6.719   3.407
 9207SOL     OW28519   3.988   6.464   6.960
 9207SOL    HW128520   3.945   6.381   6.996
 9207SOL    HW228521   3.961   6.477   6.865
 9208SOL     OW28522   5.232   3.201   2.086
 9208SOL    HW128523   5.295   3.173   2.014
 9208SOL    HW228524   5.142   3.162   2.068
 9209SOL     OW28525   4.363   1.197   2.752
 9209SOL    HW128526   4.360   1.122   2.686
 9209SOL    HW228527   4.281   1.194   2.809
 9210SOL     OW28528   2.128   7.008   1.345
 9210SOL    HW128529   2.047   6.970   1.301
 9210SOL    HW228530   2.123   6.993   1.443
 9211SOL     OW28531   5.216   1.648   6.419
 9211SOL    HW128532   5.125   1.606   6.411
 9211SOL    HW228533   5.268   1.628   6.336
 9212SOL     OW28534   5.706   4.310   4.295
 9212SOL    HW128535   5.708   4.359   4.382
 9212SOL    HW228536   5.727   4.373   4.220
 9213SOL     OW28537   5.823   6.661   3.614
 9213SOL    HW128538   5.828   6.640   3.516
 9213SOL    HW228539   5.873   6.590   3.665
 9214SOL     OW28540   2.467   2.180   4.370
 9214SOL    HW128541   2.424   2.190   4.280
 9214SOL    HW228542   2.506   2.268   4.398
 9215SOL     OW28543   0.396   4.012   2.939
 9215SOL    HW128544   0.323   4.009   2.871
 9215SOL    HW228545   0.485   4.013   2.893
 9216SOL     OW28546   2.378   5.880   5.135
 9216SOL    HW128547   2.401   5.909   5.042
 9216SOL    HW228548   2.449   5.818   5.170
 9217SOL     OW28549   4.431   1.478   6.491
 9217SOL    HW128550   4.354   1.461   6.553
 9217SOL    HW228551   4.515   1.487   6.544
 9218SOL     OW28552   5.891   6.126   5.853
 9218SOL    HW128553   5.844   6.151   5.937
 9218SOL    HW228554   5.915   6.028   5.856
 9219SOL     OW28555   3.624   3.205   5.001
 9219SOL    HW128556   3.539   3.193   4.949
 9219SOL    HW228557   3.603   3.213   5.098
 9220SOL     OW28558   1.582   6.305   2.951
 9220SOL    HW128559   1.564   6.307   3.049
 9220SOL    HW228560   1.579   6.399   2.915
 9221SOL     OW28561   2.598   0.892   6.433
 9221SOL    HW128562   2.558   0.950   6.503
 9221SOL    HW228563   2.659   0.945   6.375
 9222SOL     OW28564   1.375   4.341   3.490
 9222SOL    HW128565   1.460   4.392   3.499
 9222SOL    HW228566   1.360   4.285   3.572
 9223SOL     OW28567   1.290   3.809   4.617
 9223SOL    HW128568   1.208   3.862   4.596
 9223SOL    HW228569   1.350   3.806   4.537
 9224SOL     OW28570   1.938   4.170   3.734
 9224SOL    HW128571   1.983   4.256   3.758
 9224SOL    HW228572   2.006   4.096   3.733
 9225SOL     OW28573   4.651   6.952   6.471
 9225SOL    HW128574   4.739   6.938   6.424
 9225SOL    HW228575   4.661   0.003   6.539
 9226SOL     OW28576   0.935   0.274   0.654
 9226SOL    HW128577   0.997   0.201   0.627
 9226SOL    HW228578   0.859   0.236   0.707
 9227SOL     OW28579   2.557   5.529   0.791
 9227SOL    HW128580   2.510   5.611   0.824
 9227SOL    HW228581   2.581   5.541   0.695
 9228SOL     OW28582   3.268   2.661   5.815
 9228SOL    HW128583   3.283   2.617   5.727
 9228SOL    HW228584   3.178   2.635   5.851
 9229SOL     OW28585   6.999   4.808   6.780
 9229SOL    HW128586   6.934   4.865   6.729
 9229SOL    HW228587   7.015   4.847   6.870
 9230SOL     OW28588   4.922   1.613   4.030
 9230SOL    HW128589   4.913   1.697   4.083
 9230SOL    HW228590   4.960   1.541   4.088
 9231SOL     OW28591   0.508   5.344   4.755
 9231SOL    HW128592   0.413   5.370   4.772
 9231SOL    HW228593   0.522   5.249   4.783
 9232SOL     OW28594   1.648   5.473   1.742
 9232SOL    HW128595   1.641   5.407   1.817
 9232SOL    HW228596   1.742   5.507   1.737
 9233SOL     OW28597   1.002   0.719   6.901
 9233SOL    HW128598   0.966   0.633   6.939
 9233SOL    HW228599   0.930   0.788   6.901
 9234SOL     OW28600   2.126   4.742   1.205
 9234SOL    HW128601   2.100   4.831   1.167
 9234SOL    HW228602   2.185   4.694   1.139
 9235SOL     OW28603   2.474   2.635   4.269
 9235SOL    HW128604   2.502   2.653   4.175
 9235SOL    HW228605   2.411   2.707   4.299
 9236SOL     OW28606   2.000   3.470   6.548
 9236SOL    HW128607   1.913   3.479   6.498
 9236SOL    HW228608   2.002   3.382   6.596
 9237SOL     OW28609   6.040   5.250   3.221
 9237SOL    HW128610   6.089   5.239   3.135
 9237SOL    HW228611   6.013   5.345   3.232
 9238SOL     OW28612   1.248   3.149   5.208
 9238SOL    HW128613   1.232   3.051   5.219
 9238SOL    HW228614   1.343   3.164   5.180
 9239SOL     OW28615   0.530   4.752   0.070
 9239SOL    HW128616   0.576   4.675   0.026
 9239SOL    HW228617   0.431   4.744   0.056
 9240SOL     OW28618   4.780   2.906   2.768
 9240SOL    HW128619   4.776   3.003   2.792
 9240SOL    HW228620   4.874   2.874   2.770
 9241SOL     OW28621   5.939   6.539   0.760
 9241SOL    HW128622   5.853   6.495   0.786
 9241SOL    HW228623   5.996   6.473   0.711
 9242SOL     OW28624   1.326   2.087   1.586
 9242SOL    HW128625   1.384   2.011   1.559
 9242SOL    HW228626   1.347   2.167   1.530
 9243SOL     OW28627   0.896   0.575   1.347
 9243SOL    HW128628   0.995   0.571   1.357
 9243SOL    HW228629   0.873   0.588   1.250
 9244SOL     OW28630   4.563   6.820   5.137
 9244SOL    HW128631   4.549   6.814   5.039
 9244SOL    HW228632   4.657   6.849   5.156
 9245SOL     OW28633   1.216   4.791   2.893
 9245SOL    HW128634   1.310   4.822   2.878
 9245SOL    HW228635   1.202   4.775   2.991
 9246SOL     OW28636   6.532   0.968   4.314
 9246SOL    HW128637   6.543   1.064   4.288
 9246SOL    HW228638   6.467   0.924   4.253
 9247SOL     OW28639   3.614   5.490   3.252
 9247SOL    HW128640   3.520   5.511   3.279
 9247SOL    HW228641   3.657   5.435   3.323
 9248SOL     OW28642   2.343   1.410   5.500
 9248SOL    HW128643   2.308   1.485   5.555
 9248SOL    HW228644   2.388   1.447   5.418
 9249SOL     OW28645   3.758   4.850   1.719
 9249SOL    HW128646   3.842   4.871   1.769
 9249SOL    HW228647   3.698   4.794   1.777
 9250SOL     OW28648   0.372   3.310   4.207
 9250SOL    HW128649   0.404   3.231   4.154
 9250SOL    HW228650   0.285   3.288   4.251
 9251SOL     OW28651   3.544   2.474   0.713
 9251SOL    HW128652   3.604   2.394   0.718
 9251SOL    HW228653   3.599   2.557   0.724
 9252SOL     OW28654   5.287   0.389   5.316
 9252SOL    HW128655   5.234   0.401   5.400
 9252SOL    HW228656   5.384   0.384   5.338
 9253SOL     OW28657   1.218   4.716   5.348
 9253SOL    HW128658   1.129   4.672   5.363
 9253SOL    HW228659   1.245   4.766   5.430
 9254SOL     OW28660   6.234   5.142   2.981
 9254SOL    HW128661   6.197   5.213   2.921
 9254SOL    HW228662   6.232   5.054   2.933
 9255SOL     OW28663   6.191   4.623   0.547
 9255SOL    HW128664   6.167   4.541   0.494
 9255SOL    HW228665   6.264   4.602   0.610
 9256SOL     OW28666   2.055   6.635   1.958
 9256SOL    HW128667   2.015   6.632   2.049
 9256SOL    HW228668   2.011   6.567   1.900
 9257SOL     OW28669   0.346   5.339   4.094
 9257SOL    HW128670   0.362   5.310   3.999
 9257SOL    HW228671   0.427   5.318   4.149
 9258SOL     OW28672   3.522   3.976   0.638
 9258SOL    HW128673   3.490   3.891   0.596
 9258SOL    HW228674   3.610   4.001   0.600
 9259SOL     OW28675   2.334   2.076   6.860
 9259SOL    HW128676   2.424   2.035   6.873
 9259SOL    HW228677   2.274   2.011   6.813
 9260SOL     OW28678   5.541   2.896   5.163
 9260SOL    HW128679   5.512   2.851   5.079
 9260SOL    HW228680   5.503   2.847   5.242
 9261SOL     OW28681   4.365   1.765   1.297
 9261SOL    HW128682   4.438   1.799   1.356
 9261SOL    HW228683   4.340   1.672   1.324
 9262SOL     OW28684   6.267   6.330   3.745
 9262SOL    HW128685   6.219   6.385   3.677
 9262SOL    HW228686   6.202   6.295   3.812
 9263SOL     OW28687   2.065   3.727   3.558
 9263SOL    HW128688   1.973   3.692   3.540
 9263SOL    HW228689   2.102   3.768   3.475
 9264SOL     OW28690   4.937   4.344   6.767
 9264SOL    HW128691   4.979   4.277   6.827
 9264SOL    HW228692   4.984   4.345   6.679
 9265SOL     OW28693   5.026   2.010   0.112
 9265SOL    HW128694   4.964   2.023   0.035
 9265SOL    HW228695   4.973   1.988   0.195
 9266SOL     OW28696   0.079   4.301   1.467
 9266SOL    HW128697   0.141   4.339   1.537
 9266SOL    HW228698   0.130   4.282   1.384
 9267SOL     OW28699   0.109   0.919   3.816
 9267SOL    HW128700   0.123   0.980   3.738
 9267SOL    HW228701   0.154   0.957   3.897
 9268SOL     OW28702   0.740   6.527   1.470
 9268SOL    HW128703   0.653   6.576   1.463
 9268SOL    HW228704   0.812   6.581   1.428
 9269SOL     OW28705   4.326   0.446   0.478
 9269SOL    HW128706   4.303   0.463   0.382
 9269SOL    HW228707   4.405   0.385   0.484
 9270SOL     OW28708   3.024   1.169   6.195
 9270SOL    HW128709   2.953   1.138   6.132
 9270SOL    HW228710   3.090   1.226   6.146
 9271SOL     OW28711   0.983   0.596   6.543
 9271SOL    HW128712   0.907   0.654   6.574
 9271SOL    HW228713   1.069   0.629   6.583
 9272SOL     OW28714   6.958   6.393   5.667
 9272SOL    HW128715   0.013   6.330   5.652
 9272SOL    HW228716   6.876   6.357   5.622
 9273SOL     OW28717   5.095   5.129   3.852
 9273SOL    HW128718   5.190   5.153   3.872
 9273SOL    HW228719   5.058   5.191   3.784
 9274SOL     OW28720   0.738   3.306   0.546
 9274SOL    HW128721   0.741   3.370   0.469
 9274SOL    HW228722   0.822   3.315   0.600
 9275SOL     OW28723   0.807   6.204   0.869
 9275SOL    HW128724   0.795   6.114   0.912
 9275SOL    HW228725   0.894   6.243   0.900
 9276SOL     OW28726   3.434   4.505   0.131
 9276SOL    HW128727   3.475   4.495   0.041
 9276SOL    HW228728   3.407   4.600   0.146
 9277SOL     OW28729   4.396   4.897   2.487
 9277SOL    HW128730   4.307   4.945   2.485
 9277SOL    HW228731   4.403   4.838   2.407
 9278SOL     OW28732   0.546   0.736   4.239
 9278SOL    HW128733   0.627   0.771   4.287
 9278SOL    HW228734   0.570   0.654   4.188
 9279SOL     OW28735   4.038   5.235   1.348
 9279SOL    HW128736   3.977   5.210   1.424
 9279SOL    HW228737   4.016   5.328   1.317
 9280SOL     OW28738   1.283   1.379   3.006
 9280SOL    HW128739   1.264   1.322   2.926
 9280SOL    HW228740   1.346   1.452   2.981
 9281SOL     OW28741   3.194   4.379   0.138
 9281SOL    HW128742   3.281   4.428   0.140
 9281SOL    HW228743   3.202   4.299   0.079
 9282SOL     OW28744   3.674   0.093   5.037
 9282SOL    HW128745   3.648   0.186   5.012
 9282SOL    HW228746   3.749   0.062   4.978
 9283SOL     OW28747   4.528   6.103   6.774
 9283SOL    HW128748   4.546   6.038   6.700
 9283SOL    HW228749   4.473   6.178   6.739
 9284SOL     OW28750   3.055   4.194   5.327
 9284SOL    HW128751   3.080   4.290   5.340
 9284SOL    HW228752   3.061   4.170   5.230
 9285SOL     OW28753   6.355   3.544   2.375
 9285SOL    HW128754   6.313   3.579   2.291
 9285SOL    HW228755   6.437   3.492   2.352
 9286SOL     OW28756   4.688   5.907   1.222
 9286SOL    HW128757   4.702   6.005   1.232
 9286SOL    HW228758   4.749   5.858   1.286
 9287SOL     OW28759   3.189   4.675   6.294
 9287SOL    HW128760   3.175   4.773   6.305
 9287SOL    HW228761   3.102   4.631   6.270
 9288SOL     OW28762   4.499   2.067   3.746
 9288SOL    HW128763   4.440   2.060   3.666
 9288SOL    HW228764   4.550   1.982   3.757
 9289SOL     OW28765   4.486   6.602   0.143
 9289SOL    HW128766   4.487   6.534   0.216
 9289SOL    HW228767   4.578   6.636   0.127
 9290SOL     OW28768   5.491   0.460   4.571
 9290SOL    HW128769   5.550   0.501   4.640
 9290SOL    HW228770   5.519   0.492   4.480
 9291SOL     OW28771   1.153   5.547   5.943
 9291SOL    HW128772   1.251   5.557   5.958
 9291SOL    HW228773   1.137   5.502   5.855
 9292SOL     OW28774   1.612   1.564   6.163
 9292SOL    HW128775   1.514   1.556   6.183
 9292SOL    HW228776   1.657   1.476   6.178
 9293SOL     OW28777   4.907   2.964   5.641
 9293SOL    HW128778   4.968   2.929   5.569
 9293SOL    HW228779   4.821   2.993   5.600
 9294SOL     OW28780   4.905   1.103   0.444
 9294SOL    HW128781   4.956   1.058   0.371
 9294SOL    HW228782   4.807   1.095   0.425
 9295SOL     OW28783   0.694   0.761   5.605
 9295SOL    HW128784   0.762   0.835   5.607
 9295SOL    HW228785   0.732   0.680   5.648
 9296SOL     OW28786   2.662   4.723   0.962
 9296SOL    HW128787   2.628   4.635   0.997
 9296SOL    HW228788   2.648   4.726   0.863
 9297SOL     OW28789   6.482   6.494   2.742
 9297SOL    HW128790   6.424   6.412   2.746
 9297SOL    HW228791   6.512   6.519   2.834
 9298SOL     OW28792   1.629   6.324   5.857
 9298SOL    HW128793   1.612   6.386   5.779
 9298SOL    HW228794   1.553   6.331   5.921
 9299SOL     OW28795   2.102   2.709   4.966
 9299SOL    HW128796   2.064   2.618   4.950
 9299SOL    HW228797   2.072   2.742   5.056
 9300SOL     OW28798   1.660   5.816   5.807
 9300SOL    HW128799   1.652   5.903   5.856
 9300SOL    HW228800   1.620   5.824   5.716
 9301SOL     OW28801   0.378   4.200   4.603
 9301SOL    HW128802   0.428   4.281   4.633
 9301SOL    HW228803   0.430   4.154   4.530
 9302SOL     OW28804   2.091   3.311   4.644
 9302SOL    HW128805   2.151   3.372   4.695
 9302SOL    HW228806   2.096   3.333   4.546
 9303SOL     OW28807   2.581   4.320   0.578
 9303SOL    HW128808   2.596   4.316   0.676
 9303SOL    HW228809   2.537   4.235   0.547
 9304SOL     OW28810   5.296   5.118   0.205
 9304SOL    HW128811   5.368   5.049   0.204
 9304SOL    HW228812   5.240   5.106   0.286
 9305SOL     OW28813   3.540   1.749   1.044
 9305SOL    HW128814   3.603   1.769   1.119
 9305SOL    HW228815   3.583   1.775   0.957
 9306SOL     OW28816   0.687   4.634   4.993
 9306SOL    HW128817   0.593   4.666   4.978
 9306SOL    HW228818   0.693   4.538   4.969
 9307SOL     OW28819   2.555   2.811   1.481
 9307SOL    HW128820   2.578   2.820   1.578
 9307SOL    HW228821   2.636   2.832   1.426
 9308SOL     OW28822   1.742   4.106   1.469
 9308SOL    HW128823   1.792   4.120   1.555
 9308SOL    HW228824   1.655   4.060   1.489
 9309SOL     OW28825   4.170   5.922   5.066
 9309SOL    HW128826   4.225   5.916   5.149
 9309SOL    HW228827   4.183   5.840   5.011
 9310SOL     OW28828   4.648   6.095   6.135
 9310SOL    HW128829   4.745   6.091   6.112
 9310SOL    HW228830   4.614   6.003   6.152
 9311SOL     OW28831   4.892   3.388   2.005
 9311SOL    HW128832   4.980   3.414   1.965
 9311SOL    HW228833   4.820   3.399   1.938
 9312SOL     OW28834   0.569   2.488   1.255
 9312SOL    HW128835   0.515   2.530   1.328
 9312SOL    HW228836   0.630   2.556   1.216
 9313SOL     OW28837   1.179   6.840   1.862
 9313SOL    HW128838   1.159   6.937   1.879
 9313SOL    HW228839   1.126   6.809   1.783
 9314SOL     OW28840   5.208   2.825   0.712
 9314SOL    HW128841   5.164   2.914   0.728
 9314SOL    HW228842   5.297   2.840   0.669
 9315SOL     OW28843   5.916   0.812   6.596
 9315SOL    HW128844   6.007   0.791   6.633
 9315SOL    HW228845   5.896   0.909   6.610
 9316SOL     OW28846   4.081   1.110   5.406
 9316SOL    HW128847   4.052   1.076   5.495
 9316SOL    HW228848   4.153   1.179   5.418
 9317SOL     OW28849   3.315   5.997   3.701
 9317SOL    HW128850   3.295   5.969   3.795
 9317SOL    HW228851   3.372   5.928   3.657
 9318SOL     OW28852   4.883   6.023   0.889
 9318SOL    HW128853   4.797   5.975   0.903
 9318SOL    HW228854   4.875   6.086   0.812
 9319SOL     OW28855   2.244   4.429   0.803
 9319SOL    HW128856   2.302   4.348   0.796
 9319SOL    HW228857   2.196   4.444   0.717
 9320SOL     OW28858   6.163   6.907   6.279
 9320SOL    HW128859   6.106   6.953   6.211
 9320SOL    HW228860   6.256   6.899   6.245
 9321SOL     OW28861   0.222   3.257   5.435
 9321SOL    HW128862   0.218   3.339   5.378
 9321SOL    HW228863   0.312   3.214   5.426
 9322SOL     OW28864   5.732   4.469   5.657
 9322SOL    HW128865   5.737   4.413   5.740
 9322SOL    HW228866   5.678   4.420   5.588
 9323SOL     OW28867   1.206   3.101   3.377
 9323SOL    HW128868   1.182   3.192   3.410
 9323SOL    HW228869   1.238   3.107   3.283
 9324SOL     OW28870   0.179   3.970   1.385
 9324SOL    HW128871   0.145   3.954   1.478
 9324SOL    HW228872   0.230   4.056   1.384
 9325SOL     OW28873   1.467   5.162   2.611
 9325SOL    HW128874   1.486   5.077   2.561
 9325SOL    HW228875   1.546   5.185   2.669
 9326SOL     OW28876   4.186   4.000   0.156
 9326SOL    HW128877   4.263   3.979   0.217
 9326SOL    HW228878   4.198   3.949   0.070
 9327SOL     OW28879   4.543   0.951   3.178
 9327SOL    HW128880   4.543   0.976   3.081
 9327SOL    HW228881   4.523   1.033   3.233
 9328SOL     OW28882   2.779   6.460   4.402
 9328SOL    HW128883   2.866   6.436   4.360
 9328SOL    HW228884   2.780   6.434   4.499
 9329SOL     OW28885   0.624   6.233   6.170
 9329SOL    HW128886   0.724   6.234   6.165
 9329SOL    HW228887   0.588   6.313   6.123
 9330SOL     OW28888   5.918   6.695   6.171
 9330SOL    HW128889   5.835   6.707   6.116
 9330SOL    HW228890   5.982   6.635   6.123
 9331SOL     OW28891   1.772   3.575   4.976
 9331SOL    HW128892   1.815   3.503   4.922
 9331SOL    HW228893   1.755   3.541   5.069
 9332SOL     OW28894   4.853   5.519   0.725
 9332SOL    HW128895   4.946   5.541   0.753
 9332SOL    HW228896   4.851   5.504   0.626
 9333SOL     OW28897   3.569   5.060   0.622
 9333SOL    HW128898   3.492   5.015   0.577
 9333SOL    HW228899   3.655   5.025   0.585
 9334SOL     OW28900   4.794   6.278   5.662
 9334SOL    HW128901   4.835   6.200   5.710
 9334SOL    HW228902   4.823   6.363   5.706
 9335SOL     OW28903   2.141   2.357   1.665
 9335SOL    HW128904   2.121   2.324   1.756
 9335SOL    HW228905   2.117   2.288   1.597
 9336SOL     OW28906   6.553   1.231   5.182
 9336SOL    HW128907   6.527   1.195   5.272
 9336SOL    HW228908   6.599   1.159   5.130
 9337SOL     OW28909   4.156   0.348   5.911
 9337SOL    HW128910   4.141   0.443   5.940
 9337SOL    HW228911   4.071   0.297   5.919
 9338SOL     OW28912   6.376   5.944   6.913
 9338SOL    HW128913   6.446   5.875   6.928
 9338SOL    HW228914   6.365   5.999   6.996
 9339SOL     OW28915   6.567   4.908   5.878
 9339SOL    HW128916   6.523   4.871   5.796
 9339SOL    HW228917   6.622   4.837   5.922
 9340SOL     OW28918   3.556   5.984   2.314
 9340SOL    HW128919   3.472   5.983   2.260
 9340SOL    HW228920   3.628   6.030   2.263
 9341SOL     OW28921   5.054   4.108   6.915
 9341SOL    HW128922   5.019   4.020   6.949
 9341SOL    HW228923   5.145   4.094   6.874
 9342SOL     OW28924   2.919   0.099   4.162
 9342SOL    HW128925   3.009   0.135   4.189
 9342SOL    HW228926   2.856   0.105   4.240
 9343SOL     OW28927   4.757   4.293   1.847
 9343SOL    HW128928   4.732   4.220   1.784
 9343SOL    HW228929   4.694   4.294   1.925
 9344SOL     OW28930   6.201   5.311   5.364
 9344SOL    HW128931   6.217   5.313   5.463
 9344SOL    HW228932   6.113   5.269   5.345
 9345SOL     OW28933   6.950   5.902   6.987
 9345SOL    HW128934   6.899   5.975   0.012
 9345SOL    HW228935   7.006   5.854   0.033
 9346SOL     OW28936   5.773   6.737   2.006
 9346SOL    HW128937   5.818   6.708   2.090
 9346SOL    HW228938   5.707   6.668   1.978
 9347SOL     OW28939   4.374   5.521   0.841
 9347SOL    HW128940   4.389   5.573   0.757
 9347SOL    HW228941   4.343   5.583   0.913
 9348SOL     OW28942   2.541   6.051   2.762
 9348SOL    HW128943   2.556   5.986   2.837
 9348SOL    HW228944   2.504   6.002   2.683
 9349SOL     OW28945   6.451   5.249   1.821
 9349SOL    HW128946   6.530   5.309   1.807
 9349SOL    HW228947   6.369   5.295   1.787
 9350SOL     OW28948   6.930   1.443   4.720
 9350SOL    HW128949   6.834   1.446   4.746
 9350SOL    HW228950   6.982   1.393   4.791
 9351SOL     OW28951   3.214   0.870   5.694
 9351SOL    HW128952   3.241   0.900   5.602
 9351SOL    HW228953   3.250   0.779   5.712
 9352SOL     OW28954   2.812   2.324   5.838
 9352SOL    HW128955   2.757   2.297   5.759
 9352SOL    HW228956   2.821   2.247   5.900
 9353SOL     OW28957   1.288   3.819   1.605
 9353SOL    HW128958   1.301   3.731   1.652
 9353SOL    HW228959   1.194   3.826   1.573
 9354SOL     OW28960   6.352   2.312   1.219
 9354SOL    HW128961   6.311   2.299   1.129
 9354SOL    HW228962   6.426   2.379   1.212
 9355SOL     OW28963   0.073   0.070   4.114
 9355SOL    HW128964   0.099   0.157   4.072
 9355SOL    HW228965   7.004   0.043   4.081
 9356SOL     OW28966   4.163   5.207   1.788
 9356SOL    HW128967   4.095   5.164   1.847
 9356SOL    HW228968   4.145   5.305   1.781
 9357SOL     OW28969   3.025   3.341   0.699
 9357SOL    HW128970   2.977   3.269   0.750
 9357SOL    HW228971   3.081   3.395   0.762
 9358SOL     OW28972   6.259   4.356   1.908
 9358SOL    HW128973   6.357   4.367   1.892
 9358SOL    HW228974   6.232   4.262   1.886
 9359SOL     OW28975   6.999   4.126   6.429
 9359SOL    HW128976   6.974   4.029   6.432
 9359SOL    HW228977   6.916   4.182   6.433
 9360SOL     OW28978   2.083   0.265   5.728
 9360SOL    HW128979   2.099   0.347   5.782
 9360SOL    HW228980   2.150   0.261   5.653
 9361SOL     OW28981   3.031   5.725   2.586
 9361SOL    HW128982   3.058   5.634   2.618
 9361SOL    HW228983   3.112   5.776   2.560
 9362SOL     OW28984   2.405   1.066   2.193
 9362SOL    HW128985   2.463   0.989   2.170
 9362SOL    HW228986   2.332   1.035   2.255
 9363SOL     OW28987   3.587   5.652   2.639
 9363SOL    HW128988   3.526   5.680   2.564
 9363SOL    HW228989   3.557   5.564   2.675
 9364SOL     OW28990   4.494   3.133   6.406
 9364SOL    HW128991   4.593   3.123   6.416
 9364SOL    HW228992   4.451   3.043   6.407
 9365SOL     OW28993   2.536   2.229   4.981
 9365SOL    HW128994   2.625   2.245   4.939
 9365SOL    HW228995   2.532   2.137   5.018
 9366SOL     OW28996   3.439   2.017   0.559
 9366SOL    HW128997   3.357   2.006   0.503
 9366SOL    HW228998   3.419   1.989   0.653
 9367SOL     OW28999   6.471   5.659   3.697
 9367SOL    HW129000   6.432   5.631   3.784
 9367SOL    HW229001   6.570   5.668   3.705
 9368SOL     OW29002   3.360   1.918   1.872
 9368SOL    HW129003   3.271   1.939   1.831
 9368SOL    HW229004   3.392   1.830   1.838
 9369SOL     OW29005   6.489   1.762   5.851
 9369SOL    HW129006   6.575   1.713   5.871
 9369SOL    HW229007   6.434   1.707   5.789
 9370SOL     OW29008   6.059   0.897   2.911
 9370SOL    HW129009   6.026   0.875   3.003
 9370SOL    HW229010   6.152   0.862   2.900
 9371SOL     OW29011   1.164   5.406   0.378
 9371SOL    HW129012   1.127   5.496   0.400
 9371SOL    HW229013   1.092   5.337   0.388
 9372SOL     OW29014   5.741   6.540   3.363
 9372SOL    HW129015   5.703   6.626   3.327
 9372SOL    HW229016   5.667   6.487   3.405
 9373SOL     OW29017   4.297   1.765   3.109
 9373SOL    HW129018   4.216   1.761   3.051
 9373SOL    HW229019   4.353   1.844   3.083
 9374SOL     OW29020   5.930   2.621   0.333
 9374SOL    HW129021   5.851   2.575   0.293
 9374SOL    HW229022   5.972   2.562   0.402
 9375SOL     OW29023   6.461   1.119   3.061
 9375SOL    HW129024   6.394   1.155   3.126
 9375SOL    HW229025   6.427   1.034   3.022
 9376SOL     OW29026   3.244   3.686   0.941
 9376SOL    HW129027   3.251   3.720   1.035
 9376SOL    HW229028   3.245   3.763   0.878
 9377SOL     OW29029   6.352   5.587   3.941
 9377SOL    HW129030   6.258   5.568   3.966
 9377SOL    HW229031   6.413   5.525   3.991
 9378SOL     OW29032   2.838   0.094   6.537
 9378SOL    HW129033   2.747   0.095   6.496
 9378SOL    HW229034   2.880   0.184   6.528
 9379SOL     OW29035   4.826   4.403   4.345
 9379SOL    HW129036   4.841   4.351   4.430
 9379SOL    HW229037   4.736   4.446   4.348
 9380SOL     OW29038   6.974   6.204   5.368
 9380SOL    HW129039   6.999   6.216   5.272
 9380SOL    HW229040   6.884   6.160   5.374
 9381SOL     OW29041   2.624   2.901   5.406
 9381SOL    HW129042   2.583   2.937   5.490
 9381SOL    HW229043   2.579   2.944   5.327
 9382SOL     OW29044   4.184   0.433   2.980
 9382SOL    HW129045   4.117   0.370   2.941
 9382SOL    HW229046   4.255   0.453   2.912
 9383SOL     OW29047   3.326   6.689   4.755
 9383SOL    HW129048   3.321   6.731   4.846
 9383SOL    HW229049   3.235   6.688   4.715
 9384SOL     OW29050   3.998   5.761   2.455
 9384SOL    HW129051   4.043   5.681   2.416
 9384SOL    HW229052   4.029   5.773   2.550
 9385SOL     OW29053   3.863   1.436   2.853
 9385SOL    HW129054   3.776   1.437   2.803
 9385SOL    HW229055   3.845   1.455   2.950
 9386SOL     OW29056   3.415   6.445   4.602
 9386SOL    HW129057   3.440   6.399   4.687
 9386SOL    HW229058   3.412   6.544   4.617
 9387SOL     OW29059   3.663   6.522   1.371
 9387SOL    HW129060   3.719   6.482   1.443
 9387SOL    HW229061   3.576   6.472   1.364
 9388SOL     OW29062   1.363   6.211   2.299
 9388SOL    HW129063   1.265   6.213   2.320
 9388SOL    HW229064   1.375   6.200   2.200
 9389SOL     OW29065   2.367   0.185   5.321
 9389SOL    HW129066   2.365   0.282   5.296
 9389SOL    HW229067   2.408   0.132   5.247
 9390SOL     OW29068   4.083   5.859   3.365
 9390SOL    HW129069   4.051   5.765   3.374
 9390SOL    HW229070   4.152   5.864   3.292
 9391SOL     OW29071   2.044   0.553   5.358
 9391SOL    HW129072   2.057   0.588   5.450
 9391SOL    HW229073   1.947   0.555   5.334
 9392SOL     OW29074   0.492   6.535   5.057
 9392SOL    HW129075   0.518   6.622   5.015
 9392SOL    HW229076   0.469   6.551   5.153
 9393SOL     OW29077   3.598   1.655   4.694
 9393SOL    HW129078   3.696   1.642   4.677
 9393SOL    HW229079   3.585   1.700   4.782
 9394SOL     OW29080   6.388   2.548   3.399
 9394SOL    HW129081   6.414   2.530   3.304
 9394SOL    HW229082   6.468   2.580   3.450
 9395SOL     OW29083   2.788   2.417   0.500
 9395SOL    HW129084   2.842   2.443   0.579
 9395SOL    HW229085   2.805   2.480   0.425
 9396SOL     OW29086   6.728   6.586   4.648
 9396SOL    HW129087   6.819   6.569   4.687
 9396SOL    HW229088   6.718   6.533   4.564
 9397SOL     OW29089   2.484   0.383   0.599
 9397SOL    HW129090   2.546   0.460   0.616
 9397SOL    HW229091   2.474   0.368   0.501
 9398SOL     OW29092   2.173   0.685   6.952
 9398SOL    HW129093   2.219   0.634   0.003
 9398SOL    HW229094   2.113   0.754   6.993
 9399SOL     OW29095   6.777   2.337   0.124
 9399SOL    HW129096   6.843   2.401   0.084
 9399SOL    HW229097   6.759   2.263   0.060
 9400SOL     OW29098   5.144   3.453   1.892
 9400SOL    HW129099   5.168   3.548   1.873
 9400SOL    HW229100   5.227   3.401   1.913
 9401SOL     OW29101   2.292   6.470   3.410
 9401SOL    HW129102   2.306   6.568   3.403
 9401SOL    HW229103   2.266   6.433   3.321
 9402SOL     OW29104   2.120   4.696   6.499
 9402SOL    HW129105   2.058   4.744   6.561
 9402SOL    HW229106   2.205   4.675   6.547
 9403SOL     OW29107   4.796   1.671   3.578
 9403SOL    HW129108   4.854   1.713   3.508
 9403SOL    HW229109   4.740   1.741   3.621
 9404SOL     OW29110   0.601   4.831   6.716
 9404SOL    HW129111   0.621   4.738   6.684
 9404SOL    HW229112   0.506   4.855   6.693
 9405SOL     OW29113   6.120   6.733   1.442
 9405SOL    HW129114   6.098   6.770   1.532
 9405SOL    HW229115   6.118   6.633   1.446
 9406SOL     OW29116   0.342   1.748   5.493
 9406SOL    HW129117   0.422   1.689   5.482
 9406SOL    HW229118   0.354   1.831   5.439
 9407SOL     OW29119   3.351   6.834   2.638
 9407SOL    HW129120   3.427   6.770   2.633
 9407SOL    HW229121   3.378   6.921   2.598
 9408SOL     OW29122   3.989   1.163   5.697
 9408SOL    HW129123   3.981   1.067   5.722
 9408SOL    HW229124   3.980   1.220   5.778
 9409SOL     OW29125   4.878   4.253   4.558
 9409SOL    HW129126   4.841   4.201   4.635
 9409SOL    HW229127   4.978   4.250   4.561
 9410SOL     OW29128   3.516   6.114   1.693
 9410SOL    HW129129   3.517   6.082   1.598
 9410SOL    HW229130   3.592   6.073   1.744
 9411SOL     OW29131   3.648   4.790   1.142
 9411SOL    HW129132   3.553   4.803   1.172
 9411SOL    HW229133   3.710   4.814   1.216
 9412SOL     OW29134   1.062   2.659   1.572
 9412SOL    HW129135   1.063   2.704   1.483
 9412SOL    HW229136   1.055   2.727   1.645
 9413SOL     OW29137   4.118   5.658   4.967
 9413SOL    HW129138   4.021   5.674   4.949
 9413SOL    HW229139   4.129   5.596   5.045
 9414SOL     OW29140   3.011   1.520   2.716
 9414SOL    HW129141   3.069   1.599   2.736
 9414SOL    HW229142   2.936   1.517   2.783
 9415SOL     OW29143   1.391   6.844   2.613
 9415SOL    HW129144   1.312   6.837   2.553
 9415SOL    HW229145   1.363   6.885   2.700
 9416SOL     OW29146   0.722   1.261   1.456
 9416SOL    HW129147   0.735   1.257   1.555
 9416SOL    HW229148   0.766   1.344   1.420
 9417SOL     OW29149   3.315   6.959   5.578
 9417SOL    HW129150   3.335   0.020   5.631
 9417SOL    HW229151   3.325   6.978   5.480
 9418SOL     OW29152   2.402   6.153   0.963
 9418SOL    HW129153   2.423   6.159   1.061
 9418SOL    HW229154   2.306   6.177   0.949
 9419SOL     OW29155   3.516   6.881   5.135
 9419SOL    HW129156   3.564   6.836   5.211
 9419SOL    HW229157   3.581   6.934   5.081
 9420SOL     OW29158   0.368   1.570   4.866
 9420SOL    HW129159   0.369   1.475   4.833
 9420SOL    HW229160   0.273   1.599   4.879
 9421SOL     OW29161   2.349   6.071   5.485
 9421SOL    HW129162   2.253   6.076   5.512
 9421SOL    HW229163   2.399   6.016   5.552
 9422SOL     OW29164   5.411   0.171   2.393
 9422SOL    HW129165   5.322   0.125   2.386
 9422SOL    HW229166   5.454   0.147   2.479
 9423SOL     OW29167   4.417   0.451   2.784
 9423SOL    HW129168   4.424   0.354   2.761
 9423SOL    HW229169   4.505   0.484   2.817
 9424SOL     OW29170   5.360   0.648   5.562
 9424SOL    HW129171   5.412   0.670   5.644
 9424SOL    HW229172   5.397   0.699   5.484
 9425SOL     OW29173   0.560   3.077   6.016
 9425SOL    HW129174   0.568   3.155   5.954
 9425SOL    HW229175   0.641   3.073   6.074
 9426SOL     OW29176   2.904   1.615   0.706
 9426SOL    HW129177   2.965   1.694   0.699
 9426SOL    HW229178   2.959   1.531   0.708
 9427SOL     OW29179   2.900   4.724   5.395
 9427SOL    HW129180   2.913   4.644   5.337
 9427SOL    HW229181   2.847   4.793   5.346
 9428SOL     OW29182   5.673   6.930   2.573
 9428SOL    HW129183   5.725   7.005   2.613
 9428SOL    HW229184   5.675   6.937   2.474
 9429SOL     OW29185   1.322   3.873   2.015
 9429SOL    HW129186   1.268   3.938   1.960
 9429SOL    HW229187   1.369   3.922   2.088
 9430SOL     OW29188   6.562   6.229   1.630
 9430SOL    HW129189   6.465   6.206   1.636
 9430SOL    HW229190   6.576   6.298   1.559
 9431SOL     OW29191   5.971   4.065   0.393
 9431SOL    HW129192   5.882   4.069   0.346
 9431SOL    HW229193   5.965   4.002   0.470
 9432SOL     OW29194   6.338   0.048   3.995
 9432SOL    HW129195   6.397   6.997   4.031
 9432SOL    HW229196   6.310   0.109   4.069
 9433SOL     OW29197   3.206   4.870   4.500
 9433SOL    HW129198   3.210   4.967   4.523
 9433SOL    HW229199   3.159   4.821   4.574
 9434SOL     OW29200   5.629   4.070   3.613
 9434SOL    HW129201   5.679   4.129   3.550
 9434SOL    HW229202   5.693   4.006   3.656
 9435SOL     OW29203   1.147   1.215   4.307
 9435SOL    HW129204   1.130   1.117   4.311
 9435SOL    HW229205   1.245   1.232   4.294
 9436SOL     OW29206   1.196   3.346   1.558
 9436SOL    HW129207   1.254   3.427   1.544
 9436SOL    HW229208   1.149   3.354   1.646
 9437SOL     OW29209   1.090   6.344   3.141
 9437SOL    HW129210   0.997   6.333   3.174
 9437SOL    HW229211   1.088   6.372   3.045
 9438SOL     OW29212   0.933   6.581   1.095
 9438SOL    HW129213   0.914   6.616   1.002
 9438SOL    HW229214   0.970   6.489   1.089
 9439SOL     OW29215   0.118   3.171   2.045
 9439SOL    HW129216   0.031   3.121   2.049
 9439SOL    HW229217   0.185   3.117   1.993
 9440SOL     OW29218   4.809   5.652   4.860
 9440SOL    HW129219   4.720   5.616   4.888
 9440SOL    HW229220   4.868   5.575   4.833
 9441SOL     OW29221   1.230   5.455   5.419
 9441SOL    HW129222   1.316   5.500   5.395
 9441SOL    HW229223   1.230   5.362   5.382
 9442SOL     OW29224   6.523   1.580   0.001
 9442SOL    HW129225   6.449   1.639   6.992
 9442SOL    HW229226   6.556   1.610   0.091
 9443SOL     OW29227   2.294   4.294   1.595
 9443SOL    HW129228   2.268   4.379   1.640
 9443SOL    HW229229   2.212   4.250   1.557
 9444SOL     OW29230   0.411   3.368   0.247
 9444SOL    HW129231   0.416   3.432   0.324
 9444SOL    HW229232   0.428   3.418   0.161
 9445SOL     OW29233   4.926   3.106   2.027
 9445SOL    HW129234   4.904   3.202   2.007
 9445SOL    HW229235   4.843   3.059   2.056
 9446SOL     OW29236   6.282   6.791   3.033
 9446SOL    HW129237   6.290   6.691   3.028
 9446SOL    HW229238   6.372   6.831   3.047
 9447SOL     OW29239   5.651   3.699   3.200
 9447SOL    HW129240   5.671   3.734   3.108
 9447SOL    HW229241   5.715   3.625   3.221
 9448SOL     OW29242   5.107   5.748   6.287
 9448SOL    HW129243   5.070   5.656   6.269
 9448SOL    HW229244   5.038   5.803   6.333
 9449SOL     OW29245   6.825   5.753   5.725
 9449SOL    HW129246   6.862   5.661   5.712
 9449SOL    HW229247   6.765   5.754   5.805
 9450SOL     OW29248   2.768   4.725   4.696
 9450SOL    HW129249   2.858   4.766   4.679
 9450SOL    HW229250   2.764   4.689   4.789
 9451SOL     OW29251   4.683   5.506   5.824
 9451SOL    HW129252   4.640   5.501   5.915
 9451SOL    HW229253   4.764   5.564   5.829
 9452SOL     OW29254   1.865   3.325   0.217
 9452SOL    HW129255   1.890   3.420   0.236
 9452SOL    HW229256   1.794   3.296   0.281
 9453SOL     OW29257   1.560   3.828   3.290
 9453SOL    HW129258   1.546   3.918   3.331
 9453SOL    HW229259   1.523   3.828   3.198
 9454SOL     OW29260   1.645   3.788   6.036
 9454SOL    HW129261   1.696   3.703   6.019
 9454SOL    HW229262   1.635   3.838   5.949
 9455SOL     OW29263   3.562   1.241   2.447
 9455SOL    HW129264   3.607   1.312   2.501
 9455SOL    HW229265   3.476   1.216   2.491
 9456SOL     OW29266   0.191   4.499   1.222
 9456SOL    HW129267   0.238   4.499   1.134
 9456SOL    HW229268   0.256   4.521   1.295
 9457SOL     OW29269   1.150   3.870   6.320
 9457SOL    HW129270   1.213   3.828   6.385
 9457SOL    HW229271   1.194   3.947   6.274
 9458SOL     OW29272   0.837   4.801   6.334
 9458SOL    HW129273   0.804   4.874   6.394
 9458SOL    HW229274   0.845   4.835   6.241
 9459SOL     OW29275   6.725   5.203   1.966
 9459SOL    HW129276   6.737   5.225   1.869
 9459SOL    HW229277   6.797   5.140   1.995
 9460SOL     OW29278   0.075   2.170   5.365
 9460SOL    HW129279   0.055   2.074   5.345
 9460SOL    HW229280   0.008   2.228   5.318
 9461SOL     OW29281   6.489   1.657   3.303
 9461SOL    HW129282   6.454   1.700   3.220
 9461SOL    HW229283   6.582   1.623   3.287
 9462SOL     OW29284   1.574   3.339   3.378
 9462SOL    HW129285   1.535   3.285   3.452
 9462SOL    HW229286   1.669   3.363   3.401
 9463SOL     OW29287   0.064   0.480   0.985
 9463SOL    HW129288   0.044   0.571   1.023
 9463SOL    HW229289   7.011   0.418   1.011
 9464SOL     OW29290   5.589   6.853   6.426
 9464SOL    HW129291   5.624   6.944   6.450
 9464SOL    HW229292   5.587   6.796   6.507
 9465SOL     OW29293   6.802   0.256   3.109
 9465SOL    HW129294   6.713   0.297   3.128
 9465SOL    HW229295   6.857   0.253   3.193
 9466SOL     OW29296   3.689   3.504   5.277
 9466SOL    HW129297   3.630   3.571   5.323
 9466SOL    HW229298   3.729   3.547   5.196
 9467SOL     OW29299   1.674   2.831   1.302
 9467SOL    HW129300   1.645   2.735   1.305
 9467SOL    HW229301   1.600   2.889   1.336
 9468SOL     OW29302   5.670   2.789   6.225
 9468SOL    HW129303   5.695   2.803   6.321
 9468SOL    HW229304   5.596   2.851   6.200
 9469SOL     OW29305   5.952   5.525   1.950
 9469SOL    HW129306   5.869   5.546   1.898
 9469SOL    HW229307   5.950   5.574   2.037
 9470SOL     OW29308   5.063   2.921   6.793
 9470SOL    HW129309   4.985   2.978   6.765
 9470SOL    HW229310   5.129   2.916   6.718
 9471SOL     OW29311   0.136   2.463   5.565
 9471SOL    HW129312   0.173   2.556   5.567
 9471SOL    HW229313   0.210   2.397   5.581
 9472SOL     OW29314   6.506   3.633   4.314
 9472SOL    HW129315   6.504   3.696   4.391
 9472SOL    HW229316   6.601   3.613   4.289
 9473SOL     OW29317   3.783   6.600   5.426
 9473SOL    HW129318   3.763   6.588   5.523
 9473SOL    HW229319   3.699   6.587   5.373
 9474SOL     OW29320   5.927   4.410   1.866
 9474SOL    HW129321   5.960   4.460   1.786
 9474SOL    HW229322   5.855   4.463   1.911
 9475SOL     OW29323   3.271   3.427   0.820
 9475SOL    HW129324   3.255   3.510   0.873
 9475SOL    HW229325   3.264   3.347   0.880
 9476SOL     OW29326   2.926   3.336   4.447
 9476SOL    HW129327   2.868   3.416   4.457
 9476SOL    HW229328   2.928   3.285   4.533
 9477SOL     OW29329   0.891   3.345   1.554
 9477SOL    HW129330   0.886   3.388   1.644
 9477SOL    HW229331   0.986   3.341   1.523
 9478SOL     OW29332   5.498   4.193   6.170
 9478SOL    HW129333   5.412   4.160   6.209
 9478SOL    HW229334   5.488   4.291   6.149
 9479SOL     OW29335   5.902   6.294   6.502
 9479SOL    HW129336   5.990   6.328   6.468
 9479SOL    HW229337   5.831   6.310   6.434
 9480SOL     OW29338   4.477   4.437   6.399
 9480SOL    HW129339   4.564   4.455   6.445
 9480SOL    HW229340   4.495   4.411   6.304
 9481SOL     OW29341   6.019   3.619   1.447
 9481SOL    HW129342   6.054   3.664   1.365
 9481SOL    HW229343   6.063   3.530   1.458
 9482SOL     OW29344   6.014   0.813   3.163
 9482SOL    HW129345   6.103   0.848   3.191
 9482SOL    HW229346   5.962   0.786   3.244
 9483SOL     OW29347   1.907   1.602   0.919
 9483SOL    HW129348   1.909   1.649   0.831
 9483SOL    HW229349   1.814   1.569   0.937
 9484SOL     OW29350   5.601   1.816   3.616
 9484SOL    HW129351   5.534   1.747   3.644
 9484SOL    HW229352   5.558   1.906   3.613
 9485SOL     OW29353   1.103   0.031   1.505
 9485SOL    HW129354   1.177   6.990   1.480
 9485SOL    HW229355   1.056   0.063   1.422
 9486SOL     OW29356   2.433   5.198   1.120
 9486SOL    HW129357   2.453   5.101   1.133
 9486SOL    HW229358   2.334   5.212   1.121
 9487SOL     OW29359   2.989   3.779   3.479
 9487SOL    HW129360   2.919   3.731   3.425
 9487SOL    HW229361   3.048   3.711   3.523
 9488SOL     OW29362   2.502   6.359   1.398
 9488SOL    HW129363   2.574   6.364   1.468
 9488SOL    HW229364   2.523   6.285   1.335
 9489SOL     OW29365   3.526   4.063   1.064
 9489SOL    HW129366   3.599   4.077   0.997
 9489SOL    HW229367   3.561   4.006   1.139
 9490SOL     OW29368   5.635   0.129   0.665
 9490SOL    HW129369   5.674   0.213   0.704
 9490SOL    HW229370   5.571   0.089   0.730
 9491SOL     OW29371   6.778   4.741   5.024
 9491SOL    HW129372   6.700   4.778   4.974
 9491SOL    HW229373   6.748   4.709   5.114
 9492SOL     OW29374   3.205   3.355   2.464
 9492SOL    HW129375   3.249   3.411   2.394
 9492SOL    HW229376   3.273   3.327   2.532
 9493SOL     OW29377   4.911   5.234   3.649
 9493SOL    HW129378   4.882   5.292   3.725
 9493SOL    HW229379   4.837   5.230   3.581
 9494SOL     OW29380   4.984   4.107   0.817
 9494SOL    HW129381   4.887   4.095   0.798
 9494SOL    HW229382   5.011   4.044   0.891
 9495SOL     OW29383   6.431   2.054   4.143
 9495SOL    HW129384   6.409   1.956   4.145
 9495SOL    HW229385   6.497   2.074   4.216
 9496SOL     OW29386   5.035   4.852   6.902
 9496SOL    HW129387   4.969   4.838   6.828
 9496SOL    HW229388   5.089   4.769   6.915
 9497SOL     OW29389   4.421   4.088   0.632
 9497SOL    HW129390   4.345   4.154   0.635
 9497SOL    HW229391   4.401   4.013   0.696
 9498SOL     OW29392   5.324   0.477   6.101
 9498SOL    HW129393   5.394   0.441   6.161
 9498SOL    HW229394   5.309   0.413   6.025
 9499SOL     OW29395   2.099   3.629   5.472
 9499SOL    HW129396   2.077   3.725   5.458
 9499SOL    HW229397   2.165   3.599   5.402
 9500SOL     OW29398   3.339   6.654   1.791
 9500SOL    HW129399   3.376   6.720   1.857
 9500SOL    HW229400   3.241   6.643   1.808
 9501SOL     OW29401   3.258   1.656   4.823
 9501SOL    HW129402   3.253   1.731   4.757
 9501SOL    HW229403   3.291   1.573   4.777
 9502SOL     OW29404   0.191   2.442   4.814
 9502SOL    HW129405   0.166   2.445   4.718
 9502SOL    HW229406   0.110   2.464   4.870
 9503SOL     OW29407   0.682   1.044   1.179
 9503SOL    HW129408   0.771   1.061   1.222
 9503SOL    HW229409   0.611   1.093   1.230
 9504SOL     OW29410   6.569   2.113   0.829
 9504SOL    HW129411   6.470   2.123   0.830
 9504SOL    HW229412   6.604   2.138   0.738
 9505SOL     OW29413   5.836   3.697   3.547
 9505SOL    HW129414   5.882   3.661   3.629
 9505SOL    HW229415   5.877   3.656   3.466
 9506SOL     OW29416   0.594   3.124   6.819
 9506SOL    HW129417   0.535   3.197   6.854
 9506SOL    HW229418   0.613   3.059   6.892
 9507SOL     OW29419   2.078   1.217   4.402
 9507SOL    HW129420   2.061   1.212   4.500
 9507SOL    HW229421   2.105   1.310   4.378
 9508SOL     OW29422   5.962   2.490   0.575
 9508SOL    HW129423   5.986   2.398   0.606
 9508SOL    HW229424   5.879   2.520   0.621
 9509SOL     OW29425   1.519   6.452   5.443
 9509SOL    HW129426   1.441   6.441   5.382
 9509SOL    HW229427   1.489   6.496   5.528
 9510SOL     OW29428   0.472   3.939   1.790
 9510SOL    HW129429   0.502   3.967   1.698
 9510SOL    HW229430   0.449   3.842   1.790
 9511SOL     OW29431   0.703   2.339   0.039
 9511SOL    HW129432   0.672   2.276   6.989
 9511SOL    HW229433   0.648   2.327   0.122
 9512SOL     OW29434   5.867   2.099   3.680
 9512SOL    HW129435   5.927   2.177   3.695
 9512SOL    HW229436   5.917   2.014   3.696
 9513SOL     OW29437   1.732   3.237   4.564
 9513SOL    HW129438   1.807   3.189   4.518
 9513SOL    HW229439   1.767   3.280   4.647
 9514SOL     OW29440   1.500   3.971   0.261
 9514SOL    HW129441   1.590   3.929   0.268
 9514SOL    HW229442   1.464   3.957   0.168
 9515SOL     OW29443   1.268   5.564   0.010
 9515SOL    HW129444   1.319   5.558   0.095
 9515SOL    HW229445   1.328   5.542   6.954
 9516SOL     OW29446   4.880   3.324   4.508
 9516SOL    HW129447   4.970   3.367   4.520
 9516SOL    HW229448   4.866   3.304   4.411
 9517SOL     OW29449   1.465   5.025   0.836
 9517SOL    HW129450   1.468   5.104   0.776
 9517SOL    HW229451   1.526   4.954   0.802
 9518SOL     OW29452   1.756   2.469   6.750
 9518SOL    HW129453   1.738   2.539   6.680
 9518SOL    HW229454   1.749   2.510   6.841
 9519SOL     OW29455   3.109   3.385   2.887
 9519SOL    HW129456   3.142   3.461   2.830
 9519SOL    HW229457   3.034   3.416   2.945
 9520SOL     OW29458   6.516   1.247   4.270
 9520SOL    HW129459   6.550   1.253   4.363
 9520SOL    HW229460   6.431   1.299   4.262
 9521SOL     OW29461   3.366   4.901   1.229
 9521SOL    HW129462   3.309   4.862   1.156
 9521SOL    HW229463   3.314   4.905   1.314
 9522SOL     OW29464   4.296   5.609   2.613
 9522SOL    HW129465   4.245   5.578   2.532
 9522SOL    HW229466   4.394   5.607   2.593
 9523SOL     OW29467   2.533   5.519   4.994
 9523SOL    HW129468   2.622   5.526   5.039
 9523SOL    HW229469   2.461   5.534   5.061
 9524SOL     OW29470   1.860   3.328   1.360
 9524SOL    HW129471   1.858   3.230   1.383
 9524SOL    HW229472   1.954   3.355   1.340
 9525SOL     OW29473   1.846   1.435   5.930
 9525SOL    HW129474   1.943   1.459   5.936
 9525SOL    HW229475   1.815   1.401   6.018
 9526SOL     OW29476   5.644   5.044   0.724
 9526SOL    HW129477   5.686   5.053   0.814
 9526SOL    HW229478   5.544   5.046   0.734
 9527SOL     OW29479   2.729   0.089   4.353
 9527SOL    HW129480   2.767   0.131   4.435
 9527SOL    HW229481   2.654   0.028   4.378
 9528SOL     OW29482   6.181   1.681   1.278
 9528SOL    HW129483   6.091   1.673   1.320
 9528SOL    HW229484   6.220   1.590   1.266
 9529SOL     OW29485   5.617   3.846   1.090
 9529SOL    HW129486   5.612   3.789   1.172
 9529SOL    HW229487   5.711   3.877   1.077
 9530SOL     OW29488   1.009   4.705   4.147
 9530SOL    HW129489   1.106   4.689   4.164
 9530SOL    HW229490   0.955   4.652   4.212
 9531SOL     OW29491   4.150   5.060   3.466
 9531SOL    HW129492   4.150   4.981   3.527
 9531SOL    HW229493   4.168   5.030   3.373
 9532SOL     OW29494   6.135   4.883   1.410
 9532SOL    HW129495   6.081   4.948   1.356
 9532SOL    HW229496   6.164   4.926   1.495
 9533SOL     OW29497   0.656   5.459   3.594
 9533SOL    HW129498   0.650   5.519   3.513
 9533SOL    HW229499   0.751   5.430   3.605
 9534SOL     OW29500   5.771   4.339   5.235
 9534SOL    HW129501   5.698   4.323   5.302
 9534SOL    HW229502   5.857   4.358   5.283
 9535SOL     OW29503   2.053   1.354   6.233
 9535SOL    HW129504   2.106   1.425   6.278
 9535SOL    HW229505   2.111   1.273   6.220
 9536SOL     OW29506   3.671   3.230   5.264
 9536SOL    HW129507   3.669   3.329   5.277
 9536SOL    HW229508   3.653   3.185   5.352
 9537SOL     OW29509   2.776   1.869   4.487
 9537SOL    HW129510   2.744   1.909   4.401
 9537SOL    HW229511   2.771   1.937   4.559
 9538SOL     OW29512   4.741   1.191   4.332
 9538SOL    HW129513   4.766   1.223   4.241
 9538SOL    HW229514   4.783   1.101   4.348
 9539SOL     OW29515   2.912   3.641   4.072
 9539SOL    HW129516   2.864   3.689   3.999
 9539SOL    HW229517   3.009   3.666   4.070
 9540SOL     OW29518   4.842   5.693   4.205
 9540SOL    HW129519   4.941   5.689   4.194
 9540SOL    HW229520   4.803   5.755   4.137
 9541SOL     OW29521   1.548   0.737   5.699
 9541SOL    HW129522   1.461   0.694   5.725
 9541SOL    HW229523   1.582   0.792   5.775
 9542SOL     OW29524   5.426   5.049   4.556
 9542SOL    HW129525   5.339   5.080   4.594
 9542SOL    HW229526   5.494   5.045   4.629
 9543SOL     OW29527   3.102   0.357   5.973
 9543SOL    HW129528   3.012   0.313   5.982
 9543SOL    HW229529   3.091   0.456   5.983
 9544SOL     OW29530   5.217   3.444   3.895
 9544SOL    HW129531   5.135   3.395   3.924
 9544SOL    HW229532   5.224   3.443   3.795
 9545SOL     OW29533   6.704   5.211   2.293
 9545SOL    HW129534   6.780   5.265   2.256
 9545SOL    HW229535   6.623   5.224   2.235
 9546SOL     OW29536   3.857   1.664   5.646
 9546SOL    HW129537   3.902   1.754   5.646
 9546SOL    HW229538   3.798   1.656   5.565
 9547SOL     OW29539   2.609   5.668   4.036
 9547SOL    HW129540   2.692   5.716   4.008
 9547SOL    HW229541   2.564   5.629   3.956
 9548SOL     OW29542   0.730   5.528   4.717
 9548SOL    HW129543   0.660   5.460   4.739
 9548SOL    HW229544   0.821   5.485   4.721
 9549SOL     OW29545   2.826   0.485   2.215
 9549SOL    HW129546   2.886   0.486   2.295
 9549SOL    HW229547   2.879   0.505   2.133
 9550SOL     OW29548   6.286   2.098   0.796
 9550SOL    HW129549   6.275   1.999   0.798
 9550SOL    HW229550   6.315   2.127   0.705
 9551SOL     OW29551   6.225   3.611   5.841
 9551SOL    HW129552   6.302   3.572   5.892
 9551SOL    HW229553   6.160   3.539   5.818
 9552SOL     OW29554   2.536   6.618   6.136
 9552SOL    HW129555   2.598   6.609   6.058
 9552SOL    HW229556   2.560   6.700   6.188
 9553SOL     OW29557   5.367   2.492   6.803
 9553SOL    HW129558   5.377   2.592   6.804
 9553SOL    HW229559   5.441   2.451   6.857
 9554SOL     OW29560   1.686   7.000   4.080
 9554SOL    HW129561   1.766   0.026   4.045
 9554SOL    HW229562   1.604   0.033   4.063
 9555SOL     OW29563   0.250   1.349   3.282
 9555SOL    HW129564   0.263   1.441   3.244
 9555SOL    HW229565   0.193   1.295   3.220
 9556SOL     OW29566   1.957   4.023   1.231
 9556SOL    HW129567   1.861   4.049   1.215
 9556SOL    HW229568   1.964   3.924   1.235
 9557SOL     OW29569   5.251   0.006   1.669
 9557SOL    HW129570   5.351   0.003   1.666
 9557SOL    HW229571   5.221   0.099   1.686
 9558SOL     OW29572   5.457   6.253   5.735
 9558SOL    HW129573   5.417   6.162   5.726
 9558SOL    HW229574   5.550   6.253   5.698
 9559SOL     OW29575   1.326   3.699   0.145
 9559SOL    HW129576   1.424   3.684   0.158
 9559SOL    HW229577   1.290   3.632   0.079
 9560SOL     OW29578   2.774   0.907   2.333
 9560SOL    HW129579   2.795   0.970   2.258
 9560SOL    HW229580   2.859   0.879   2.377
 9561SOL     OW29581   0.290   0.567   1.240
 9561SOL    HW129582   0.293   0.667   1.240
 9561SOL    HW229583   0.209   0.536   1.289
 9562SOL     OW29584   2.445   6.221   4.309
 9562SOL    HW129585   2.440   6.133   4.261
 9562SOL    HW229586   2.394   6.290   4.256
 9563SOL     OW29587   0.167   6.856   6.883
 9563SOL    HW129588   0.111   6.774   6.897
 9563SOL    HW229589   0.223   6.872   6.964
 9564SOL     OW29590   2.453   1.269   1.131
 9564SOL    HW129591   2.365   1.291   1.088
 9564SOL    HW229592   2.480   1.176   1.107
 9565SOL     OW29593   3.490   1.273   5.259
 9565SOL    HW129594   3.479   1.184   5.215
 9565SOL    HW229595   3.485   1.345   5.190
 9566SOL     OW29596   2.387   5.718   0.204
 9566SOL    HW129597   2.422   5.795   0.150
 9566SOL    HW229598   2.293   5.699   0.177
 9567SOL     OW29599   5.764   4.348   0.143
 9567SOL    HW129600   5.732   4.272   0.200
 9567SOL    HW229601   5.799   4.311   0.056
 9568SOL     OW29602   4.080   1.419   0.121
 9568SOL    HW129603   4.100   1.339   0.179
 9568SOL    HW229604   4.106   1.398   0.027
 9569SOL     OW29605   0.257   1.155   2.173
 9569SOL    HW129606   0.347   1.164   2.131
 9569SOL    HW229607   0.188   1.146   2.101
 9570SOL     OW29608   0.129   2.711   0.827
 9570SOL    HW129609   0.044   2.707   0.878
 9570SOL    HW229610   0.163   2.619   0.811
 9571SOL     OW29611   2.729   3.404   5.635
 9571SOL    HW129612   2.748   3.497   5.666
 9571SOL    HW229613   2.705   3.405   5.538
 9572SOL     OW29614   1.490   4.925   2.509
 9572SOL    HW129615   1.391   4.912   2.507
 9572SOL    HW229616   1.530   4.865   2.579
 9573SOL     OW29617   0.045   1.801   6.420
 9573SOL    HW129618   6.988   1.837   6.368
 9573SOL    HW229619   0.012   1.758   6.504
 9574SOL     OW29620   3.496   2.964   2.532
 9574SOL    HW129621   3.409   2.919   2.553
 9574SOL    HW229622   3.565   2.937   2.599
 9575SOL     OW29623   6.900   1.055   2.007
 9575SOL    HW129624   6.859   1.040   1.917
 9575SOL    HW229625   6.979   1.116   1.998
 9576SOL     OW29626   1.767   2.213   0.503
 9576SOL    HW129627   1.771   2.195   0.601
 9576SOL    HW229628   1.858   2.232   0.468
 9577SOL     OW29629   0.678   6.708   5.390
 9577SOL    HW129630   0.616   6.784   5.373
 9577SOL    HW229631   0.688   6.694   5.488
 9578SOL     OW29632   0.978   3.020   2.680
 9578SOL    HW129633   0.985   3.084   2.756
 9578SOL    HW229634   0.967   2.927   2.716
 9579SOL     OW29635   0.119   6.207   3.237
 9579SOL    HW129636   0.119   6.284   3.300
 9579SOL    HW229637   0.029   6.164   3.237
 9580SOL     OW29638   4.939   3.590   1.071
 9580SOL    HW129639   4.973   3.634   1.154
 9580SOL    HW229640   4.907   3.498   1.093
 9581SOL     OW29641   0.447   0.135   6.143
 9581SOL    HW129642   0.541   0.168   6.130
 9581SOL    HW229643   0.444   0.036   6.129
 9582SOL     OW29644   3.955   5.865   4.681
 9582SOL    HW129645   3.917   5.827   4.766
 9582SOL    HW229646   4.019   5.939   4.703
 9583SOL     OW29647   3.204   3.750   1.212
 9583SOL    HW129648   3.108   3.726   1.229
 9583SOL    HW229649   3.240   3.801   1.291
 9584SOL     OW29650   0.539   4.894   5.862
 9584SOL    HW129651   0.488   4.841   5.929
 9584SOL    HW229652   0.610   4.837   5.821
 9585SOL     OW29653   5.396   6.661   3.259
 9585SOL    HW129654   5.382   6.712   3.344
 9585SOL    HW229655   5.488   6.680   3.224
 9586SOL     OW29656   4.555   5.596   2.558
 9586SOL    HW129657   4.594   5.508   2.530
 9586SOL    HW229658   4.577   5.665   2.489
 9587SOL     OW29659   0.835   6.913   1.442
 9587SOL    HW129660   0.893   6.854   1.385
 9587SOL    HW229661   0.773   6.966   1.384
 9588SOL     OW29662   6.218   6.597   0.404
 9588SOL    HW129663   6.181   6.690   0.411
 9588SOL    HW229664   6.147   6.536   0.369
 9589SOL     OW29665   1.838   4.358   0.173
 9589SOL    HW129666   1.748   4.317   0.177
 9589SOL    HW229667   1.830   4.456   0.152
 9590SOL     OW29668   6.048   2.599   1.801
 9590SOL    HW129669   6.097   2.512   1.809
 9590SOL    HW229670   5.966   2.586   1.744
 9591SOL     OW29671   3.496   5.306   5.754
 9591SOL    HW129672   3.477   5.333   5.660
 9591SOL    HW229673   3.515   5.208   5.758
 9592SOL     OW29674   3.325   4.448   0.659
 9592SOL    HW129675   3.395   4.481   0.596
 9592SOL    HW229676   3.251   4.515   0.664
 9593SOL     OW29677   1.008   1.281   6.318
 9593SOL    HW129678   0.962   1.246   6.400
 9593SOL    HW229679   0.976   1.374   6.299
 9594SOL     OW29680   2.420   5.609   4.219
 9594SOL    HW129681   2.447   5.622   4.314
 9594SOL    HW229682   2.499   5.623   4.160
 9595SOL     OW29683   0.346   2.477   4.153
 9595SOL    HW129684   0.291   2.479   4.237
 9595SOL    HW229685   0.431   2.529   4.169
 9596SOL     OW29686   0.615   5.027   7.014
 9596SOL    HW129687   0.585   4.938   0.028
 9596SOL    HW229688   0.588   5.098   0.057
 9597SOL     OW29689   6.905   3.884   1.454
 9597SOL    HW129690   6.978   3.906   1.519
 9597SOL    HW229691   6.873   3.791   1.470
 9598SOL     OW29692   1.918   4.445   3.325
 9598SOL    HW129693   1.943   4.542   3.323
 9598SOL    HW229694   1.968   4.396   3.254
 9599SOL     OW29695   2.803   0.424   3.744
 9599SOL    HW129696   2.819   0.327   3.758
 9599SOL    HW229697   2.782   0.468   3.831
 9600SOL     OW29698   3.075   0.294   6.914
 9600SOL    HW129699   3.116   0.361   6.853
 9600SOL    HW229700   3.105   0.202   6.888
 9601SOL     OW29701   5.297   4.613   0.378
 9601SOL    HW129702   5.273   4.619   0.282
 9601SOL    HW229703   5.278   4.520   0.411
 9602SOL     OW29704   5.668   4.251   6.428
 9602SOL    HW129705   5.752   4.303   6.445
 9602SOL    HW229706   5.642   4.258   6.332
 9603SOL     OW29707   4.307   1.169   6.487
 9603SOL    HW129708   4.237   1.098   6.486
 9603SOL    HW229709   4.272   1.250   6.533
 9604SOL     OW29710   4.995   6.981   1.124
 9604SOL    HW129711   4.948   6.987   1.212
 9604SOL    HW229712   5.036   0.048   1.102
 9605SOL     OW29713   1.210   6.094   3.036
 9605SOL    HW129714   1.280   6.100   2.966
 9605SOL    HW229715   1.182   6.186   3.063
 9606SOL     OW29716   1.746   6.515   6.567
 9606SOL    HW129717   1.730   6.457   6.487
 9606SOL    HW229718   1.844   6.521   6.585
 9607SOL     OW29719   2.547   1.190   6.967
 9607SOL    HW129720   2.605   1.247   6.909
 9607SOL    HW229721   2.604   1.125   7.017
 9608SOL     OW29722   0.175   4.482   1.653
 9608SOL    HW129723   0.241   4.554   1.633
 9608SOL    HW229724   0.209   4.425   1.728
 9609SOL     OW29725   3.200   2.862   0.199
 9609SOL    HW129726   3.114   2.860   0.148
 9609SOL    HW229727   3.186   2.821   0.290
 9610SOL     OW29728   1.864   5.177   3.455
 9610SOL    HW129729   1.831   5.182   3.360
 9610SOL    HW229730   1.789   5.199   3.517
 9611SOL     OW29731   1.370   6.204   0.387
 9611SOL    HW129732   1.409   6.296   0.386
 9611SOL    HW229733   1.294   6.201   0.452
 9612SOL     OW29734   7.003   3.385   1.769
 9612SOL    HW129735   0.070   3.366   1.724
 9612SOL    HW229736   7.016   3.456   1.838
 9613SOL     OW29737   4.964   0.023   3.441
 9613SOL    HW129738   4.896   0.077   3.490
 9613SOL    HW229739   4.944   0.027   3.343
 9614SOL     OW29740   4.027   2.188   1.984
 9614SOL    HW129741   4.021   2.174   2.083
 9614SOL    HW229742   4.075   2.112   1.942
 9615SOL     OW29743   2.697   0.941   0.952
 9615SOL    HW129744   2.751   1.008   1.004
 9615SOL    HW229745   2.757   0.867   0.921
 9616SOL     OW29746   3.783   4.146   1.439
 9616SOL    HW129747   3.842   4.078   1.395
 9616SOL    HW229748   3.804   4.151   1.537
 9617SOL     OW29749   1.894   3.137   3.047
 9617SOL    HW129750   1.902   3.192   3.131
 9617SOL    HW229751   1.863   3.045   3.070
 9618SOL     OW29752   2.863   6.569   0.636
 9618SOL    HW129753   2.883   6.480   0.594
 9618SOL    HW229754   2.802   6.621   0.576
 9619SOL     OW29755   1.533   0.396   6.449
 9619SOL    HW129756   1.510   0.345   6.366
 9619SOL    HW229757   1.630   0.420   6.447
 9620SOL     OW29758   4.559   0.550   5.764
 9620SOL    HW129759   4.472   0.520   5.724
 9620SOL    HW229760   4.632   0.487   5.736
 9621SOL     OW29761   1.511   2.696   1.963
 9621SOL    HW129762   1.455   2.776   1.987
 9621SOL    HW229763   1.515   2.634   2.042
 9622SOL     OW29764   6.850   1.453   0.298
 9622SOL    HW129765   6.920   1.429   0.230
 9622SOL    HW229766   6.878   1.536   0.346
 9623SOL     OW29767   2.792   3.679   5.635
 9623SOL    HW129768   2.824   3.708   5.545
 9623SOL    HW229769   2.831   3.739   5.705
 9624SOL     OW29770   6.604   3.998   2.849
 9624SOL    HW129771   6.586   3.991   2.751
 9624SOL    HW229772   6.576   3.912   2.893
 9625SOL     OW29773   4.829   5.534   6.854
 9625SOL    HW129774   4.792   5.483   6.932
 9625SOL    HW229775   4.926   5.554   6.870
 9626SOL     OW29776   4.389   5.545   0.304
 9626SOL    HW129777   4.319   5.605   0.342
 9626SOL    HW229778   4.480   5.583   0.325
 9627SOL     OW29779   0.027   5.865   4.864
 9627SOL    HW129780   0.061   5.826   4.949
 9627SOL    HW229781   0.102   5.874   4.799
 9628SOL     OW29782   4.718   4.742   0.400
 9628SOL    HW129783   4.745   4.793   0.481
 9628SOL    HW229784   4.777   4.768   0.323
 9629SOL     OW29785   0.976   0.134   1.734
 9629SOL    HW129786   1.018   0.100   1.650
 9629SOL    HW229787   0.887   0.176   1.714
 9630SOL     OW29788   6.332   6.926   4.533
 9630SOL    HW129789   6.288   6.942   4.444
 9630SOL    HW229790   6.299   6.839   4.571
 9631SOL     OW29791   0.003   6.653   6.993
 9631SOL    HW129792   6.993   6.712   0.046
 9631SOL    HW229793   7.013   6.557   7.019
 9632SOL     OW29794   1.473   0.225   2.881
 9632SOL    HW129795   1.532   0.153   2.844
 9632SOL    HW229796   1.380   0.214   2.846
 9633SOL     OW29797   4.852   5.151   5.788
 9633SOL    HW129798   4.895   5.240   5.808
 9633SOL    HW229799   4.923   5.080   5.785
 9634SOL     OW29800   1.157   5.729   4.114
 9634SOL    HW129801   1.238   5.757   4.165
 9634SOL    HW229802   1.145   5.789   4.035
 9635SOL     OW29803   1.742   5.809   4.983
 9635SOL    HW129804   1.701   5.743   4.921
 9635SOL    HW229805   1.675   5.838   5.051
 9636SOL     OW29806   3.939   2.164   5.679
 9636SOL    HW129807   3.847   2.187   5.647
 9636SOL    HW229808   3.955   2.210   5.767
 9637SOL     OW29809   2.535   1.754   6.586
 9637SOL    HW129810   2.601   1.811   6.537
 9637SOL    HW229811   2.557   1.753   6.683
 9638SOL     OW29812   6.581   3.950   6.407
 9638SOL    HW129813   6.547   3.858   6.425
 9638SOL    HW229814   6.645   3.947   6.330
 9639SOL     OW29815   3.967   1.329   2.535
 9639SOL    HW129816   4.058   1.370   2.526
 9639SOL    HW229817   3.952   1.263   2.462
 9640SOL     OW29818   2.171   2.450   3.806
 9640SOL    HW129819   2.086   2.494   3.776
 9640SOL    HW229820   2.249   2.497   3.765
 9641SOL     OW29821   4.071   5.739   1.109
 9641SOL    HW129822   4.093   5.787   1.194
 9641SOL    HW229823   4.012   5.796   1.052
 9642SOL     OW29824   3.288   6.813   4.989
 9642SOL    HW129825   3.253   6.889   4.935
 9642SOL    HW229826   3.366   6.844   5.043
 9643SOL     OW29827   5.368   5.115   3.864
 9643SOL    HW129828   5.403   5.025   3.838
 9643SOL    HW229829   5.438   5.184   3.844
 9644SOL     OW29830   0.931   4.251   6.212
 9644SOL    HW129831   0.933   4.255   6.312
 9644SOL    HW229832   0.890   4.164   6.184
 9645SOL     OW29833   2.411   5.637   4.717
 9645SOL    HW129834   2.415   5.695   4.798
 9645SOL    HW229835   2.407   5.541   4.744
 9646SOL     OW29836   2.632   4.813   1.899
 9646SOL    HW129837   2.617   4.773   1.809
 9646SOL    HW229838   2.701   4.759   1.948
 9647SOL     OW29839   6.487   5.119   1.506
 9647SOL    HW129840   6.575   5.167   1.509
 9647SOL    HW229841   6.440   5.141   1.421
 9648SOL     OW29842   4.701   1.341   0.622
 9648SOL    HW129843   4.689   1.256   0.674
 9648SOL    HW229844   4.613   1.384   0.606
 9649SOL     OW29845   2.728   6.753   0.448
 9649SOL    HW129846   2.811   6.766   0.394
 9649SOL    HW229847   2.652   6.729   0.388
 9650SOL     OW29848   6.520   4.920   2.041
 9650SOL    HW129849   6.590   4.977   1.997
 9650SOL    HW229850   6.521   4.828   2.000
 9651SOL     OW29851   0.008   1.413   5.866
 9651SOL    HW129852   6.984   1.331   5.901
 9651SOL    HW229853   0.036   1.471   5.943
 9652SOL     OW29854   2.063   4.319   0.976
 9652SOL    HW129855   2.113   4.297   1.060
 9652SOL    HW229856   2.114   4.388   0.925
 9653SOL     OW29857   4.038   4.819   4.630
 9653SOL    HW129858   4.064   4.744   4.691
 9653SOL    HW229859   3.981   4.782   4.555
 9654SOL     OW29860   3.430   2.691   1.269
 9654SOL    HW129861   3.487   2.755   1.217
 9654SOL    HW229862   3.489   2.636   1.329
 9655SOL     OW29863   0.028   0.930   0.129
 9655SOL    HW129864   0.086   1.011   0.134
 9655SOL    HW229865   0.017   0.902   0.034
 9656SOL     OW29866   2.654   0.773   1.622
 9656SOL    HW129867   2.704   0.797   1.538
 9656SOL    HW229868   2.570   0.826   1.627
 9657SOL     OW29869   5.356   0.453   3.681
 9657SOL    HW129870   5.375   0.358   3.707
 9657SOL    HW229871   5.305   0.454   3.595
 9658SOL     OW29872   6.907   2.220   3.096
 9658SOL    HW129873   6.937   2.163   3.173
 9658SOL    HW229874   6.834   2.172   3.047
 9659SOL     OW29875   6.490   4.360   0.477
 9659SOL    HW129876   6.468   4.388   0.383
 9659SOL    HW229877   6.416   4.304   0.513
 9660SOL     OW29878   0.290   5.533   0.715
 9660SOL    HW129879   0.298   5.560   0.811
 9660SOL    HW229880   0.216   5.585   0.672
 9661SOL     OW29881   4.558   5.622   1.370
 9661SOL    HW129882   4.539   5.590   1.277
 9661SOL    HW229883   4.516   5.712   1.383
 9662SOL     OW29884   6.184   2.667   4.732
 9662SOL    HW129885   6.152   2.727   4.806
 9662SOL    HW229886   6.203   2.576   4.769
 9663SOL     OW29887   1.426   5.605   4.076
 9663SOL    HW129888   1.329   5.586   4.093
 9663SOL    HW229889   1.440   5.626   3.980
 9664SOL     OW29890   5.473   6.973   2.931
 9664SOL    HW129891   5.462   0.008   2.849
 9664SOL    HW229892   5.384   6.958   2.973
 9665SOL     OW29893   5.902   5.061   5.675
 9665SOL    HW129894   5.921   5.039   5.771
 9665SOL    HW229895   5.878   4.977   5.626
 9666SOL     OW29896   5.268   4.006   1.779
 9666SOL    HW129897   5.235   4.100   1.773
 9666SOL    HW229898   5.360   4.001   1.741
 9667SOL     OW29899   3.922   3.080   4.412
 9667SOL    HW129900   3.989   3.108   4.343
 9667SOL    HW229901   3.873   2.999   4.381
 9668SOL     OW29902   6.959   1.895   6.126
 9668SOL    HW129903   6.915   1.868   6.040
 9668SOL    HW229904   6.889   1.914   6.195
 9669SOL     OW29905   0.697   1.671   0.961
 9669SOL    HW129906   0.704   1.579   1.001
 9669SOL    HW229907   0.787   1.703   0.934
 9670SOL     OW29908   4.615   4.787   5.702
 9670SOL    HW129909   4.583   4.848   5.775
 9670SOL    HW229910   4.695   4.827   5.658
 9671SOL     OW29911   0.691   5.189   6.225
 9671SOL    HW129912   0.692   5.285   6.197
 9671SOL    HW229913   0.646   5.135   6.154
 9672SOL     OW29914   0.959   6.766   4.420
 9672SOL    HW129915   0.872   6.732   4.385
 9672SOL    HW229916   0.963   6.748   4.519
 9673SOL     OW29917   4.458   4.256   6.720
 9673SOL    HW129918   4.375   4.212   6.754
 9673SOL    HW229919   4.527   4.187   6.699
 9674SOL     OW29920   2.990   5.588   3.029
 9674SOL    HW129921   3.030   5.556   2.944
 9674SOL    HW229922   2.897   5.551   3.039
 9675SOL     OW29923   5.842   1.214   2.117
 9675SOL    HW129924   5.832   1.207   2.018
 9675SOL    HW229925   5.756   1.246   2.157
 9676SOL     OW29926   1.445   3.584   5.607
 9676SOL    HW129927   1.430   3.500   5.660
 9676SOL    HW229928   1.533   3.579   5.561
 9677SOL     OW29929   2.547   4.519   6.068
 9677SOL    HW129930   2.472   4.546   6.128
 9677SOL    HW229931   2.603   4.599   6.046
 9678SOL     OW29932   3.485   4.119   2.895
 9678SOL    HW129933   3.576   4.123   2.854
 9678SOL    HW229934   3.493   4.091   2.991
 9679SOL     OW29935   0.732   1.463   1.844
 9679SOL    HW129936   0.823   1.443   1.877
 9679SOL    HW229937   0.734   1.545   1.787
 9680SOL     OW29938   6.125   0.100   3.282
 9680SOL    HW129939   6.193   0.151   3.228
 9680SOL    HW229940   6.122   0.006   3.249
 9681SOL     OW29941   2.672   0.302   1.187
 9681SOL    HW129942   2.718   0.368   1.127
 9681SOL    HW229943   2.670   0.337   1.280
 9682SOL     OW29944   4.784   5.537   2.927
 9682SOL    HW129945   4.798   5.595   3.007
 9682SOL    HW229946   4.756   5.594   2.850
 9683SOL     OW29947   4.124   5.404   0.716
 9683SOL    HW129948   4.112   5.436   0.810
 9683SOL    HW229949   4.222   5.400   0.694
 9684SOL     OW29950   0.411   3.545   4.909
 9684SOL    HW129951   0.454   3.614   4.851
 9684SOL    HW229952   0.453   3.456   4.890
 9685SOL     OW29953   2.204   2.947   1.175
 9685SOL    HW129954   2.207   3.019   1.106
 9685SOL    HW229955   2.165   2.983   1.260
 9686SOL     OW29956   6.317   1.604   0.576
 9686SOL    HW129957   6.249   1.582   0.646
 9686SOL    HW229958   6.381   1.528   0.567
 9687SOL     OW29959   1.866   0.718   3.259
 9687SOL    HW129960   1.794   0.667   3.211
 9687SOL    HW229961   1.933   0.751   3.192
 9688SOL     OW29962   6.530   2.496   3.154
 9688SOL    HW129963   6.525   2.588   3.114
 9688SOL    HW229964   6.625   2.477   3.180
 9689SOL     OW29965   1.636   6.982   0.616
 9689SOL    HW129966   1.654   0.017   0.535
 9689SOL    HW229967   1.538   6.984   0.637
 9690SOL     OW29968   5.861   5.307   6.369
 9690SOL    HW129969   5.927   5.312   6.294
 9690SOL    HW229970   5.853   5.398   6.411
 9691SOL     OW29971   2.698   4.587   1.343
 9691SOL    HW129972   2.684   4.650   1.267
 9691SOL    HW229973   2.795   4.586   1.369
 9692SOL     OW29974   2.109   5.418   2.913
 9692SOL    HW129975   2.068   5.356   2.980
 9692SOL    HW229976   2.117   5.371   2.825
 9693SOL     OW29977   0.099   5.159   1.950
 9693SOL    HW129978   0.169   5.088   1.951
 9693SOL    HW229979   0.011   5.118   1.924
 9694SOL     OW29980   2.034   0.848   6.090
 9694SOL    HW129981   2.012   0.819   6.183
 9694SOL    HW229982   2.117   0.904   6.091
 9695SOL     OW29983   5.624   4.589   1.177
 9695SOL    HW129984   5.697   4.529   1.144
 9695SOL    HW229985   5.580   4.634   1.099
 9696SOL     OW29986   4.524   2.510   1.394
 9696SOL    HW129987   4.570   2.474   1.476
 9696SOL    HW229988   4.546   2.452   1.316
 9697SOL     OW29989   0.323   5.327   6.753
 9697SOL    HW129990   0.357   5.233   6.753
 9697SOL    HW229991   0.381   5.384   6.695
 9698SOL     OW29992   6.012   1.152   5.506
 9698SOL    HW129993   5.948   1.109   5.569
 9698SOL    HW229994   6.077   1.209   5.558
 9699SOL     OW29995   0.488   4.083   6.200
 9699SOL    HW129996   0.494   4.102   6.298
 9699SOL    HW229997   0.445   4.160   6.154
 9700SOL     OW29998   3.539   4.784   5.818
 9700SOL    HW129999   3.541   4.878   5.852
 9700SOL    HW230000   3.626   4.763   5.773
 9701SOL     OW30001   3.880   5.771   4.921
 9701SOL    HW130002   3.801   5.711   4.914
 9701SOL    HW230003   3.865   5.839   4.992
 9702SOL     OW30004   5.336   0.319   6.894
 9702SOL    HW130005   5.294   0.303   6.984
 9702SOL    HW230006   5.334   0.234   6.841
 9703SOL     OW30007   3.595   6.025   4.297
 9703SOL    HW130008   3.610   6.124   4.294
 9703SOL    HW230009   3.568   5.992   4.206
 9704SOL     OW30010   2.975   0.438   2.438
 9704SOL    HW130011   2.990   0.340   2.428
 9704SOL    HW230012   3.064   0.484   2.448
 9705SOL     OW30013   5.216   5.082   0.469
 9705SOL    HW130014   5.315   5.076   0.488
 9705SOL    HW230015   5.178   4.990   0.461
 9706SOL     OW30016   7.001   2.251   0.891
 9706SOL    HW130017   6.904   2.274   0.888
 9706SOL    HW230018   0.002   2.185   0.819
 9707SOL     OW30019   6.840   4.276   2.142
 9707SOL    HW130020   6.808   4.329   2.221
 9707SOL    HW230021   6.866   4.339   2.069
 9708SOL     OW30022   1.705   2.363   3.502
 9708SOL    HW130023   1.677   2.284   3.449
 9708SOL    HW230024   1.752   2.429   3.443
 9709SOL     OW30025   0.141   5.861   3.450
 9709SOL    HW130026   0.113   5.836   3.542
 9709SOL    HW230027   0.137   5.961   3.440
 9710SOL     OW30028   0.392   1.362   2.736
 9710SOL    HW130029   0.314   1.299   2.739
 9710SOL    HW230030   0.429   1.365   2.643
 9711SOL     OW30031   1.289   3.375   5.842
 9711SOL    HW130032   1.209   3.350   5.787
 9711SOL    HW230033   1.372   3.354   5.791
 9712SOL     OW30034   5.386   3.360   4.940
 9712SOL    HW130035   5.295   3.321   4.922
 9712SOL    HW230036   5.380   3.426   5.014
 9713SOL     OW30037   0.261   4.793   2.791
 9713SOL    HW130038   0.307   4.768   2.706
 9713SOL    HW230039   0.179   4.737   2.802
 9714SOL     OW30040   2.018   1.214   1.687
 9714SOL    HW130041   2.021   1.164   1.773
 9714SOL    HW230042   1.940   1.182   1.633
 9715SOL     OW30043   6.873   5.932   4.330
 9715SOL    HW130044   6.808   6.001   4.298
 9715SOL    HW230045   6.842   5.841   4.301
 9716SOL     OW30046   3.835   2.394   7.000
 9716SOL    HW130047   3.810   2.486   6.970
 9716SOL    HW230048   3.926   2.397   0.022
 9717SOL     OW30049   5.629   6.029   5.084
 9717SOL    HW130050   5.533   6.025   5.057
 9717SOL    HW230051   5.639   5.993   5.176
 9718SOL     OW30052   4.838   3.003   1.672
 9718SOL    HW130053   4.763   3.024   1.735
 9718SOL    HW230054   4.822   3.051   1.585
 9719SOL     OW30055   0.661   2.220   6.562
 9719SOL    HW130056   0.611   2.306   6.561
 9719SOL    HW230057   0.596   2.144   6.565
 9720SOL     OW30058   0.853   5.865   1.392
 9720SOL    HW130059   0.879   5.772   1.366
 9720SOL    HW230060   0.758   5.881   1.364
 9721SOL     OW30061   0.836   2.596   1.792
 9721SOL    HW130062   0.888   2.510   1.789
 9721SOL    HW230063   0.739   2.577   1.783
 9722SOL     OW30064   0.297   6.974   3.327
 9722SOL    HW130065   0.333   6.965   3.421
 9722SOL    HW230066   0.371   7.003   3.266
 9723SOL     OW30067   1.400   5.846   2.667
 9723SOL    HW130068   1.308   5.837   2.703
 9723SOL    HW230069   1.409   5.934   2.619
 9724SOL     OW30070   3.237   2.961   1.421
 9724SOL    HW130071   3.324   2.947   1.372
 9724SOL    HW230072   3.217   3.059   1.425
 9725SOL     OW30073   4.212   3.540   6.011
 9725SOL    HW130074   4.238   3.444   6.019
 9725SOL    HW230075   4.266   3.595   6.075
 9726SOL     OW30076   4.854   0.281   4.706
 9726SOL    HW130077   4.881   0.329   4.790
 9726SOL    HW230078   4.822   0.348   4.639
 9727SOL     OW30079   1.603   3.785   5.368
 9727SOL    HW130080   1.526   3.765   5.307
 9727SOL    HW230081   1.676   3.829   5.317
 9728SOL     OW30082   1.153   6.394   6.746
 9728SOL    HW130083   1.215   6.429   6.676
 9728SOL    HW230084   1.203   6.384   6.832
 9729SOL     OW30085   1.503   4.469   2.776
 9729SOL    HW130086   1.486   4.457   2.874
 9729SOL    HW230087   1.567   4.398   2.745
 9730SOL     OW30088   0.194   3.008   2.855
 9730SOL    HW130089   0.267   3.035   2.919
 9730SOL    HW230090   0.109   3.055   2.880
 9731SOL     OW30091   4.319   4.995   0.913
 9731SOL    HW130092   4.268   4.948   0.985
 9731SOL    HW230093   4.286   4.963   0.824
 9732SOL     OW30094   5.924   6.076   2.978
 9732SOL    HW130095   6.019   6.046   2.987
 9732SOL    HW230096   5.918   6.147   2.908
 9733SOL     OW30097   5.839   5.452   4.698
 9733SOL    HW130098   5.790   5.461   4.610
 9733SOL    HW230099   5.930   5.416   4.681
 9734SOL     OW30100   5.261   2.003   4.183
 9734SOL    HW130101   5.186   1.937   4.189
 9734SOL    HW230102   5.279   2.041   4.274
 9735SOL     OW30103   1.775   4.775   2.858
 9735SOL    HW130104   1.701   4.769   2.792
 9735SOL    HW230105   1.839   4.846   2.830
 9736SOL     OW30106   5.369   1.293   5.998
 9736SOL    HW130107   5.419   1.365   5.950
 9736SOL    HW230108   5.295   1.334   6.052
 9737SOL     OW30109   4.769   2.841   4.972
 9737SOL    HW130110   4.859   2.876   4.999
 9737SOL    HW230111   4.708   2.840   5.052
 9738SOL     OW30112   1.874   7.017   2.745
 9738SOL    HW130113   1.868   0.089   2.781
 9738SOL    HW230114   1.799   7.001   2.681
 9739SOL     OW30115   0.934   4.738   1.947
 9739SOL    HW130116   1.031   4.716   1.950
 9739SOL    HW230117   0.882   4.657   1.922
 9740SOL     OW30118   6.278   3.295   3.194
 9740SOL    HW130119   6.301   3.198   3.188
 9740SOL    HW230120   6.290   3.338   3.104
 9741SOL     OW30121   4.588   1.326   2.718
 9741SOL    HW130122   4.631   1.267   2.650
 9741SOL    HW230123   4.505   1.283   2.753
 9742SOL     OW30124   4.594   0.080   3.268
 9742SOL    HW130125   4.666   0.010   3.264
 9742SOL    HW230126   4.505   0.035   3.273
 9743SOL     OW30127   2.170   2.154   5.880
 9743SOL    HW130128   2.101   2.226   5.889
 9743SOL    HW230129   2.173   2.123   5.785
 9744SOL     OW30130   1.099   0.486   2.479
 9744SOL    HW130131   1.146   0.549   2.541
 9744SOL    HW230132   1.161   0.462   2.404
 9745SOL     OW30133   0.647   2.253   5.886
 9745SOL    HW130134   0.577   2.182   5.888
 9745SOL    HW230135   0.705   2.242   5.805
 9746SOL     OW30136   5.496   1.797   4.981
 9746SOL    HW130137   5.497   1.765   5.076
 9746SOL    HW230138   5.553   1.736   4.926
 9747SOL     OW30139   1.518   1.228   1.764
 9747SOL    HW130140   1.433   1.257   1.808
 9747SOL    HW230141   1.594   1.239   1.828
 9748SOL     OW30142   0.886   6.909   5.340
 9748SOL    HW130143   0.851   6.947   5.254
 9748SOL    HW230144   0.810   6.875   5.395
 9749SOL     OW30145   1.819   2.180   5.609
 9749SOL    HW130146   1.736   2.209   5.657
 9749SOL    HW230147   1.807   2.087   5.574
 9750SOL     OW30148   5.788   4.969   3.810
 9750SOL    HW130149   5.801   4.887   3.867
 9750SOL    HW230150   5.817   5.050   3.862
 9751SOL     OW30151   1.871   2.299   1.264
 9751SOL    HW130152   1.819   2.254   1.336
 9751SOL    HW230153   1.894   2.392   1.293
 9752SOL     OW30154   4.622   0.588   6.283
 9752SOL    HW130155   4.646   0.659   6.349
 9752SOL    HW230156   4.556   0.625   6.217
 9753SOL     OW30157   6.353   6.696   4.992
 9753SOL    HW130158   6.379   6.613   4.943
 9753SOL    HW230159   6.330   6.673   5.087
 9754SOL     OW30160   1.168   1.727   6.990
 9754SOL    HW130161   1.183   1.790   0.044
 9754SOL    HW230162   1.224   1.754   6.912
 9755SOL     OW30163   4.221   3.614   5.137
 9755SOL    HW130164   4.274   3.616   5.053
 9755SOL    HW230165   4.125   3.633   5.117
 9756SOL     OW30166   6.108   2.847   0.230
 9756SOL    HW130167   6.063   2.895   0.156
 9756SOL    HW230168   6.048   2.775   0.265
 9757SOL     OW30169   4.867   3.152   3.537
 9757SOL    HW130170   4.859   3.096   3.455
 9757SOL    HW230171   4.850   3.095   3.618
 9758SOL     OW30172   1.728   6.902   5.910
 9758SOL    HW130173   1.658   6.963   5.948
 9758SOL    HW230174   1.811   6.908   5.966
 9759SOL     OW30175   2.233   0.007   1.096
 9759SOL    HW130176   2.324   0.046   1.079
 9759SOL    HW230177   2.210   0.016   1.193
 9760SOL     OW30178   5.282   4.042   5.146
 9760SOL    HW130179   5.332   3.968   5.191
 9760SOL    HW230180   5.195   4.058   5.194
 9761SOL     OW30181   5.543   5.994   1.891
 9761SOL    HW130182   5.635   6.011   1.857
 9761SOL    HW230183   5.477   6.045   1.836
 9762SOL     OW30184   2.293   2.001   4.463
 9762SOL    HW130185   2.280   2.056   4.545
 9762SOL    HW230186   2.380   2.024   4.420
 9763SOL     OW30187   4.732   1.389   1.855
 9763SOL    HW130188   4.665   1.460   1.876
 9763SOL    HW230189   4.816   1.431   1.821
 9764SOL     OW30190   1.310   2.140   3.333
 9764SOL    HW130191   1.275   2.179   3.248
 9764SOL    HW230192   1.281   2.044   3.341
 9765SOL     OW30193   6.721   1.981   4.814
 9765SOL    HW130194   6.804   2.024   4.778
 9765SOL    HW230195   6.643   2.041   4.800
 9766SOL     OW30196   2.517   0.561   2.794
 9766SOL    HW130197   2.427   0.546   2.753
 9766SOL    HW230198   2.577   0.484   2.772
 9767SOL     OW30199   5.258   2.091   4.745
 9767SOL    HW130200   5.163   2.061   4.739
 9767SOL    HW230201   5.261   2.186   4.778
 9768SOL     OW30202   5.255   2.246   2.311
 9768SOL    HW130203   5.286   2.211   2.400
 9768SOL    HW230204   5.335   2.267   2.255
 9769SOL     OW30205   1.450   1.860   1.856
 9769SOL    HW130206   1.540   1.857   1.811
 9769SOL    HW230207   1.410   1.768   1.856
 9770SOL     OW30208   5.952   6.011   6.449
 9770SOL    HW130209   5.901   6.085   6.492
 9770SOL    HW230210   6.044   6.043   6.424
 9771SOL     OW30211   4.866   4.517   0.910
 9771SOL    HW130212   4.834   4.582   0.979
 9771SOL    HW230213   4.912   4.440   0.956
 9772SOL     OW30214   0.101   6.732   1.666
 9772SOL    HW130215   0.013   6.780   1.668
 9772SOL    HW230216   0.169   6.788   1.618
 9773SOL     OW30217   5.852   6.217   3.637
 9773SOL    HW130218   5.923   6.271   3.591
 9773SOL    HW230219   5.892   6.134   3.675
 9774SOL     OW30220   5.886   5.186   3.445
 9774SOL    HW130221   5.951   5.126   3.492
 9774SOL    HW230222   5.929   5.225   3.364
 9775SOL     OW30223   1.925   2.036   4.703
 9775SOL    HW130224   1.889   2.068   4.791
 9775SOL    HW230225   2.008   2.089   4.681
 9776SOL     OW30226   0.082   5.409   4.031
 9776SOL    HW130227   0.169   5.369   4.059
 9776SOL    HW230228   0.097   5.469   3.952
 9777SOL     OW30229   5.885   4.677   6.097
 9777SOL    HW130230   5.864   4.582   6.076
 9777SOL    HW230231   5.879   4.732   6.014
 9778SOL     OW30232   5.420   6.858   3.797
 9778SOL    HW130233   5.473   6.901   3.870
 9778SOL    HW230234   5.480   6.804   3.739
 9779SOL     OW30235   2.480   1.695   4.717
 9779SOL    HW130236   2.500   1.662   4.625
 9779SOL    HW230237   2.389   1.737   4.718
 9780SOL     OW30238   2.220   2.519   0.642
 9780SOL    HW130239   2.138   2.473   0.674
 9780SOL    HW230240   2.274   2.457   0.585
 9781SOL     OW30241   1.967   4.825   4.153
 9781SOL    HW130242   1.944   4.728   4.152
 9781SOL    HW230243   2.056   4.838   4.110
 9782SOL     OW30244   6.395   0.167   0.873
 9782SOL    HW130245   6.347   0.121   0.948
 9782SOL    HW230246   6.373   0.264   0.874
 9783SOL     OW30247   6.224   0.887   1.464
 9783SOL    HW130248   6.216   0.791   1.434
 9783SOL    HW230249   6.136   0.918   1.499
 9784SOL     OW30250   4.227   1.499   3.247
 9784SOL    HW130251   4.253   1.413   3.204
 9784SOL    HW230252   4.281   1.573   3.209
 9785SOL     OW30253   0.237   2.667   3.153
 9785SOL    HW130254   0.252   2.575   3.188
 9785SOL    HW230255   0.204   2.661   3.058
 9786SOL     OW30256   2.048   4.541   5.786
 9786SOL    HW130257   1.987   4.581   5.854
 9786SOL    HW230258   2.008   4.551   5.695
 9787SOL     OW30259   5.339   3.224   1.763
 9787SOL    HW130260   5.252   3.195   1.804
 9787SOL    HW230261   5.346   3.188   1.670
 9788SOL     OW30262   0.390   7.015   3.899
 9788SOL    HW130263   0.310   6.955   3.886
 9788SOL    HW230264   0.391   0.027   3.993
 9789SOL     OW30265   2.288   5.352   6.237
 9789SOL    HW130266   2.328   5.277   6.289
 9789SOL    HW230267   2.192   5.331   6.216
 9790SOL     OW30268   5.807   2.356   4.158
 9790SOL    HW130269   5.723   2.307   4.136
 9790SOL    HW230270   5.812   2.370   4.257
 9791SOL     OW30271   1.005   1.012   1.786
 9791SOL    HW130272   0.997   0.928   1.733
 9791SOL    HW230273   0.964   0.998   1.877
 9792SOL     OW30274   4.470   5.148   1.745
 9792SOL    HW130275   4.451   5.235   1.700
 9792SOL    HW230276   4.550   5.159   1.805
 9793SOL     OW30277   4.811   5.968   2.784
 9793SOL    HW130278   4.825   6.018   2.698
 9793SOL    HW230279   4.777   5.876   2.763
 9794SOL     OW30280   5.334   3.521   6.557
 9794SOL    HW130281   5.346   3.458   6.634
 9794SOL    HW230282   5.237   3.541   6.545
 9795SOL     OW30283   0.907   2.795   4.016
 9795SOL    HW130284   0.817   2.768   4.052
 9795SOL    HW230285   0.907   2.785   3.917
 9796SOL     OW30286   3.126   4.633   0.660
 9796SOL    HW130287   3.060   4.641   0.735
 9796SOL    HW230288   3.140   4.723   0.619
 9797SOL     OW30289   4.714   3.786   6.784
 9797SOL    HW130290   4.799   3.839   6.782
 9797SOL    HW230291   4.696   3.749   6.694
 9798SOL     OW30292   2.487   0.513   1.193
 9798SOL    HW130293   2.392   0.500   1.165
 9798SOL    HW230294   2.500   0.478   1.286
 9799SOL     OW30295   3.371   3.199   2.607
 9799SOL    HW130296   3.409   3.121   2.557
 9799SOL    HW230297   3.291   3.169   2.659
 9800SOL     OW30298   4.392   5.818   6.265
 9800SOL    HW130299   4.361   5.784   6.176
 9800SOL    HW230300   4.348   5.905   6.286
 9801SOL     OW30301   4.567   5.642   0.063
 9801SOL    HW130302   4.557   5.737   0.031
 9801SOL    HW230303   4.545   5.579   7.009
 9802SOL     OW30304   0.303   3.361   1.709
 9802SOL    HW130305   0.268   3.402   1.793
 9802SOL    HW230306   0.346   3.432   1.653
 9803SOL     OW30307   6.111   6.976   6.570
 9803SOL    HW130308   6.067   6.892   6.603
 9803SOL    HW230309   6.157   6.958   6.483
 9804SOL     OW30310   6.942   5.059   3.384
 9804SOL    HW130311   0.009   5.057   3.430
 9804SOL    HW230312   6.888   5.136   3.417
 9805SOL     OW30313   1.076   5.593   6.853
 9805SOL    HW130314   1.147   5.592   6.923
 9805SOL    HW230315   1.118   5.605   6.763
 9806SOL     OW30316   0.817   2.563   1.491
 9806SOL    HW130317   0.899   2.575   1.545
 9806SOL    HW230318   0.791   2.466   1.490
 9807SOL     OW30319   3.785   1.845   0.312
 9807SOL    HW130320   3.731   1.810   0.388
 9807SOL    HW230321   3.750   1.934   0.283
 9808SOL     OW30322   5.647   1.439   5.597
 9808SOL    HW130323   5.707   1.516   5.574
 9808SOL    HW230324   5.702   1.363   5.631
 9809SOL     OW30325   0.820   1.465   5.443
 9809SOL    HW130326   0.831   1.551   5.393
 9809SOL    HW230327   0.836   1.482   5.541
 9810SOL     OW30328   2.806   1.504   3.238
 9810SOL    HW130329   2.848   1.428   3.289
 9810SOL    HW230330   2.711   1.515   3.268
 9811SOL     OW30331   6.441   6.154   3.518
 9811SOL    HW130332   6.384   6.197   3.449
 9811SOL    HW230333   6.405   6.175   3.609
 9812SOL     OW30334   3.976   2.051   6.162
 9812SOL    HW130335   4.044   2.077   6.231
 9812SOL    HW230336   4.004   1.965   6.118
 9813SOL     OW30337   6.205   5.488   0.223
 9813SOL    HW130338   6.290   5.536   0.200
 9813SOL    HW230339   6.138   5.501   0.150
 9814SOL     OW30340   6.515   0.711   5.600
 9814SOL    HW130341   6.465   0.678   5.680
 9814SOL    HW230342   6.452   0.717   5.522
 9815SOL     OW30343   6.349   3.400   1.200
 9815SOL    HW130344   6.318   3.311   1.165
 9815SOL    HW230345   6.287   3.472   1.167
 9816SOL     OW30346   6.300   0.826   6.368
 9816SOL    HW130347   6.320   0.729   6.379
 9816SOL    HW230348   6.320   0.854   6.275
 9817SOL     OW30349   3.047   5.076   1.928
 9817SOL    HW130350   2.961   5.083   1.979
 9817SOL    HW230351   3.107   5.152   1.953
 9818SOL     OW30352   2.113   1.484   3.462
 9818SOL    HW130353   2.052   1.470   3.384
 9818SOL    HW230354   2.187   1.418   3.460
 9819SOL     OW30355   5.928   3.718   4.619
 9819SOL    HW130356   5.906   3.632   4.665
 9819SOL    HW230357   6.001   3.764   4.668
 9820SOL     OW30358   3.169   1.706   6.849
 9820SOL    HW130359   3.179   1.607   6.865
 9820SOL    HW230360   3.222   1.732   6.768
 9821SOL     OW30361   4.594   2.083   1.766
 9821SOL    HW130362   4.495   2.091   1.770
 9821SOL    HW230363   4.622   2.059   1.673
 9822SOL     OW30364   4.021   5.649   4.548
 9822SOL    HW130365   4.103   5.662   4.493
 9822SOL    HW230366   3.993   5.736   4.588
 9823SOL     OW30367   0.931   0.757   2.230
 9823SOL    HW130368   0.896   0.748   2.137
 9823SOL    HW230369   1.030   0.774   2.226
 9824SOL     OW30370   2.068   6.235   5.611
 9824SOL    HW130371   2.027   6.180   5.683
 9824SOL    HW230372   2.011   6.229   5.529
 9825SOL     OW30373   4.987   5.956   5.336
 9825SOL    HW130374   5.084   5.980   5.333
 9825SOL    HW230375   4.939   6.005   5.263
 9826SOL     OW30376   3.346   0.019   5.301
 9826SOL    HW130377   3.370   6.987   5.219
 9826SOL    HW230378   3.416   0.088   5.318
 9827SOL     OW30379   1.854   5.879   2.761
 9827SOL    HW130380   1.888   5.786   2.776
 9827SOL    HW230381   1.928   5.936   2.724
 9828SOL     OW30382   3.566   1.780   4.941
 9828SOL    HW130383   3.467   1.766   4.943
 9828SOL    HW230384   3.585   1.876   4.923
 9829SOL     OW30385   4.171   6.114   6.038
 9829SOL    HW130386   4.270   6.131   6.043
 9829SOL    HW230387   4.140   6.126   5.943
 9830SOL     OW30388   6.006   1.724   2.711
 9830SOL    HW130389   5.951   1.651   2.752
 9830SOL    HW230390   6.022   1.704   2.615
 9831SOL     OW30391   0.371   3.693   2.561
 9831SOL    HW130392   0.302   3.627   2.531
 9831SOL    HW230393   0.337   3.786   2.545
 9832SOL     OW30394   4.883   4.655   4.563
 9832SOL    HW130395   4.863   4.601   4.644
 9832SOL    HW230396   4.797   4.684   4.521
 9833SOL     OW30397   3.953   3.949   3.781
 9833SOL    HW130398   3.990   3.939   3.873
 9833SOL    HW230399   3.853   3.947   3.784
 9834SOL     OW30400   2.596   5.744   5.894
 9834SOL    HW130401   2.635   5.810   5.959
 9834SOL    HW230402   2.658   5.667   5.882
 9835SOL     OW30403   3.849   4.095   4.884
 9835SOL    HW130404   3.851   4.049   4.796
 9835SOL    HW230405   3.943   4.111   4.916
 9836SOL     OW30406   0.627   3.458   6.336
 9836SOL    HW130407   0.580   3.542   6.310
 9836SOL    HW230408   0.606   3.435   6.431
 9837SOL     OW30409   5.998   1.849   1.681
 9837SOL    HW130410   5.980   1.835   1.584
 9837SOL    HW230411   6.080   1.798   1.708
 9838SOL     OW30412   1.149   5.834   1.179
 9838SOL    HW130413   1.054   5.819   1.153
 9838SOL    HW230414   1.155   5.911   1.243
 9839SOL     OW30415   4.144   0.739   2.934
 9839SOL    HW130416   4.130   0.645   2.965
 9839SOL    HW230417   4.180   0.738   2.841
 9840SOL     OW30418   5.362   2.054   6.949
 9840SOL    HW130419   5.303   2.081   0.004
 9840SOL    HW230420   5.332   1.966   6.913
 9841SOL     OW30421   0.034   5.364   3.506
 9841SOL    HW130422   0.049   5.296   3.578
 9841SOL    HW230423   0.122   5.389   3.466
 9842SOL     OW30424   3.458   2.598   0.425
 9842SOL    HW130425   3.477   2.501   0.414
 9842SOL    HW230426   3.438   2.619   0.520
 9843SOL     OW30427   6.884   6.084   0.863
 9843SOL    HW130428   6.800   6.109   0.815
 9843SOL    HW230429   6.893   6.140   0.945
 9844SOL     OW30430   4.907   0.080   4.386
 9844SOL    HW130431   4.978   0.143   4.358
 9844SOL    HW230432   4.903   0.076   4.486
 9845SOL     OW30433   1.326   2.617   1.758
 9845SOL    HW130434   1.405   2.632   1.818
 9845SOL    HW230435   1.318   2.693   1.694
 9846SOL     OW30436   5.391   1.164   1.334
 9846SOL    HW130437   5.481   1.136   1.303
 9846SOL    HW230438   5.359   1.101   1.405
 9847SOL     OW30439   3.761   3.797   1.277
 9847SOL    HW130440   3.761   3.703   1.310
 9847SOL    HW230441   3.735   3.799   1.180
 9848SOL     OW30442   3.526   3.489   4.961
 9848SOL    HW130443   3.549   3.403   4.915
 9848SOL    HW230444   3.609   3.531   4.997
 9849SOL     OW30445   1.440   0.926   6.731
 9849SOL    HW130446   1.483   0.839   6.708
 9849SOL    HW230447   1.479   0.998   6.673
 9850SOL     OW30448   0.301   0.430   4.150
 9850SOL    HW130449   0.284   0.528   4.139
 9850SOL    HW230450   0.244   0.378   4.087
 9851SOL     OW30451   3.957   5.290   4.327
 9851SOL    HW130452   3.970   5.191   4.337
 9851SOL    HW230453   4.013   5.337   4.395
 9852SOL     OW30454   1.562   1.243   6.758
 9852SOL    HW130455   1.536   1.200   6.672
 9852SOL    HW230456   1.662   1.244   6.765
 9853SOL     OW30457   6.928   4.392   4.158
 9853SOL    HW130458   6.944   4.332   4.236
 9853SOL    HW230459   6.967   4.483   4.177
 9854SOL     OW30460   0.743   5.764   5.779
 9854SOL    HW130461   0.756   5.849   5.727
 9854SOL    HW230462   0.665   5.775   5.841
 9855SOL     OW30463   0.793   3.554   0.766
 9855SOL    HW130464   0.795   3.459   0.798
 9855SOL    HW230465   0.886   3.589   0.758
 9856SOL     OW30466   5.582   4.646   3.392
 9856SOL    HW130467   5.502   4.660   3.333
 9856SOL    HW230468   5.642   4.726   3.387
 9857SOL     OW30469   4.946   2.173   3.333
 9857SOL    HW130470   4.891   2.255   3.351
 9857SOL    HW230471   4.977   2.135   3.420
 9858SOL     OW30472   0.790   6.123   2.428
 9858SOL    HW130473   0.699   6.085   2.411
 9858SOL    HW230474   0.787   6.184   2.507
 9859SOL     OW30475   0.806   4.717   4.770
 9859SOL    HW130476   0.772   4.722   4.864
 9859SOL    HW230477   0.899   4.680   4.770
 9860SOL     OW30478   2.092   1.945   5.392
 9860SOL    HW130479   2.127   1.956   5.298
 9860SOL    HW230480   2.153   1.884   5.443
 9861SOL     OW30481   2.736   1.511   3.857
 9861SOL    HW130482   2.817   1.543   3.905
 9861SOL    HW230483   2.671   1.473   3.923
 9862SOL     OW30484   2.482   4.914   1.159
 9862SOL    HW130485   2.439   4.881   1.243
 9862SOL    HW230486   2.579   4.930   1.175
 9863SOL     OW30487   3.045   5.809   1.171
 9863SOL    HW130488   2.996   5.873   1.231
 9863SOL    HW230489   3.121   5.856   1.127
 9864SOL     OW30490   2.986   6.300   5.297
 9864SOL    HW130491   3.001   6.328   5.391
 9864SOL    HW230492   3.049   6.350   5.237
 9865SOL     OW30493   0.585   6.640   5.635
 9865SOL    HW130494   0.518   6.711   5.616
 9865SOL    HW230495   0.542   6.566   5.687
 9866SOL     OW30496   6.682   4.646   4.623
 9866SOL    HW130497   6.622   4.587   4.569
 9866SOL    HW230498   6.770   4.601   4.637
 9867SOL     OW30499   5.235   1.801   1.781
 9867SOL    HW130500   5.325   1.841   1.799
 9867SOL    HW230501   5.176   1.813   1.861
 9868SOL     OW30502   1.477   4.948   3.278
 9868SOL    HW130503   1.427   4.991   3.353
 9868SOL    HW230504   1.537   5.016   3.235
 9869SOL     OW30505   0.219   2.567   1.131
 9869SOL    HW130506   0.121   2.569   1.154
 9869SOL    HW230507   0.268   2.513   1.199
 9870SOL     OW30508   3.424   1.342   1.638
 9870SOL    HW130509   3.426   1.376   1.732
 9870SOL    HW230510   3.357   1.268   1.631
 9871SOL     OW30511   0.159   3.614   5.258
 9871SOL    HW130512   0.076   3.652   5.217
 9871SOL    HW230513   0.152   3.617   5.358
 9872SOL     OW30514   2.199   5.259   5.276
 9872SOL    HW130515   2.219   5.330   5.208
 9872SOL    HW230516   2.123   5.203   5.244
 9873SOL     OW30517   2.566   1.900   6.152
 9873SOL    HW130518   2.562   1.812   6.104
 9873SOL    HW230519   2.557   1.975   6.086
 9874SOL     OW30520   0.561   2.356   4.879
 9874SOL    HW130521   0.624   2.344   4.956
 9874SOL    HW230522   0.612   2.349   4.793
 9875SOL     OW30523   6.455   5.942   0.599
 9875SOL    HW130524   6.427   6.011   0.532
 9875SOL    HW230525   6.448   5.981   0.691
 9876SOL     OW30526   2.555   6.977   3.397
 9876SOL    HW130527   2.580   6.886   3.366
 9876SOL    HW230528   2.530   6.973   3.494
 9877SOL     OW30529   0.563   4.796   4.682
 9877SOL    HW130530   0.652   4.754   4.696
 9877SOL    HW230531   0.539   4.792   4.585
 9878SOL     OW30532   1.738   3.266   6.969
 9878SOL    HW130533   1.766   3.181   6.923
 9878SOL    HW230534   1.788   3.276   0.034
 9879SOL     OW30535   0.978   4.651   6.051
 9879SOL    HW130536   1.073   4.619   6.057
 9879SOL    HW230537   0.916   4.579   6.080
 9880SOL     OW30538   2.651   1.495   0.263
 9880SOL    HW130539   2.687   1.552   0.189
 9880SOL    HW230540   2.640   1.550   0.345
 9881SOL     OW30541   5.312   0.458   4.833
 9881SOL    HW130542   5.332   0.401   4.752
 9881SOL    HW230543   5.360   0.420   4.912
 9882SOL     OW30544   3.733   2.906   4.353
 9882SOL    HW130545   3.658   2.973   4.343
 9882SOL    HW230546   3.702   2.831   4.411
 9883SOL     OW30547   2.180   6.505   1.296
 9883SOL    HW130548   2.191   6.569   1.372
 9883SOL    HW230549   2.244   6.429   1.306
 9884SOL     OW30550   1.612   3.144   6.509
 9884SOL    HW130551   1.554   3.202   6.451
 9884SOL    HW230552   1.588   3.158   6.605
 9885SOL     OW30553   6.512   3.148   3.633
 9885SOL    HW130554   6.611   3.133   3.637
 9885SOL    HW230555   6.487   3.220   3.698
 9886SOL     OW30556   4.921   6.416   1.347
 9886SOL    HW130557   4.869   6.501   1.352
 9886SOL    HW230558   5.014   6.431   1.381
 9887SOL     OW30559   3.893   6.515   0.597
 9887SOL    HW130560   3.810   6.571   0.597
 9887SOL    HW230561   3.934   6.517   0.505
 9888SOL     OW30562   5.806   5.981   2.590
 9888SOL    HW130563   5.839   6.075   2.583
 9888SOL    HW230564   5.829   5.944   2.680
 9889SOL     OW30565   0.126   4.911   3.046
 9889SOL    HW130566   0.147   4.887   2.951
 9889SOL    HW230567   0.182   4.989   3.074
 9890SOL     OW30568   6.424   3.838   1.084
 9890SOL    HW130569   6.498   3.873   1.141
 9890SOL    HW230570   6.462   3.799   1.000
 9891SOL     OW30571   5.056   5.277   0.353
 9891SOL    HW130572   5.092   5.199   0.403
 9891SOL    HW230573   5.131   5.338   0.327
 9892SOL     OW30574   1.991   5.540   3.882
 9892SOL    HW130575   2.086   5.516   3.860
 9892SOL    HW230576   1.988   5.589   3.969
 9893SOL     OW30577   6.003   4.983   3.207
 9893SOL    HW130578   5.920   4.950   3.161
 9893SOL    HW230579   6.035   5.066   3.162
 9894SOL     OW30580   3.366   2.487   5.600
 9894SOL    HW130581   3.306   2.408   5.597
 9894SOL    HW230582   3.430   2.484   5.523
 9895SOL     OW30583   5.269   2.884   6.600
 9895SOL    HW130584   5.334   2.863   6.673
 9895SOL    HW230585   5.271   2.811   6.532
 9896SOL     OW30586   3.627   3.607   0.725
 9896SOL    HW130587   3.566   3.609   0.805
 9896SOL    HW230588   3.581   3.650   0.647
 9897SOL     OW30589   5.308   1.490   2.737
 9897SOL    HW130590   5.302   1.391   2.723
 9897SOL    HW230591   5.329   1.508   2.833
 9898SOL     OW30592   0.695   5.541   5.621
 9898SOL    HW130593   0.758   5.464   5.627
 9898SOL    HW230594   0.723   5.611   5.688
 9899SOL     OW30595   4.930   4.838   2.363
 9899SOL    HW130596   4.943   4.779   2.442
 9899SOL    HW230597   5.017   4.877   2.335
 9900SOL     OW30598   1.231   2.386   4.021
 9900SOL    HW130599   1.248   2.464   4.082
 9900SOL    HW230600   1.303   2.382   3.951
 9901SOL     OW30601   2.758   2.257   6.265
 9901SOL    HW130602   2.660   2.269   6.280
 9901SOL    HW230603   2.798   2.344   6.236
 9902SOL     OW30604   3.729   3.766   1.010
 9902SOL    HW130605   3.652   3.704   0.992
 9902SOL    HW230606   3.789   3.768   0.931
 9903SOL     OW30607   4.401   1.792   2.129
 9903SOL    HW130608   4.414   1.848   2.210
 9903SOL    HW230609   4.472   1.812   2.062
 9904SOL     OW30610   6.524   2.443   0.164
 9904SOL    HW130611   6.619   2.412   0.176
 9904SOL    HW230612   6.477   2.382   0.100
 9905SOL     OW30613   1.316   6.464   6.091
 9905SOL    HW130614   1.222   6.465   6.124
 9905SOL    HW230615   1.361   6.379   6.120
 9906SOL     OW30616   2.149   3.154   6.396
 9906SOL    HW130617   2.170   3.144   6.493
 9906SOL    HW230618   2.211   3.220   6.355
 9907SOL     OW30619   2.089   6.238   2.971
 9907SOL    HW130620   2.093   6.331   2.933
 9907SOL    HW230621   1.996   6.218   3.002
 9908SOL     OW30622   0.465   3.663   6.243
 9908SOL    HW130623   0.488   3.615   6.158
 9908SOL    HW230624   0.541   3.723   6.269
 9909SOL     OW30625   3.287   1.438   2.683
 9909SOL    HW130626   3.195   1.448   2.721
 9909SOL    HW230627   3.292   1.488   2.596
 9910SOL     OW30628   6.377   4.534   0.731
 9910SOL    HW130629   6.352   4.537   0.828
 9910SOL    HW230630   6.473   4.510   0.723
 9911SOL     OW30631   4.401   5.198   3.450
 9911SOL    HW130632   4.401   5.272   3.383
 9911SOL    HW230633   4.330   5.131   3.426
 9912SOL     OW30634   5.182   0.634   1.885
 9912SOL    HW130635   5.092   0.675   1.874
 9912SOL    HW230636   5.249   0.686   1.831
 9913SOL     OW30637   5.298   2.794   2.829
 9913SOL    HW130638   5.350   2.855   2.889
 9913SOL    HW230639   5.297   2.831   2.737
 9914SOL     OW30640   1.309   0.176   4.931
 9914SOL    HW130641   1.372   0.108   4.894
 9914SOL    HW230642   1.348   0.216   5.014
 9915SOL     OW30643   4.908   3.079   4.046
 9915SOL    HW130644   4.916   3.169   4.003
 9915SOL    HW230645   4.844   3.023   3.992
 9916SOL     OW30646   1.986   2.808   2.466
 9916SOL    HW130647   1.945   2.720   2.490
 9916SOL    HW230648   1.927   2.856   2.401
 9917SOL     OW30649   3.076   4.315   5.777
 9917SOL    HW130650   3.073   4.396   5.836
 9917SOL    HW230651   3.018   4.329   5.697
 9918SOL     OW30652   1.848   1.655   6.349
 9918SOL    HW130653   1.867   1.626   6.255
 9918SOL    HW230654   1.756   1.694   6.353
 9919SOL     OW30655   1.347   5.828   2.195
 9919SOL    HW130656   1.394   5.813   2.282
 9919SOL    HW230657   1.294   5.747   2.171
 9920SOL     OW30658   3.769   6.137   1.369
 9920SOL    HW130659   3.792   6.234   1.378
 9920SOL    HW230660   3.730   6.121   1.278
 9921SOL     OW30661   5.867   6.872   3.025
 9921SOL    HW130662   5.887   6.969   3.018
 9921SOL    HW230663   5.943   6.825   3.069
 9922SOL     OW30664   4.574   4.458   0.808
 9922SOL    HW130665   4.672   4.477   0.812
 9922SOL    HW230666   4.558   4.363   0.832
 9923SOL     OW30667   6.537   2.038   6.236
 9923SOL    HW130668   6.475   2.043   6.314
 9923SOL    HW230669   6.584   1.949   6.237
 9924SOL     OW30670   6.824   0.994   2.742
 9924SOL    HW130671   6.800   1.080   2.788
 9924SOL    HW230672   6.884   1.013   2.665
 9925SOL     OW30673   2.550   3.745   5.766
 9925SOL    HW130674   2.467   3.737   5.710
 9925SOL    HW230675   2.630   3.722   5.710
 9926SOL     OW30676   1.001   1.385   0.856
 9926SOL    HW130677   1.038   1.463   0.908
 9926SOL    HW230678   0.910   1.409   0.823
 9927SOL     OW30679   0.352   1.901   2.598
 9927SOL    HW130680   0.308   1.973   2.545
 9927SOL    HW230681   0.344   1.921   2.695
 9928SOL     OW30682   0.352   4.130   1.946
 9928SOL    HW130683   0.378   4.215   1.901
 9928SOL    HW230684   0.402   4.054   1.905
 9929SOL     OW30685   3.340   4.677   6.514
 9929SOL    HW130686   3.372   4.584   6.527
 9929SOL    HW230687   3.253   4.676   6.466
 9930SOL     OW30688   6.536   0.090   6.343
 9930SOL    HW130689   6.585   0.045   6.268
 9930SOL    HW230690   6.479   0.163   6.306
 9931SOL     OW30691   1.746   6.231   5.570
 9931SOL    HW130692   1.767   6.313   5.517
 9931SOL    HW230693   1.691   6.256   5.650
 9932SOL     OW30694   1.968   1.341   0.643
 9932SOL    HW130695   1.945   1.438   0.637
 9932SOL    HW230696   1.908   1.289   0.582
 9933SOL     OW30697   2.463   1.500   2.955
 9933SOL    HW130698   2.435   1.442   2.879
 9933SOL    HW230699   2.531   1.450   3.010
 9934SOL     OW30700   5.433   1.842   6.248
 9934SOL    HW130701   5.515   1.836   6.306
 9934SOL    HW230702   5.427   1.934   6.209
 9935SOL     OW30703   3.041   2.191   0.679
 9935SOL    HW130704   3.109   2.263   0.674
 9935SOL    HW230705   3.016   2.161   0.586
 9936SOL     OW30706   5.563   5.740   5.914
 9936SOL    HW130707   5.595   5.782   5.998
 9936SOL    HW230708   5.626   5.668   5.887
 9937SOL     OW30709   0.185   0.078   2.760
 9937SOL    HW130710   0.244   0.149   2.799
 9937SOL    HW230711   0.180   7.021   2.822
 9938SOL     OW30712   6.755   1.008   4.589
 9938SOL    HW130713   6.769   0.985   4.492
 9938SOL    HW230714   6.766   1.107   4.601
 9939SOL     OW30715   2.143   3.968   0.943
 9939SOL    HW130716   2.208   3.894   0.962
 9939SOL    HW230717   2.105   4.001   1.029
 9940SOL     OW30718   0.370   0.243   2.879
 9940SOL    HW130719   0.402   0.307   2.809
 9940SOL    HW230720   0.383   0.283   2.970
 9941SOL     OW30721   4.247   5.000   6.053
 9941SOL    HW130722   4.175   5.068   6.042
 9941SOL    HW230723   4.220   4.915   6.009
 9942SOL     OW30724   4.397   4.821   3.735
 9942SOL    HW130725   4.393   4.721   3.741
 9942SOL    HW230726   4.493   4.849   3.737
 9943SOL     OW30727   2.267   3.933   0.214
 9943SOL    HW130728   2.366   3.936   0.203
 9943SOL    HW230729   2.235   4.021   0.250
 9944SOL     OW30730   1.752   5.055   0.104
 9944SOL    HW130731   1.743   5.151   0.080
 9944SOL    HW230732   1.665   5.008   0.085
 9945SOL     OW30733   5.889   3.723   0.052
 9945SOL    HW130734   5.828   3.646   0.036
 9945SOL    HW230735   5.981   3.699   0.021
 9946SOL     OW30736   5.593   1.165   3.163
 9946SOL    HW130737   5.657   1.122   3.227
 9946SOL    HW230738   5.643   1.229   3.104
 9947SOL     OW30739   1.519   1.527   4.565
 9947SOL    HW130740   1.455   1.545   4.490
 9947SOL    HW230741   1.605   1.493   4.528
 9948SOL     OW30742   6.168   0.213   4.186
 9948SOL    HW130743   6.071   0.228   4.167
 9948SOL    HW230744   6.203   0.287   4.243
 9949SOL     OW30745   6.716   3.979   4.472
 9949SOL    HW130746   6.747   4.065   4.513
 9949SOL    HW230747   6.793   3.930   4.433
 9950SOL     OW30748   6.726   5.392   5.844
 9950SOL    HW130749   6.796   5.415   5.776
 9950SOL    HW230750   6.770   5.374   5.932
 9951SOL     OW30751   0.815   2.733   2.539
 9951SOL    HW130752   0.876   2.694   2.607
 9951SOL    HW230753   0.757   2.802   2.581
 9952SOL     OW30754   0.586   4.303   1.659
 9952SOL    HW130755   0.618   4.275   1.749
 9952SOL    HW230756   0.633   4.250   1.588
 9953SOL     OW30757   6.166   2.579   3.190
 9953SOL    HW130758   6.213   2.492   3.186
 9953SOL    HW230759   6.168   2.614   3.284
 9954SOL     OW30760   2.905   1.641   6.021
 9954SOL    HW130761   2.980   1.612   5.961
 9954SOL    HW230762   2.831   1.678   5.965
 9955SOL     OW30763   5.192   3.321   1.297
 9955SOL    HW130764   5.264   3.251   1.295
 9955SOL    HW230765   5.103   3.277   1.281
 9956SOL     OW30766   1.707   4.759   3.390
 9956SOL    HW130767   1.797   4.792   3.419
 9956SOL    HW230768   1.680   4.804   3.305
 9957SOL     OW30769   5.769   6.915   1.796
 9957SOL    HW130770   5.762   6.859   1.879
 9957SOL    HW230771   5.743   6.861   1.717
 9958SOL     OW30772   3.777   4.912   6.152
 9958SOL    HW130773   3.860   4.859   6.171
 9958SOL    HW230774   3.732   4.935   6.238
 9959SOL     OW30775   4.032   4.177   0.971
 9959SOL    HW130776   4.097   4.183   1.046
 9959SOL    HW230777   3.955   4.240   0.989
 9960SOL     OW30778   6.632   6.915   0.187
 9960SOL    HW130779   6.565   6.935   0.116
 9960SOL    HW230780   6.724   6.915   0.147
 9961SOL     OW30781   2.245   4.576   2.169
 9961SOL    HW130782   2.328   4.632   2.169
 9961SOL    HW230783   2.175   4.621   2.114
 9962SOL     OW30784   3.391   5.225   2.511
 9962SOL    HW130785   3.363   5.296   2.448
 9962SOL    HW230786   3.433   5.149   2.461
 9963SOL     OW30787   1.891   1.686   0.240
 9963SOL    HW130788   1.956   1.715   0.310
 9963SOL    HW230789   1.823   1.626   0.281
 9964SOL     OW30790   4.820   4.477   5.441
 9964SOL    HW130791   4.772   4.553   5.398
 9964SOL    HW230792   4.895   4.447   5.382
 9965SOL     OW30793   2.782   5.634   5.164
 9965SOL    HW130794   2.817   5.625   5.071
 9965SOL    HW230795   2.844   5.692   5.217
 9966SOL     OW30796   3.109   4.811   2.357
 9966SOL    HW130797   3.014   4.815   2.326
 9966SOL    HW230798   3.160   4.747   2.300
 9967SOL     OW30799   6.791   0.088   2.240
 9967SOL    HW130800   6.864   0.094   2.308
 9967SOL    HW230801   6.712   0.042   2.281
 9968SOL     OW30802   3.925   6.243   0.328
 9968SOL    HW130803   3.942   6.153   0.368
 9968SOL    HW230804   3.968   6.313   0.384
 9969SOL     OW30805   1.403   4.862   4.529
 9969SOL    HW130806   1.363   4.773   4.508
 9969SOL    HW230807   1.479   4.879   4.466
 9970SOL     OW30808   6.044   4.907   2.084
 9970SOL    HW130809   6.072   4.818   2.121
 9970SOL    HW230810   5.957   4.934   2.124
 9971SOL     OW30811   1.829   3.218   2.207
 9971SOL    HW130812   1.817   3.241   2.111
 9971SOL    HW230813   1.766   3.271   2.263
 9972SOL     OW30814   3.743   4.024   0.498
 9972SOL    HW130815   3.738   3.973   0.411
 9972SOL    HW230816   3.837   4.026   0.530
 9973SOL     OW30817   3.922   1.907   4.210
 9973SOL    HW130818   3.874   1.904   4.298
 9973SOL    HW230819   3.918   1.817   4.166
 9974SOL     OW30820   0.290   1.994   3.457
 9974SOL    HW130821   0.351   2.057   3.506
 9974SOL    HW230822   0.240   1.937   3.523
 9975SOL     OW30823   0.979   5.313   6.638
 9975SOL    HW130824   0.885   5.279   6.640
 9975SOL    HW230825   0.996   5.358   6.550
 9976SOL     OW30826   2.219   4.845   5.818
 9976SOL    HW130827   2.186   4.758   5.852
 9976SOL    HW230828   2.183   4.860   5.726
 9977SOL     OW30829   5.475   5.353   4.744
 9977SOL    HW130830   5.444   5.387   4.655
 9977SOL    HW230831   5.510   5.260   4.734
 9978SOL     OW30832   0.479   2.089   6.084
 9978SOL    HW130833   0.493   2.176   6.131
 9978SOL    HW230834   0.518   2.015   6.138
 9979SOL     OW30835   5.066   3.222   5.722
 9979SOL    HW130836   4.986   3.162   5.725
 9979SOL    HW230837   5.123   3.197   5.644
 9980SOL     OW30838   1.054   1.041   0.126
 9980SOL    HW130839   1.118   0.975   0.087
 9980SOL    HW230840   1.086   1.134   0.109
 9981SOL     OW30841   0.668   2.211   1.491
 9981SOL    HW130842   0.600   2.172   1.554
 9981SOL    HW230843   0.644   2.188   1.397
 9982SOL     OW30844   2.153   1.632   5.214
 9982SOL    HW130845   2.200   1.663   5.297
 9982SOL    HW230846   2.160   1.702   5.144
 9983SOL     OW30847   6.457   3.048   2.128
 9983SOL    HW130848   6.359   3.065   2.116
 9983SOL    HW230849   6.505   3.068   2.043
 9984SOL     OW30850   0.525   6.154   1.357
 9984SOL    HW130851   0.497   6.224   1.291
 9984SOL    HW230852   0.519   6.193   1.450
 9985SOL     OW30853   3.675   5.305   0.540
 9985SOL    HW130854   3.648   5.214   0.571
 9985SOL    HW230855   3.719   5.354   0.615
 9986SOL     OW30856   5.000   4.564   0.320
 9986SOL    HW130857   5.035   4.484   0.271
 9986SOL    HW230858   4.948   4.621   0.257
 9987SOL     OW30859   5.353   3.149   1.500
 9987SOL    HW130860   5.425   3.162   1.431
 9987SOL    HW230861   5.289   3.080   1.468
 9988SOL     OW30862   5.837   5.809   4.112
 9988SOL    HW130863   5.922   5.794   4.062
 9988SOL    HW230864   5.766   5.839   4.048
 9989SOL     OW30865   6.202   4.327   1.603
 9989SOL    HW130866   6.130   4.390   1.631
 9989SOL    HW230867   6.196   4.309   1.505
 9990SOL     OW30868   0.236   6.868   2.896
 9990SOL    HW130869   0.156   6.810   2.909
 9990SOL    HW230870   0.309   6.814   2.854
 9991SOL     OW30871   1.545   4.122   3.453
 9991SOL    HW130872   1.499   4.120   3.542
 9991SOL    HW230873   1.637   4.159   3.464
 9992SOL     OW30874   3.390   4.208   0.764
 9992SOL    HW130875   3.430   4.151   0.692
 9992SOL    HW230876   3.349   4.289   0.723
 9993SOL     OW30877   3.583   6.243   3.889
 9993SOL    HW130878   3.620   6.169   3.834
 9993SOL    HW230879   3.496   6.215   3.928
 9994SOL     OW30880   0.535   4.040   4.440
 9994SOL    HW130881   0.626   4.015   4.406
 9994SOL    HW230882   0.466   3.983   4.396
 9995SOL     OW30883   2.947   0.953   4.698
 9995SOL    HW130884   2.921   1.012   4.621
 9995SOL    HW230885   2.865   0.909   4.734
 9996SOL     OW30886   2.344   3.996   0.624
 9996SOL    HW130887   2.357   4.062   0.697
 9996SOL    HW230888   2.367   4.038   0.536
 9997SOL     OW30889   5.531   1.740   3.947
 9997SOL    HW130890   5.457   1.801   3.920
 9997SOL    HW230891   5.518   1.651   3.903
 9998SOL     OW30892   4.857   3.774   2.770
 9998SOL    HW130893   4.925   3.775   2.697
 9998SOL    HW230894   4.805   3.689   2.766
 9999SOL     OW30895   0.695   0.170   3.547
 9999SOL    HW130896   0.631   0.184   3.622
 9999SOL    HW230897   0.725   0.259   3.512
10000SOL     OW30898   5.564   1.743   1.555
10000SOL    HW130899   5.464   1.748   1.561
10000SOL    HW230900   5.597   1.672   1.617
10001SOL     OW30901   3.175   6.567   2.641
10001SOL    HW130902   3.088   6.602   2.607
10001SOL    HW230903   3.237   6.644   2.657
10002SOL     OW30904   2.250   1.051   0.682
10002SOL    HW130905   2.203   0.986   0.742
10002SOL    HW230906   2.348   1.032   0.681
10003SOL     OW30907   2.399   1.768   2.585
10003SOL    HW130908   2.466   1.776   2.511
10003SOL    HW230909   2.332   1.842   2.578
10004SOL     OW30910   5.226   4.733   4.790
10004SOL    HW130911   5.283   4.745   4.709
10004SOL    HW230912   5.160   4.660   4.773
10005SOL     OW30913   2.911   5.657   3.870
10005SOL    HW130914   2.962   5.612   3.943
10005SOL    HW230915   2.916   5.603   3.787
10006SOL     OW30916   5.795   0.041   5.651
10006SOL    HW130917   5.745   6.992   5.702
10006SOL    HW230918   5.875   0.070   5.703
10007SOL     OW30919   0.614   3.974   4.722
10007SOL    HW130920   0.707   3.937   4.717
10007SOL    HW230921   0.577   3.983   4.630
10008SOL     OW30922   3.357   1.789   3.991
10008SOL    HW130923   3.417   1.851   3.940
10008SOL    HW230924   3.389   1.781   4.085
10009SOL     OW30925   2.028   3.825   2.062
10009SOL    HW130926   2.100   3.836   2.131
10009SOL    HW230927   2.068   3.787   1.978
10010SOL     OW30928   2.828   5.007   6.537
10010SOL    HW130929   2.906   5.064   6.564
10010SOL    HW230930   2.853   4.953   6.457
10011SOL     OW30931   0.263   4.382   0.839
10011SOL    HW130932   0.312   4.337   0.764
10011SOL    HW230933   0.289   4.340   0.926
10012SOL     OW30934   5.001   0.654   2.252
10012SOL    HW130935   5.087   0.648   2.202
10012SOL    HW230936   5.012   0.711   2.333
10013SOL     OW30937   1.400   4.762   5.035
10013SOL    HW130938   1.494   4.787   5.053
10013SOL    HW230939   1.385   4.666   5.059
10014SOL     OW30940   0.954   6.574   2.359
10014SOL    HW130941   0.888   6.646   2.336
10014SOL    HW230942   0.967   6.572   2.458
10015SOL     OW30943   4.016   5.287   6.799
10015SOL    HW130944   3.962   5.318   6.877
10015SOL    HW230945   4.101   5.246   6.832
10016SOL     OW30946   1.427   1.294   4.710
10016SOL    HW130947   1.336   1.283   4.670
10016SOL    HW230948   1.470   1.376   4.671
10017SOL     OW30949   2.326   1.991   2.743
10017SOL    HW130950   2.380   1.916   2.782
10017SOL    HW230951   2.371   2.025   2.660
10018SOL     OW30952   6.905   4.285   5.352
10018SOL    HW130953   6.965   4.205   5.346
10018SOL    HW230954   6.872   4.295   5.446
10019SOL     OW30955   6.761   1.813   3.508
10019SOL    HW130956   6.703   1.870   3.567
10019SOL    HW230957   6.721   1.810   3.416
10020SOL     OW30958   0.217   0.843   1.273
10020SOL    HW130959   0.173   0.845   1.184
10020SOL    HW230960   0.159   0.887   1.341
10021SOL     OW30961   1.332   2.838   1.584
10021SOL    HW130962   1.262   2.891   1.537
10021SOL    HW230963   1.412   2.895   1.603
10022SOL     OW30964   2.046   6.089   6.840
10022SOL    HW130965   2.088   6.141   6.766
10022SOL    HW230966   1.969   6.141   6.877
10023SOL     OW30967   2.539   6.389   5.851
10023SOL    HW130968   2.441   6.403   5.864
10023SOL    HW230969   2.556   6.357   5.757
10024SOL     OW30970   1.644   5.118   3.119
10024SOL    HW130971   1.632   5.109   3.020
10024SOL    HW230972   1.703   5.197   3.138
10025SOL     OW30973   1.827   3.021   1.749
10025SOL    HW130974   1.877   3.005   1.834
10025SOL    HW230975   1.858   3.106   1.707
10026SOL     OW30976   5.021   1.166   2.926
10026SOL    HW130977   5.036   1.157   2.827
10026SOL    HW230978   4.940   1.222   2.943
10027SOL     OW30979   1.054   2.560   5.299
10027SOL    HW130980   1.040   2.611   5.214
10027SOL    HW230981   1.093   2.620   5.368
10028SOL     OW30982   3.787   0.697   0.996
10028SOL    HW130983   3.881   0.665   0.993
10028SOL    HW230984   3.767   0.733   1.088
10029SOL     OW30985   0.406   2.592   4.661
10029SOL    HW130986   0.412   2.549   4.750
10029SOL    HW230987   0.317   2.574   4.621
10030SOL     OW30988   3.190   0.011   4.795
10030SOL    HW130989   3.219   0.000   4.700
10030SOL    HW230990   3.098   0.050   4.797
10031SOL     OW30991   4.806   5.185   4.808
10031SOL    HW130992   4.863   5.265   4.789
10031SOL    HW230993   4.865   5.106   4.826
10032SOL     OW30994   3.954   0.086   5.930
10032SOL    HW130995   3.872   0.142   5.941
10032SOL    HW230996   3.937   0.014   5.862
10033SOL     OW30997   4.678   1.401   3.890
10033SOL    HW130998   4.594   1.408   3.836
10033SOL    HW230999   4.710   1.492   3.915
10034SOL     OW31000   2.151   0.931   3.624
10034SOL    HW131001   2.193   1.011   3.667
10034SOL    HW231002   2.062   0.913   3.666
10035SOL     OW31003   5.847   3.957   6.932
10035SOL    HW131004   5.850   3.896   7.012
10035SOL    HW231005   5.817   3.905   6.852
10036SOL     OW31006   6.338   0.883   0.273
10036SOL    HW131007   6.365   0.851   0.182
10036SOL    HW231008   6.268   0.954   0.264
10037SOL     OW31009   6.388   6.891   6.129
10037SOL    HW131010   6.357   6.914   6.037
10037SOL    HW231011   6.485   6.915   6.139
10038SOL     OW31012   4.594   6.533   6.143
10038SOL    HW131013   4.649   6.556   6.064
10038SOL    HW231014   4.642   6.464   6.198
10039SOL     OW31015   5.052   6.155   5.004
10039SOL    HW131016   5.097   6.072   4.970
10039SOL    HW231017   4.962   6.132   5.040
10040SOL     OW31018   4.039   6.046   0.002
10040SOL    HW131019   3.988   6.131   0.017
10040SOL    HW231020   3.995   5.971   0.052
10041SOL     OW31021   6.267   5.074   5.108
10041SOL    HW131022   6.345   5.115   5.062
10041SOL    HW231023   6.267   4.975   5.091
10042SOL     OW31024   0.618   1.010   5.271
10042SOL    HW131025   0.659   0.925   5.238
10042SOL    HW231026   0.689   1.068   5.312
10043SOL     OW31027   0.359   0.651   2.971
10043SOL    HW131028   0.312   0.564   2.988
10043SOL    HW231029   0.304   0.707   2.909
10044SOL     OW31030   2.283   1.778   4.296
10044SOL    HW131031   2.286   1.862   4.350
10044SOL    HW231032   2.202   1.779   4.237
10045SOL     OW31033   4.640   0.114   4.072
10045SOL    HW131034   4.549   0.072   4.074
10045SOL    HW231035   4.641   0.187   4.004
10046SOL     OW31036   0.385   1.042   1.582
10046SOL    HW131037   0.345   1.131   1.603
10046SOL    HW231038   0.339   0.971   1.636
10047SOL     OW31039   6.186   3.161   5.000
10047SOL    HW131040   6.202   3.063   4.994
10047SOL    HW231041   6.162   3.197   4.910
10048SOL     OW31042   3.685   1.701   2.069
10048SOL    HW131043   3.597   1.707   2.116
10048SOL    HW231044   3.706   1.788   2.026
10049SOL     OW31045   0.845   1.170   6.523
10049SOL    HW131046   0.802   1.255   6.554
10049SOL    HW231047   0.889   1.125   6.601
10050SOL     OW31048   5.790   2.848   5.206
10050SOL    HW131049   5.698   2.871   5.174
10050SOL    HW231050   5.796   2.750   5.223
10051SOL     OW31051   6.687   2.758   4.695
10051SOL    HW131052   6.624   2.835   4.685
10051SOL    HW231053   6.643   2.675   4.660
10052SOL     OW31054   2.093   2.456   2.057
10052SOL    HW131055   2.026   2.423   2.123
10052SOL    HW231056   2.160   2.513   2.104
10053SOL     OW31057   3.894   4.989   2.134
10053SOL    HW131058   3.802   4.957   2.155
10053SOL    HW231059   3.938   4.925   2.071
10054SOL     OW31060   3.996   5.971   6.195
10054SOL    HW131061   4.041   5.883   6.210
10054SOL    HW231062   4.046   6.022   6.125
10055SOL     OW31063   6.080   2.626   5.199
10055SOL    HW131064   6.058   2.697   5.133
10055SOL    HW231065   6.077   2.536   5.153
10056SOL     OW31066   6.108   4.990   1.121
10056SOL    HW131067   6.054   5.046   1.185
10056SOL    HW231068   6.097   4.894   1.144
10057SOL     OW31069   3.323   1.074   4.337
10057SOL    HW131070   3.249   1.102   4.398
10057SOL    HW231071   3.404   1.053   4.390
10058SOL     OW31072   0.234   3.972   4.698
10058SOL    HW131073   0.267   3.890   4.652
10058SOL    HW231074   0.301   4.046   4.688
10059SOL     OW31075   4.929   6.810   0.931
10059SOL    HW131076   4.992   6.735   0.914
10059SOL    HW231077   4.971   6.875   0.994
10060SOL     OW31078   2.324   1.410   2.464
10060SOL    HW131079   2.372   1.399   2.377
10060SOL    HW231080   2.258   1.484   2.458
10061SOL     OW31081   5.186   1.221   3.893
10061SOL    HW131082   5.118   1.152   3.914
10061SOL    HW231083   5.258   1.182   3.836
10062SOL     OW31084   6.062   0.150   4.919
10062SOL    HW131085   6.118   0.069   4.930
10062SOL    HW231086   6.107   0.214   4.857
10063SOL     OW31087   1.768   1.634   3.363
10063SOL    HW131088   1.816   1.562   3.313
10063SOL    HW231089   1.826   1.668   3.437
10064SOL     OW31090   5.639   5.480   5.851
10064SOL    HW131091   5.682   5.402   5.806
10064SOL    HW231092   5.562   5.448   5.907
10065SOL     OW31093   1.686   0.392   1.972
10065SOL    HW131094   1.602   0.373   1.921
10065SOL    HW231095   1.744   0.454   1.919
10066SOL     OW31096   1.390   1.449   4.343
10066SOL    HW131097   1.422   1.370   4.290
10066SOL    HW231098   1.296   1.470   4.319
10067SOL     OW31099   5.173   4.294   5.843
10067SOL    HW131100   5.191   4.208   5.795
10067SOL    HW231101   5.130   4.359   5.780
10068SOL     OW31102   5.462   2.912   3.972
10068SOL    HW131103   5.553   2.952   3.969
10068SOL    HW231104   5.407   2.959   4.041
10069SOL     OW31105   1.755   6.161   3.862
10069SOL    HW131106   1.687   6.223   3.900
10069SOL    HW231107   1.842   6.173   3.909
10070SOL     OW31108   0.110   0.073   4.755
10070SOL    HW131109   0.155   7.017   4.711
10070SOL    HW231110   0.129   0.157   4.703
10071SOL     OW31111   4.770   5.441   4.122
10071SOL    HW131112   4.801   5.534   4.142
10071SOL    HW231113   4.819   5.376   4.180
10072SOL     OW31114   1.378   6.341   4.452
10072SOL    HW131115   1.304   6.387   4.403
10072SOL    HW231116   1.379   6.372   4.547
10073SOL     OW31117   6.488   3.804   4.896
10073SOL    HW131118   6.524   3.897   4.884
10073SOL    HW231119   6.389   3.808   4.901
10074SOL     OW31120   0.516   0.393   5.557
10074SOL    HW131121   0.611   0.419   5.573
10074SOL    HW231122   0.494   0.405   5.460
10075SOL     OW31123   1.304   2.113   2.741
10075SOL    HW131124   1.344   2.091   2.830
10075SOL    HW231125   1.263   2.204   2.744
10076SOL     OW31126   5.896   0.353   3.558
10076SOL    HW131127   5.881   0.297   3.639
10076SOL    HW231128   5.984   0.400   3.566
10077SOL     OW31129   3.392   2.318   6.839
10077SOL    HW131130   3.309   2.341   6.788
10077SOL    HW231131   3.459   2.392   6.827
10078SOL     OW31132   6.742   6.480   4.197
10078SOL    HW131133   6.836   6.500   4.170
10078SOL    HW231134   6.693   6.437   4.121
10079SOL     OW31135   1.276   2.945   1.882
10079SOL    HW131136   1.358   2.996   1.906
10079SOL    HW231137   1.289   2.899   1.795
10080SOL     OW31138   3.124   2.219   6.430
10080SOL    HW131139   3.067   2.164   6.369
10080SOL    HW231140   3.219   2.192   6.419
10081SOL     OW31141   0.068   6.951   6.401
10081SOL    HW131142   0.089   6.992   6.490
10081SOL    HW231143   7.004   6.899   6.409
10082SOL     OW31144   0.034   3.241   2.670
10082SOL    HW131145   0.112   3.188   2.639
10082SOL    HW231146   0.009   3.213   2.763
10083SOL     OW31147   5.349   1.298   3.394
10083SOL    HW131148   5.318   1.261   3.307
10083SOL    HW231149   5.272   1.341   3.442
10084SOL     OW31150   4.037   1.038   6.457
10084SOL    HW131151   3.966   1.100   6.423
10084SOL    HW231152   4.092   1.005   6.381
10085SOL     OW31153   0.481   5.255   2.526
10085SOL    HW131154   0.511   5.344   2.562
10085SOL    HW231155   0.390   5.265   2.486
10086SOL     OW31156   6.118   5.161   2.095
10086SOL    HW131157   6.111   5.061   2.091
10086SOL    HW231158   6.198   5.187   2.149
10087SOL     OW31159   0.656   0.191   4.062
10087SOL    HW131160   0.571   0.226   4.024
10087SOL    HW231161   0.642   0.098   4.097
10088SOL     OW31162   6.908   6.780   6.373
10088SOL    HW131163   6.892   6.757   6.277
10088SOL    HW231164   6.820   6.794   6.419
10089SOL     OW31165   2.378   2.393   3.119
10089SOL    HW131166   2.419   2.330   3.053
10089SOL    HW231167   2.332   2.341   3.191
10090SOL     OW31168   0.906   4.602   1.122
10090SOL    HW131169   0.878   4.569   1.032
10090SOL    HW231170   1.004   4.588   1.135
10091SOL     OW31171   1.109   3.257   5.411
10091SOL    HW131172   1.021   3.244   5.368
10091SOL    HW231173   1.180   3.212   5.357
10092SOL     OW31174   1.770   3.551   5.292
10092SOL    HW131175   1.773   3.645   5.258
10092SOL    HW231176   1.774   3.552   5.392
10093SOL     OW31177   1.113   3.976   4.521
10093SOL    HW131178   1.024   4.018   4.534
10093SOL    HW231179   1.174   4.039   4.472
10094SOL     OW31180   2.626   6.487   2.077
10094SOL    HW131181   2.659   6.531   2.161
10094SOL    HW231182   2.651   6.543   1.998
10095SOL     OW31183   6.173   1.980   5.280
10095SOL    HW131184   6.133   1.889   5.270
10095SOL    HW231185   6.165   2.010   5.375
10096SOL     OW31186   6.519   5.203   2.606
10096SOL    HW131187   6.557   5.284   2.561
10096SOL    HW231188   6.426   5.222   2.637
10097SOL     OW31189   0.797   1.262   6.911
10097SOL    HW131190   0.890   1.259   6.873
10097SOL    HW231191   0.800   1.241   7.008
10098SOL     OW31192   2.256   6.911   5.817
10098SOL    HW131193   2.173   6.964   5.836
10098SOL    HW231194   2.249   6.821   5.860
10099SOL     OW31195   0.136   5.397   6.540
10099SOL    HW131196   0.051   5.437   6.575
10099SOL    HW231197   0.180   5.345   6.612
10100SOL     OW31198   5.289   6.963   4.464
10100SOL    HW131199   5.303   7.001   4.372
10100SOL    HW231200   5.198   6.987   4.497
10101SOL     OW31201   5.625   4.350   1.762
10101SOL    HW131202   5.607   4.388   1.853
10101SOL    HW231203   5.594   4.415   1.692
10102SOL     OW31204   2.051   0.829   3.057
10102SOL    HW131205   2.096   0.812   2.969
10102SOL    HW231206   2.068   0.923   3.085
10103SOL     OW31207   2.706   1.243   5.043
10103SOL    HW131208   2.721   1.320   4.981
10103SOL    HW231209   2.794   1.203   5.068
10104SOL     OW31210   1.492   3.492   4.745
10104SOL    HW131211   1.550   3.574   4.749
10104SOL    HW231212   1.513   3.432   4.822
10105SOL     OW31213   1.123   1.302   0.097
10105SOL    HW131214   1.061   1.379   0.080
10105SOL    HW231215   1.189   1.296   0.022
10106SOL     OW31216   4.857   4.998   0.542
10106SOL    HW131217   4.848   5.022   0.445
10106SOL    HW231218   4.951   5.016   0.571
10107SOL     OW31219   6.979   2.061   6.842
10107SOL    HW131220   7.021   1.970   6.845
10107SOL    HW231221   0.024   2.129   6.874
10108SOL     OW31222   6.665   6.052   0.115
10108SOL    HW131223   6.681   6.045   0.214
10108SOL    HW231224   6.570   6.076   0.098
10109SOL     OW31225   3.503   6.546   2.464
10109SOL    HW131226   3.575   6.478   2.466
10109SOL    HW231227   3.533   6.629   2.510
10110SOL     OW31228   4.282   6.287   4.908
10110SOL    HW131229   4.366   6.240   4.935
10110SOL    HW231230   4.302   6.352   4.835
10111SOL     OW31231   6.257   2.659   4.468
10111SOL    HW131232   6.193   2.609   4.411
10111SOL    HW231233   6.226   2.657   4.563
10112SOL     OW31234   5.623   4.440   4.740
10112SOL    HW131235   5.662   4.348   4.735
10112SOL    HW231236   5.583   4.455   4.831
10113SOL     OW31237   3.958   1.528   6.206
10113SOL    HW131238   3.973   1.582   6.289
10113SOL    HW231239   3.870   1.481   6.213
10114SOL     OW31240   5.477   0.220   0.966
10114SOL    HW131241   5.520   0.236   1.055
10114SOL    HW231242   5.472   0.122   0.948
10115SOL     OW31243   3.267   2.177   3.549
10115SOL    HW131244   3.190   2.234   3.521
10115SOL    HW231245   3.293   2.117   3.473
10116SOL     OW31246   0.877   6.394   6.928
10116SOL    HW131247   0.926   6.379   6.842
10116SOL    HW231248   0.780   6.370   6.916
10117SOL     OW31249   6.653   0.120   4.327
10117SOL    HW131250   6.594   0.049   4.368
10117SOL    HW231251   6.700   0.082   4.248
10118SOL     OW31252   6.967   5.499   3.228
10118SOL    HW131253   7.006   5.464   3.313
10118SOL    HW231254   6.992   5.439   3.152
10119SOL     OW31255   1.562   6.652   4.670
10119SOL    HW131256   1.566   6.710   4.589
10119SOL    HW231257   1.647   6.600   4.679
10120SOL     OW31258   0.957   3.715   4.201
10120SOL    HW131259   0.906   3.738   4.118
10120SOL    HW231260   1.030   3.781   4.214
10121SOL     OW31261   6.516   5.163   5.743
10121SOL    HW131262   6.491   5.100   5.816
10121SOL    HW231263   6.538   5.252   5.782
10122SOL     OW31264   5.450   2.865   0.566
10122SOL    HW131265   5.401   2.938   0.518
10122SOL    HW231266   5.547   2.869   0.542
10123SOL     OW31267   6.711   6.251   0.340
10123SOL    HW131268   6.709   6.330   0.280
10123SOL    HW231269   6.747   6.279   0.430
10124SOL     OW31270   1.757   3.775   6.569
10124SOL    HW131271   1.818   3.797   6.644
10124SOL    HW231272   1.811   3.746   6.490
10125SOL     OW31273   1.383   1.075   2.886
10125SOL    HW131274   1.337   1.144   2.831
10125SOL    HW231275   1.427   1.118   2.965
10126SOL     OW31276   0.700   6.852   6.385
10126SOL    HW131277   0.715   6.908   6.303
10126SOL    HW231278   0.613   6.876   6.427
10127SOL     OW31279   2.730   5.038   5.827
10127SOL    HW131280   2.631   5.030   5.839
10127SOL    HW231281   2.767   4.949   5.798
10128SOL     OW31282   0.984   1.645   1.193
10128SOL    HW131283   0.940   1.732   1.214
10128SOL    HW231284   1.078   1.662   1.163
10129SOL     OW31285   4.860   2.834   4.209
10129SOL    HW131286   4.958   2.855   4.207
10129SOL    HW231287   4.817   2.879   4.287
10130SOL     OW31288   2.195   4.119   2.267
10130SOL    HW131289   2.246   4.194   2.311
10130SOL    HW231290   2.235   4.032   2.294
10131SOL     OW31291   0.373   1.038   3.069
10131SOL    HW131292   0.445   1.054   3.001
10131SOL    HW231293   0.375   1.111   3.138
10132SOL     OW31294   2.413   6.604   3.690
10132SOL    HW131295   2.419   6.533   3.619
10132SOL    HW231296   2.317   6.619   3.714
10133SOL     OW31297   4.733   6.005   1.773
10133SOL    HW131298   4.767   5.939   1.839
10133SOL    HW231299   4.641   6.035   1.801
10134SOL     OW31300   6.677   6.956   3.536
10134SOL    HW131301   6.682   6.995   3.628
10134SOL    HW231302   6.711   0.002   3.469
10135SOL     OW31303   5.506   3.071   3.381
10135SOL    HW131304   5.511   3.014   3.299
10135SOL    HW231305   5.532   3.016   3.461
10136SOL     OW31306   5.755   0.292   2.743
10136SOL    HW131307   5.788   0.251   2.658
10136SOL    HW231308   5.778   0.389   2.745
10137SOL     OW31309   5.863   4.734   3.931
10137SOL    HW131310   5.949   4.731   3.982
10137SOL    HW231311   5.870   4.674   3.851
10138SOL     OW31312   5.018   2.369   0.841
10138SOL    HW131313   5.046   2.453   0.793
10138SOL    HW231314   4.984   2.393   0.932
10139SOL     OW31315   3.603   3.409   3.160
10139SOL    HW131316   3.608   3.337   3.229
10139SOL    HW231317   3.552   3.376   3.081
10140SOL     OW31318   6.720   6.039   5.285
10140SOL    HW131319   6.768   5.957   5.317
10140SOL    HW231320   6.622   6.020   5.280
10141SOL     OW31321   2.877   1.499   4.269
10141SOL    HW131322   2.779   1.513   4.252
10141SOL    HW231323   2.929   1.530   4.190
10142SOL     OW31324   6.228   6.690   4.636
10142SOL    HW131325   6.164   6.674   4.711
10142SOL    HW231326   6.322   6.684   4.671
10143SOL     OW31327   4.686   0.846   0.680
10143SOL    HW131328   4.614   0.865   0.747
10143SOL    HW231329   4.648   0.851   0.588
10144SOL     OW31330   4.442   6.947   6.312
10144SOL    HW131331   4.471   6.974   6.221
10144SOL    HW231332   4.513   6.970   6.378
10145SOL     OW31333   3.771   5.527   6.301
10145SOL    HW131334   3.814   5.577   6.226
10145SOL    HW231335   3.673   5.519   6.284
10146SOL     OW31336   3.947   4.888   5.132
10146SOL    HW131337   3.886   4.887   5.053
10146SOL    HW231338   4.034   4.929   5.107
10147SOL     OW31339   4.971   4.509   5.116
10147SOL    HW131340   5.013   4.461   5.193
10147SOL    HW231341   4.899   4.569   5.150
10148SOL     OW31342   5.985   5.277   6.717
10148SOL    HW131343   5.982   5.374   6.742
10148SOL    HW231344   5.895   5.248   6.684
10149SOL     OW31345   5.548   1.624   1.030
10149SOL    HW131346   5.504   1.546   1.076
10149SOL    HW231347   5.512   1.709   1.067
10150SOL     OW31348   4.338   3.800   0.665
10150SOL    HW131349   4.412   3.783   0.599
10150SOL    HW231350   4.307   3.714   0.704
10151SOL     OW31351   0.891   6.634   0.051
10151SOL    HW131352   0.813   6.696   0.045
10151SOL    HW231353   0.895   6.577   6.990
10152SOL     OW31354   0.777   6.568   4.734
10152SOL    HW131355   0.694   6.620   4.755
10152SOL    HW231356   0.853   6.632   4.721
10153SOL     OW31357   4.927   5.962   3.839
10153SOL    HW131358   5.004   6.020   3.865
10153SOL    HW231359   4.918   5.960   3.739
10154SOL     OW31360   5.885   7.018   4.714
10154SOL    HW131361   5.936   0.055   4.777
10154SOL    HW231362   5.915   0.015   4.620
10155SOL     OW31363   3.597   1.893   5.664
10155SOL    HW131364   3.505   1.932   5.671
10155SOL    HW231365   3.616   1.871   5.568
10156SOL     OW31366   6.430   0.854   2.400
10156SOL    HW131367   6.439   0.808   2.488
10156SOL    HW231368   6.511   0.910   2.383
10157SOL     OW31369   6.320   3.395   6.018
10157SOL    HW131370   6.343   3.298   6.016
10157SOL    HW231371   6.381   3.442   6.083
10158SOL     OW31372   5.399   3.482   0.464
10158SOL    HW131373   5.404   3.407   0.530
10158SOL    HW231374   5.313   3.476   0.413
10159SOL     OW31375   3.173   3.499   6.099
10159SOL    HW131376   3.199   3.415   6.147
10159SOL    HW231377   3.078   3.493   6.070
10160SOL     OW31378   2.075   3.198   2.374
10160SOL    HW131379   2.004   3.136   2.342
10160SOL    HW231380   2.079   3.278   2.315
10161SOL     OW31381   3.482   3.447   6.634
10161SOL    HW131382   3.517   3.541   6.640
10161SOL    HW231383   3.412   3.433   6.704
10162SOL     OW31384   3.366   4.901   0.470
10162SOL    HW131385   3.266   4.904   0.473
10162SOL    HW231386   3.398   4.820   0.520
10163SOL     OW31387   5.622   5.458   6.261
10163SOL    HW131388   5.549   5.478   6.195
10163SOL    HW231389   5.710   5.455   6.213
10164SOL     OW31390   5.610   3.167   4.907
10164SOL    HW131391   5.566   3.256   4.895
10164SOL    HW231392   5.623   3.150   5.005
10165SOL     OW31393   0.484   1.711   3.380
10165SOL    HW131394   0.387   1.731   3.367
10165SOL    HW231395   0.535   1.797   3.388
10166SOL     OW31396   3.794   1.245   2.086
10166SOL    HW131397   3.811   1.330   2.037
10166SOL    HW231398   3.696   1.235   2.104
10167SOL     OW31399   3.379   2.634   6.277
10167SOL    HW131400   3.379   2.727   6.241
10167SOL    HW231401   3.326   2.574   6.216
10168SOL     OW31402   6.103   4.160   5.394
10168SOL    HW131403   6.021   4.103   5.389
10168SOL    HW231404   6.159   4.145   5.312
10169SOL     OW31405   6.213   3.891   3.343
10169SOL    HW131406   6.221   3.962   3.413
10169SOL    HW231407   6.120   3.892   3.305
10170SOL     OW31408   1.489   4.773   5.679
10170SOL    HW131409   1.400   4.805   5.647
10170SOL    HW231410   1.499   4.793   5.776
10171SOL     OW31411   6.297   3.263   5.628
10171SOL    HW131412   6.336   3.315   5.552
10171SOL    HW231413   6.369   3.239   5.692
10172SOL     OW31414   6.466   6.717   4.729
10172SOL    HW131415   6.559   6.703   4.696
10172SOL    HW231416   6.469   6.745   4.825
10173SOL     OW31417   1.000   2.330   1.089
10173SOL    HW131418   0.985   2.411   1.145
10173SOL    HW231419   0.926   2.320   1.023
10174SOL     OW31420   5.422   5.116   2.066
10174SOL    HW131421   5.391   5.060   2.143
10174SOL    HW231422   5.365   5.097   1.986
10175SOL     OW31423   6.515   2.359   3.651
10175SOL    HW131424   6.554   2.439   3.604
10175SOL    HW231425   6.496   2.383   3.746
10176SOL     OW31426   1.475   3.055   5.630
10176SOL    HW131427   1.463   2.974   5.572
10176SOL    HW231428   1.569   3.057   5.664
10177SOL     OW31429   2.143   0.760   0.279
10177SOL    HW131430   2.224   0.707   0.304
10177SOL    HW231431   2.066   0.733   0.336
10178SOL     OW31432   0.205   1.747   5.115
10178SOL    HW131433   0.135   1.732   5.046
10178SOL    HW231434   0.218   1.664   5.169
10179SOL     OW31435   1.070   1.980   6.072
10179SOL    HW131436   0.974   2.008   6.085
10179SOL    HW231437   1.097   1.920   6.147
10180SOL     OW31438   3.893   0.575   6.914
10180SOL    HW131439   3.870   0.664   6.952
10180SOL    HW231440   3.923   0.514   6.988
10181SOL     OW31441   5.252   2.881   2.247
10181SOL    HW131442   5.319   2.908   2.177
10181SOL    HW231443   5.160   2.884   2.208
10182SOL     OW31444   5.487   1.076   1.914
10182SOL    HW131445   5.450   1.152   1.967
10182SOL    HW231446   5.455   1.082   1.820
10183SOL     OW31447   0.229   2.439   6.433
10183SOL    HW131448   0.259   2.430   6.528
10183SOL    HW231449   0.180   2.525   6.422
10184SOL     OW31450   3.743   1.267   7.017
10184SOL    HW131451   3.840   1.258   6.993
10184SOL    HW231452   3.704   1.176   0.009
10185SOL     OW31453   5.342   5.749   1.842
10185SOL    HW131454   5.245   5.767   1.826
10185SOL    HW231455   5.390   5.744   1.755
10186SOL     OW31456   6.251   3.635   3.384
10186SOL    HW131457   6.348   3.615   3.400
10186SOL    HW231458   6.241   3.733   3.363
10187SOL     OW31459   0.921   3.218   0.908
10187SOL    HW131460   0.906   3.299   0.964
10187SOL    HW231461   0.932   3.138   0.968
10188SOL     OW31462   3.451   5.682   0.614
10188SOL    HW131463   3.496   5.764   0.580
10188SOL    HW231464   3.494   5.654   0.701
10189SOL     OW31465   1.068   0.639   6.282
10189SOL    HW131466   1.117   0.722   6.308
10189SOL    HW231467   1.019   0.603   6.361
10190SOL     OW31468   5.123   3.057   1.835
10190SOL    HW131469   5.055   3.060   1.908
10190SOL    HW231470   5.117   2.969   1.788
10191SOL     OW31471   5.205   5.153   5.715
10191SOL    HW131472   5.246   5.134   5.626
10191SOL    HW231473   5.148   5.076   5.743
10192SOL     OW31474   4.502   1.811   6.006
10192SOL    HW131475   4.407   1.782   5.991
10192SOL    HW231476   4.542   1.755   6.079
10193SOL     OW31477   4.141   3.627   2.019
10193SOL    HW131478   4.058   3.610   1.966
10193SOL    HW231479   4.115   3.649   2.114
10194SOL     OW31480   6.058   5.030   4.760
10194SOL    HW131481   6.081   5.120   4.797
10194SOL    HW231482   6.130   5.000   4.698
10195SOL     OW31483   6.243   5.276   1.398
10195SOL    HW131484   6.146   5.259   1.379
10195SOL    HW231485   6.299   5.226   1.333
10196SOL     OW31486   4.186   1.556   3.937
10196SOL    HW131487   4.096   1.516   3.955
10196SOL    HW231488   4.175   1.646   3.894
10197SOL     OW31489   6.694   2.205   5.128
10197SOL    HW131490   6.748   2.258   5.063
10197SOL    HW231491   6.598   2.205   5.099
10198SOL     OW31492   3.245   0.616   1.513
10198SOL    HW131493   3.292   0.531   1.487
10198SOL    HW231494   3.163   0.627   1.457
10199SOL     OW31495   2.438   2.454   6.508
10199SOL    HW131496   2.476   2.468   6.599
10199SOL    HW231497   2.492   2.385   6.460
10200SOL     OW31498   5.208   1.508   0.529
10200SOL    HW131499   5.185   1.547   0.618
10200SOL    HW231500   5.150   1.427   0.513
10201SOL     OW31501   1.297   4.580   0.669
10201SOL    HW131502   1.391   4.552   0.687
10201SOL    HW231503   1.234   4.510   0.701
10202SOL     OW31504   3.946   3.121   0.342
10202SOL    HW131505   3.974   3.212   0.371
10202SOL    HW231506   4.001   3.094   0.263
10203SOL     OW31507   6.333   2.759   3.794
10203SOL    HW131508   6.260   2.693   3.811
10203SOL    HW231509   6.326   2.793   3.700
10204SOL     OW31510   4.893   6.545   6.951
10204SOL    HW131511   4.947   6.628   6.940
10204SOL    HW231512   4.833   6.554   0.010
10205SOL     OW31513   2.164   1.023   1.421
10205SOL    HW131514   2.244   0.986   1.373
10205SOL    HW231515   2.090   0.955   1.419
10206SOL     OW31516   0.344   0.918   0.041
10206SOL    HW131517   0.390   0.845   0.091
10206SOL    HW231518   0.344   0.897   6.964
10207SOL     OW31519   1.574   1.934   0.016
10207SOL    HW131520   1.672   1.915   0.022
10207SOL    HW231521   1.558   2.032   0.025
10208SOL     OW31522   5.536   4.592   3.930
10208SOL    HW131523   5.612   4.594   3.995
10208SOL    HW231524   5.450   4.599   3.980
10209SOL     OW31525   6.649   6.980   6.128
10209SOL    HW131526   6.686   0.018   6.056
10209SOL    HW231527   6.683   6.887   6.116
10210SOL     OW31528   4.819   6.773   2.216
10210SOL    HW131529   4.830   6.794   2.119
10210SOL    HW231530   4.848   6.851   2.272
10211SOL     OW31531   3.990   6.366   4.231
10211SOL    HW131532   4.089   6.367   4.224
10211SOL    HW231533   3.953   6.446   4.183
10212SOL     OW31534   1.070   0.205   5.666
10212SOL    HW131535   1.112   0.154   5.592
10212SOL    HW231536   1.048   0.144   5.742
10213SOL     OW31537   4.577   2.760   1.317
10213SOL    HW131538   4.524   2.809   1.386
10213SOL    HW231539   4.563   2.662   1.329
10214SOL     OW31540   1.352   1.291   1.963
10214SOL    HW131541   1.319   1.363   2.024
10214SOL    HW231542   1.322   1.202   1.998
10215SOL     OW31543   3.728   2.940   3.354
10215SOL    HW131544   3.656   2.872   3.366
10215SOL    HW231545   3.783   2.946   3.437
10216SOL     OW31546   6.757   0.675   0.718
10216SOL    HW131547   6.857   0.680   0.714
10216SOL    HW231548   6.722   0.753   0.770
10217SOL     OW31549   2.697   1.240   3.154
10217SOL    HW131550   2.714   1.190   3.070
10217SOL    HW231551   2.774   1.228   3.217
10218SOL     OW31552   1.021   1.750   1.989
10218SOL    HW131553   0.952   1.823   1.987
10218SOL    HW231554   1.109   1.788   1.958
10219SOL     OW31555   0.138   2.205   2.942
10219SOL    HW131556   0.159   2.115   2.981
10219SOL    HW231557   0.048   2.235   2.976
10220SOL     OW31558   4.227   2.422   1.355
10220SOL    HW131559   4.313   2.472   1.370
10220SOL    HW231560   4.153   2.469   1.403
10221SOL     OW31561   0.434   5.768   2.962
10221SOL    HW131562   0.500   5.809   2.899
10221SOL    HW231563   0.454   5.798   3.055
10222SOL     OW31564   3.010   3.088   5.581
10222SOL    HW131565   2.939   3.018   5.589
10222SOL    HW231566   2.980   3.159   5.518
10223SOL     OW31567   0.766   4.456   1.350
10223SOL    HW131568   0.802   4.492   1.436
10223SOL    HW231569   0.820   4.493   1.274
10224SOL     OW31570   6.656   2.847   3.878
10224SOL    HW131571   6.579   2.855   3.942
10224SOL    HW231572   6.636   2.898   3.795
10225SOL     OW31573   1.766   4.881   5.966
10225SOL    HW131574   1.771   4.951   5.894
10225SOL    HW231575   1.672   4.846   5.971
10226SOL     OW31576   3.155   0.966   6.871
10226SOL    HW131577   3.194   0.909   6.944
10226SOL    HW231578   3.121   1.052   6.910
10227SOL     OW31579   5.319   4.039   0.104
10227SOL    HW131580   5.228   4.042   0.146
10227SOL    HW231581   5.331   4.118   0.044
10228SOL     OW31582   6.701   0.093   1.155
10228SOL    HW131583   6.614   0.141   1.166
10228SOL    HW231584   6.688   0.016   1.093
10229SOL     OW31585   1.223   2.597   4.798
10229SOL    HW131586   1.124   2.595   4.785
10229SOL    HW231587   1.263   2.666   4.737
10230SOL     OW31588   6.037   5.659   2.781
10230SOL    HW131589   6.008   5.590   2.848
10230SOL    HW231590   5.962   5.723   2.764
10231SOL     OW31591   0.980   5.392   4.750
10231SOL    HW131592   1.077   5.399   4.772
10231SOL    HW231593   0.933   5.345   4.825
10232SOL     OW31594   2.795   1.126   3.641
10232SOL    HW131595   2.789   1.060   3.566
10232SOL    HW231596   2.741   1.093   3.719
10233SOL     OW31597   4.059   3.535   4.910
10233SOL    HW131598   4.033   3.622   4.867
10233SOL    HW231599   3.987   3.468   4.896
10234SOL     OW31600   6.267   0.498   1.190
10234SOL    HW131601   6.318   0.551   1.122
10234SOL    HW231602   6.189   0.454   1.146
10235SOL     OW31603   1.847   2.122   1.959
10235SOL    HW131604   1.804   2.162   2.040
10235SOL    HW231605   1.796   2.149   1.877
10236SOL     OW31606   2.310   6.533   0.627
10236SOL    HW131607   2.264   6.477   0.696
10236SOL    HW231608   2.300   6.630   0.651
10237SOL     OW31609   6.790   3.254   0.413
10237SOL    HW131610   6.861   3.209   0.359
10237SOL    HW231611   6.718   3.286   0.352
10238SOL     OW31612   4.338   4.333   1.429
10238SOL    HW131613   4.332   4.285   1.516
10238SOL    HW231614   4.419   4.392   1.429
10239SOL     OW31615   1.197   2.844   5.224
10239SOL    HW131616   1.252   2.815   5.146
10239SOL    HW231617   1.100   2.842   5.199
10240SOL     OW31618   2.861   5.958   2.567
10240SOL    HW131619   2.934   5.890   2.558
10240SOL    HW231620   2.874   6.009   2.652
10241SOL     OW31621   5.846   1.025   2.339
10241SOL    HW131622   5.879   1.109   2.296
10241SOL    HW231623   5.750   1.035   2.363
10242SOL     OW31624   6.445   1.360   0.576
10242SOL    HW131625   6.532   1.335   0.535
10242SOL    HW231626   6.401   1.278   0.613
10243SOL     OW31627   2.697   4.335   1.457
10243SOL    HW131628   2.770   4.321   1.524
10243SOL    HW231629   2.677   4.433   1.450
10244SOL     OW31630   2.364   4.191   0.840
10244SOL    HW131631   2.458   4.197   0.872
10244SOL    HW231632   2.302   4.179   0.918
10245SOL     OW31633   3.589   4.386   1.002
10245SOL    HW131634   3.679   4.399   0.960
10245SOL    HW231635   3.597   4.392   1.101
10246SOL     OW31636   3.241   3.997   4.452
10246SOL    HW131637   3.181   3.956   4.521
10246SOL    HW231638   3.277   4.084   4.486
10247SOL     OW31639   0.274   3.935   6.129
10247SOL    HW131640   0.373   3.947   6.132
10247SOL    HW231641   0.252   3.838   6.145
10248SOL     OW31642   0.912   0.613   3.036
10248SOL    HW131643   0.877   0.608   3.129
10248SOL    HW231644   1.006   0.647   3.038
10249SOL     OW31645   2.904   5.317   6.426
10249SOL    HW131646   2.993   5.319   6.381
10249SOL    HW231647   2.853   5.236   6.396
10250SOL     OW31648   6.836   3.752   0.798
10250SOL    HW131649   6.864   3.847   0.806
10250SOL    HW231650   6.851   3.720   0.704
10251SOL     OW31651   1.950   1.383   4.091
10251SOL    HW131652   1.928   1.462   4.034
10251SOL    HW231653   1.877   1.315   4.085
10252SOL     OW31654   4.523   3.523   5.900
10252SOL    HW131655   4.434   3.537   5.856
10252SOL    HW231656   4.588   3.490   5.831
10253SOL     OW31657   3.022   6.123   0.831
10253SOL    HW131658   2.923   6.131   0.828
10253SOL    HW231659   3.060   6.137   0.740
10254SOL     OW31660   4.447   1.752   5.514
10254SOL    HW131661   4.395   1.807   5.448
10254SOL    HW231662   4.498   1.812   5.575
10255SOL     OW31663   2.286   6.786   0.966
10255SOL    HW131664   2.266   6.870   1.016
10255SOL    HW231665   2.385   6.769   0.967
10256SOL     OW31666   4.528   0.803   2.169
10256SOL    HW131667   4.504   0.842   2.080
10256SOL    HW231668   4.522   0.703   2.164
10257SOL     OW31669   1.366   5.469   4.388
10257SOL    HW131670   1.380   5.568   4.383
10257SOL    HW231671   1.270   5.449   4.406
10258SOL     OW31672   3.828   1.845   3.607
10258SOL    HW131673   3.809   1.851   3.705
10258SOL    HW231674   3.794   1.926   3.561
10259SOL     OW31675   1.081   4.275   3.264
10259SOL    HW131676   1.046   4.267   3.171
10259SOL    HW231677   1.119   4.367   3.278
10260SOL     OW31678   0.413   1.326   3.765
10260SOL    HW131679   0.426   1.415   3.722
10260SOL    HW231680   0.449   1.254   3.705
10261SOL     OW31681   6.326   4.893   0.546
10261SOL    HW131682   6.299   4.807   0.589
10261SOL    HW231683   6.363   4.875   0.455
10262SOL     OW31684   3.204   6.785   6.606
10262SOL    HW131685   3.291   6.816   6.643
10262SOL    HW231686   3.220   6.716   6.535
10263SOL     OW31687   5.847   0.224   0.425
10263SOL    HW131688   5.818   0.320   0.433
10263SOL    HW231689   5.767   0.164   0.433
10264SOL     OW31690   6.536   5.350   6.843
10264SOL    HW131691   6.581   5.273   6.890
10264SOL    HW231692   6.447   5.320   6.809
10265SOL     OW31693   3.565   2.534   6.826
10265SOL    HW131694   3.618   2.468   6.773
10265SOL    HW231695   3.620   2.567   6.903
10266SOL     OW31696   4.007   3.032   2.723
10266SOL    HW131697   3.990   3.047   2.626
10266SOL    HW231698   4.089   2.975   2.733
10267SOL     OW31699   5.231   0.919   0.841
10267SOL    HW131700   5.315   0.896   0.890
10267SOL    HW231701   5.240   1.009   0.800
10268SOL     OW31702   5.515   6.494   2.270
10268SOL    HW131703   5.588   6.487   2.203
10268SOL    HW231704   5.500   6.591   2.292
10269SOL     OW31705   1.454   2.262   6.204
10269SOL    HW131706   1.515   2.336   6.232
10269SOL    HW231707   1.503   2.175   6.209
10270SOL     OW31708   3.152   5.665   3.227
10270SOL    HW131709   3.095   5.625   3.156
10270SOL    HW231710   3.213   5.596   3.264
10271SOL     OW31711   2.988   2.811   0.023
10271SOL    HW131712   2.958   2.724   0.061
10271SOL    HW231713   2.988   2.805   6.944
10272SOL     OW31714   1.319   0.594   4.223
10272SOL    HW131715   1.294   0.574   4.318
10272SOL    HW231716   1.376   0.676   4.219
10273SOL     OW31717   3.080   5.169   4.332
10273SOL    HW131718   3.105   5.196   4.425
10273SOL    HW231719   3.155   5.118   4.291
10274SOL     OW31720   1.384   4.511   5.853
10274SOL    HW131721   1.439   4.437   5.892
10274SOL    HW231722   1.443   4.573   5.802
10275SOL     OW31723   0.175   0.656   1.961
10275SOL    HW131724   0.222   0.572   1.987
10275SOL    HW231725   0.215   0.692   1.877
10276SOL     OW31726   4.628   5.816   6.002
10276SOL    HW131727   4.592   5.725   6.024
10276SOL    HW231728   4.601   5.840   5.909
10277SOL     OW31729   1.166   6.486   4.689
10277SOL    HW131730   1.096   6.551   4.661
10277SOL    HW231731   1.123   6.410   4.738
10278SOL     OW31732   0.995   1.072   3.895
10278SOL    HW131733   0.946   1.130   3.830
10278SOL    HW231734   0.982   1.107   3.988
10279SOL     OW31735   1.961   5.210   4.029
10279SOL    HW131736   2.037   5.177   3.973
10279SOL    HW231737   1.977   5.184   4.125
10280SOL     OW31738   6.055   3.044   0.047
10280SOL    HW131739   6.031   3.098   0.128
10280SOL    HW231740   6.131   3.088   7.020
10281SOL     OW31741   6.657   1.981   3.721
10281SOL    HW131742   6.750   1.988   3.754
10281SOL    HW231743   6.635   2.060   3.664
10282SOL     OW31744   5.338   3.157   3.760
10282SOL    HW131745   5.294   3.215   3.691
10282SOL    HW231746   5.386   3.214   3.826
10283SOL     OW31747   1.399   3.304   0.789
10283SOL    HW131748   1.496   3.316   0.808
10283SOL    HW231749   1.387   3.252   0.704
10284SOL     OW31750   6.257   1.837   4.956
10284SOL    HW131751   6.230   1.752   5.001
10284SOL    HW231752   6.326   1.883   5.011
10285SOL     OW31753   4.188   6.306   3.107
10285SOL    HW131754   4.200   6.374   3.035
10285SOL    HW231755   4.252   6.323   3.182
10286SOL     OW31756   3.284   0.792   4.192
10286SOL    HW131757   3.273   0.807   4.094
10286SOL    HW231758   3.307   0.878   4.237
10287SOL     OW31759   2.319   5.407   2.149
10287SOL    HW131760   2.357   5.443   2.234
10287SOL    HW231761   2.393   5.386   2.085
10288SOL     OW31762   4.044   0.029   4.028
10288SOL    HW131763   3.958   0.015   4.077
10288SOL    HW231764   4.069   6.965   3.980
10289SOL     OW31765   3.032   6.380   0.416
10289SOL    HW131766   2.942   6.373   0.459
10289SOL    HW231767   3.039   6.311   0.344
10290SOL     OW31768   3.089   3.092   2.520
10290SOL    HW131769   3.024   3.167   2.535
10290SOL    HW231770   3.147   3.114   2.442
10291SOL     OW31771   3.683   1.770   3.335
10291SOL    HW131772   3.622   1.691   3.326
10291SOL    HW231773   3.746   1.756   3.411
10292SOL     OW31774   1.225   1.766   5.797
10292SOL    HW131775   1.311   1.812   5.818
10292SOL    HW231776   1.149   1.829   5.810
10293SOL     OW31777   0.848   3.342   3.684
10293SOL    HW131778   0.784   3.368   3.612
10293SOL    HW231779   0.812   3.262   3.733
10294SOL     OW31780   4.373   1.500   2.916
10294SOL    HW131781   4.450   1.470   2.859
10294SOL    HW231782   4.292   1.512   2.858
10295SOL     OW31783   1.165   2.751   5.494
10295SOL    HW131784   1.193   2.769   5.399
10295SOL    HW231785   1.121   2.833   5.531
10296SOL     OW31786   5.831   2.048   5.882
10296SOL    HW131787   5.896   2.111   5.840
10296SOL    HW231788   5.738   2.069   5.852
10297SOL     OW31789   2.498   1.424   6.568
10297SOL    HW131790   2.542   1.488   6.505
10297SOL    HW231791   2.439   1.474   6.631
10298SOL     OW31792   1.739   4.552   1.071
10298SOL    HW131793   1.746   4.469   1.016
10298SOL    HW231794   1.651   4.554   1.118
10299SOL     OW31795   3.715   5.327   2.956
10299SOL    HW131796   3.621   5.361   2.956
10299SOL    HW231797   3.730   5.269   2.876
10300SOL     OW31798   1.562   4.314   2.057
10300SOL    HW131799   1.478   4.263   2.076
10300SOL    HW231800   1.609   4.335   2.143
10301SOL     OW31801   4.259   1.925   5.382
10301SOL    HW131802   4.171   1.898   5.344
10301SOL    HW231803   4.250   1.939   5.480
10302SOL     OW31804   2.184   5.783   4.986
10302SOL    HW131805   2.187   5.853   4.915
10302SOL    HW231806   2.222   5.820   5.071
10303SOL     OW31807   0.917   5.619   3.538
10303SOL    HW131808   0.831   5.631   3.488
10303SOL    HW231809   0.992   5.656   3.484
10304SOL     OW31810   5.575   0.249   1.223
10304SOL    HW131811   5.673   0.235   1.239
10304SOL    HW231812   5.530   0.269   1.310
10305SOL     OW31813   1.891   4.253   5.673
10305SOL    HW131814   1.934   4.167   5.701
10305SOL    HW231815   1.825   4.234   5.599
10306SOL     OW31816   5.466   5.972   0.274
10306SOL    HW131817   5.518   6.003   0.194
10306SOL    HW231818   5.505   5.886   0.308
10307SOL     OW31819   2.988   1.608   4.957
10307SOL    HW131820   3.010   1.706   4.947
10307SOL    HW231821   3.015   1.560   4.874
10308SOL     OW31822   1.871   4.028   1.937
10308SOL    HW131823   1.778   3.996   1.917
10308SOL    HW231824   1.922   3.956   1.983
10309SOL     OW31825   6.810   1.522   6.970
10309SOL    HW131826   6.722   1.535   6.925
10309SOL    HW231827   6.834   1.605   0.000
10310SOL     OW31828   2.753   3.901   0.431
10310SOL    HW131829   2.759   3.918   0.530
10310SOL    HW231830   2.826   3.950   0.384
10311SOL     OW31831   6.441   5.647   0.170
10311SOL    HW131832   6.452   5.642   0.070
10311SOL    HW231833   6.398   5.734   0.194
10312SOL     OW31834   4.822   6.499   2.312
10312SOL    HW131835   4.782   6.535   2.396
10312SOL    HW231836   4.749   6.474   2.248
10313SOL     OW31837   3.466   5.824   2.042
10313SOL    HW131838   3.408   5.900   2.070
10313SOL    HW231839   3.511   5.847   1.955
10314SOL     OW31840   6.774   0.261   0.021
10314SOL    HW131841   6.675   0.271   0.012
10314SOL    HW231842   6.798   0.255   0.118
10315SOL     OW31843   5.932   6.153   4.273
10315SOL    HW131844   5.939   6.061   4.311
10315SOL    HW231845   6.009   6.208   4.306
10316SOL     OW31846   6.795   2.926   5.996
10316SOL    HW131847   6.759   2.836   6.019
10316SOL    HW231848   6.852   2.959   6.071
10317SOL     OW31849   3.832   6.511   6.462
10317SOL    HW131850   3.844   6.431   6.520
10317SOL    HW231851   3.909   6.574   6.475
10318SOL     OW31852   4.816   0.916   6.216
10318SOL    HW131853   4.844   0.846   6.281
10318SOL    HW231854   4.820   1.006   6.260
10319SOL     OW31855   0.859   3.601   5.687
10319SOL    HW131856   0.846   3.653   5.772
10319SOL    HW231857   0.789   3.530   5.681
10320SOL     OW31858   0.585   6.388   2.564
10320SOL    HW131859   0.647   6.437   2.625
10320SOL    HW231860   0.567   6.443   2.483
10321SOL     OW31861   5.810   1.962   1.850
10321SOL    HW131862   5.789   1.885   1.910
10321SOL    HW231863   5.869   1.931   1.775
10322SOL     OW31864   4.634   4.860   4.625
10322SOL    HW131865   4.723   4.888   4.592
10322SOL    HW231866   4.573   4.939   4.628
10323SOL     OW31867   5.874   4.876   5.471
10323SOL    HW131868   5.844   4.821   5.393
10323SOL    HW231869   5.960   4.838   5.507
10324SOL     OW31870   3.904   2.922   1.955
10324SOL    HW131871   3.905   2.852   1.884
10324SOL    HW231872   3.988   2.976   1.950
10325SOL     OW31873   6.443   4.404   2.318
10325SOL    HW131874   6.408   4.320   2.277
10325SOL    HW231875   6.400   4.483   2.275
10326SOL     OW31876   5.267   4.601   6.564
10326SOL    HW131877   5.203   4.670   6.529
10326SOL    HW231878   5.360   4.628   6.540
10327SOL     OW31879   2.292   2.762   1.419
10327SOL    HW131880   2.250   2.841   1.375
10327SOL    HW231881   2.386   2.783   1.445
10328SOL     OW31882   6.338   2.896   0.401
10328SOL    HW131883   6.423   2.846   0.389
10328SOL    HW231884   6.280   2.884   0.320
10329SOL     OW31885   2.512   0.843   3.602
10329SOL    HW131886   2.525   0.881   3.511
10329SOL    HW231887   2.519   0.744   3.599
10330SOL     OW31888   4.292   1.074   2.116
10330SOL    HW131889   4.215   1.031   2.164
10330SOL    HW231890   4.343   1.005   2.065
10331SOL     OW31891   6.693   6.258   5.942
10331SOL    HW131892   6.658   6.271   5.849
10331SOL    HW231893   6.756   6.180   5.944
10332SOL     OW31894   0.047   0.102   0.127
10332SOL    HW131895   7.012   0.146   0.197
10332SOL    HW231896   0.119   0.049   0.171
10333SOL     OW31897   1.064   4.670   4.803
10333SOL    HW131898   1.123   4.750   4.807
10333SOL    HW231899   1.115   4.591   4.769
10334SOL     OW31900   3.606   0.895   4.665
10334SOL    HW131901   3.675   0.824   4.673
10334SOL    HW231902   3.517   0.859   4.694
10335SOL     OW31903   2.188   4.205   0.303
10335SOL    HW131904   2.126   4.205   0.381
10335SOL    HW231905   2.140   4.239   0.222
10336SOL     OW31906   5.972   0.069   1.513
10336SOL    HW131907   6.002   7.002   1.549
10336SOL    HW231908   6.046   0.111   1.460
10337SOL     OW31909   0.622   6.290   6.432
10337SOL    HW131910   0.607   6.261   6.337
10337SOL    HW231911   0.605   6.389   6.439
10338SOL     OW31912   1.516   6.621   2.526
10338SOL    HW131913   1.476   6.710   2.550
10338SOL    HW231914   1.506   6.606   2.428
10339SOL     OW31915   5.476   3.578   5.874
10339SOL    HW131916   5.479   3.628   5.787
10339SOL    HW231917   5.386   3.590   5.915
10340SOL     OW31918   1.589   3.630   0.214
10340SOL    HW131919   1.572   3.534   0.192
10340SOL    HW231920   1.674   3.638   0.267
10341SOL     OW31921   2.127   3.428   2.210
10341SOL    HW131922   2.183   3.469   2.138
10341SOL    HW231923   2.087   3.500   2.266
10342SOL     OW31924   2.069   6.867   4.456
10342SOL    HW131925   2.012   6.794   4.417
10342SOL    HW231926   2.030   6.897   4.543
10343SOL     OW31927   3.167   4.916   6.788
10343SOL    HW131928   3.150   5.006   6.747
10343SOL    HW231929   3.256   4.915   6.833
10344SOL     OW31930   4.338   3.195   0.716
10344SOL    HW131931   4.273   3.219   0.644
10344SOL    HW231932   4.418   3.255   0.711
10345SOL     OW31933   1.823   1.987   6.764
10345SOL    HW131934   1.732   2.018   6.739
10345SOL    HW231935   1.815   1.910   6.829
10346SOL     OW31936   0.364   5.456   1.480
10346SOL    HW131937   0.288   5.496   1.428
10346SOL    HW231938   0.329   5.415   1.564
10347SOL     OW31939   3.811   1.054   3.144
10347SOL    HW131940   3.909   1.071   3.134
10347SOL    HW231941   3.790   0.960   3.118
10348SOL     OW31942   6.758   2.682   0.183
10348SOL    HW131943   6.674   2.693   0.236
10348SOL    HW231944   6.823   2.626   0.235
10349SOL     OW31945   1.632   0.735   0.381
10349SOL    HW131946   1.585   0.663   0.330
10349SOL    HW231947   1.566   0.787   0.435
10350SOL     OW31948   2.702   5.207   5.358
10350SOL    HW131949   2.732   5.214   5.453
10350SOL    HW231950   2.636   5.279   5.338
10351SOL     OW31951   4.690   4.929   6.833
10351SOL    HW131952   4.667   5.026   6.842
10351SOL    HW231953   4.606   4.875   6.831
10352SOL     OW31954   3.588   1.120   6.461
10352SOL    HW131955   3.659   1.109   6.530
10352SOL    HW231956   3.553   1.031   6.433
10353SOL     OW31957   6.588   3.317   4.802
10353SOL    HW131958   6.593   3.375   4.883
10353SOL    HW231959   6.527   3.240   4.820
10354SOL     OW31960   5.770   2.079   2.267
10354SOL    HW131961   5.700   2.023   2.223
10354SOL    HW231962   5.858   2.064   2.222
10355SOL     OW31963   2.464   6.739   1.727
10355SOL    HW131964   2.549   6.713   1.772
10355SOL    HW231965   2.461   6.699   1.635
10356SOL     OW31966   0.250   5.039   5.221
10356SOL    HW131967   0.335   5.087   5.202
10356SOL    HW231968   0.269   4.947   5.254
10357SOL     OW31969   2.073   2.703   6.253
10357SOL    HW131970   2.167   2.676   6.276
10357SOL    HW231971   2.072   2.798   6.222
10358SOL     OW31972   0.189   2.642   3.836
10358SOL    HW131973   0.276   2.619   3.793
10358SOL    HW231974   0.138   2.558   3.854
10359SOL     OW31975   0.699   2.138   1.229
10359SOL    HW131976   0.789   2.156   1.189
10359SOL    HW231977   0.628   2.175   1.169
10360SOL     OW31978   4.623   4.706   3.049
10360SOL    HW131979   4.632   4.730   2.952
10360SOL    HW231980   4.568   4.775   3.095
10361SOL     OW31981   2.398   6.404   2.886
10361SOL    HW131982   2.442   6.367   2.803
10361SOL    HW231983   2.412   6.340   2.962
10362SOL     OW31984   1.674   4.821   5.074
10362SOL    HW131985   1.697   4.898   5.133
10362SOL    HW231986   1.711   4.838   4.982
10363SOL     OW31987   4.809   0.713   2.685
10363SOL    HW131988   4.815   0.754   2.593
10363SOL    HW231989   4.897   0.723   2.731
10364SOL     OW31990   3.193   3.193   1.701
10364SOL    HW131991   3.280   3.204   1.750
10364SOL    HW231992   3.133   3.132   1.752
10365SOL     OW31993   3.829   5.054   6.868
10365SOL    HW131994   3.914   5.106   6.872
10365SOL    HW231995   3.762   5.094   6.929
10366SOL     OW31996   2.597   0.302   4.162
10366SOL    HW131997   2.650   0.249   4.228
10366SOL    HW231998   2.658   0.364   4.112
10367SOL     OW31999   5.571   2.705   2.397
10367SOL    HW132000   5.586   2.687   2.494
10367SOL    HW232001   5.487   2.660   2.367
10368SOL     OW32002   2.087   1.566   1.106
10368SOL    HW132003   2.023   1.568   1.029
10368SOL    HW232004   2.179   1.583   1.072
10369SOL     OW32005   4.003   1.590   6.669
10369SOL    HW132006   3.972   1.631   6.583
10369SOL    HW232007   3.927   1.587   6.733
10370SOL     OW32008   4.785   1.487   4.681
10370SOL    HW132009   4.767   1.390   4.665
10370SOL    HW232010   4.698   1.535   4.694
10371SOL     OW32011   3.598   5.625   5.392
10371SOL    HW132012   3.692   5.612   5.422
10371SOL    HW232013   3.590   5.713   5.346
10372SOL     OW32014   1.848   1.399   5.569
10372SOL    HW132015   1.910   1.467   5.609
10372SOL    HW232016   1.811   1.435   5.483
10373SOL     OW32017   1.994   6.438   4.867
10373SOL    HW132018   1.932   6.394   4.932
10373SOL    HW232019   2.060   6.493   4.917
10374SOL     OW32020   3.127   1.601   3.063
10374SOL    HW132021   3.107   1.508   3.034
10374SOL    HW232022   3.129   1.661   2.983
10375SOL     OW32023   4.361   1.953   6.977
10375SOL    HW132024   4.407   2.010   0.023
10375SOL    HW232025   4.350   1.860   7.013
10376SOL     OW32026   1.257   6.613   3.745
10376SOL    HW132027   1.160   6.628   3.729
10376SOL    HW232028   1.297   6.567   3.666
10377SOL     OW32029   6.123   0.721   4.036
10377SOL    HW132030   6.111   0.630   3.996
10377SOL    HW232031   6.189   0.773   3.982
10378SOL     OW32032   6.647   1.009   5.389
10378SOL    HW132033   6.722   1.075   5.390
10378SOL    HW232034   6.678   0.922   5.427
10379SOL     OW32035   4.609   0.409   4.894
10379SOL    HW132036   4.572   0.322   4.861
10379SOL    HW232037   4.672   0.446   4.826
10380SOL     OW32038   5.789   0.638   3.026
10380SOL    HW132039   5.860   0.690   3.074
10380SOL    HW232040   5.699   0.662   3.063
10381SOL     OW32041   4.883   5.683   5.797
10381SOL    HW132042   4.929   5.706   5.883
10381SOL    HW232043   4.947   5.696   5.721
10382SOL     OW32044   2.354   4.616   6.243
10382SOL    HW132045   2.286   4.553   6.278
10382SOL    HW232046   2.313   4.675   6.173
10383SOL     OW32047   0.570   3.356   0.742
10383SOL    HW132048   0.474   3.351   0.717
10383SOL    HW232049   0.626   3.319   0.668
10384SOL     OW32050   0.435   0.087   0.677
10384SOL    HW132051   0.458   0.124   0.587
10384SOL    HW232052   0.338   0.061   0.679
10385SOL     OW32053   5.264   7.012   6.175
10385SOL    HW132054   5.217   6.977   6.094
10385SOL    HW232055   5.294   0.085   6.158
10386SOL     OW32056   6.942   3.753   5.191
10386SOL    HW132057   6.900   3.844   5.193
10386SOL    HW232058   6.871   3.683   5.202
10387SOL     OW32059   2.941   1.771   2.543
10387SOL    HW132060   2.922   1.824   2.626
10387SOL    HW232061   2.930   1.674   2.561
10388SOL     OW32062   0.956   5.564   3.995
10388SOL    HW132063   0.995   5.514   3.917
10388SOL    HW232064   1.026   5.623   4.035
10389SOL     OW32065   0.784   5.361   2.509
10389SOL    HW132066   0.689   5.329   2.514
10389SOL    HW232067   0.788   5.444   2.453
10390SOL     OW32068   1.439   3.859   2.438
10390SOL    HW132069   1.498   3.838   2.517
10390SOL    HW232070   1.346   3.826   2.457
10391SOL     OW32071   1.200   6.048   6.766
10391SOL    HW132072   1.279   5.989   6.750
10391SOL    HW232073   1.232   6.140   6.791
10392SOL     OW32074   6.644   3.946   0.622
10392SOL    HW132075   6.634   3.858   0.576
10392SOL    HW232076   6.729   3.990   0.593
10393SOL     OW32077   0.504   1.484   3.540
10393SOL    HW132078   0.572   1.414   3.518
10393SOL    HW232079   0.515   1.562   3.479
10394SOL     OW32080   2.316   6.929   6.580
10394SOL    HW132081   2.376   6.863   6.625
10394SOL    HW232082   2.221   6.902   6.593
10395SOL     OW32083   6.676   0.724   4.380
10395SOL    HW132084   6.594   0.681   4.343
10395SOL    HW232085   6.652   0.811   4.422
10396SOL     OW32086   1.141   0.589   3.768
10396SOL    HW132087   1.061   0.639   3.801
10396SOL    HW232088   1.120   0.549   3.679
10397SOL     OW32089   3.666   0.782   3.441
10397SOL    HW132090   3.593   0.783   3.373
10397SOL    HW232091   3.680   0.688   3.474
10398SOL     OW32092   6.403   2.669   0.607
10398SOL    HW132093   6.463   2.746   0.627
10398SOL    HW232094   6.308   2.696   0.620
10399SOL     OW32095   4.258   1.969   5.659
10399SOL    HW132096   4.273   2.067   5.646
10399SOL    HW232097   4.344   1.926   5.687
10400SOL     OW32098   2.953   5.851   3.008
10400SOL    HW132099   3.034   5.890   2.964
10400SOL    HW232100   2.970   5.755   3.030
10401SOL     OW32101   6.410   5.942   2.056
10401SOL    HW132102   6.340   5.870   2.047
10401SOL    HW232103   6.366   6.031   2.059
10402SOL     OW32104   0.144   2.733   5.517
10402SOL    HW132105   0.126   2.722   5.420
10402SOL    HW232106   0.067   2.781   5.560
10403SOL     OW32107   5.162   1.573   2.518
10403SOL    HW132108   5.247   1.560   2.570
10403SOL    HW232109   5.112   1.486   2.513
10404SOL     OW32110   1.076   6.786   4.171
10404SOL    HW132111   1.046   6.774   4.265
10404SOL    HW232112   1.168   6.748   4.159
10405SOL     OW32113   1.136   5.480   5.119
10405SOL    HW132114   1.106   5.539   5.044
10405SOL    HW232115   1.090   5.392   5.113
10406SOL     OW32116   1.759   4.677   5.358
10406SOL    HW132117   1.768   4.742   5.434
10406SOL    HW232118   1.664   4.677   5.326
10407SOL     OW32119   1.470   1.141   6.145
10407SOL    HW132120   1.442   1.213   6.082
10407SOL    HW232121   1.401   1.069   6.148
10408SOL     OW32122   4.500   4.989   3.040
10408SOL    HW132123   4.576   5.013   3.101
10408SOL    HW232124   4.528   5.001   2.945
10409SOL     OW32125   0.112   4.187   1.842
10409SOL    HW132126   0.193   4.165   1.897
10409SOL    HW232127   0.119   4.142   1.753
10410SOL     OW32128   4.932   0.899   1.240
10410SOL    HW132129   4.889   0.990   1.244
10410SOL    HW232130   5.014   0.904   1.183
10411SOL     OW32131   1.943   4.875   3.492
10411SOL    HW132132   2.008   4.902   3.422
10411SOL    HW232133   1.903   4.956   3.535
10412SOL     OW32134   0.912   2.314   6.592
10412SOL    HW132135   0.815   2.295   6.582
10412SOL    HW232136   0.950   2.255   6.664
10413SOL     OW32137   0.673   1.820   0.354
10413SOL    HW132138   0.668   1.812   0.454
10413SOL    HW232139   0.599   1.878   0.321
10414SOL     OW32140   5.173   6.374   6.613
10414SOL    HW132141   5.096   6.437   6.607
10414SOL    HW232142   5.189   6.350   6.708
10415SOL     OW32143   0.761   5.420   3.158
10415SOL    HW132144   0.851   5.408   3.201
10415SOL    HW232145   0.761   5.378   3.067
10416SOL     OW32146   6.474   2.644   5.432
10416SOL    HW132147   6.443   2.645   5.337
10416SOL    HW232148   6.564   2.601   5.436
10417SOL     OW32149   4.021   5.257   2.618
10417SOL    HW132150   4.065   5.300   2.697
10417SOL    HW232151   4.023   5.321   2.541
10418SOL     OW32152   6.942   3.914   5.600
10418SOL    HW132153   6.947   3.957   5.510
10418SOL    HW232154   6.974   3.977   5.669
10419SOL     OW32155   3.334   0.829   5.415
10419SOL    HW132156   3.382   0.884   5.347
10419SOL    HW232157   3.236   0.849   5.411
10420SOL     OW32158   6.421   3.072   2.844
10420SOL    HW132159   6.349   3.133   2.813
10420SOL    HW232160   6.498   3.126   2.877
10421SOL     OW32161   1.099   4.920   3.392
10421SOL    HW132162   1.118   4.887   3.300
10421SOL    HW232163   1.086   4.842   3.453
10422SOL     OW32164   6.802   3.846   4.807
10422SOL    HW132165   6.784   3.788   4.728
10422SOL    HW232166   6.871   3.914   4.784
10423SOL     OW32167   3.445   5.192   4.271
10423SOL    HW132168   3.545   5.183   4.278
10423SOL    HW232169   3.404   5.102   4.258
10424SOL     OW32170   4.009   1.231   6.907
10424SOL    HW132171   3.981   1.246   6.812
10424SOL    HW232172   4.061   1.146   6.914
10425SOL     OW32173   1.849   0.345   1.166
10425SOL    HW132174   1.913   0.303   1.102
10425SOL    HW232175   1.828   0.438   1.137
10426SOL     OW32176   5.068   2.874   5.415
10426SOL    HW132177   5.014   2.891   5.332
10426SOL    HW232178   5.165   2.882   5.393
10427SOL     OW32179   4.812   6.089   5.137
10427SOL    HW132180   4.722   6.059   5.168
10427SOL    HW232181   4.836   6.174   5.183
10428SOL     OW32182   1.504   1.546   3.241
10428SOL    HW132183   1.600   1.563   3.266
10428SOL    HW232184   1.453   1.520   3.323
10429SOL     OW32185   1.032   3.438   2.647
10429SOL    HW132186   1.058   3.528   2.614
10429SOL    HW232187   1.048   3.432   2.746
10430SOL     OW32188   3.744   6.610   3.709
10430SOL    HW132189   3.787   6.700   3.706
10430SOL    HW232190   3.653   6.615   3.666
10431SOL     OW32191   2.780   2.164   4.016
10431SOL    HW132192   2.771   2.078   4.066
10431SOL    HW232193   2.838   2.150   3.936
10432SOL     OW32194   6.846   6.938   5.897
10432SOL    HW132195   6.848   6.969   5.801
10432SOL    HW232196   6.932   6.963   5.941
10433SOL     OW32197   2.207   6.808   1.799
10433SOL    HW132198   2.172   6.741   1.865
10433SOL    HW232199   2.298   6.781   1.768
10434SOL     OW32200   4.938   0.515   5.868
10434SOL    HW132201   4.945   0.532   5.966
10434SOL    HW232202   5.006   0.446   5.842
10435SOL     OW32203   1.015   2.263   6.343
10435SOL    HW132204   0.945   2.198   6.314
10435SOL    HW232205   0.986   2.306   6.428
10436SOL     OW32206   0.684   4.361   4.985
10436SOL    HW132207   0.590   4.325   4.989
10436SOL    HW232208   0.740   4.301   4.928
10437SOL     OW32209   5.278   4.888   5.211
10437SOL    HW132210   5.249   4.825   5.139
10437SOL    HW232211   5.369   4.924   5.190
10438SOL     OW32212   6.857   6.186   6.366
10438SOL    HW132213   6.762   6.169   6.390
10438SOL    HW232214   6.886   6.273   6.405
10439SOL     OW32215   0.120   0.070   4.420
10439SOL    HW132216   0.074   0.071   4.331
10439SOL    HW232217   0.146   0.163   4.445
10440SOL     OW32218   0.332   1.834   6.867
10440SOL    HW132219   0.233   1.831   6.880
10440SOL    HW232220   0.359   1.764   6.800
10441SOL     OW32221   3.701   1.776   0.796
10441SOL    HW132222   3.786   1.827   0.790
10441SOL    HW232223   3.720   1.681   0.820
10442SOL     OW32224   2.815   1.237   5.385
10442SOL    HW132225   2.787   1.150   5.424
10442SOL    HW232226   2.905   1.227   5.343
10443SOL     OW32227   6.915   1.098   3.330
10443SOL    HW132228   6.965   1.181   3.305
10443SOL    HW232229   6.824   1.123   3.361
10444SOL     OW32230   3.793   5.875   3.457
10444SOL    HW132231   3.855   5.862   3.535
10444SOL    HW232232   3.848   5.888   3.374
10445SOL     OW32233   1.510   4.158   2.402
10445SOL    HW132234   1.440   4.163   2.473
10445SOL    HW232235   1.552   4.067   2.402
10446SOL     OW32236   1.884   4.169   5.205
10446SOL    HW132237   1.897   4.136   5.111
10446SOL    HW232238   1.894   4.268   5.207
10447SOL     OW32239   6.955   1.936   2.799
10447SOL    HW132240   6.995   2.024   2.823
10447SOL    HW232241   6.866   1.950   2.754
10448SOL     OW32242   2.168   6.989   3.207
10448SOL    HW132243   2.253   0.009   3.175
10448SOL    HW232244   2.122   0.030   3.270
10449SOL     OW32245   3.340   5.797   6.368
10449SOL    HW132246   3.374   5.872   6.426
10449SOL    HW232247   3.242   5.788   6.379
10450SOL     OW32248   6.257   0.389   5.763
10450SOL    HW132249   6.248   0.445   5.681
10450SOL    HW232250   6.266   0.448   5.844
10451SOL     OW32251   1.875   0.485   4.508
10451SOL    HW132252   1.938   0.561   4.528
10451SOL    HW232253   1.842   0.493   4.414
10452SOL     OW32254   6.921   3.928   3.674
10452SOL    HW132255   6.854   3.911   3.602
10452SOL    HW232256   7.002   3.872   3.658
10453SOL     OW32257   4.446   5.932   3.361
10453SOL    HW132258   4.490   6.018   3.335
10453SOL    HW232259   4.396   5.895   3.282
10454SOL     OW32260   6.402   1.789   6.403
10454SOL    HW132261   6.329   1.827   6.347
10454SOL    HW232262   6.387   1.813   6.499
10455SOL     OW32263   6.431   6.317   4.516
10455SOL    HW132264   6.388   6.233   4.483
10455SOL    HW232265   6.395   6.395   4.463
10456SOL     OW32266   6.890   5.254   6.914
10456SOL    HW132267   6.948   5.335   6.929
10456SOL    HW232268   6.806   5.263   6.967
10457SOL     OW32269   3.785   2.666   6.980
10457SOL    HW132270   3.830   2.639   0.045
10457SOL    HW232271   3.835   2.741   6.938
10458SOL     OW32272   6.831   6.707   6.114
10458SOL    HW132273   6.896   6.671   6.047
10458SOL    HW232274   6.772   6.632   6.146
10459SOL     OW32275   6.971   5.375   0.260
10459SOL    HW132276   0.041   5.390   0.221
10459SOL    HW232277   6.979   5.326   0.346
10460SOL     OW32278   0.041   3.953   1.110
10460SOL    HW132279   0.046   3.862   1.150
10460SOL    HW232280   0.016   4.019   1.181
10461SOL     OW32281   6.940   4.745   5.394
10461SOL    HW132282   6.909   4.759   5.487
10461SOL    HW232283   6.862   4.721   5.336
10462SOL     OW32284   5.034   1.570   1.182
10462SOL    HW132285   5.006   1.632   1.108
10462SOL    HW232286   4.953   1.534   1.228
10463SOL     OW32287   4.716   2.794   6.288
10463SOL    HW132288   4.666   2.742   6.357
10463SOL    HW232289   4.776   2.733   6.237
10464SOL     OW32290   5.284   5.345   3.031
10464SOL    HW132291   5.204   5.378   2.981
10464SOL    HW232292   5.367   5.382   2.989
10465SOL     OW32293   5.431   3.273   2.541
10465SOL    HW132294   5.336   3.248   2.522
10465SOL    HW232295   5.449   3.364   2.502
10466SOL     OW32296   5.528   4.754   6.330
10466SOL    HW132297   5.627   4.740   6.332
10466SOL    HW232298   5.504   4.833   6.387
10467SOL     OW32299   1.941   2.871   6.674
10467SOL    HW132300   1.929   2.927   6.592
10467SOL    HW232301   2.038   2.866   6.697
10468SOL     OW32302   2.474   5.024   3.802
10468SOL    HW132303   2.445   5.092   3.869
10468SOL    HW232304   2.565   4.990   3.825
10469SOL     OW32305   5.744   2.426   5.465
10469SOL    HW132306   5.795   2.377   5.394
10469SOL    HW232307   5.805   2.492   5.510
10470SOL     OW32308   2.343   2.361   4.009
10470SOL    HW132309   2.282   2.391   3.935
10470SOL    HW232310   2.437   2.359   3.975
10471SOL     OW32311   2.577   0.783   0.184
10471SOL    HW132312   2.515   0.832   0.246
10471SOL    HW232313   2.534   0.775   0.094
10472SOL     OW32314   3.832   4.979   0.565
10472SOL    HW132315   3.872   4.888   0.560
10472SOL    HW232316   3.891   5.038   0.620
10473SOL     OW32317   5.641   5.801   6.253
10473SOL    HW132318   5.614   5.897   6.261
10473SOL    HW232319   5.569   5.743   6.290
10474SOL     OW32320   5.255   0.952   3.728
10474SOL    HW132321   5.226   0.866   3.687
10474SOL    HW232322   5.353   0.950   3.745
10475SOL     OW32323   2.132   6.221   2.114
10475SOL    HW132324   2.131   6.305   2.169
10475SOL    HW232325   2.225   6.188   2.106
10476SOL     OW32326   3.860   6.257   0.062
10476SOL    HW132327   3.871   6.264   0.161
10476SOL    HW232328   3.767   6.229   0.040
10477SOL     OW32329   0.037   6.230   4.225
10477SOL    HW132330   6.970   6.191   4.198
10477SOL    HW232331   0.045   6.229   4.324
10478SOL     OW32332   6.049   6.809   0.354
10478SOL    HW132333   5.965   6.781   0.307
10478SOL    HW232334   6.025   6.869   0.430
10479SOL     OW32335   6.959   2.562   2.669
10479SOL    HW132336   6.988   2.567   2.764
10479SOL    HW232337   6.961   2.654   2.628
10480SOL     OW32338   1.463   6.970   2.322
10480SOL    HW132339   1.438   0.032   2.372
10480SOL    HW232340   1.437   6.981   2.226
10481SOL     OW32341   0.776   6.891   3.125
10481SOL    HW132342   0.873   6.886   3.149
10481SOL    HW232343   0.755   6.821   3.057
10482SOL     OW32344   5.926   4.243   4.062
10482SOL    HW132345   5.876   4.195   3.990
10482SOL    HW232346   5.872   4.243   4.146
10483SOL     OW32347   5.546   5.719   7.001
10483SOL    HW132348   5.551   5.683   6.908
10483SOL    HW232349   5.536   5.643   0.044
10484SOL     OW32350   5.531   1.201   0.751
10484SOL    HW132351   5.553   1.183   0.847
10484SOL    HW232352   5.596   1.153   0.693
10485SOL     OW32353   4.061   4.337   6.170
10485SOL    HW132354   4.053   4.298   6.262
10485SOL    HW232355   4.107   4.271   6.111
10486SOL     OW32356   6.517   2.908   0.692
10486SOL    HW132357   6.513   2.988   0.631
10486SOL    HW232358   6.458   2.923   0.771
10487SOL     OW32359   5.935   6.462   1.420
10487SOL    HW132360   5.890   6.545   1.386
10487SOL    HW232361   5.906   6.383   1.365
10488SOL     OW32362   2.982   3.166   6.213
10488SOL    HW132363   2.951   3.237   6.275
10488SOL    HW232364   3.080   3.179   6.194
10489SOL     OW32365   0.630   6.437   5.938
10489SOL    HW132366   0.653   6.522   5.986
10489SOL    HW232367   0.708   6.407   5.884
10490SOL     OW32368   6.031   1.248   3.128
10490SOL    HW132369   5.961   1.227   3.197
10490SOL    HW232370   5.995   1.231   3.037
10491SOL     OW32371   1.563   3.655   6.286
10491SOL    HW132372   1.464   3.637   6.285
10491SOL    HW232373   1.587   3.710   6.206
10492SOL     OW32374   4.943   3.691   5.250
10492SOL    HW132375   4.882   3.621   5.213
10492SOL    HW232376   5.038   3.667   5.232
10493SOL     OW32377   3.441   0.755   1.321
10493SOL    HW132378   3.421   0.725   1.228
10493SOL    HW232379   3.369   0.724   1.383
10494SOL     OW32380   5.621   2.454   4.555
10494SOL    HW132381   5.525   2.478   4.570
10494SOL    HW232382   5.678   2.507   4.616
10495SOL     OW32383   1.769   6.610   1.083
10495SOL    HW132384   1.780   6.512   1.093
10495SOL    HW232385   1.859   6.654   1.076
10496SOL     OW32386   0.304   6.725   0.407
10496SOL    HW132387   0.322   6.637   0.362
10496SOL    HW232388   0.272   6.710   0.500
10497SOL     OW32389   1.493   0.415   0.999
10497SOL    HW132390   1.438   0.395   1.080
10497SOL    HW232391   1.535   0.506   1.010
10498SOL     OW32392   2.569   6.916   0.164
10498SOL    HW132393   2.617   6.835   0.199
10498SOL    HW232394   2.546   6.976   0.240
10499SOL     OW32395   2.689   6.389   3.053
10499SOL    HW132396   2.770   6.331   3.062
10499SOL    HW232397   2.689   6.434   2.964
10500SOL     OW32398   0.191   1.457   5.658
10500SOL    HW132399   0.141   1.461   5.744
10500SOL    HW232400   0.280   1.501   5.670
10501SOL     OW32401   2.097   5.112   2.922
10501SOL    HW132402   2.109   5.138   3.018
10501SOL    HW232403   2.186   5.112   2.876
10502SOL     OW32404   3.297   6.740   0.882
10502SOL    HW132405   3.290   6.654   0.933
10502SOL    HW232406   3.368   6.732   0.812
10503SOL     OW32407   4.277   2.927   0.612
10503SOL    HW132408   4.320   2.946   0.524
10503SOL    HW232409   4.319   2.984   0.682
10504SOL     OW32410   1.658   2.752   0.204
10504SOL    HW132411   1.629   2.847   0.203
10504SOL    HW232412   1.676   2.722   0.110
10505SOL     OW32413   5.838   6.112   0.965
10505SOL    HW132414   5.834   6.070   0.874
10505SOL    HW232415   5.918   6.171   0.971
10506SOL     OW32416   0.651   4.564   6.619
10506SOL    HW132417   0.557   4.536   6.603
10506SOL    HW232418   0.692   4.506   6.690
10507SOL     OW32419   2.236   6.932   0.281
10507SOL    HW132420   2.230   6.875   0.199
10507SOL    HW232421   2.159   6.996   0.283
10508SOL     OW32422   5.312   5.540   3.438
10508SOL    HW132423   5.360   5.452   3.442
10508SOL    HW232424   5.363   5.603   3.380
10509SOL     OW32425   0.951   6.498   6.508
10509SOL    HW132426   0.984   6.464   6.596
10509SOL    HW232427   0.968   6.430   6.437
10510SOL     OW32428   6.084   4.836   6.251
10510SOL    HW132429   6.036   4.770   6.193
10510SOL    HW232430   6.016   4.897   6.293
10511SOL     OW32431   4.589   3.368   0.811
10511SOL    HW132432   4.537   3.353   0.895
10511SOL    HW232433   4.683   3.338   0.824
10512SOL     OW32434   3.904   1.288   6.645
10512SOL    HW132435   3.994   1.323   6.620
10512SOL    HW232436   3.834   1.355   6.620
10513SOL     OW32437   6.799   2.322   6.091
10513SOL    HW132438   6.897   2.335   6.076
10513SOL    HW232439   6.777   2.340   6.187
10514SOL     OW32440   6.424   4.052   0.522
10514SOL    HW132441   6.436   4.058   0.423
10514SOL    HW232442   6.505   4.011   0.563
10515SOL     OW32443   6.477   2.266   2.986
10515SOL    HW132444   6.546   2.199   3.012
10515SOL    HW232445   6.484   2.346   3.046
10516SOL     OW32446   4.939   0.706   6.377
10516SOL    HW132447   4.866   0.676   6.437
10516SOL    HW232448   5.022   0.725   6.431
10517SOL     OW32449   0.308   2.151   2.057
10517SOL    HW132450   0.367   2.210   2.112
10517SOL    HW232451   0.333   2.055   2.071
10518SOL     OW32452   0.932   4.969   0.122
10518SOL    HW132453   0.883   5.048   0.159
10518SOL    HW232454   0.956   4.907   0.196
10519SOL     OW32455   3.256   2.935   5.599
10519SOL    HW132456   3.271   2.857   5.538
10519SOL    HW232457   3.182   2.992   5.563
10520SOL     OW32458   2.761   2.836   6.751
10520SOL    HW132459   2.718   2.911   6.801
10520SOL    HW232460   2.860   2.843   6.757
10521SOL     OW32461   6.299   6.273   1.126
10521SOL    HW132462   6.281   6.222   1.210
10521SOL    HW232463   6.368   6.224   1.072
10522SOL     OW32464   6.606   0.546   0.278
10522SOL    HW132465   6.546   0.592   0.213
10522SOL    HW232466   6.636   0.612   0.347
10523SOL     OW32467   0.349   6.298   4.424
10523SOL    HW132468   0.396   6.233   4.364
10523SOL    HW232469   0.333   6.257   4.513
10524SOL     OW32470   2.056   0.371   5.010
10524SOL    HW132471   1.976   0.360   4.951
10524SOL    HW232472   2.080   0.467   5.017
10525SOL     OW32473   3.035   6.332   5.558
10525SOL    HW132474   2.994   6.396   5.623
10525SOL    HW232475   3.124   6.368   5.528
10526SOL     OW32476   0.454   0.442   2.710
10526SOL    HW132477   0.390   0.495   2.654
10526SOL    HW232478   0.548   0.474   2.692
10527SOL     OW32479   1.202   3.023   4.303
10527SOL    HW132480   1.293   2.983   4.287
10527SOL    HW232481   1.132   2.957   4.277
10528SOL     OW32482   1.556   4.225   5.145
10528SOL    HW132483   1.592   4.168   5.219
10528SOL    HW232484   1.585   4.189   5.057
10529SOL     OW32485   1.167   5.631   2.455
10529SOL    HW132486   1.192   5.706   2.517
10529SOL    HW232487   1.154   5.668   2.363
10530SOL     OW32488   2.138   1.604   6.368
10530SOL    HW132489   2.042   1.590   6.392
10530SOL    HW232490   2.176   1.677   6.425
10531SOL     OW32491   2.047   3.720   4.293
10531SOL    HW132492   2.075   3.652   4.224
10531SOL    HW232493   1.955   3.752   4.273
10532SOL     OW32494   2.150   3.077   0.415
10532SOL    HW132495   2.066   3.073   0.469
10532SOL    HW232496   2.159   2.994   0.360
10533SOL     OW32497   2.587   1.527   4.261
10533SOL    HW132498   2.561   1.577   4.178
10533SOL    HW232499   2.533   1.561   4.338
10534SOL     OW32500   0.054   5.758   0.917
10534SOL    HW132501   0.089   5.851   0.902
10534SOL    HW232502   0.020   5.722   0.830
10535SOL     OW32503   0.014   1.760   2.596
10535SOL    HW132504   6.984   1.818   2.661
10535SOL    HW232505   0.107   1.795   2.587
10536SOL     OW32506   3.789   0.333   2.394
10536SOL    HW132507   3.766   0.236   2.386
10536SOL    HW232508   3.769   0.365   2.487
10537SOL     OW32509   3.324   5.514   3.420
10537SOL    HW132510   3.308   5.438   3.483
10537SOL    HW232511   3.301   5.600   3.465
10538SOL     OW32512   4.517   3.147   6.685
10538SOL    HW132513   4.500   3.048   6.685
10538SOL    HW232514   4.479   3.187   6.601
10539SOL     OW32515   0.490   4.192   6.469
10539SOL    HW132516   0.525   4.188   6.563
10539SOL    HW232517   0.507   4.283   6.431
10540SOL     OW32518   1.393   0.796   5.962
10540SOL    HW132519   1.373   0.713   5.910
10540SOL    HW232520   1.488   0.823   5.947
10541SOL     OW32521   3.489   3.741   1.587
10541SOL    HW132522   3.470   3.751   1.489
10541SOL    HW232523   3.556   3.810   1.615
10542SOL     OW32524   0.066   1.335   0.829
10542SOL    HW132525   0.135   1.265   0.809
10542SOL    HW232526   0.063   1.401   0.753
10543SOL     OW32527   6.808   1.447   5.370
10543SOL    HW132528   6.893   1.484   5.409
10543SOL    HW232529   6.780   1.505   5.293
10544SOL     OW32530   2.394   1.362   2.732
10544SOL    HW132531   2.345   1.433   2.683
10544SOL    HW232532   2.375   1.273   2.691
10545SOL     OW32533   6.892   6.466   2.255
10545SOL    HW132534   6.926   6.431   2.342
10545SOL    HW232535   6.794   6.447   2.247
10546SOL     OW32536   1.446   0.292   5.141
10546SOL    HW132537   1.502   0.301   5.224
10546SOL    HW232538   1.468   0.368   5.079
10547SOL     OW32539   5.011   1.191   2.623
10547SOL    HW132540   4.935   1.127   2.637
10547SOL    HW232541   4.979   1.268   2.567
10548SOL     OW32542   5.295   3.768   4.691
10548SOL    HW132543   5.330   3.813   4.773
10548SOL    HW232544   5.220   3.822   4.653
10549SOL     OW32545   6.668   0.384   2.453
10549SOL    HW132546   6.746   0.355   2.397
10549SOL    HW232547   6.630   0.469   2.417
10550SOL     OW32548   4.440   6.540   4.421
10550SOL    HW132549   4.536   6.562   4.406
10550SOL    HW232550   4.398   6.612   4.477
10551SOL     OW32551   1.456   2.529   5.016
10551SOL    HW132552   1.376   2.469   5.004
10551SOL    HW232553   1.532   2.475   5.052
10552SOL     OW32554   3.684   1.623   5.120
10552SOL    HW132555   3.647   1.662   5.036
10552SOL    HW232556   3.609   1.598   5.181
10553SOL     OW32557   1.025   4.859   1.369
10553SOL    HW132558   0.939   4.833   1.325
10553SOL    HW232559   1.077   4.919   1.308
10554SOL     OW32560   5.836   4.653   6.867
10554SOL    HW132561   5.757   4.712   6.881
10554SOL    HW232562   5.897   4.658   6.947
10555SOL     OW32563   2.901   2.017   1.743
10555SOL    HW132564   2.860   2.010   1.652
10555SOL    HW232565   3.000   2.003   1.736
10556SOL     OW32566   2.008   3.080   4.810
10556SOL    HW132567   2.062   2.996   4.818
10556SOL    HW232568   2.047   3.138   4.739
10557SOL     OW32569   0.677   2.375   3.473
10557SOL    HW132570   0.705   2.279   3.466
10557SOL    HW232571   0.709   2.412   3.561
10558SOL     OW32572   4.337   0.387   4.728
10558SOL    HW132573   4.244   0.388   4.691
10558SOL    HW232574   4.368   0.293   4.739
10559SOL     OW32575   4.260   1.519   1.340
10559SOL    HW132576   4.260   1.439   1.400
10559SOL    HW232577   4.205   1.500   1.259
10560SOL     OW32578   1.887   5.577   5.131
10560SOL    HW132579   1.849   5.670   5.132
10560SOL    HW232580   1.908   5.548   5.224
10561SOL     OW32581   2.323   5.196   0.412
10561SOL    HW132582   2.282   5.285   0.392
10561SOL    HW232583   2.318   5.138   0.331
10562SOL     OW32584   4.986   0.399   0.698
10562SOL    HW132585   5.083   0.395   0.674
10562SOL    HW232586   4.967   0.485   0.744
10563SOL     OW32587   1.537   1.172   4.504
10563SOL    HW132588   1.480   1.207   4.578
10563SOL    HW232589   1.483   1.170   4.420
10564SOL     OW32590   5.730   6.738   1.574
10564SOL    HW132591   5.642   6.704   1.607
10564SOL    HW232592   5.727   6.750   1.475
10565SOL     OW32593   0.463   0.905   5.667
10565SOL    HW132594   0.482   0.997   5.700
10565SOL    HW232595   0.548   0.852   5.664
10566SOL     OW32596   3.877   3.743   6.680
10566SOL    HW132597   3.908   3.670   6.741
10566SOL    HW232598   3.820   3.704   6.608
10567SOL     OW32599   2.163   3.535   4.119
10567SOL    HW132600   2.110   3.469   4.065
10567SOL    HW232601   2.186   3.613   4.061
10568SOL     OW32602   5.826   1.398   2.522
10568SOL    HW132603   5.812   1.310   2.566
10568SOL    HW232604   5.921   1.405   2.491
10569SOL     OW32605   6.523   3.350   2.325
10569SOL    HW132606   6.561   3.351   2.232
10569SOL    HW232607   6.591   3.313   2.388
10570SOL     OW32608   1.217   4.578   2.575
10570SOL    HW132609   1.147   4.550   2.641
10570SOL    HW232610   1.307   4.557   2.611
10571SOL     OW32611   6.868   5.532   3.593
10571SOL    HW132612   6.951   5.485   3.562
10571SOL    HW232613   6.828   5.481   3.670
10572SOL     OW32614   6.032   3.990   2.983
10572SOL    HW132615   6.082   4.076   2.993
10572SOL    HW232616   6.024   3.946   3.073
10573SOL     OW32617   5.828   6.533   2.872
10573SOL    HW132618   5.744   6.543   2.926
10573SOL    HW232619   5.847   6.620   2.825
10574SOL     OW32620   1.459   1.962   3.711
10574SOL    HW132621   1.499   1.871   3.697
10574SOL    HW232622   1.533   2.030   3.717
10575SOL     OW32623   0.427   0.610   3.953
10575SOL    HW132624   0.354   0.650   4.008
10575SOL    HW232625   0.480   0.546   4.009
10576SOL     OW32626   0.719   6.911   4.717
10576SOL    HW132627   0.664   6.848   4.662
10576SOL    HW232628   0.744   6.990   4.662
10577SOL     OW32629   1.171   3.364   6.645
10577SOL    HW132630   1.207   3.273   6.666
10577SOL    HW232631   1.077   3.356   6.614
10578SOL     OW32632   6.295   1.130   4.851
10578SOL    HW132633   6.252   1.069   4.785
10578SOL    HW232634   6.392   1.143   4.827
10579SOL     OW32635   4.283   1.248   1.035
10579SOL    HW132636   4.358   1.185   1.056
10579SOL    HW232637   4.235   1.216   0.953
10580SOL     OW32638   6.831   6.672   6.790
10580SOL    HW132639   6.891   6.629   6.858
10580SOL    HW232640   6.884   6.734   6.733
10581SOL     OW32641   6.081   7.010   2.620
10581SOL    HW132642   6.141   6.962   2.556
10581SOL    HW232643   6.114   6.996   2.713
10582SOL     OW32644   4.036   4.931   6.548
10582SOL    HW132645   4.007   4.858   6.486
10582SOL    HW232646   4.090   4.891   6.622
10583SOL     OW32647   4.303   0.941   6.763
10583SOL    HW132648   4.320   0.943   6.861
10583SOL    HW232649   4.207   0.919   6.746
10584SOL     OW32650   5.328   6.441   1.164
10584SOL    HW132651   5.367   6.520   1.211
10584SOL    HW232652   5.229   6.441   1.177
10585SOL     OW32653   1.754   2.979   5.731
10585SOL    HW132654   1.807   3.056   5.766
10585SOL    HW232655   1.799   2.941   5.651
10586SOL     OW32656   2.210   5.994   5.904
10586SOL    HW132657   2.252   5.915   5.860
10586SOL    HW232658   2.116   6.003   5.873
10587SOL     OW32659   5.684   2.978   0.444
10587SOL    HW132660   5.678   3.075   0.424
10587SOL    HW232661   5.762   2.938   0.396
10588SOL     OW32662   1.117   3.998   1.870
10588SOL    HW132663   1.113   4.057   1.790
10588SOL    HW232664   1.060   4.037   1.943
10589SOL     OW32665   5.596   1.663   4.218
10589SOL    HW132666   5.558   1.673   4.126
10589SOL    HW232667   5.526   1.688   4.286
10590SOL     OW32668   1.193   6.827   2.227
10590SOL    HW132669   1.168   6.757   2.160
10590SOL    HW232670   1.290   6.848   2.218
10591SOL     OW32671   1.761   1.701   5.969
10591SOL    HW132672   1.801   1.625   5.918
10591SOL    HW232673   1.694   1.666   6.034
10592SOL     OW32674   5.290   2.048   0.197
10592SOL    HW132675   5.190   2.045   0.190
10592SOL    HW232676   5.320   2.144   0.198
10593SOL     OW32677   2.743   6.047   0.882
10593SOL    HW132678   2.711   5.959   0.919
10593SOL    HW232679   2.666   6.096   0.841
10594SOL     OW32680   6.078   1.929   3.703
10594SOL    HW132681   6.077   1.930   3.803
10594SOL    HW232682   6.172   1.915   3.671
10595SOL     OW32683   3.482   6.802   5.947
10595SOL    HW132684   3.397   6.774   5.902
10595SOL    HW232685   3.473   6.790   6.046
10596SOL     OW32686   3.871   6.965   1.661
10596SOL    HW132687   3.925   6.914   1.729
10596SOL    HW232688   3.826   6.900   1.600
10597SOL     OW32689   2.619   1.122   4.478
10597SOL    HW132690   2.598   1.175   4.559
10597SOL    HW232691   2.567   1.156   4.400
10598SOL     OW32692   2.744   2.405   6.550
10598SOL    HW132693   2.755   2.306   6.557
10598SOL    HW232694   2.728   2.442   6.642
10599SOL     OW32695   5.530   1.315   6.991
10599SOL    HW132696   5.495   1.307   6.898
10599SOL    HW232697   5.453   1.312   0.035
10600SOL     OW32698   1.986   3.267   6.726
10600SOL    HW132699   2.078   3.235   6.705
10600SOL    HW232700   1.919   3.202   6.692
10601SOL     OW32701   2.678   4.846   6.158
10601SOL    HW132702   2.590   4.875   6.120
10601SOL    HW232703   2.725   4.926   6.198
10602SOL     OW32704   5.198   1.467   2.108
10602SOL    HW132705   5.155   1.538   2.163
10602SOL    HW232706   5.206   1.498   2.013
10603SOL     OW32707   1.392   6.415   3.562
10603SOL    HW132708   1.309   6.360   3.550
10603SOL    HW232709   1.465   6.357   3.597
10604SOL     OW32710   5.758   4.473   4.503
10604SOL    HW132711   5.701   4.497   4.581
10604SOL    HW232712   5.854   4.471   4.532
10605SOL     OW32713   0.504   5.290   0.194
10605SOL    HW132714   0.501   5.280   0.293
10605SOL    HW232715   0.419   5.256   0.154
10606SOL     OW32716   6.644   0.675   1.460
10606SOL    HW132717   6.604   0.584   1.475
10606SOL    HW232718   6.706   0.696   1.535
10607SOL     OW32719   3.603   4.378   6.001
10607SOL    HW132720   3.511   4.410   6.022
10607SOL    HW232721   3.656   4.371   6.086
10608SOL     OW32722   6.040   1.976   4.882
10608SOL    HW132723   6.109   1.908   4.907
10608SOL    HW232724   6.012   1.961   4.787
10609SOL     OW32725   3.428   5.891   1.235
10609SOL    HW132726   3.494   5.833   1.283
10609SOL    HW232727   3.402   5.848   1.149
10610SOL     OW32728   0.914   3.976   6.700
10610SOL    HW132729   0.962   3.901   6.745
10610SOL    HW232730   0.900   4.050   6.766
10611SOL     OW32731   5.819   3.167   6.930
10611SOL    HW132732   5.881   3.233   6.972
10611SOL    HW232733   5.829   3.170   6.831
10612SOL     OW32734   2.341   6.986   6.292
10612SOL    HW132735   2.409   0.036   6.278
10612SOL    HW232736   2.345   6.952   6.386
10613SOL     OW32737   6.726   0.291   6.113
10613SOL    HW132738   6.801   0.303   6.178
10613SOL    HW232739   6.752   0.333   6.025
10614SOL     OW32740   6.669   0.496   3.944
10614SOL    HW132741   6.752   0.543   3.975
10614SOL    HW232742   6.605   0.563   3.906
10615SOL     OW32743   4.109   5.721   5.414
10615SOL    HW132744   4.075   5.634   5.378
10615SOL    HW232745   4.194   5.746   5.368
10616SOL     OW32746   3.199   6.576   0.318
10616SOL    HW132747   3.128   6.515   0.354
10616SOL    HW232748   3.213   6.557   0.221
10617SOL     OW32749   1.995   2.364   0.670
10617SOL    HW132750   2.057   2.318   0.607
10617SOL    HW232751   1.960   2.298   0.736
10618SOL     OW32752   6.638   2.743   0.452
10618SOL    HW132753   6.726   2.737   0.499
10618SOL    HW232754   6.581   2.665   0.479
10619SOL     OW32755   0.794   3.838   3.027
10619SOL    HW132756   0.833   3.747   3.042
10619SOL    HW232757   0.850   3.887   2.961
10620SOL     OW32758   1.054   5.674   5.667
10620SOL    HW132759   1.056   5.691   5.765
10620SOL    HW232760   1.045   5.576   5.651
10621SOL     OW32761   1.807   5.625   0.372
10621SOL    HW132762   1.807   5.723   0.391
10621SOL    HW232763   1.890   5.600   0.323
10622SOL     OW32764   4.726   0.991   1.907
10622SOL    HW132765   4.790   1.060   1.939
10622SOL    HW232766   4.774   0.904   1.893
10623SOL     OW32767   5.697   2.638   3.525
10623SOL    HW132768   5.674   2.589   3.441
10623SOL    HW232769   5.613   2.654   3.578
10624SOL     OW32770   1.104   1.358   5.405
10624SOL    HW132771   1.022   1.403   5.371
10624SOL    HW232772   1.157   1.423   5.460
10625SOL     OW32773   0.644   4.518   7.007
10625SOL    HW132774   0.672   4.476   6.921
10625SOL    HW232775   0.572   4.464   0.028
10626SOL     OW32776   1.707   2.246   1.723
10626SOL    HW132777   1.612   2.271   1.704
10626SOL    HW232778   1.762   2.328   1.732
10627SOL     OW32779   6.680   6.090   2.319
10627SOL    HW132780   6.589   6.049   2.314
10627SOL    HW232781   6.685   6.149   2.400
10628SOL     OW32782   5.959   5.163   5.416
10628SOL    HW132783   5.920   5.255   5.419
10628SOL    HW232784   5.947   5.119   5.505
10629SOL     OW32785   2.145   4.414   6.173
10629SOL    HW132786   2.147   4.386   6.077
10629SOL    HW232787   2.191   4.346   6.229
10630SOL     OW32788   6.295   0.219   3.768
10630SOL    HW132789   6.220   0.191   3.709
10630SOL    HW232790   6.330   0.139   3.818
10631SOL     OW32791   1.444   6.942   4.299
10631SOL    HW132792   1.405   7.017   4.246
10631SOL    HW232793   1.442   6.858   4.244
10632SOL     OW32794   6.092   2.123   4.578
10632SOL    HW132795   6.152   2.105   4.500
10632SOL    HW232796   6.031   2.046   4.591
10633SOL     OW32797   2.516   4.483   1.088
10633SOL    HW132798   2.558   4.495   1.178
10633SOL    HW232799   2.420   4.511   1.091
10634SOL     OW32800   2.786   5.733   0.403
10634SOL    HW132801   2.754   5.820   0.365
10634SOL    HW232802   2.856   5.751   0.472
10635SOL     OW32803   3.513   0.996   0.958
10635SOL    HW132804   3.576   1.045   1.020
10635SOL    HW232805   3.423   1.039   0.962
10636SOL     OW32806   0.296   1.800   1.275
10636SOL    HW132807   0.285   1.827   1.179
10636SOL    HW232808   0.307   1.882   1.331
10637SOL     OW32809   3.257   4.052   5.385
10637SOL    HW132810   3.297   4.088   5.469
10637SOL    HW232811   3.168   4.094   5.370
10638SOL     OW32812   0.564   6.361   3.826
10638SOL    HW132813   0.603   6.448   3.796
10638SOL    HW232814   0.609   6.286   3.779
10639SOL     OW32815   0.726   1.403   4.114
10639SOL    HW132816   0.699   1.497   4.138
10639SOL    HW232817   0.729   1.347   4.196
10640SOL     OW32818   4.305   0.198   6.910
10640SOL    HW132819   4.367   0.152   6.973
10640SOL    HW232820   4.288   0.139   6.831
10641SOL     OW32821   5.083   1.742   0.060
10641SOL    HW132822   5.102   1.738   0.158
10641SOL    HW232823   5.059   1.836   0.035
10642SOL     OW32824   0.299   2.224   1.277
10642SOL    HW132825   0.218   2.202   1.223
10642SOL    HW232826   0.277   2.297   1.342
10643SOL     OW32827   2.263   3.626   5.746
10643SOL    HW132828   2.198   3.641   5.820
10643SOL    HW232829   2.232   3.676   5.665
10644SOL     OW32830   4.604   1.702   3.992
10644SOL    HW132831   4.518   1.746   4.019
10644SOL    HW232832   4.681   1.757   4.023
10645SOL     OW32833   0.807   0.766   4.847
10645SOL    HW132834   0.849   0.680   4.818
10645SOL    HW232835   0.874   0.823   4.893
10646SOL     OW32836   0.497   2.688   5.985
10646SOL    HW132837   0.440   2.770   5.972
10646SOL    HW232838   0.492   2.660   6.081
10647SOL     OW32839   6.088   5.156   0.163
10647SOL    HW132840   6.060   5.250   0.148
10647SOL    HW232841   6.181   5.155   0.201
10648SOL     OW32842   5.112   3.513   6.935
10648SOL    HW132843   5.211   3.525   6.942
10648SOL    HW232844   5.066   3.575   6.999
10649SOL     OW32845   0.125   5.051   4.493
10649SOL    HW132846   0.049   5.114   4.506
10649SOL    HW232847   0.149   5.010   4.581
10650SOL     OW32848   1.902   6.444   4.032
10650SOL    HW132849   1.935   6.366   3.979
10650SOL    HW232850   1.978   6.505   4.053
10651SOL     OW32851   4.445   0.097   5.592
10651SOL    HW132852   4.381   0.041   5.539
10651SOL    HW232853   4.413   0.103   5.687
10652SOL     OW32854   3.245   0.141   6.033
10652SOL    HW132855   3.213   0.220   5.981
10652SOL    HW232856   3.181   0.123   6.108
10653SOL     OW32857   5.057   4.481   4.824
10653SOL    HW132858   5.038   4.390   4.787
10653SOL    HW232859   4.973   4.534   4.827
10654SOL     OW32860   2.966   0.319   1.532
10654SOL    HW132861   2.902   0.281   1.599
10654SOL    HW232862   3.026   0.246   1.498
10655SOL     OW32863   2.994   5.454   2.116
10655SOL    HW132864   2.895   5.446   2.127
10655SOL    HW232865   3.016   5.486   2.024
10656SOL     OW32866   6.063   2.441   6.765
10656SOL    HW132867   6.030   2.488   6.683
10656SOL    HW232868   6.154   2.403   6.747
10657SOL     OW32869   5.998   6.787   0.945
10657SOL    HW132870   6.085   6.796   0.896
10657SOL    HW232871   5.952   6.702   0.919
10658SOL     OW32872   1.212   4.455   4.724
10658SOL    HW132873   1.267   4.388   4.774
10658SOL    HW232874   1.128   4.412   4.693
10659SOL     OW32875   5.769   6.982   0.849
10659SOL    HW132876   5.727   0.024   0.785
10659SOL    HW232877   5.699   6.927   0.894
10660SOL     OW32878   4.956   3.681   5.768
10660SOL    HW132879   4.970   3.779   5.781
10660SOL    HW232880   4.872   3.666   5.717
10661SOL     OW32881   0.156   6.635   1.940
10661SOL    HW132882   0.111   6.552   1.973
10661SOL    HW232883   0.110   6.668   1.858
10662SOL     OW32884   6.746   1.053   0.577
10662SOL    HW132885   6.665   1.015   0.532
10662SOL    HW232886   6.826   0.997   0.554
10663SOL     OW32887   0.414   0.282   1.731
10663SOL    HW132888   0.320   0.248   1.733
10663SOL    HW232889   0.421   0.359   1.669
10664SOL     OW32890   2.360   4.306   0.047
10664SOL    HW132891   2.278   4.260   0.082
10664SOL    HW232892   2.405   4.355   0.122
10665SOL     OW32893   0.470   1.999   0.289
10665SOL    HW132894   0.451   1.964   0.381
10665SOL    HW232895   0.410   1.953   0.223
10666SOL     OW32896   3.435   5.630   6.838
10666SOL    HW132897   3.510   5.580   6.880
10666SOL    HW232898   3.368   5.566   6.801
10667SOL     OW32899   3.740   1.897   5.190
10667SOL    HW132900   3.758   1.799   5.183
10667SOL    HW232901   3.653   1.911   5.238
10668SOL     OW32902   1.605   1.791   6.342
10668SOL    HW132903   1.571   1.707   6.300
10668SOL    HW232904   1.528   1.851   6.363
10669SOL     OW32905   0.891   6.974   0.702
10669SOL    HW132906   0.916   6.890   0.750
10669SOL    HW232907   0.954   6.988   0.625
10670SOL     OW32908   5.629   4.842   5.905
10670SOL    HW132909   5.670   4.818   5.817
10670SOL    HW232910   5.585   4.931   5.898
10671SOL     OW32911   2.318   2.635   3.004
10671SOL    HW132912   2.318   2.718   3.060
10671SOL    HW232913   2.314   2.555   3.063
10672SOL     OW32914   0.294   2.310   0.262
10672SOL    HW132915   0.236   2.338   0.186
10672SOL    HW232916   0.390   2.317   0.235
10673SOL     OW32917   2.848   2.880   5.547
10673SOL    HW132918   2.851   2.791   5.592
10673SOL    HW232919   2.761   2.890   5.500
10674SOL     OW32920   3.916   3.838   0.794
10674SOL    HW132921   3.964   3.856   0.881
10674SOL    HW232922   3.944   3.906   0.726
10675SOL     OW32923   0.122   0.711   5.910
10675SOL    HW132924   0.165   0.671   5.829
10675SOL    HW232925   0.190   0.758   5.965
10676SOL     OW32926   6.043   0.457   6.329
10676SOL    HW132927   6.031   0.555   6.315
10676SOL    HW232928   6.078   0.416   6.245
10677SOL     OW32929   0.372   0.750   2.566
10677SOL    HW132930   0.376   0.761   2.666
10677SOL    HW232931   0.449   0.694   2.535
10678SOL     OW32932   3.046   5.493   2.750
10678SOL    HW132933   3.099   5.410   2.764
10678SOL    HW232934   2.951   5.469   2.731
10679SOL     OW32935   6.025   5.370   4.458
10679SOL    HW132936   5.973   5.403   4.380
10679SOL    HW232937   6.062   5.448   4.509
10680SOL     OW32938   1.422   3.128   2.325
10680SOL    HW132939   1.501   3.082   2.283
10680SOL    HW232940   1.363   3.059   2.367
10681SOL     OW32941   6.112   3.871   6.212
10681SOL    HW132942   6.056   3.939   6.259
10681SOL    HW232943   6.185   3.841   6.274
10682SOL     OW32944   0.991   1.559   2.783
10682SOL    HW132945   0.940   1.473   2.785
10682SOL    HW232946   1.033   1.570   2.693
10683SOL     OW32947   1.529   2.283   4.402
10683SOL    HW132948   1.561   2.190   4.424
10683SOL    HW232949   1.608   2.343   4.390
10684SOL     OW32950   6.048   3.891   0.616
10684SOL    HW132951   6.121   3.827   0.591
10684SOL    HW232952   6.042   3.897   0.716
10685SOL     OW32953   0.911   4.026   3.362
10685SOL    HW132954   0.972   4.104   3.352
10685SOL    HW232955   0.965   3.941   3.360
10686SOL     OW32956   3.328   6.090   7.018
10686SOL    HW132957   3.331   5.992   6.998
10686SOL    HW232958   3.242   6.128   6.982
10687SOL     OW32959   6.904   4.900   2.635
10687SOL    HW132960   6.823   4.853   2.600
10687SOL    HW232961   6.926   4.978   2.576
10688SOL     OW32962   6.889   4.313   2.457
10688SOL    HW132963   6.934   4.229   2.489
10688SOL    HW232964   6.790   4.305   2.472
10689SOL     OW32965   6.798   0.574   2.604
10689SOL    HW132966   6.718   0.590   2.661
10689SOL    HW232967   6.815   0.475   2.596
10690SOL     OW32968   4.151   5.574   2.349
10690SOL    HW132969   4.094   5.493   2.334
10690SOL    HW232970   4.240   5.560   2.306
10691SOL     OW32971   6.997   1.045   1.514
10691SOL    HW132972   0.059   1.021   1.566
10691SOL    HW232973   7.005   1.138   1.479
10692SOL     OW32974   3.499   6.267   3.640
10692SOL    HW132975   3.534   6.286   3.732
10692SOL    HW232976   3.510   6.170   3.621
10693SOL     OW32977   0.100   1.645   1.384
10693SOL    HW132978   0.157   1.724   1.359
10693SOL    HW232979   0.155   1.562   1.381
10694SOL     OW32980   3.657   5.750   1.297
10694SOL    HW132981   3.655   5.653   1.274
10694SOL    HW232982   3.721   5.798   1.236
10695SOL     OW32983   0.498   2.664   4.426
10695SOL    HW132984   0.463   2.755   4.406
10695SOL    HW232985   0.461   2.634   4.515
10696SOL     OW32986   0.250   5.903   1.238
10696SOL    HW132987   0.245   5.992   1.283
10696SOL    HW232988   0.306   5.910   1.156
10697SOL     OW32989   0.673   6.105   3.737
10697SOL    HW132990   0.767   6.085   3.765
10697SOL    HW232991   0.610   6.044   3.786
10698SOL     OW32992   2.761   0.076   3.254
10698SOL    HW132993   2.794   0.140   3.324
10698SOL    HW232994   2.683   0.025   3.290
10699SOL     OW32995   4.126   1.536   2.795
10699SOL    HW132996   4.088   1.626   2.818
10699SOL    HW232997   4.056   1.466   2.805
10700SOL     OW32998   6.894   6.501   1.042
10700SOL    HW132999   6.969   6.517   1.106
10700SOL    HW233000   6.920   6.536   0.952
10701SOL     OW33001   3.588   6.234   6.997
10701SOL    HW133002   3.528   6.289   0.034
10701SOL    HW233003   3.573   6.137   7.016
10702SOL     OW33004   5.950   2.547   6.984
10702SOL    HW133005   5.855   2.516   6.979
10702SOL    HW233006   6.002   2.509   6.907
10703SOL     OW33007   4.049   3.835   3.290
10703SOL    HW133008   4.048   3.735   3.283
10703SOL    HW233009   4.091   3.873   3.208
10704SOL     OW33010   5.046   0.359   2.302
10704SOL    HW133011   4.962   0.409   2.282
10704SOL    HW233012   5.125   0.415   2.278
10705SOL     OW33013   1.022   3.481   6.227
10705SOL    HW133014   0.972   3.496   6.142
10705SOL    HW233015   1.120   3.477   6.208
10706SOL     OW33016   3.981   0.702   1.635
10706SOL    HW133017   4.021   0.647   1.708
10706SOL    HW233018   3.926   0.776   1.674
10707SOL     OW33019   6.308   0.021   5.830
10707SOL    HW133020   6.382   7.000   5.777
10707SOL    HW233021   6.305   0.120   5.811
10708SOL     OW33022   4.970   0.917   0.905
10708SOL    HW133023   4.954   0.980   0.829
10708SOL    HW233024   5.068   0.909   0.921
10709SOL     OW33025   6.037   0.048   5.399
10709SOL    HW133026   5.967   0.061   5.328
10709SOL    HW233027   6.032   6.976   5.435
10710SOL     OW33028   6.190   5.786   3.686
10710SOL    HW133029   6.255   5.714   3.660
10710SOL    HW233030   6.156   5.831   3.603
10711SOL     OW33031   1.644   0.097   4.409
10711SOL    HW133032   1.615   0.008   4.373
10711SOL    HW233033   1.644   0.094   4.509
10712SOL     OW33034   3.832   1.167   4.920
10712SOL    HW133035   3.822   1.155   4.822
10712SOL    HW233036   3.919   1.213   4.939
10713SOL     OW33037   2.171   5.967   1.737
10713SOL    HW133038   2.150   6.063   1.756
10713SOL    HW233039   2.253   5.939   1.789
10714SOL     OW33040   0.560   5.045   4.818
10714SOL    HW133041   0.640   5.034   4.877
10714SOL    HW233042   0.555   4.969   4.753
10715SOL     OW33043   4.809   1.951   4.082
10715SOL    HW133044   4.905   1.942   4.057
10715SOL    HW233045   4.785   2.048   4.090
10716SOL     OW33046   6.294   0.755   4.241
10716SOL    HW133047   6.210   0.722   4.199
10716SOL    HW233048   6.361   0.681   4.245
10717SOL     OW33049   6.884   0.741   1.652
10717SOL    HW133050   6.970   0.788   1.632
10717SOL    HW233051   6.903   0.654   1.697
10718SOL     OW33052   6.450   5.041   6.648
10718SOL    HW133053   6.542   5.061   6.615
10718SOL    HW233054   6.393   5.123   6.641
10719SOL     OW33055   5.711   0.950   1.986
10719SOL    HW133056   5.624   0.995   1.970
10719SOL    HW233057   5.786   1.013   1.968
10720SOL     OW33058   0.431   3.791   6.669
10720SOL    HW133059   0.421   3.859   6.597
10720SOL    HW233060   0.528   3.780   6.692
10721SOL     OW33061   6.033   2.159   4.154
10721SOL    HW133062   5.955   2.219   4.168
10721SOL    HW233063   6.026   2.079   4.213
10722SOL     OW33064   6.622   3.721   0.464
10722SOL    HW133065   6.550   3.654   0.479
10722SOL    HW233066   6.665   3.704   0.375
10723SOL     OW33067   5.279   4.033   6.728
10723SOL    HW133068   5.297   4.032   6.630
10723SOL    HW233069   5.360   4.068   6.776
10724SOL     OW33070   4.085   6.418   6.108
10724SOL    HW133071   4.056   6.493   6.168
10724SOL    HW233072   4.183   6.425   6.091
10725SOL     OW33073   0.474   6.180   4.241
10725SOL    HW133074   0.471   6.092   4.192
10725SOL    HW233075   0.552   6.234   4.207
10726SOL     OW33076   5.809   0.286   4.592
10726SOL    HW133077   5.848   0.288   4.500
10726SOL    HW233078   5.709   0.287   4.585
10727SOL     OW33079   2.320   5.679   5.828
10727SOL    HW133080   2.330   5.596   5.882
10727SOL    HW233081   2.409   5.722   5.816
10728SOL     OW33082   4.768   6.609   2.920
10728SOL    HW133083   4.837   6.581   2.987
10728SOL    HW233084   4.795   6.696   2.879
10729SOL     OW33085   6.239   2.395   2.831
10729SOL    HW133086   6.143   2.381   2.858
10729SOL    HW233087   6.297   2.329   2.879
10730SOL     OW33088   1.679   6.978   2.569
10730SOL    HW133089   1.696   0.011   2.487
10730SOL    HW233090   1.583   6.949   2.571
10731SOL     OW33091   3.452   6.397   0.197
10731SOL    HW133092   3.359   6.387   0.162
10731SOL    HW233093   3.450   6.450   0.282
10732SOL     OW33094   5.840   5.851   2.829
10732SOL    HW133095   5.784   5.786   2.881
10732SOL    HW233096   5.874   5.923   2.890
10733SOL     OW33097   6.466   1.330   5.921
10733SOL    HW133098   6.440   1.235   5.936
10733SOL    HW233099   6.479   1.346   5.824
10734SOL     OW33100   1.683   1.107   6.295
10734SOL    HW133101   1.599   1.120   6.242
10734SOL    HW233102   1.712   1.012   6.288
10735SOL     OW33103   1.227   4.700   1.861
10735SOL    HW133104   1.318   4.661   1.873
10735SOL    HW233105   1.235   4.793   1.827
10736SOL     OW33106   6.810   0.142   3.398
10736SOL    HW133107   6.799   0.209   3.471
10736SOL    HW233108   6.907   0.117   3.390
10737SOL     OW33109   7.000   1.261   1.351
10737SOL    HW133110   6.989   1.248   1.253
10737SOL    HW233111   0.050   1.329   1.369
10738SOL     OW33112   2.643   0.727   2.963
10738SOL    HW133113   2.590   0.684   2.890
10738SOL    HW233114   2.609   0.819   2.981
10739SOL     OW33115   6.048   1.709   2.431
10739SOL    HW133116   6.116   1.756   2.375
10739SOL    HW233117   5.956   1.732   2.399
10740SOL     OW33118   1.731   6.651   5.813
10740SOL    HW133119   1.822   6.640   5.775
10740SOL    HW233120   1.725   6.737   5.863
10741SOL     OW33121   1.786   2.590   3.287
10741SOL    HW133122   1.725   2.667   3.305
10741SOL    HW233123   1.744   2.530   3.219
10742SOL     OW33124   6.142   5.502   2.324
10742SOL    HW133125   6.224   5.519   2.270
10742SOL    HW233126   6.142   5.562   2.405
10743SOL     OW33127   3.444   1.288   5.555
10743SOL    HW133128   3.526   1.264   5.607
10743SOL    HW233129   3.459   1.270   5.458
10744SOL     OW33130   2.993   0.330   0.716
10744SOL    HW133131   2.917   0.266   0.728
10744SOL    HW233132   3.025   0.328   0.622
10745SOL     OW33133   2.252   4.449   1.220
10745SOL    HW133134   2.225   4.492   1.134
10745SOL    HW233135   2.232   4.351   1.216
10746SOL     OW33136   2.096   6.455   6.869
10746SOL    HW133137   2.105   6.441   6.967
10746SOL    HW233138   2.144   6.381   6.821
10747SOL     OW33139   6.692   1.844   4.204
10747SOL    HW133140   6.741   1.884   4.282
10747SOL    HW233141   6.755   1.788   4.151
10748SOL     OW33142   4.169   5.246   1.114
10748SOL    HW133143   4.186   5.150   1.090
10748SOL    HW233144   4.123   5.250   1.203
10749SOL     OW33145   6.377   5.154   3.224
10749SOL    HW133146   6.334   5.140   3.135
10749SOL    HW233147   6.451   5.087   3.236
10750SOL     OW33148   4.781   2.838   3.945
10750SOL    HW133149   4.692   2.793   3.936
10750SOL    HW233150   4.816   2.822   4.037
10751SOL     OW33151   1.114   3.731   5.031
10751SOL    HW133152   1.193   3.705   4.976
10751SOL    HW233153   1.145   3.769   5.118
10752SOL     OW33154   5.881   6.075   0.510
10752SOL    HW133155   5.853   5.982   0.486
10752SOL    HW233156   5.819   6.140   0.466
10753SOL     OW33157   5.161   6.123   3.853
10753SOL    HW133158   5.228   6.174   3.799
10753SOL    HW233159   5.150   6.166   3.942
10754SOL     OW33160   1.565   2.915   1.750
10754SOL    HW133161   1.661   2.902   1.727
10754SOL    HW233162   1.554   2.921   1.849
10755SOL     OW33163   6.459   2.822   1.048
10755SOL    HW133164   6.427   2.727   1.045
10755SOL    HW233165   6.381   2.883   1.040
10756SOL     OW33166   0.249   2.889   0.651
10756SOL    HW133167   0.191   2.955   0.604
10756SOL    HW233168   0.198   2.846   0.726
10757SOL     OW33169   6.228   4.256   0.864
10757SOL    HW133170   6.215   4.271   0.766
10757SOL    HW233171   6.307   4.197   0.879
10758SOL     OW33172   0.479   6.586   6.679
10758SOL    HW133173   0.482   6.661   6.745
10758SOL    HW233174   0.532   6.610   6.598
10759SOL     OW33175   2.118   1.873   6.747
10759SOL    HW133176   2.039   1.934   6.756
10759SOL    HW233177   2.086   1.778   6.747
10760SOL     OW33178   0.136   5.787   0.086
10760SOL    HW133179   0.215   5.826   0.133
10760SOL    HW233180   0.146   5.688   0.080
10761SOL     OW33181   0.655   1.672   6.449
10761SOL    HW133182   0.595   1.593   6.463
10761SOL    HW233183   0.615   1.752   6.493
10762SOL     OW33184   4.123   0.347   5.618
10762SOL    HW133185   4.059   0.283   5.575
10762SOL    HW233186   4.096   0.361   5.714
10763SOL     OW33187   5.655   0.220   3.173
10763SOL    HW133188   5.632   0.140   3.116
10763SOL    HW233189   5.742   0.204   3.220
10764SOL     OW33190   4.331   1.193   4.995
10764SOL    HW133191   4.408   1.228   4.941
10764SOL    HW233192   4.359   1.183   5.091
10765SOL     OW33193   6.380   2.250   2.467
10765SOL    HW133194   6.337   2.337   2.493
10765SOL    HW233195   6.457   2.268   2.406
10766SOL     OW33196   1.272   4.652   6.777
10766SOL    HW133197   1.272   4.660   6.677
10766SOL    HW233198   1.182   4.680   6.812
10767SOL     OW33199   1.518   5.796   0.770
10767SOL    HW133200   1.487   5.832   0.858
10767SOL    HW233201   1.614   5.770   0.777
10768SOL     OW33202   5.842   5.938   0.157
10768SOL    HW133203   5.749   5.949   0.121
10768SOL    HW233204   5.839   5.940   0.257
10769SOL     OW33205   2.949   3.746   5.156
10769SOL    HW133206   2.980   3.678   5.089
10769SOL    HW233207   3.011   3.824   5.155
10770SOL     OW33208   5.516   6.834   4.567
10770SOL    HW133209   5.489   6.790   4.653
10770SOL    HW233210   5.434   6.863   4.518
10771SOL     OW33211   5.482   6.719   5.750
10771SOL    HW133212   5.444   6.661   5.822
10771SOL    HW233213   5.541   6.664   5.691
10772SOL     OW33214   5.646   5.507   3.323
10772SOL    HW133215   5.641   5.408   3.308
10772SOL    HW233216   5.565   5.550   3.286
10773SOL     OW33217   6.678   4.453   1.074
10773SOL    HW133218   6.695   4.515   0.998
10773SOL    HW233219   6.765   4.434   1.121
10774SOL     OW33220   1.227   2.287   0.911
10774SOL    HW133221   1.173   2.320   0.988
10774SOL    HW233222   1.190   2.199   0.879
10775SOL     OW33223   1.580   4.473   0.675
10775SOL    HW133224   1.629   4.484   0.761
10775SOL    HW233225   1.576   4.376   0.651
10776SOL     OW33226   6.897   0.916   3.121
10776SOL    HW133227   6.990   0.893   3.092
10776SOL    HW233228   6.900   0.984   3.194
10777SOL     OW33229   2.873   0.916   3.150
10777SOL    HW133230   2.874   0.831   3.098
10777SOL    HW233231   2.805   0.978   3.111
10778SOL     OW33232   6.274   6.370   4.069
10778SOL    HW133233   6.274   6.454   4.123
10778SOL    HW233234   6.297   6.391   3.974
10779SOL     OW33235   6.052   3.924   4.220
10779SOL    HW133236   5.965   3.974   4.227
10779SOL    HW233237   6.055   3.853   4.290
10780SOL     OW33238   0.834   5.889   4.604
10780SOL    HW133239   0.923   5.845   4.617
10780SOL    HW233240   0.764   5.837   4.653
10781SOL     OW33241   5.825   2.565   4.735
10781SOL    HW133242   5.824   2.549   4.834
10781SOL    HW233243   5.882   2.496   4.691
10782SOL     OW33244   0.852   3.156   5.327
10782SOL    HW133245   0.847   3.066   5.284
10782SOL    HW233246   0.802   3.155   5.414
10783SOL     OW33247   0.957   2.315   2.715
10783SOL    HW133248   1.008   2.390   2.671
10783SOL    HW233249   0.948   2.239   2.651
10784SOL     OW33250   3.155   6.119   2.384
10784SOL    HW133251   3.178   6.044   2.446
10784SOL    HW233252   3.191   6.204   2.421
10785SOL     OW33253   1.888   5.648   2.296
10785SOL    HW133254   1.874   5.732   2.349
10785SOL    HW233255   1.808   5.631   2.238
10786SOL     OW33256   4.835   1.737   2.272
10786SOL    HW133257   4.935   1.738   2.272
10786SOL    HW233258   4.802   1.649   2.238
10787SOL     OW33259   3.298   0.873   3.678
10787SOL    HW133260   3.393   0.899   3.696
10787SOL    HW233261   3.287   0.852   3.581
10788SOL     OW33262   0.478   4.362   0.159
10788SOL    HW133263   0.486   4.427   0.234
10788SOL    HW233264   0.492   4.269   0.193
10789SOL     OW33265   6.130   1.506   6.997
10789SOL    HW133266   6.176   1.423   0.008
10789SOL    HW233267   6.032   1.488   6.987
10790SOL     OW33268   0.402   2.110   4.670
10790SOL    HW133269   0.334   2.152   4.730
10790SOL    HW233270   0.476   2.175   4.654
10791SOL     OW33271   1.881   1.250   2.845
10791SOL    HW133272   1.944   1.312   2.892
10791SOL    HW233273   1.808   1.224   2.908
10792SOL     OW33274   3.918   2.379   1.272
10792SOL    HW133275   3.896   2.476   1.284
10792SOL    HW233276   3.843   2.333   1.225
10793SOL     OW33277   4.646   1.877   5.033
10793SOL    HW133278   4.702   1.958   5.017
10793SOL    HW233279   4.557   1.904   5.069
10794SOL     OW33280   4.424   3.170   1.722
10794SOL    HW133281   4.494   3.132   1.783
10794SOL    HW233282   4.454   3.261   1.691
10795SOL     OW33283   6.981   3.509   3.022
10795SOL    HW133284   6.895   3.560   3.013
10795SOL    HW233285   0.024   3.539   2.951
10796SOL     OW33286   6.598   6.329   6.558
10796SOL    HW133287   6.634   6.421   6.574
10796SOL    HW233288   6.546   6.300   6.638
10797SOL     OW33289   4.226   3.568   0.856
10797SOL    HW133290   4.177   3.484   0.881
10797SOL    HW233291   4.241   3.624   0.937
10798SOL     OW33292   3.127   7.020   6.485
10798SOL    HW133293   3.028   0.003   6.488
10798SOL    HW233294   3.158   6.934   6.528
10799SOL     OW33295   3.094   1.271   2.957
10799SOL    HW133296   3.092   1.199   3.028
10799SOL    HW233297   3.032   1.246   2.883
10800SOL     OW33298   1.426   0.678   6.347
10800SOL    HW133299   1.487   0.626   6.407
10800SOL    HW233300   1.363   0.731   6.403
10801SOL     OW33301   2.137   5.678   6.391
10801SOL    HW133302   2.184   5.756   6.351
10801SOL    HW233303   2.202   5.625   6.447
10802SOL     OW33304   0.895   3.458   4.276
10802SOL    HW133305   0.948   3.435   4.358
10802SOL    HW233306   0.897   3.557   4.261
10803SOL     OW33307   6.129   4.749   5.526
10803SOL    HW133308   6.204   4.709   5.579
10803SOL    HW233309   6.148   4.739   5.429
10804SOL     OW33310   5.679   4.575   1.945
10804SOL    HW133311   5.628   4.635   1.883
10804SOL    HW233312   5.641   4.582   2.037
10805SOL     OW33313   4.570   6.874   0.657
10805SOL    HW133314   4.510   6.814   0.710
10805SOL    HW233315   4.518   6.952   0.623
10806SOL     OW33316   5.609   3.621   0.318
10806SOL    HW133317   5.547   3.575   0.381
10806SOL    HW233318   5.598   3.720   0.326
10807SOL     OW33319   3.751   6.166   3.170
10807SOL    HW133320   3.673   6.104   3.175
10807SOL    HW233321   3.733   6.246   3.226
10808SOL     OW33322   0.334   2.937   6.015
10808SOL    HW133323   0.271   2.948   5.939
10808SOL    HW233324   0.406   3.006   6.010
10809SOL     OW33325   2.480   0.385   3.476
10809SOL    HW133326   2.456   0.295   3.511
10809SOL    HW233327   2.400   0.426   3.431
10810SOL     OW33328   0.254   1.510   5.239
10810SOL    HW133329   0.307   1.472   5.163
10810SOL    HW233330   0.226   1.436   5.300
10811SOL     OW33331   4.772   4.683   5.152
10811SOL    HW133332   4.760   4.760   5.088
10811SOL    HW233333   4.683   4.641   5.170
10812SOL     OW33334   6.269   2.482   2.556
10812SOL    HW133335   6.257   2.477   2.655
10812SOL    HW233336   6.185   2.451   2.510
10813SOL     OW33337   2.718   5.829   1.936
10813SOL    HW133338   2.721   5.928   1.922
10813SOL    HW233339   2.771   5.783   1.865
10814SOL     OW33340   2.010   0.135   5.139
10814SOL    HW133341   2.063   0.064   5.092
10814SOL    HW233342   2.036   0.225   5.103
10815SOL     OW33343   5.131   4.003   2.530
10815SOL    HW133344   5.056   4.054   2.572
10815SOL    HW233345   5.147   3.919   2.581
10816SOL     OW33346   1.498   0.824   2.170
10816SOL    HW133347   1.407   0.785   2.161
10816SOL    HW233348   1.536   0.841   2.079
10817SOL     OW33349   4.892   0.036   2.519
10817SOL    HW133350   4.923   0.131   2.512
10817SOL    HW233351   4.802   0.028   2.476
10818SOL     OW33352   4.788   2.933   6.921
10818SOL    HW133353   4.791   2.959   6.824
10818SOL    HW233354   4.824   3.007   6.977
10819SOL     OW33355   6.974   4.588   6.608
10819SOL    HW133356   6.971   4.661   6.676
10819SOL    HW233357   7.009   4.624   6.522
10820SOL     OW33358   0.318   6.450   3.886
10820SOL    HW133359   0.413   6.420   3.875
10820SOL    HW233360   0.284   6.420   3.975
10821SOL     OW33361   6.769   0.544   0.986
10821SOL    HW133362   6.747   0.597   1.068
10821SOL    HW233363   6.794   0.607   0.912
10822SOL     OW33364   0.759   4.090   2.396
10822SOL    HW133365   0.704   4.133   2.468
10822SOL    HW233366   0.733   3.994   2.387
10823SOL     OW33367   2.232   6.183   1.258
10823SOL    HW133368   2.331   6.167   1.264
10823SOL    HW233369   2.190   6.161   1.346
10824SOL     OW33370   5.221   0.433   2.667
10824SOL    HW133371   5.266   0.504   2.612
10824SOL    HW233372   5.287   0.396   2.733
10825SOL     OW33373   3.646   0.812   0.797
10825SOL    HW133374   3.728   0.788   0.847
10825SOL    HW233375   3.599   0.887   0.845
10826SOL     OW33376   0.154   3.490   2.538
10826SOL    HW133377   0.110   3.433   2.608
10826SOL    HW233378   0.218   3.434   2.485
10827SOL     OW33379   0.116   3.291   4.324
10827SOL    HW133380   0.039   3.244   4.366
10827SOL    HW233381   0.094   3.387   4.312
10828SOL     OW33382   1.437   5.500   0.669
10828SOL    HW133383   1.479   5.581   0.627
10828SOL    HW233384   1.467   5.494   0.765
10829SOL     OW33385   3.241   3.829   2.127
10829SOL    HW133386   3.182   3.783   2.061
10829SOL    HW233387   3.188   3.898   2.176
10830SOL     OW33388   5.277   3.000   4.748
10830SOL    HW133389   5.362   2.991   4.697
10830SOL    HW233390   5.226   3.080   4.715
10831SOL     OW33391   5.348   1.244   3.097
10831SOL    HW133392   5.446   1.229   3.109
10831SOL    HW233393   5.330   1.342   3.087
10832SOL     OW33394   0.860   2.136   0.646
10832SOL    HW133395   0.842   2.230   0.675
10832SOL    HW233396   0.882   2.136   0.548
10833SOL     OW33397   2.502   0.601   4.470
10833SOL    HW133398   2.558   0.549   4.535
10833SOL    HW233399   2.558   0.672   4.428
10834SOL     OW33400   0.725   1.799   5.543
10834SOL    HW133401   0.786   1.842   5.476
10834SOL    HW233402   0.744   1.701   5.547
10835SOL     OW33403   5.599   1.714   2.514
10835SOL    HW133404   5.502   1.735   2.527
10835SOL    HW233405   5.610   1.617   2.494
10836SOL     OW33406   1.555   1.906   6.662
10836SOL    HW133407   1.493   1.940   6.591
10836SOL    HW233408   1.634   1.861   6.619
10837SOL     OW33409   6.679   4.662   0.863
10837SOL    HW133410   6.596   4.714   0.883
10837SOL    HW233411   6.659   4.591   0.795
10838SOL     OW33412   6.062   6.633   6.390
10838SOL    HW133413   6.090   6.537   6.381
10838SOL    HW233414   5.999   6.657   6.317
10839SOL     OW33415   1.719   2.487   0.427
10839SOL    HW133416   1.689   2.397   0.459
10839SOL    HW233417   1.733   2.547   0.506
10840SOL     OW33418   3.562   5.269   1.938
10840SOL    HW133419   3.576   5.310   1.848
10840SOL    HW233420   3.536   5.173   1.928
10841SOL     OW33421   3.961   5.460   5.775
10841SOL    HW133422   3.948   5.441   5.872
10841SOL    HW233423   4.059   5.463   5.754
10842SOL     OW33424   6.015   3.442   1.191
10842SOL    HW133425   5.960   3.472   1.269
10842SOL    HW233426   6.101   3.492   1.190
10843SOL     OW33427   0.577   1.706   2.229
10843SOL    HW133428   0.533   1.662   2.307
10843SOL    HW233429   0.624   1.637   2.174
10844SOL     OW33430   4.997   0.417   3.225
10844SOL    HW133431   4.964   0.480   3.155
10844SOL    HW233432   5.084   0.377   3.196
10845SOL     OW33433   1.181   1.129   1.604
10845SOL    HW133434   1.107   1.089   1.658
10845SOL    HW233435   1.162   1.225   1.585
10846SOL     OW33436   4.099   1.883   1.221
10846SOL    HW133437   4.169   1.824   1.262
10846SOL    HW233438   4.135   1.976   1.213
10847SOL     OW33439   3.938   2.567   6.223
10847SOL    HW133440   3.942   2.595   6.127
10847SOL    HW233441   3.855   2.604   6.265
10848SOL     OW33442   0.951   0.904   0.323
10848SOL    HW133443   0.971   0.925   0.418
10848SOL    HW233444   0.993   0.972   0.263
10849SOL     OW33445   3.029   5.409   4.862
10849SOL    HW133446   2.984   5.341   4.805
10849SOL    HW233447   3.120   5.377   4.888
10850SOL     OW33448   5.051   6.718   0.344
10850SOL    HW133449   5.136   6.718   0.292
10850SOL    HW233450   5.069   6.688   0.438
10851SOL     OW33451   3.158   2.414   6.704
10851SOL    HW133452   3.092   2.457   6.765
10851SOL    HW233453   3.116   2.336   6.659
10852SOL     OW33454   0.192   0.847   6.456
10852SOL    HW133455   0.142   0.862   6.371
10852SOL    HW233456   0.127   0.817   6.527
10853SOL     OW33457   2.620   1.371   4.634
10853SOL    HW133458   2.658   1.398   4.723
10853SOL    HW233459   2.662   1.426   4.562
10854SOL     OW33460   6.628   6.589   6.611
10854SOL    HW133461   6.599   6.670   6.561
10854SOL    HW233462   6.678   6.616   6.693
10855SOL     OW33463   1.550   6.479   1.531
10855SOL    HW133464   1.490   6.413   1.576
10855SOL    HW233465   1.620   6.431   1.479
10856SOL     OW33466   6.054   6.878   6.854
10856SOL    HW133467   6.037   6.970   6.818
10856SOL    HW233468   6.018   6.810   6.790
10857SOL     OW33469   5.888   1.403   3.754
10857SOL    HW133470   5.933   1.492   3.744
10857SOL    HW233471   5.852   1.374   3.665
10858SOL     OW33472   1.517   3.382   0.139
10858SOL    HW133473   1.598   3.339   0.099
10858SOL    HW233474   1.442   3.380   0.072
10859SOL     OW33475   0.982   4.358   3.000
10859SOL    HW133476   0.924   4.429   2.961
10859SOL    HW233477   0.926   4.293   3.052
10860SOL     OW33478   6.291   1.734   6.986
10860SOL    HW133479   6.228   1.656   6.986
10860SOL    HW233480   6.239   1.818   6.996
10861SOL     OW33481   3.226   2.821   1.652
10861SOL    HW133482   3.318   2.821   1.690
10861SOL    HW233483   3.217   2.895   1.585
10862SOL     OW33484   3.598   2.837   5.431
10862SOL    HW133485   3.648   2.763   5.384
10862SOL    HW233486   3.596   2.818   5.529
10863SOL     OW33487   2.404   1.225   3.166
10863SOL    HW133488   2.364   1.316   3.179
10863SOL    HW233489   2.504   1.232   3.172
10864SOL     OW33490   2.598   4.639   2.156
10864SOL    HW133491   2.691   4.663   2.126
10864SOL    HW233492   2.563   4.564   2.098
10865SOL     OW33493   4.446   1.990   3.093
10865SOL    HW133494   4.413   2.069   3.144
10865SOL    HW233495   4.532   1.958   3.132
10866SOL     OW33496   0.157   3.960   2.817
10866SOL    HW133497   0.145   3.868   2.855
10866SOL    HW233498   0.086   4.020   2.852
10867SOL     OW33499   3.677   2.885   0.544
10867SOL    HW133500   3.674   2.932   0.632
10867SOL    HW233501   3.587   2.890   0.500
10868SOL     OW33502   1.365   1.923   3.966
10868SOL    HW133503   1.328   1.830   3.961
10868SOL    HW233504   1.394   1.953   3.875
10869NA      NA33505   0.294   2.047   5.984
10870NA      NA33506   4.238   4.559   5.336
10871NA      NA33507   1.251   5.253   2.551
10872NA      NA33508   5.402   4.150   3.633
10873NA      NA33509   4.349   2.413   5.221
10874NA      NA33510   2.474   5.373   0.955
10875NA      NA33511   1.051   5.328   6.856
10876NA      NA33512   3.374   4.235   1.001
10877NA      NA33513   4.525   5.113   0.864
10878NA      NA33514   3.507   1.342   6.497
10879NA      NA33515   5.412   5.881   2.045
10880NA      NA33516   1.678   6.678   5.380
10881NA      NA33517   4.270   5.044   1.664
10882NA      NA33518   3.246   3.134   6.823
   7.02099   7.02099   7.02099
