Generated by trjconv : CNT in water t= 387.00000
33518
    1C        C    1   2.848   2.773   4.751
    1C        C    2   2.903   2.721   4.870
    1C        C    3   2.853   2.780   4.987
    1C        C    4   2.857   2.782   4.263
    1C        C    5   2.904   2.730   4.385
    1C        C    6   2.855   2.779   4.509
    1C        C    7   3.019   2.644   4.631
    1C        C    8   2.904   2.727   4.630
    1C        C    9   3.082   2.603   4.750
    1C        C   10   3.014   2.634   4.870
    1C        C   11   3.187   2.492   4.979
    1C        C   12   3.065   2.562   4.979
    1C        C   13   2.856   2.776   3.774
    1C        C   14   2.905   2.726   3.897
    1C        C   15   2.855   2.779   4.018
    1C        C   16   3.025   2.655   4.140
    1C        C   17   2.908   2.733   4.141
    1C        C   18   3.087   2.621   4.263
    1C        C   19   3.019   2.648   4.384
    1C        C   20   3.210   2.560   4.506
    1C        C   21   3.079   2.612   4.507
    1C        C   22   3.282   2.532   4.625
    1C        C   23   3.211   2.543   4.746
    1C        C   24   3.416   2.481   4.868
    1C        C   25   3.274   2.499   4.866
    1C        C   26   3.492   2.479   4.985
    1C        C   27   2.859   2.777   3.285
    1C        C   28   2.907   2.727   3.408
    1C        C   29   2.859   2.781   3.529
    1C        C   30   3.025   2.648   3.651
    1C        C   31   2.909   2.729   3.651
    1C        C   32   3.082   2.609   3.774
    1C        C   33   3.019   2.643   3.896
    1C        C   34   3.212   2.555   4.019
    1C        C   35   3.083   2.613   4.018
    1C        C   36   3.283   2.540   4.140
    1C        C   37   3.217   2.567   4.262
    1C        C   38   3.419   2.509   4.381
    1C        C   39   3.282   2.542   4.386
    1C        C   40   3.490   2.505   4.503
    1C        C   41   3.420   2.502   4.625
    1C        C   42   3.633   2.488   4.746
    1C        C   43   3.490   2.488   4.747
    1C        C   44   3.707   2.489   4.865
    1C        C   45   3.631   2.480   4.983
    1C        C   46   2.849   2.762   2.798
    1C        C   47   2.903   2.720   2.921
    1C        C   48   2.851   2.768   3.043
    1C        C   49   3.020   2.640   3.166
    1C        C   50   2.904   2.720   3.164
    1C        C   51   3.082   2.606   3.288
    1C        C   52   3.021   2.643   3.410
    1C        C   53   3.216   2.551   3.529
    1C        C   54   3.086   2.608   3.530
    1C        C   55   3.281   2.536   3.653
    1C        C   56   3.212   2.554   3.775
    1C        C   57   3.417   2.501   3.897
    1C        C   58   3.279   2.529   3.897
    1C        C   59   3.491   2.500   4.017
    1C        C   60   3.421   2.513   4.139
    1C        C   61   3.634   2.500   4.262
    1C        C   62   3.493   2.503   4.261
    1C        C   63   3.703   2.513   4.384
    1C        C   64   3.631   2.507   4.506
    1C        C   65   3.839   2.554   4.625
    1C        C   66   3.705   2.508   4.626
    1C        C   67   3.908   2.570   4.747
    1C        C   68   3.844   2.526   4.864
    1C        C   69   4.054   2.593   4.980
    1C        C   70   3.925   2.539   4.978
    1C        C   71   2.827   2.743   2.313
    1C        C   72   2.885   2.700   2.434
    1C        C   73   2.836   2.753   2.555
    1C        C   74   3.013   2.630   2.676
    1C        C   75   2.898   2.711   2.675
    1C        C   76   3.076   2.596   2.798
    1C        C   77   3.016   2.635   2.920
    1C        C   78   3.209   2.547   3.039
    1C        C   79   3.080   2.604   3.042
    1C        C   80   3.276   2.527   3.162
    1C        C   81   3.210   2.547   3.285
    1C        C   82   3.420   2.505   3.406
    1C        C   83   3.280   2.527   3.406
    1C        C   84   3.487   2.501   3.530
    1C        C   85   3.420   2.508   3.654
    1C        C   86   3.631   2.500   3.772
    1C        C   87   3.490   2.496   3.776
    1C        C   88   3.702   2.508   3.894
    1C        C   89   3.632   2.506   4.017
    1C        C   90   3.839   2.554   4.136
    1C        C   91   3.703   2.513   4.139
    1C        C   92   3.903   2.583   4.259
    1C        C   93   3.839   2.553   4.381
    1C        C   94   4.033   2.637   4.501
    1C        C   95   3.907   2.573   4.503
    1C        C   96   4.096   2.674   4.622
    1C        C   97   4.036   2.633   4.743
    1C        C   98   4.195   2.771   4.867
    1C        C   99   4.104   2.661   4.864
    1C        C  100   4.215   2.851   4.981
    1C        C  101   2.822   2.737   2.078
    1C        C  102   2.994   2.598   2.192
    1C        C  103   2.880   2.683   2.194
    1C        C  104   3.066   2.579   2.313
    1C        C  105   3.004   2.623   2.433
    1C        C  106   3.203   2.539   2.553
    1C        C  107   3.073   2.596   2.553
    1C        C  108   3.273   2.523   2.675
    1C        C  109   3.205   2.540   2.798
    1C        C  110   3.416   2.498   2.916
    1C        C  111   3.276   2.520   2.918
    1C        C  112   3.485   2.497   3.039
    1C        C  113   3.416   2.506   3.162
    1C        C  114   3.630   2.503   3.284
    1C        C  115   3.489   2.501   3.283
    1C        C  116   3.699   2.516   3.406
    1C        C  117   3.628   2.511   3.529
    1C        C  118   3.837   2.551   3.646
    1C        C  119   3.701   2.513   3.649
    1C        C  120   3.900   2.578   3.770
    1C        C  121   3.838   2.546   3.892
    1C        C  122   4.024   2.651   4.015
    1C        C  123   3.904   2.577   4.013
    1C        C  124   4.086   2.688   4.137
    1C        C  125   4.027   2.651   4.260
    1C        C  126   4.198   2.776   4.381
    1C        C  127   4.089   2.686   4.381
    1C        C  128   4.245   2.827   4.504
    1C        C  129   4.200   2.770   4.625
    1C        C  130   4.333   2.938   4.747
    1C        C  131   4.248   2.824   4.747
    1C        C  132   4.366   3.004   4.867
    1C        C  133   4.292   2.967   4.980
    1C        C  134   3.178   2.477   2.082
    1C        C  135   3.043   2.516   2.085
    1C        C  136   3.264   2.486   2.193
    1C        C  137   3.199   2.528   2.311
    1C        C  138   3.410   2.495   2.431
    1C        C  139   3.270   2.512   2.432
    1C        C  140   3.483   2.488   2.551
    1C        C  141   3.412   2.499   2.673
    1C        C  142   3.627   2.499   2.794
    1C        C  143   3.486   2.494   2.793
    1C        C  144   3.697   2.508   2.916
    1C        C  145   3.626   2.500   3.038
    1C        C  146   3.834   2.543   3.157
    1C        C  147   3.698   2.505   3.160
    1C        C  148   3.901   2.571   3.278
    1C        C  149   3.836   2.549   3.401
    1C        C  150   4.029   2.638   3.525
    1C        C  151   3.902   2.575   3.524
    1C        C  152   4.082   2.680   3.649
    1C        C  153   4.021   2.651   3.773
    1C        C  154   4.200   2.770   3.891
    1C        C  155   4.087   2.686   3.893
    1C        C  156   4.249   2.820   4.014
    1C        C  157   4.199   2.772   4.137
    1C        C  158   4.345   2.927   4.257
    1C        C  159   4.252   2.821   4.259
    1C        C  160   4.377   2.991   4.379
    1C        C  161   4.333   2.938   4.502
    1C        C  162   4.447   3.117   4.620
    1C        C  163   4.375   2.996   4.624
    1C        C  164   4.473   3.187   4.740
    1C        C  165   4.438   3.125   4.862
    1C        C  166   4.524   3.322   4.975
    1C        C  167   4.487   3.188   4.977
    1C        C  168   3.483   2.441   2.077
    1C        C  169   3.403   2.464   2.190
    1C        C  170   3.620   2.476   2.311
    1C        C  171   3.478   2.478   2.309
    1C        C  172   3.697   2.492   2.429
    1C        C  173   3.625   2.493   2.550
    1C        C  174   3.833   2.544   2.669
    1C        C  175   3.696   2.510   2.671
    1C        C  176   3.900   2.563   2.792
    1C        C  177   3.835   2.538   2.915
    1C        C  178   4.029   2.628   3.035
    1C        C  179   3.904   2.563   3.035
    1C        C  180   4.090   2.668   3.156
    1C        C  181   4.027   2.635   3.278
    1C        C  182   4.197   2.761   3.402
    1C        C  183   4.084   2.676   3.401
    1C        C  184   4.248   2.812   3.524
    1C        C  185   4.197   2.762   3.646
    1C        C  186   4.346   2.917   3.766
    1C        C  187   4.253   2.811   3.767
    1C        C  188   4.384   2.979   3.887
    1C        C  189   4.341   2.927   4.011
    1C        C  190   4.454   3.106   4.132
    1C        C  191   4.387   2.981   4.134
    1C        C  192   4.479   3.175   4.253
    1C        C  193   4.446   3.114   4.376
    1C        C  194   4.517   3.315   4.495
    1C        C  195   4.476   3.180   4.497
    1C        C  196   4.532   3.387   4.615
    1C        C  197   4.518   3.322   4.740
    1C        C  198   4.554   3.539   4.856
    1C        C  199   4.541   3.397   4.858
    1C        C  200   4.585   3.623   4.968
    1C        C  201   3.621   2.418   2.078
    1C        C  202   3.830   2.513   2.188
    1C        C  203   3.695   2.468   2.190
    1C        C  204   3.907   2.536   2.306
    1C        C  205   3.836   2.518   2.426
    1C        C  206   4.024   2.624   2.546
    1C        C  207   3.899   2.558   2.546
    1C        C  208   4.082   2.668   2.667
    1C        C  209   4.024   2.631   2.790
    1C        C  210   4.194   2.758   2.910
    1C        C  211   4.087   2.667   2.912
    1C        C  212   4.248   2.806   3.032
    1C        C  213   4.200   2.756   3.155
    1C        C  214   4.338   2.914   3.276
    1C        C  215   4.250   2.804   3.279
    1C        C  216   4.377   2.975   3.397
    1C        C  217   4.335   2.923   3.521
    1C        C  218   4.444   3.104   3.642
    1C        C  219   4.382   2.977   3.643
    1C        C  220   4.473   3.170   3.763
    1C        C  221   4.449   3.104   3.886
    1C        C  222   4.510   3.307   4.006
    1C        C  223   4.477   3.170   4.008
    1C        C  224   4.523   3.380   4.127
    1C        C  225   4.516   3.311   4.250
    1C        C  226   4.529   3.525   4.371
    1C        C  227   4.527   3.384   4.371
    1C        C  228   4.527   3.598   4.492
    1C        C  229   4.539   3.528   4.615
    1C        C  230   4.505   3.745   4.730
    1C        C  231   4.539   3.607   4.732
    1C        C  232   4.494   3.820   4.849
    1C        C  233   4.545   3.757   4.964
    1C        C  234   4.019   2.613   2.066
    1C        C  235   3.894   2.554   2.071
    1C        C  236   4.088   2.651   2.182
    1C        C  237   4.032   2.605   2.303
    1C        C  238   4.204   2.735   2.423
    1C        C  239   4.091   2.649   2.424
    1C        C  240   4.255   2.790   2.543
    1C        C  241   4.195   2.753   2.666
    1C        C  242   4.340   2.909   2.786
    1C        C  243   4.249   2.801   2.787
    1C        C  244   4.382   2.966   2.908
    1C        C  245   4.343   2.910   3.032
    1C        C  246   4.446   3.096   3.151
    1C        C  247   4.382   2.971   3.154
    1C        C  248   4.472   3.162   3.274
    1C        C  249   4.444   3.100   3.398
    1C        C  250   4.509   3.304   3.519
    1C        C  251   4.470   3.168   3.519
    1C        C  252   4.518   3.372   3.642
    1C        C  253   4.513   3.305   3.767
    1C        C  254   4.532   3.521   3.881
    1C        C  255   4.528   3.380   3.886
    1C        C  256   4.525   3.591   4.003
    1C        C  257   4.525   3.521   4.125
    1C        C  258   4.501   3.732   4.245
    1C        C  259   4.522   3.592   4.247
    1C        C  260   4.481   3.803   4.365
    1C        C  261   4.498   3.736   4.489
    1C        C  262   4.423   3.940   4.606
    1C        C  263   4.480   3.810   4.607
    1C        C  264   4.400   4.012   4.725
    1C        C  265   4.433   3.947   4.846
    1C        C  266   4.331   4.139   4.962
    1C        C  267   4.394   4.015   4.963
    1C        C  268   4.270   2.771   2.067
    1C        C  269   4.202   2.734   2.184
    1C        C  270   4.348   2.895   2.301
    1C        C  271   4.259   2.785   2.303
    1C        C  272   4.387   2.956   2.422
    1C        C  273   4.345   2.898   2.544
    1C        C  274   4.452   3.086   2.664
    1C        C  275   4.389   2.960   2.664
    1C        C  276   4.478   3.154   2.786
    1C        C  277   4.448   3.090   2.908
    1C        C  278   4.512   3.296   3.028
    1C        C  279   4.475   3.160   3.028
    1C        C  280   4.519   3.366   3.150
    1C        C  281   4.509   3.298   3.274
    1C        C  282   4.519   3.512   3.392
    1C        C  283   4.518   3.371   3.395
    1C        C  284   4.520   3.583   3.514
    1C        C  285   4.523   3.513   3.637
    1C        C  286   4.496   3.727   3.754
    1C        C  287   4.526   3.589   3.757
    1C        C  288   4.476   3.792   3.878
    1C        C  289   4.499   3.730   4.002
    1C        C  290   4.425   3.930   4.120
    1C        C  291   4.486   3.802   4.123
    1C        C  292   4.393   3.996   4.240
    1C        C  293   4.426   3.933   4.362
    1C        C  294   4.325   4.124   4.482
    1C        C  295   4.395   4.001   4.482
    1C        C  296   4.286   4.189   4.601
    1C        C  297   4.325   4.133   4.724
    1C        C  298   4.202   4.315   4.840
    1C        C  299   4.288   4.201   4.844
    1C        C  300   4.170   4.401   4.950
    1C        C  301   4.355   2.881   2.064
    1C        C  302   4.472   3.071   2.181
    1C        C  303   4.396   2.950   2.179
    1C        C  304   4.488   3.145   2.301
    1C        C  305   4.452   3.082   2.422
    1C        C  306   4.515   3.288   2.540
    1C        C  307   4.479   3.152   2.542
    1C        C  308   4.526   3.360   2.662
    1C        C  309   4.510   3.292   2.785
    1C        C  310   4.529   3.505   2.902
    1C        C  311   4.523   3.364   2.905
    1C        C  312   4.526   3.577   3.023
    1C        C  313   4.525   3.508   3.147
    1C        C  314   4.495   3.719   3.265
    1C        C  315   4.519   3.579   3.268
    1C        C  316   4.481   3.789   3.386
    1C        C  317   4.496   3.722   3.509
    1C        C  318   4.423   3.923   3.631
    1C        C  319   4.476   3.792   3.631
    1C        C  320   4.391   3.984   3.754
    1C        C  321   4.427   3.925   3.877
    1C        C  322   4.320   4.112   3.996
    1C        C  323   4.395   3.993   3.997
    1C        C  324   4.276   4.172   4.116
    1C        C  325   4.321   4.117   4.239
    1C        C  326   4.187   4.284   4.357
    1C        C  327   4.282   4.179   4.359
    1C        C  328   4.140   4.342   4.477
    1C        C  329   4.201   4.302   4.597
    1C        C  330   4.028   4.434   4.714
    1C        C  331   4.145   4.353   4.716
    1C        C  332   3.971   4.490   4.831
    1C        C  333   4.053   4.479   4.944
    1C        C  334   4.550   3.271   2.062
    1C        C  335   4.530   3.132   2.065
    1C        C  336   4.540   3.353   2.176
    1C        C  337   4.521   3.283   2.297
    1C        C  338   4.536   3.498   2.415
    1C        C  339   4.527   3.357   2.418
    1C        C  340   4.526   3.570   2.536
    1C        C  341   4.526   3.501   2.660
    1C        C  342   4.495   3.714   2.776
    1C        C  343   4.523   3.576   2.779
    1C        C  344   4.481   3.784   2.898
    1C        C  345   4.507   3.717   3.020
    1C        C  346   4.425   3.915   3.141
    1C        C  347   4.481   3.785   3.141
    1C        C  348   4.396   3.981   3.262
    1C        C  349   4.430   3.921   3.385
    1C        C  350   4.317   4.103   3.507
    1C        C  351   4.394   3.984   3.507
    1C        C  352   4.274   4.162   3.628
    1C        C  353   4.316   4.104   3.750
    1C        C  354   4.179   4.266   3.869
    1C        C  355   4.277   4.164   3.871
    1C        C  356   4.126   4.317   3.990
    1C        C  357   4.176   4.272   4.114
    1C        C  358   4.014   4.409   4.234
    1C        C  359   4.127   4.324   4.235
    1C        C  360   3.957   4.454   4.355
    1C        C  361   4.023   4.421   4.475
    1C        C  362   3.830   4.521   4.594
    1C        C  363   3.958   4.462   4.594
    1C        C  364   3.766   4.552   4.716
    1C        C  365   3.840   4.540   4.836
    1C        C  366   3.634   4.593   4.952
    1C        C  367   3.771   4.573   4.954
    1C        C  368   4.513   3.566   2.055
    1C        C  369   4.531   3.493   2.173
    1C        C  370   4.507   3.708   2.291
    1C        C  371   4.530   3.569   2.293
    1C        C  372   4.488   3.779   2.412
    1C        C  373   4.508   3.710   2.534
    1C        C  374   4.427   3.912   2.652
    1C        C  375   4.482   3.782   2.653
    1C        C  376   4.397   3.975   2.775
    1C        C  377   4.432   3.916   2.898
    1C        C  378   4.318   4.098   3.018
    1C        C  379   4.398   3.981   3.019
    1C        C  380   4.273   4.153   3.140
    1C        C  381   4.318   4.099   3.262
    1C        C  382   4.178   4.260   3.384
    1C        C  383   4.274   4.156   3.384
    1C        C  384   4.124   4.310   3.505
    1C        C  385   4.176   4.264   3.628
    1C        C  386   4.006   4.393   3.746
    1C        C  387   4.123   4.314   3.749
    1C        C  388   3.944   4.432   3.867
    1C        C  389   4.010   4.399   3.988
    1C        C  390   3.824   4.497   4.110
    1C        C  391   3.954   4.441   4.110
    1C        C  392   3.755   4.522   4.231
    1C        C  393   3.825   4.507   4.352
    1C        C  394   3.618   4.557   4.477
    1C        C  395   3.758   4.534   4.473
    1C        C  396   3.548   4.572   4.599
    1C        C  397   3.627   4.578   4.716
    1C        C  398   3.416   4.553   4.845
    1C        C  399   3.555   4.577   4.837
    1C        C  400   3.344   4.522   4.961
    1C        C  401   4.517   3.705   2.054
    1C        C  402   4.453   3.914   2.168
    1C        C  403   4.498   3.780   2.170
    1C        C  404   4.416   3.978   2.289
    1C        C  405   4.439   3.911   2.411
    1C        C  406   4.321   4.093   2.530
    1C        C  407   4.402   3.978   2.530
    1C        C  408   4.275   4.148   2.651
    1C        C  409   4.316   4.091   2.774
    1C        C  410   4.172   4.249   2.892
    1C        C  411   4.274   4.151   2.894
    1C        C  412   4.120   4.294   3.015
    1C        C  413   4.173   4.252   3.140
    1C        C  414   4.004   4.380   3.257
    1C        C  415   4.117   4.296   3.262
    1C        C  416   3.947   4.422   3.380
    1C        C  417   4.007   4.389   3.503
    1C        C  418   3.815   4.484   3.622
    1C        C  419   3.945   4.429   3.624
    1C        C  420   3.750   4.512   3.745
    1C        C  421   3.814   4.485   3.868
    1C        C  422   3.611   4.541   3.990
    1C        C  423   3.750   4.513   3.991
    1C        C  424   3.544   4.549   4.114
    1C        C  425   3.617   4.549   4.236
    1C        C  426   3.404   4.560   4.360
    1C        C  427   3.545   4.565   4.357
    1C        C  428   3.336   4.553   4.483
    1C        C  429   3.407   4.569   4.604
    1C        C  430   3.199   4.528   4.728
    1C        C  431   3.339   4.555   4.727
    1C        C  432   3.127   4.501   4.847
    1C        C  433   3.207   4.501   4.963
    1C        C  434   4.387   4.126   2.053
    1C        C  435   4.448   4.000   2.057
    1C        C  436   4.308   4.164   2.165
    1C        C  437   4.337   4.096   2.287
    1C        C  438   4.181   4.248   2.404
    1C        C  439   4.280   4.147   2.406
    1C        C  440   4.120   4.291   2.524
    1C        C  441   4.173   4.246   2.647
    1C        C  442   4.005   4.376   2.771
    1C        C  443   4.120   4.295   2.769
    1C        C  444   3.945   4.417   2.892
    1C        C  445   4.005   4.376   3.013
    1C        C  446   3.813   4.469   3.135
    1C        C  447   3.944   4.415   3.134
    1C        C  448   3.748   4.495   3.258
    1C        C  449   3.817   4.476   3.380
    1C        C  450   3.611   4.539   3.497
    1C        C  451   3.749   4.509   3.500
    1C        C  452   3.544   4.543   3.622
    1C        C  453   3.613   4.544   3.745
    1C        C  454   3.401   4.547   3.866
    1C        C  455   3.542   4.551   3.867
    1C        C  456   3.335   4.536   3.990
    1C        C  457   3.403   4.542   4.114
    1C        C  458   3.198   4.510   4.240
    1C        C  459   3.335   4.547   4.237
    1C        C  460   3.132   4.491   4.363
    1C        C  461   3.200   4.513   4.485
    1C        C  462   3.003   4.439   4.607
    1C        C  463   3.132   4.495   4.608
    1C        C  464   2.936   4.404   4.727
    1C        C  465   2.995   4.446   4.850
    1C        C  466   2.804   4.343   4.961
    1C        C  467   2.907   4.437   4.963
    1C        C  468   4.128   4.293   2.047
    1C        C  469   4.193   4.250   2.164
    1C        C  470   4.011   4.374   2.283
    1C        C  471   4.132   4.300   2.282
    1C        C  472   3.944   4.409   2.402
    1C        C  473   4.005   4.374   2.524
    1C        C  474   3.817   4.466   2.645
    1C        C  475   3.946   4.409   2.647
    1C        C  476   3.749   4.491   2.766
    1C        C  477   3.816   4.475   2.890
    1C        C  478   3.612   4.529   3.010
    1C        C  479   3.750   4.499   3.012
    1C        C  480   3.541   4.537   3.132
    1C        C  481   3.610   4.525   3.255
    1C        C  482   3.398   4.540   3.380
    1C        C  483   3.539   4.543   3.376
    1C        C  484   3.330   4.532   3.504
    1C        C  485   3.403   4.547   3.624
    1C        C  486   3.192   4.504   3.746
    1C        C  487   3.329   4.537   3.744
    1C        C  488   3.129   4.485   3.871
    1C        C  489   3.198   4.501   3.994
    1C        C  490   3.010   4.413   4.118
    1C        C  491   3.133   4.483   4.118
    1C        C  492   2.951   4.380   4.242
    1C        C  493   3.007   4.426   4.364
    1C        C  494   2.837   4.303   4.487
    1C        C  495   2.946   4.392   4.487
    1C        C  496   2.780   4.260   4.609
    1C        C  497   2.822   4.319   4.729
    1C        C  498   2.665   4.169   4.847
    1C        C  499   2.756   4.277   4.847
    1C        C  500   2.595   4.121   4.959
    1C        C  501   4.008   4.363   2.042
    1C        C  502   3.817   4.461   2.158
    1C        C  503   3.945   4.402   2.161
    1C        C  504   3.746   4.485   2.277
    1C        C  505   3.814   4.463   2.400
    1C        C  506   3.610   4.513   2.522
    1C        C  507   3.748   4.484   2.523
    1C        C  508   3.539   4.525   2.644
    1C        C  509   3.611   4.521   2.765
    1C        C  510   3.400   4.529   2.888
    1C        C  511   3.541   4.528   2.888
    1C        C  512   3.330   4.528   3.011
    1C        C  513   3.400   4.535   3.133
    1C        C  514   3.194   4.492   3.257
    1C        C  515   3.331   4.527   3.256
    1C        C  516   3.129   4.466   3.379
    1C        C  517   3.195   4.493   3.502
    1C        C  518   3.000   4.411   3.628
    1C        C  519   3.128   4.472   3.624
    1C        C  520   2.945   4.374   3.752
    1C        C  521   3.006   4.416   3.872
    1C        C  522   2.839   4.290   4.000
    1C        C  523   2.948   4.379   3.996
    1C        C  524   2.788   4.242   4.122
    1C        C  525   2.841   4.292   4.243
    1C        C  526   2.699   4.138   4.369
    1C        C  527   2.786   4.249   4.366
    1C        C  528   2.660   4.078   4.491
    1C        C  529   2.698   4.144   4.610
    1C        C  530   2.594   3.960   4.737
    1C        C  531   2.649   4.091   4.731
    1C        C  532   2.542   3.901   4.856
    1C        C  533   2.530   3.997   4.962
    1C        C  534   3.623   4.561   2.044
    1C        C  535   3.755   4.515   2.044
    1C        C  536   3.538   4.541   2.158
    1C        C  537   3.607   4.515   2.280
    1C        C  538   3.395   4.524   2.400
    1C        C  539   3.536   4.520   2.401
    1C        C  540   3.326   4.519   2.524
    1C        C  541   3.397   4.527   2.645
    1C        C  542   3.190   4.489   2.767
    1C        C  543   3.327   4.522   2.767
    1C        C  544   3.127   4.464   2.891
    1C        C  545   3.192   4.494   3.013
    1C        C  546   3.001   4.405   3.138
    1C        C  547   3.126   4.472   3.135
    1C        C  548   2.948   4.358   3.260
    1C        C  549   3.004   4.401   3.383
    1C        C  550   2.832   4.281   3.510
    1C        C  551   2.939   4.373   3.506
    1C        C  552   2.783   4.233   3.634
    1C        C  553   2.834   4.286   3.754
    1C        C  554   2.706   4.122   3.881
    1C        C  555   2.790   4.235   3.879
    1C        C  556   2.661   4.070   4.005
    1C        C  557   2.703   4.129   4.126
    1C        C  558   2.597   3.948   4.249
    1C        C  559   2.659   4.075   4.249
    1C        C  560   2.568   3.883   4.371
    1C        C  561   2.602   3.949   4.491
    1C        C  562   2.542   3.753   4.618
    1C        C  563   2.573   3.890   4.616
    1C        C  564   2.518   3.683   4.739
    1C        C  565   2.516   3.761   4.858
    1C        C  566   2.520   3.547   4.980
    1C        C  567   2.525   3.686   4.977
    1C        C  568   3.328   4.482   2.042
    1C        C  569   3.399   4.513   2.159
    1C        C  570   3.184   4.486   2.282
    1C        C  571   3.323   4.516   2.279
    1C        C  572   3.118   4.466   2.406
    1C        C  573   3.189   4.486   2.526
    1C        C  574   2.992   4.403   2.649
    1C        C  575   3.118   4.466   2.647
    1C        C  576   2.938   4.362   2.773
    1C        C  577   3.002   4.398   2.894
    1C        C  578   2.833   4.275   3.019
    1C        C  579   2.939   4.368   3.017
    1C        C  580   2.785   4.225   3.142
    1C        C  581   2.836   4.272   3.264
    1C        C  582   2.694   4.119   3.388
    1C        C  583   2.783   4.230   3.388
    1C        C  584   2.659   4.063   3.513
    1C        C  585   2.700   4.119   3.636
    1C        C  586   2.597   3.937   3.760
    1C        C  587   2.666   4.060   3.760
    1C        C  588   2.568   3.877   3.885
    1C        C  589   2.595   3.945   4.005
    1C        C  590   2.542   3.742   4.132
    1C        C  591   2.570   3.880   4.128
    1C        C  592   2.531   3.675   4.256
    1C        C  593   2.533   3.747   4.377
    1C        C  594   2.511   3.538   4.500
    1C        C  595   2.519   3.679   4.500
    1C        C  596   2.520   3.468   4.623
    1C        C  597   2.513   3.541   4.743
    1C        C  598   2.525   3.328   4.863
    1C        C  599   2.512   3.469   4.864
    1C        C  600   2.520   3.247   4.977
    1C        C  601   3.198   4.436   2.044
    1C        C  602   2.987   4.397   2.164
    1C        C  603   3.122   4.444   2.161
    1C        C  604   2.932   4.355   2.288
    1C        C  605   2.993   4.400   2.407
    1C        C  606   2.818   4.277   2.531
    1C        C  607   2.932   4.360   2.528
    1C        C  608   2.774   4.225   2.655
    1C        C  609   2.830   4.271   2.776
    1C        C  610   2.691   4.112   2.899
    1C        C  611   2.780   4.222   2.899
    1C        C  612   2.651   4.057   3.023
    1C        C  613   2.695   4.116   3.144
    1C        C  614   2.588   3.934   3.270
    1C        C  615   2.655   4.058   3.267
    1C        C  616   2.566   3.871   3.395
    1C        C  617   2.597   3.937   3.516
    1C        C  618   2.534   3.735   3.642
    1C        C  619   2.572   3.871   3.638
    1C        C  620   2.517   3.668   3.765
    1C        C  621   2.536   3.739   3.886
    1C        C  622   2.513   3.532   4.014
    1C        C  623   2.528   3.672   4.010
    1C        C  624   2.514   3.460   4.135
    1C        C  625   2.517   3.534   4.256
    1C        C  626   2.538   3.326   4.383
    1C        C  627   2.516   3.465   4.379
    1C        C  628   2.557   3.255   4.504
    1C        C  629   2.545   3.329   4.624
    1C        C  630   2.597   3.122   4.746
    1C        C  631   2.549   3.256   4.744
    1C        C  632   2.617   3.050   4.867
    1C        C  633   2.559   3.113   4.982
    1C        C  634   2.785   4.305   2.056
    1C        C  635   2.894   4.393   2.055
    1C        C  636   2.755   4.231   2.172
    1C        C  637   2.816   4.273   2.292
    1C        C  638   2.676   4.113   2.412
    1C        C  639   2.761   4.226   2.413
    1C        C  640   2.649   4.048   2.535
    1C        C  641   2.691   4.110   2.655
    1C        C  642   2.589   3.926   2.781
    1C        C  643   2.651   4.052   2.777
    1C        C  644   2.568   3.862   2.905
    1C        C  645   2.590   3.930   3.027
    1C        C  646   2.528   3.728   3.150
    1C        C  647   2.566   3.864   3.149
    1C        C  648   2.516   3.661   3.274
    1C        C  649   2.531   3.734   3.395
    1C        C  650   2.512   3.526   3.522
    1C        C  651   2.523   3.666   3.519
    1C        C  652   2.514   3.458   3.647
    1C        C  653   2.508   3.527   3.770
    1C        C  654   2.537   3.319   3.896
    1C        C  655   2.511   3.458   3.893
    1C        C  656   2.557   3.252   4.019
    1C        C  657   2.541   3.322   4.140
    1C        C  658   2.607   3.122   4.261
    1C        C  659   2.555   3.253   4.263
    1C        C  660   2.638   3.060   4.385
    1C        C  661   2.604   3.121   4.507
    1C        C  662   2.712   2.938   4.628
    1C        C  663   2.630   3.052   4.628
    1C        C  664   2.756   2.881   4.750
    1C        C  665   2.704   2.937   4.871
    1C        C  666   2.755   2.879   4.987
    1C        C  667   2.696   4.020   2.063
    1C        C  668   2.691   4.105   2.174
    1C        C  669   2.591   3.914   2.296
    1C        C  670   2.642   4.047   2.292
    1C        C  671   2.563   3.849   2.418
    1C        C  672   2.591   3.920   2.537
    1C        C  673   2.517   3.723   2.661
    1C        C  674   2.561   3.858   2.660
    1C        C  675   2.510   3.656   2.785
    1C        C  676   2.527   3.726   2.906
    1C        C  677   2.503   3.517   3.033
    1C        C  678   2.514   3.657   3.029
    1C        C  679   2.507   3.448   3.156
    1C        C  680   2.505   3.520   3.277
    1C        C  681   2.529   3.313   3.407
    1C        C  682   2.508   3.453   3.401
    1C        C  683   2.554   3.247   3.530
    1C        C  684   2.539   3.319   3.650
    1C        C  685   2.611   3.121   3.773
    1C        C  686   2.560   3.253   3.773
    1C        C  687   2.645   3.059   3.896
    1C        C  688   2.610   3.121   4.018
    1C        C  689   2.718   2.940   4.142
    1C        C  690   2.639   3.057   4.140
    1C        C  691   2.764   2.889   4.265
    1C        C  692   2.719   2.945   4.387
    1C        C  693   2.758   2.881   4.507
    1C        C  694   2.643   3.891   2.060
    1C        C  695   2.535   3.706   2.180
    1C        C  696   2.588   3.837   2.177
    1C        C  697   2.512   3.639   2.302
    1C        C  698   2.524   3.713   2.422
    1C        C  699   2.486   3.506   2.548
    1C        C  700   2.501   3.646   2.544
    1C        C  701   2.501   3.439   2.672
    1C        C  702   2.501   3.515   2.791
    1C        C  703   2.529   3.303   2.914
    1C        C  704   2.505   3.443   2.913
    1C        C  705   2.547   3.239   3.038
    1C        C  706   2.533   3.309   3.160
    1C        C  707   2.605   3.115   3.284
    1C        C  708   2.551   3.245   3.285
    1C        C  709   2.637   3.053   3.407
    1C        C  710   2.610   3.118   3.529
    1C        C  711   2.718   2.937   3.652
    1C        C  712   2.640   3.055   3.652
    1C        C  713   2.762   2.881   3.775
    1C        C  714   2.720   2.940   3.896
    1C        C  715   2.759   2.882   4.019
    1C        C  716   2.457   3.503   2.064
    1C        C  717   2.498   3.637   2.064
    1C        C  718   2.469   3.425   2.183
    1C        C  719   2.486   3.499   2.304
    1C        C  720   2.507   3.293   2.431
    1C        C  721   2.484   3.432   2.428
    1C        C  722   2.533   3.224   2.551
    1C        C  723   2.520   3.299   2.670
    1C        C  724   2.592   3.099   2.796
    1C        C  725   2.545   3.232   2.792
    1C        C  726   2.629   3.041   2.919
    1C        C  727   2.601   3.108   3.040
    1C        C  728   2.714   2.930   3.163
    1C        C  729   2.634   3.047   3.163
    1C        C  730   2.760   2.878   3.286
    1C        C  731   2.717   2.937   3.408
    1C        C  732   2.758   2.879   3.530
    1C        C  733   2.489   3.201   2.078
    1C        C  734   2.491   3.284   2.191
    1C        C  735   2.576   3.086   2.310
    1C        C  736   2.523   3.218   2.313
    1C        C  737   2.607   3.022   2.432
    1C        C  738   2.588   3.094   2.551
    1C        C  739   2.702   2.917   2.676
    1C        C  740   2.623   3.034   2.675
    1C        C  741   2.754   2.867   2.798
    1C        C  742   2.713   2.928   2.919
    1C        C  743   2.754   2.871   3.041
    1C        C  744   2.548   3.075   2.074
    1C        C  745   2.686   2.904   2.191
    1C        C  746   2.605   3.019   2.189
    1C        C  747   2.733   2.849   2.312
    1C        C  748   2.685   2.904   2.433
    1C        C  749   2.739   2.855   2.555
    1C        C  750   2.739   2.848   2.073
    1C        C  751   3.666   2.323   1.974
    1C        O  752   3.728   2.217   2.001
    1C        O  753   3.685   2.377   1.846
    1C        C  754   4.622   3.060   1.974
    1C        O  755   4.594   3.048   1.852
    1C        O  756   4.742   3.002   2.019
    1C        C  757   4.454   4.211   1.952
    1C        O  758   4.461   4.337   1.960
    1C        O  759   4.465   4.186   1.814
    1C        C  760   3.613   4.686   1.967
    1C        O  761   3.581   4.795   2.021
    1C        O  762   3.538   4.676   1.849
    1C        C  763   2.872   4.503   1.958
    1C        O  764   2.903   4.492   1.837
    1C        O  765   2.836   4.634   1.989
    1C        C  766   2.362   3.479   1.953
    1C        O  767   2.408   3.471   1.836
    1C        O  768   2.239   3.414   1.964
    1C        C  769   4.644   3.583   5.098
    1C        O  770   4.573   3.588   5.202
    1C        O  771   4.783   3.592   5.112
    1C        C  772   4.275   4.465   5.032
    1C        O  773   4.296   4.451   5.156
    1C        O  774   4.373   4.553   4.986
    1C        C  775   4.137   2.549   5.095
    1C        O  776   4.212   2.448   5.092
    1C        O  777   4.092   2.563   5.227
    1C        C  778   2.877   4.553   5.049
    1C        O  779   2.784   4.630   5.013
    1C        O  780   2.912   4.558   5.185
    1C        C  781   2.481   3.042   5.086
    1C        O  782   2.409   2.945   5.050
    1C        O  783   2.516   3.042   5.221
    1C        C  784   2.399   3.993   5.031
    1C        O  785   2.299   4.050   4.981
    1C        O  786   2.382   3.979   5.169
    1C        C  787   2.963   2.415   2.012
    1C        O  788   2.982   2.383   1.891
    1C        O  789   2.857   2.340   2.061
    1C        C  790   3.200   2.397   5.092
    1C        O  791   3.188   2.273   5.074
    1C        O  792   3.198   2.436   5.226
    1C        H  793   4.289   3.034   5.064
    1C        H  794   4.149   2.841   5.064
    1C        H  795   4.531   3.124   5.051
    1C        H  796   4.526   3.371   5.071
    1C        H  797   4.571   3.820   5.046
    1C        H  798   4.439   3.986   5.055
    1C        H  799   4.320   4.186   5.057
    1C        H  800   4.033   4.542   5.028
    1C        H  801   3.824   4.619   5.035
    1C        H  802   3.598   4.668   5.019
    1C        H  803   3.402   4.478   5.040
    1C        H  804   3.169   4.437   5.039
    1C        H  805   3.885   2.511   5.073
    1C        H  806   3.682   2.458   5.074
    1C        H  807   2.991   2.538   5.051
    1C        H  808   3.449   2.546   5.056
    1C        H  809   2.898   2.748   5.079
    1C        H  810   2.720   2.913   5.083
    1C        H  811   2.486   3.288   5.070
    1C        H  812   2.532   3.501   5.076
    1C        H  813   2.493   3.737   5.065
    1C        H  814   2.602   4.180   5.048
    1C        H  815   2.776   4.300   5.055
    1C        H  816   2.695   2.867   1.978
    1C        H  817   2.849   2.691   1.985
    1C        H  818   3.217   2.436   1.991
    1C        H  819   3.452   2.497   1.991
    1C        H  820   3.867   2.505   1.979
    1C        H  821   4.075   2.571   1.985
    1C        H  822   4.268   2.702   1.985
    1C        H  823   4.352   2.940   1.975
    1C        H  824   4.604   3.308   1.978
    1C        H  825   4.460   3.523   1.973
    1C        H  826   4.493   3.748   1.958
    1C        H  827   3.821   4.578   1.988
    1C        H  828   3.953   4.365   1.950
    1C        H  829   4.190   4.309   1.962
    1C        H  830   4.456   3.948   1.964
    1C        H  831   2.600   3.866   1.965
    1C        H  832   2.769   4.042   1.988
    1C        H  833   2.744   4.280   1.961
    1C        H  834   3.382   4.474   1.950
    1C        H  835   3.150   4.407   1.953
    1C        H  836   2.561   3.030   1.978
    1C        H  837   2.396   3.207   2.026
    1C        H  838   2.491   3.688   1.970
    2V3OU   H29  839   2.812   3.546   4.709
    2V3OU   C27  840   2.794   3.504   4.811
    2V3OU   H27  841   2.733   3.573   4.874
    2V3OU   H28  842   2.742   3.407   4.794
    2V3OU   O11  843   2.916   3.481   4.883
    2V3OU   C15  844   2.926   3.397   4.993
    2V3OU   C13  845   3.057   3.376   5.038
    2V3OU   C14  846   3.079   3.272   5.129
    2V3OU   C16  847   2.975   3.195   5.179
    2V3OU    H6  848   2.996   3.105   5.238
    2V3OU   C12  849   3.219   3.227   5.143
    2V3OU    O2  850   3.246   3.123   5.206
    2V3OU   C10  851   3.332   3.310   5.099
    2V3OU    C8  852   3.465   3.273   5.111
    2V3OU   O10  853   3.495   3.156   5.173
    2V3OU   H26  854   3.408   3.116   5.192
    2V3OU    C6  855   3.570   3.352   5.055
    2V3OU    C5  856   3.541   3.467   4.982
    2V3OU    C4  857   3.709   3.298   5.054
    2V3OU    H4  858   3.729   3.230   5.142
    2V3OU    H5  859   3.712   3.227   4.966
    2V3OU    C2  860   3.819   3.404   5.040
    2V3OU    O6  861   3.812   3.486   5.158
    2V3OU   H21  862   3.764   3.565   5.129
    2V3OU    C3  863   3.783   3.504   4.931
    2V3OU    H2  864   3.866   3.578   4.916
    2V3OU    H3  865   3.781   3.442   4.837
    2V3OU   C25  866   3.951   3.330   5.021
    2V3OU    O7  867   4.005   3.297   4.915
    2V3OU   C26  868   4.029   3.293   5.146
    2V3OU   H22  869   4.057   3.388   5.198
    2V3OU   H23  870   4.121   3.236   5.118
    2V3OU    O8  871   3.962   3.214   5.242
    2V3OU   H24  872   3.932   3.280   5.306
    2V3OU    C1  873   3.645   3.568   4.943
    2V3OU    H1  874   3.621   3.620   4.845
    2V3OU    O3  875   3.660   3.662   5.049
    2V3OU   C19  876   3.616   3.797   5.029
    2V3OU    H9  877   3.517   3.805   4.975
    2V3OU    O4  878   3.713   3.858   4.946
    2V3OU   C20  879   3.846   3.877   4.995
    2V3OU   H10  880   3.893   3.776   5.010
    2V3OU   C24  881   3.609   3.855   5.170
    2V3OU   H16  882   3.546   3.796   5.240
    2V3OU   H17  883   3.562   3.957   5.161
    2V3OU   C23  884   3.749   3.881   5.226
    2V3OU   H15  885   3.794   3.780   5.254
    2V3OU    N1  886   3.745   3.959   5.348
    2V3OU   H19  887   3.807   3.927   5.420
    2V3OU   H20  888   3.654   3.934   5.381
    2V3OU   C21  889   3.848   3.952   5.128
    2V3OU   H11  890   3.950   3.934   5.173
    2V3OU    O5  891   3.830   4.093   5.129
    2V3OU   H18  892   3.773   4.115   5.204
    2V3OU   C22  893   3.914   3.956   4.885
    2V3OU   H12  894   3.864   4.056   4.875
    2V3OU   H13  895   3.913   3.897   4.790
    2V3OU   H14  896   4.023   3.971   4.908
    2V3OU   C11  897   3.165   3.474   5.015
    2V3OU    O1  898   3.138   3.590   4.975
    2V3OU    C9  899   3.306   3.432   5.031
    2V3OU    C7  900   3.405   3.511   4.974
    2V3OU    O9  901   3.385   3.621   4.893
    2V3OU   H25  902   3.289   3.629   4.901
    2V3OU   C17  903   2.823   3.318   5.049
    2V3OU    H7  904   2.722   3.351   5.024
    2V3OU   C18  905   2.842   3.219   5.144
    2V3OU    H8  906   2.758   3.154   5.172
    3SOL     OW  907   3.138   4.446   5.341
    3SOL    HW1  908   3.074   4.481   5.273
    3SOL    HW2  909   3.204   4.517   5.365
    4SOL     OW  910   6.801   0.383   6.994
    4SOL    HW1  911   6.860   0.323   6.941
    4SOL    HW2  912   6.842   0.399   0.053
    5SOL     OW  913   4.186   0.864   1.514
    5SOL    HW1  914   4.143   0.860   1.604
    5SOL    HW2  915   4.251   0.940   1.511
    6SOL     OW  916   5.647   1.350   3.448
    6SOL    HW1  917   5.569   1.299   3.484
    6SOL    HW2  918   5.632   1.368   3.351
    7SOL     OW  919   1.245   4.285   5.284
    7SOL    HW1  920   1.180   4.324   5.219
    7SOL    HW2  921   1.236   4.186   5.285
    8SOL     OW  922   2.086   2.693   6.175
    8SOL    HW1  923   2.037   2.619   6.221
    8SOL    HW2  924   2.116   2.662   6.086
    9SOL     OW  925   6.863   1.759   6.431
    9SOL    HW1  926   6.949   1.809   6.424
    9SOL    HW2  927   6.801   1.806   6.493
   10SOL     OW  928   4.769   4.698   2.749
   10SOL    HW1  929   4.810   4.607   2.752
   10SOL    HW2  930   4.734   4.715   2.657
   11SOL     OW  931   2.067   0.904   6.814
   11SOL    HW1  932   2.020   0.958   6.744
   11SOL    HW2  933   2.096   0.964   6.888
   12SOL     OW  934   2.433   4.565   3.380
   12SOL    HW1  935   2.439   4.510   3.462
   12SOL    HW2  936   2.435   4.506   3.299
   13SOL     OW  937   4.306   6.235   3.025
   13SOL    HW1  938   4.323   6.277   2.936
   13SOL    HW2  939   4.312   6.136   3.017
   14SOL     OW  940   4.765   4.765   5.308
   14SOL    HW1  941   4.810   4.676   5.306
   14SOL    HW2  942   4.708   4.776   5.227
   15SOL     OW  943   0.957   6.065   6.146
   15SOL    HW1  944   0.929   6.086   6.240
   15SOL    HW2  945   0.887   6.011   6.101
   16SOL     OW  946   6.201   2.857   6.320
   16SOL    HW1  947   6.124   2.919   6.337
   16SOL    HW2  948   6.189   2.774   6.375
   17SOL     OW  949   6.204   0.653   5.732
   17SOL    HW1  950   6.240   0.746   5.732
   17SOL    HW2  951   6.110   0.653   5.698
   18SOL     OW  952   3.031   0.914   5.142
   18SOL    HW1  953   3.103   0.846   5.137
   18SOL    HW2  954   3.051   0.979   5.216
   19SOL     OW  955   1.306   1.803   3.276
   19SOL    HW1  956   1.224   1.853   3.247
   19SOL    HW2  957   1.362   1.862   3.334
   20SOL     OW  958   5.696   2.664   5.818
   20SOL    HW1  959   5.611   2.715   5.821
   20SOL    HW2  960   5.723   2.640   5.912
   21SOL     OW  961   3.674   6.124   2.690
   21SOL    HW1  962   3.670   6.056   2.617
   21SOL    HW2  963   3.611   6.099   2.763
   22SOL     OW  964   1.953   6.454   4.913
   22SOL    HW1  965   1.893   6.375   4.921
   22SOL    HW2  966   1.898   6.537   4.905
   23SOL     OW  967   5.070   4.661   2.045
   23SOL    HW1  968   5.100   4.587   2.106
   23SOL    HW2  969   4.981   4.638   2.006
   24SOL     OW  970   3.681   0.276   1.742
   24SOL    HW1  971   3.697   0.181   1.769
   24SOL    HW2  972   3.767   0.325   1.738
   25SOL     OW  973   2.639   0.073   3.251
   25SOL    HW1  974   2.617   0.167   3.225
   25SOL    HW2  975   2.722   0.043   3.202
   26SOL     OW  976   1.966   2.009   6.697
   26SOL    HW1  977   2.038   1.981   6.761
   26SOL    HW2  978   1.876   1.995   6.741
   27SOL     OW  979   6.958   0.960   2.345
   27SOL    HW1  980   0.006   1.010   2.381
   27SOL    HW2  981   6.981   0.921   2.255
   28SOL     OW  982   2.000   0.790   4.893
   28SOL    HW1  983   1.982   0.826   4.985
   28SOL    HW2  984   1.951   0.844   4.826
   29SOL     OW  985   6.885   1.020   6.900
   29SOL    HW1  986   6.837   0.932   6.902
   29SOL    HW2  987   6.925   1.038   6.990
   30SOL     OW  988   3.759   0.256   5.251
   30SOL    HW1  989   3.690   0.316   5.209
   30SOL    HW2  990   3.831   0.311   5.291
   31SOL     OW  991   0.262   3.034   4.791
   31SOL    HW1  992   0.216   2.946   4.785
   31SOL    HW2  993   0.251   3.084   4.706
   32SOL     OW  994   1.532   1.107   0.828
   32SOL    HW1  995   1.595   1.038   0.793
   32SOL    HW2  996   1.584   1.183   0.866
   33SOL     OW  997   0.492   3.665   5.650
   33SOL    HW1  998   0.559   3.625   5.587
   33SOL    HW2  999   0.540   3.707   5.727
   34SOL     OW 1000   1.630   5.376   5.255
   34SOL    HW1 1001   1.594   5.459   5.297
   34SOL    HW2 1002   1.577   5.353   5.173
   35SOL     OW 1003   3.801   2.894   6.459
   35SOL    HW1 1004   3.829   2.965   6.523
   35SOL    HW2 1005   3.738   2.933   6.391
   36SOL     OW 1006   5.206   0.854   4.077
   36SOL    HW1 1007   5.177   0.910   4.000
   36SOL    HW2 1008   5.220   0.760   4.047
   37SOL     OW 1009   1.950   1.732   3.757
   37SOL    HW1 1010   1.928   1.655   3.816
   37SOL    HW2 1011   2.037   1.772   3.785
   38SOL     OW 1012   1.902   5.385   2.176
   38SOL    HW1 1013   1.967   5.461   2.180
   38SOL    HW2 1014   1.951   5.299   2.179
   39SOL     OW 1015   5.817   5.022   6.625
   39SOL    HW1 1016   5.848   4.928   6.640
   39SOL    HW2 1017   5.783   5.060   6.711
   40SOL     OW 1018   3.531   0.412   6.227
   40SOL    HW1 1019   3.444   0.375   6.257
   40SOL    HW2 1020   3.533   0.511   6.245
   41SOL     OW 1021   5.786   4.047   2.208
   41SOL    HW1 1022   5.813   3.965   2.260
   41SOL    HW2 1023   5.694   4.074   2.236
   42SOL     OW 1024   2.900   5.625   4.603
   42SOL    HW1 1025   2.826   5.682   4.640
   42SOL    HW2 1026   2.894   5.625   4.503
   43SOL     OW 1027   4.203   0.012   4.845
   43SOL    HW1 1028   4.214   0.092   4.786
   43SOL    HW2 1029   4.221   6.959   4.793
   44SOL     OW 1030   6.105   3.472   5.032
   44SOL    HW1 1031   6.203   3.457   5.036
   44SOL    HW2 1032   6.072   3.456   4.939
   45SOL     OW 1033   4.336   5.641   0.776
   45SOL    HW1 1034   4.237   5.630   0.765
   45SOL    HW2 1035   4.379   5.551   0.786
   46SOL     OW 1036   0.297   3.074   4.212
   46SOL    HW1 1037   0.221   3.044   4.268
   46SOL    HW2 1038   0.377   3.016   4.228
   47SOL     OW 1039   5.320   3.375   2.169
   47SOL    HW1 1040   5.304   3.277   2.180
   47SOL    HW2 1041   5.251   3.426   2.221
   48SOL     OW 1042   6.992   3.293   0.053
   48SOL    HW1 1043   6.994   3.343   6.997
   48SOL    HW2 1044   6.898   3.266   0.075
   49SOL     OW 1045   4.897   3.297   0.260
   49SOL    HW1 1046   4.977   3.267   0.208
   49SOL    HW2 1047   4.859   3.219   0.310
   50SOL     OW 1048   5.982   2.297   6.178
   50SOL    HW1 1049   5.947   2.356   6.106
   50SOL    HW2 1050   6.065   2.337   6.218
   51SOL     OW 1051   2.091   4.978   3.128
   51SOL    HW1 1052   2.045   4.986   3.039
   51SOL    HW2 1053   2.036   5.023   3.198
   52SOL     OW 1054   5.460   3.346   1.896
   52SOL    HW1 1055   5.479   3.302   1.984
   52SOL    HW2 1056   5.448   3.275   1.826
   53SOL     OW 1057   4.832   0.015   3.383
   53SOL    HW1 1058   4.772   0.094   3.370
   53SOL    HW2 1059   4.906   0.017   3.315
   54SOL     OW 1060   5.816   5.894   0.473
   54SOL    HW1 1061   5.817   5.989   0.441
   54SOL    HW2 1062   5.744   5.844   0.426
   55SOL     OW 1063   2.124   2.708   6.618
   55SOL    HW1 1064   2.158   2.786   6.671
   55SOL    HW2 1065   2.035   2.680   6.654
   56SOL     OW 1066   1.689   1.895   0.148
   56SOL    HW1 1067   1.669   1.797   0.152
   56SOL    HW2 1068   1.787   1.909   0.134
   57SOL     OW 1069   3.831   0.834   6.981
   57SOL    HW1 1070   3.873   0.813   6.894
   57SOL    HW2 1071   3.732   0.841   6.969
   58SOL     OW 1072   0.986   0.510   6.174
   58SOL    HW1 1073   1.058   0.501   6.243
   58SOL    HW2 1074   0.920   0.436   6.186
   59SOL     OW 1075   6.208   3.719   6.649
   59SOL    HW1 1076   6.146   3.652   6.607
   59SOL    HW2 1077   6.271   3.671   6.710
   60SOL     OW 1078   5.773   0.566   3.281
   60SOL    HW1 1079   5.826   0.541   3.361
   60SOL    HW2 1080   5.778   0.665   3.267
   61SOL     OW 1081   0.466   1.278   4.168
   61SOL    HW1 1082   0.480   1.314   4.076
   61SOL    HW2 1083   0.550   1.287   4.221
   62SOL     OW 1084   0.853   0.954   2.043
   62SOL    HW1 1085   0.796   1.034   2.027
   62SOL    HW2 1086   0.918   0.945   1.967
   63SOL     OW 1087   3.933   6.451   4.012
   63SOL    HW1 1088   3.969   6.521   3.950
   63SOL    HW2 1089   3.905   6.494   4.097
   64SOL     OW 1090   1.564   4.112   6.659
   64SOL    HW1 1091   1.661   4.102   6.639
   64SOL    HW2 1092   1.551   4.179   6.732
   65SOL     OW 1093   0.801   0.590   5.374
   65SOL    HW1 1094   0.719   0.537   5.398
   65SOL    HW2 1095   0.798   0.614   5.277
   66SOL     OW 1096   3.769   0.073   2.450
   66SOL    HW1 1097   3.742   0.128   2.371
   66SOL    HW2 1098   3.778   0.131   2.530
   67SOL     OW 1099   0.336   2.246   0.602
   67SOL    HW1 1100   0.368   2.311   0.533
   67SOL    HW2 1101   0.328   2.155   0.560
   68SOL     OW 1102   0.088   2.266   5.468
   68SOL    HW1 1103   0.005   2.239   5.420
   68SOL    HW2 1104   0.156   2.194   5.461
   69SOL     OW 1105   1.053   5.213   5.584
   69SOL    HW1 1106   1.141   5.234   5.541
   69SOL    HW2 1107   1.046   5.263   5.671
   70SOL     OW 1108   5.508   3.350   4.453
   70SOL    HW1 1109   5.475   3.321   4.362
   70SOL    HW2 1110   5.557   3.437   4.444
   71SOL     OW 1111   4.629   1.770   4.860
   71SOL    HW1 1112   4.603   1.675   4.876
   71SOL    HW2 1113   4.578   1.829   4.923
   72SOL     OW 1114   0.292   0.623   3.860
   72SOL    HW1 1115   0.366   0.609   3.794
   72SOL    HW2 1116   0.222   0.681   3.820
   73SOL     OW 1117   2.921   0.814   0.188
   73SOL    HW1 1118   2.971   0.820   0.102
   73SOL    HW2 1119   2.975   0.761   0.254
   74SOL     OW 1120   2.596   1.449   6.382
   74SOL    HW1 1121   2.555   1.415   6.466
   74SOL    HW2 1122   2.694   1.465   6.396
   75SOL     OW 1123   3.963   1.500   0.940
   75SOL    HW1 1124   3.999   1.564   0.872
   75SOL    HW2 1125   3.967   1.542   1.031
   76SOL     OW 1126   2.605   4.356   5.290
   76SOL    HW1 1127   2.633   4.421   5.360
   76SOL    HW2 1128   2.569   4.406   5.211
   77SOL     OW 1129   1.886   5.490   4.505
   77SOL    HW1 1130   1.858   5.583   4.483
   77SOL    HW2 1131   1.846   5.463   4.593
   78SOL     OW 1132   4.630   1.693   1.144
   78SOL    HW1 1133   4.547   1.749   1.146
   78SOL    HW2 1134   4.704   1.746   1.102
   79SOL     OW 1135   1.970   5.212   1.868
   79SOL    HW1 1136   2.015   5.274   1.933
   79SOL    HW2 1137   1.926   5.138   1.918
   80SOL     OW 1138   4.645   2.032   5.181
   80SOL    HW1 1139   4.574   2.041   5.111
   80SOL    HW2 1140   4.719   2.096   5.162
   81SOL     OW 1141   2.013   6.582   1.080
   81SOL    HW1 1142   1.958   6.638   1.142
   81SOL    HW2 1143   1.952   6.530   1.019
   82SOL     OW 1144   0.887   5.982   1.828
   82SOL    HW1 1145   0.856   5.962   1.921
   82SOL    HW2 1146   0.819   6.038   1.782
   83SOL     OW 1147   6.570   2.367   5.744
   83SOL    HW1 1148   6.641   2.311   5.700
   83SOL    HW2 1149   6.507   2.308   5.794
   84SOL     OW 1150   6.446   3.228   3.850
   84SOL    HW1 1151   6.532   3.180   3.864
   84SOL    HW2 1152   6.465   3.326   3.837
   85SOL     OW 1153   1.838   6.802   3.852
   85SOL    HW1 1154   1.804   6.735   3.919
   85SOL    HW2 1155   1.760   6.842   3.803
   86SOL     OW 1156   5.604   1.368   6.040
   86SOL    HW1 1157   5.584   1.320   6.125
   86SOL    HW2 1158   5.584   1.465   6.049
   87SOL     OW 1159   4.263   4.657   6.740
   87SOL    HW1 1160   4.302   4.746   6.717
   87SOL    HW2 1161   4.337   4.592   6.757
   88SOL     OW 1162   2.737   2.780   5.818
   88SOL    HW1 1163   2.750   2.873   5.853
   88SOL    HW2 1164   2.649   2.744   5.850
   89SOL     OW 1165   3.155   3.094   2.075
   89SOL    HW1 1166   3.161   3.054   2.167
   89SOL    HW2 1167   3.149   3.021   2.007
   90SOL     OW 1168   5.065   3.515   3.051
   90SOL    HW1 1169   5.022   3.461   3.124
   90SOL    HW2 1170   5.030   3.609   3.055
   91SOL     OW 1171   5.535   5.655   6.332
   91SOL    HW1 1172   5.593   5.654   6.413
   91SOL    HW2 1173   5.574   5.594   6.263
   92SOL     OW 1174   5.188   4.316   0.068
   92SOL    HW1 1175   5.174   4.301   0.166
   92SOL    HW2 1176   5.254   4.390   0.055
   93SOL     OW 1177   2.838   2.950   1.171
   93SOL    HW1 1178   2.803   3.019   1.235
   93SOL    HW2 1179   2.766   2.885   1.149
   94SOL     OW 1180   2.973   0.055   6.229
   94SOL    HW1 1181   3.016   0.001   6.157
   94SOL    HW2 1182   2.886   0.091   6.196
   95SOL     OW 1183   0.651   0.743   4.466
   95SOL    HW1 1184   0.664   0.701   4.556
   95SOL    HW2 1185   0.716   0.704   4.401
   96SOL     OW 1186   4.749   4.997   6.979
   96SOL    HW1 1187   4.660   4.952   6.974
   96SOL    HW2 1188   4.817   4.933   7.014
   97SOL     OW 1189   1.587   4.923   5.534
   97SOL    HW1 1190   1.537   4.842   5.563
   97SOL    HW2 1191   1.673   4.894   5.490
   98SOL     OW 1192   1.109   2.586   2.139
   98SOL    HW1 1193   1.190   2.589   2.197
   98SOL    HW2 1194   1.123   2.645   2.059
   99SOL     OW 1195   3.667   3.403   3.642
   99SOL    HW1 1196   3.578   3.367   3.614
   99SOL    HW2 1197   3.714   3.443   3.563
  100SOL     OW 1198   0.110   6.736   4.140
  100SOL    HW1 1199   0.130   6.642   4.167
  100SOL    HW2 1200   0.182   6.770   4.079
  101SOL     OW 1201   0.665   4.698   2.369
  101SOL    HW1 1202   0.611   4.622   2.331
  101SOL    HW2 1203   0.759   4.690   2.337
  102SOL     OW 1204   2.767   6.090   1.899
  102SOL    HW1 1205   2.724   6.135   1.820
  102SOL    HW2 1206   2.827   6.155   1.945
  103SOL     OW 1207   1.768   1.367   2.394
  103SOL    HW1 1208   1.796   1.294   2.455
  103SOL    HW2 1209   1.804   1.454   2.426
  104SOL     OW 1210   1.015   4.278   1.809
  104SOL    HW1 1211   1.084   4.227   1.758
  104SOL    HW2 1212   1.044   4.289   1.904
  105SOL     OW 1213   5.754   1.693   6.586
  105SOL    HW1 1214   5.682   1.625   6.568
  105SOL    HW2 1215   5.743   1.770   6.524
  106SOL     OW 1216   5.148   5.271   1.645
  106SOL    HW1 1217   5.067   5.320   1.678
  106SOL    HW2 1218   5.131   5.172   1.652
  107SOL     OW 1219   6.709   1.352   0.232
  107SOL    HW1 1220   6.743   1.359   0.138
  107SOL    HW2 1221   6.658   1.266   0.243
  108SOL     OW 1222   2.128   0.534   4.906
  108SOL    HW1 1223   2.109   0.487   4.821
  108SOL    HW2 1224   2.106   0.631   4.896
  109SOL     OW 1225   3.643   1.051   2.863
  109SOL    HW1 1226   3.713   0.988   2.828
  109SOL    HW2 1227   3.672   1.145   2.845
  110SOL     OW 1228   2.388   4.258   5.669
  110SOL    HW1 1229   2.362   4.162   5.666
  110SOL    HW2 1230   2.486   4.267   5.649
  111SOL     OW 1231   5.922   1.101   2.617
  111SOL    HW1 1232   6.009   1.151   2.613
  111SOL    HW2 1233   5.849   1.158   2.580
  112SOL     OW 1234   4.317   6.920   6.898
  112SOL    HW1 1235   4.302   6.864   6.980
  112SOL    HW2 1236   4.283   6.870   6.818
  113SOL     OW 1237   6.381   5.798   2.740
  113SOL    HW1 1238   6.362   5.709   2.697
  113SOL    HW2 1239   6.474   5.826   2.720
  114SOL     OW 1240   1.223   4.358   3.674
  114SOL    HW1 1241   1.212   4.349   3.576
  114SOL    HW2 1242   1.304   4.413   3.694
  115SOL     OW 1243   5.991   0.946   3.476
  115SOL    HW1 1244   6.034   0.861   3.446
  115SOL    HW2 1245   6.015   1.020   3.413
  116SOL     OW 1246   0.919   5.884   1.139
  116SOL    HW1 1247   1.018   5.867   1.140
  116SOL    HW2 1248   0.871   5.798   1.122
  117SOL     OW 1249   2.996   1.428   0.008
  117SOL    HW1 1250   2.896   1.432   0.015
  117SOL    HW2 1251   3.025   1.459   6.948
  118SOL     OW 1252   1.116   1.574   3.545
  118SOL    HW1 1253   1.143   1.670   3.555
  118SOL    HW2 1254   1.140   1.524   3.628
  119SOL     OW 1255   0.033   6.830   6.813
  119SOL    HW1 1256   7.022   6.801   6.727
  119SOL    HW2 1257   7.022   6.916   6.843
  120SOL     OW 1258   5.051   0.864   5.383
  120SOL    HW1 1259   5.013   0.781   5.342
  120SOL    HW2 1260   5.108   0.911   5.316
  121SOL     OW 1261   1.358   3.340   7.015
  121SOL    HW1 1262   1.390   3.334   6.921
  121SOL    HW2 1263   1.327   3.250   0.015
  122SOL     OW 1264   1.485   4.259   6.885
  122SOL    HW1 1265   1.540   4.339   6.909
  122SOL    HW2 1266   1.390   4.287   6.874
  123SOL     OW 1267   1.396   1.268   1.417
  123SOL    HW1 1268   1.372   1.172   1.428
  123SOL    HW2 1269   1.371   1.319   1.500
  124SOL     OW 1270   2.966   2.250   0.979
  124SOL    HW1 1271   3.037   2.309   1.017
  124SOL    HW2 1272   2.877   2.277   1.016
  125SOL     OW 1273   3.484   2.660   0.033
  125SOL    HW1 1274   3.488   2.756   0.061
  125SOL    HW2 1275   3.434   2.607   0.102
  126SOL     OW 1276   3.635   2.904   3.344
  126SOL    HW1 1277   3.627   2.920   3.246
  126SOL    HW2 1278   3.714   2.844   3.361
  127SOL     OW 1279   0.120   5.904   6.164
  127SOL    HW1 1280   0.075   5.986   6.129
  127SOL    HW2 1281   0.219   5.914   6.154
  128SOL     OW 1282   4.721   3.682   1.550
  128SOL    HW1 1283   4.720   3.582   1.553
  128SOL    HW2 1284   4.631   3.717   1.575
  129SOL     OW 1285   2.217   6.153   0.946
  129SOL    HW1 1286   2.305   6.183   0.984
  129SOL    HW2 1287   2.164   6.109   1.018
  130SOL     OW 1288   5.432   2.040   4.734
  130SOL    HW1 1289   5.489   1.957   4.733
  130SOL    HW2 1290   5.378   2.041   4.818
  131SOL     OW 1291   0.250   1.761   3.874
  131SOL    HW1 1292   0.150   1.755   3.879
  131SOL    HW2 1293   0.279   1.854   3.896
  132SOL     OW 1294   3.426   4.132   1.803
  132SOL    HW1 1295   3.413   4.075   1.722
  132SOL    HW2 1296   3.509   4.187   1.793
  133SOL     OW 1297   5.605   0.270   4.433
  133SOL    HW1 1298   5.565   0.358   4.458
  133SOL    HW2 1299   5.581   0.201   4.502
  134SOL     OW 1300   5.874   0.459   1.857
  134SOL    HW1 1301   5.897   0.556   1.873
  134SOL    HW2 1302   5.879   0.439   1.760
  135SOL     OW 1303   4.954   3.673   4.044
  135SOL    HW1 1304   4.868   3.724   4.036
  135SOL    HW2 1305   4.989   3.652   3.953
  136SOL     OW 1306   2.762   6.596   4.590
  136SOL    HW1 1307   2.742   6.605   4.492
  136SOL    HW2 1308   2.802   6.506   4.607
  137SOL     OW 1309   3.252   2.013   5.081
  137SOL    HW1 1310   3.235   2.111   5.091
  137SOL    HW2 1311   3.244   1.988   4.984
  138SOL     OW 1312   1.037   5.424   4.636
  138SOL    HW1 1313   1.031   5.340   4.581
  138SOL    HW2 1314   0.969   5.490   4.603
  139SOL     OW 1315   2.083   5.959   6.667
  139SOL    HW1 1316   2.177   5.975   6.697
  139SOL    HW2 1317   2.082   5.937   6.570
  140SOL     OW 1318   2.194   0.879   3.099
  140SOL    HW1 1319   2.190   0.790   3.145
  140SOL    HW2 1320   2.128   0.941   3.141
  141SOL     OW 1321   6.694   4.152   0.275
  141SOL    HW1 1322   6.720   4.212   0.199
  141SOL    HW2 1323   6.648   4.071   0.239
  142SOL     OW 1324   0.732   4.309   1.756
  142SOL    HW1 1325   0.810   4.296   1.817
  142SOL    HW2 1326   0.759   4.365   1.679
  143SOL     OW 1327   5.796   6.925   1.824
  143SOL    HW1 1328   5.836   6.983   1.753
  143SOL    HW2 1329   5.700   6.950   1.838
  144SOL     OW 1330   2.610   4.563   3.817
  144SOL    HW1 1331   2.630   4.621   3.896
  144SOL    HW2 1332   2.690   4.506   3.796
  145SOL     OW 1333   6.698   5.005   2.903
  145SOL    HW1 1334   6.698   5.077   2.833
  145SOL    HW2 1335   6.617   4.947   2.891
  146SOL     OW 1336   6.174   1.751   5.570
  146SOL    HW1 1337   6.140   1.845   5.575
  146SOL    HW2 1338   6.261   1.751   5.521
  147SOL     OW 1339   5.106   1.242   5.035
  147SOL    HW1 1340   5.038   1.270   5.103
  147SOL    HW2 1341   5.097   1.300   4.954
  148SOL     OW 1342   1.247   4.750   0.965
  148SOL    HW1 1343   1.162   4.729   0.916
  148SOL    HW2 1344   1.282   4.839   0.934
  149SOL     OW 1345   2.452   2.268   5.139
  149SOL    HW1 1346   2.508   2.265   5.222
  149SOL    HW2 1347   2.409   2.358   5.131
  150SOL     OW 1348   4.531   1.423   5.411
  150SOL    HW1 1349   4.469   1.389   5.481
  150SOL    HW2 1350   4.487   1.497   5.361
  151SOL     OW 1351   4.242   2.037   0.809
  151SOL    HW1 1352   4.231   1.946   0.770
  151SOL    HW2 1353   4.327   2.078   0.775
  152SOL     OW 1354   0.851   1.145   6.916
  152SOL    HW1 1355   0.771   1.182   6.964
  152SOL    HW2 1356   0.909   1.221   6.887
  153SOL     OW 1357   2.241   1.462   3.830
  153SOL    HW1 1358   2.308   1.534   3.850
  153SOL    HW2 1359   2.215   1.468   3.733
  154SOL     OW 1360   6.156   1.988   1.588
  154SOL    HW1 1361   6.229   2.005   1.654
  154SOL    HW2 1362   6.101   1.910   1.620
  155SOL     OW 1363   0.413   0.142   2.044
  155SOL    HW1 1364   0.394   0.061   1.989
  155SOL    HW2 1365   0.334   0.163   2.101
  156SOL     OW 1366   4.674   0.994   0.086
  156SOL    HW1 1367   4.718   1.012   0.174
  156SOL    HW2 1368   4.692   0.900   0.058
  157SOL     OW 1369   5.214   3.786   0.543
  157SOL    HW1 1370   5.267   3.821   0.466
  157SOL    HW2 1371   5.218   3.851   0.619
  158SOL     OW 1372   1.318   3.471   2.780
  158SOL    HW1 1373   1.371   3.387   2.767
  158SOL    HW2 1374   1.290   3.479   2.875
  159SOL     OW 1375   5.221   5.397   0.791
  159SOL    HW1 1376   5.309   5.400   0.838
  159SOL    HW2 1377   5.235   5.396   0.692
  160SOL     OW 1378   5.702   0.497   0.432
  160SOL    HW1 1379   5.792   0.473   0.468
  160SOL    HW2 1380   5.707   0.587   0.389
  161SOL     OW 1381   0.892   6.874   0.314
  161SOL    HW1 1382   0.894   6.968   0.280
  161SOL    HW2 1383   0.905   6.875   0.413
  162SOL     OW 1384   2.567   6.203   0.145
  162SOL    HW1 1385   2.644   6.140   0.150
  162SOL    HW2 1386   2.591   6.281   0.087
  163SOL     OW 1387   6.493   4.483   3.155
  163SOL    HW1 1388   6.541   4.404   3.192
  163SOL    HW2 1389   6.416   4.452   3.099
  164SOL     OW 1390   1.596   1.797   2.879
  164SOL    HW1 1391   1.629   1.704   2.895
  164SOL    HW2 1392   1.562   1.835   2.964
  165SOL     OW 1393   0.456   5.800   2.596
  165SOL    HW1 1394   0.504   5.789   2.684
  165SOL    HW2 1395   0.523   5.809   2.523
  166SOL     OW 1396   6.203   3.889   2.073
  166SOL    HW1 1397   6.280   3.935   2.116
  166SOL    HW2 1398   6.127   3.953   2.064
  167SOL     OW 1399   5.074   1.374   0.007
  167SOL    HW1 1400   5.096   1.424   0.091
  167SOL    HW2 1401   5.054   1.439   6.964
  168SOL     OW 1402   4.930   4.120   1.748
  168SOL    HW1 1403   4.835   4.092   1.764
  168SOL    HW2 1404   4.991   4.043   1.770
  169SOL     OW 1405   5.963   2.805   1.223
  169SOL    HW1 1406   6.013   2.846   1.147
  169SOL    HW2 1407   5.908   2.728   1.189
  170SOL     OW 1408   1.416   4.978   3.031
  170SOL    HW1 1409   1.444   4.962   2.936
  170SOL    HW2 1410   1.417   4.892   3.081
  171SOL     OW 1411   2.128   3.288   0.598
  171SOL    HW1 1412   2.162   3.354   0.531
  171SOL    HW2 1413   2.195   3.277   0.671
  172SOL     OW 1414   5.675   2.029   1.873
  172SOL    HW1 1415   5.643   2.120   1.897
  172SOL    HW2 1416   5.770   2.034   1.840
  173SOL     OW 1417   6.256   1.265   5.057
  173SOL    HW1 1418   6.252   1.327   4.978
  173SOL    HW2 1419   6.346   1.272   5.100
  174SOL     OW 1420   5.349   5.724   5.261
  174SOL    HW1 1421   5.279   5.743   5.329
  174SOL    HW2 1422   5.439   5.719   5.305
  175SOL     OW 1423   1.428   0.363   0.553
  175SOL    HW1 1424   1.469   0.404   0.472
  175SOL    HW2 1425   1.329   0.354   0.540
  176SOL     OW 1426   4.724   4.839   2.492
  176SOL    HW1 1427   4.672   4.917   2.527
  176SOL    HW2 1428   4.750   4.855   2.397
  177SOL     OW 1429   5.540   1.796   4.668
  177SOL    HW1 1430   5.606   1.805   4.593
  177SOL    HW2 1431   5.449   1.782   4.631
  178SOL     OW 1432   2.174   6.225   4.881
  178SOL    HW1 1433   2.260   6.248   4.835
  178SOL    HW2 1434   2.124   6.308   4.903
  179SOL     OW 1435   4.340   5.116   0.583
  179SOL    HW1 1436   4.318   5.078   0.493
  179SOL    HW2 1437   4.311   5.212   0.587
  180SOL     OW 1438   3.829   0.398   0.746
  180SOL    HW1 1439   3.910   0.372   0.693
  180SOL    HW2 1440   3.748   0.354   0.707
  181SOL     OW 1441   3.261   2.498   5.496
  181SOL    HW1 1442   3.218   2.445   5.569
  181SOL    HW2 1443   3.257   2.445   5.411
  182SOL     OW 1444   5.575   2.461   0.118
  182SOL    HW1 1445   5.599   2.454   0.215
  182SOL    HW2 1446   5.652   2.502   0.068
  183SOL     OW 1447   3.415   2.112   4.618
  183SOL    HW1 1448   3.321   2.083   4.600
  183SOL    HW2 1449   3.423   2.141   4.713
  184SOL     OW 1450   0.373   6.696   3.544
  184SOL    HW1 1451   0.404   6.608   3.580
  184SOL    HW2 1452   0.281   6.686   3.507
  185SOL     OW 1453   0.496   1.616   4.176
  185SOL    HW1 1454   0.559   1.584   4.246
  185SOL    HW2 1455   0.451   1.538   4.132
  186SOL     OW 1456   5.248   5.439   4.380
  186SOL    HW1 1457   5.287   5.465   4.292
  186SOL    HW2 1458   5.229   5.521   4.434
  187SOL     OW 1459   3.915   5.677   2.833
  187SOL    HW1 1460   3.886   5.748   2.770
  187SOL    HW2 1461   4.014   5.664   2.827
  188SOL     OW 1462   2.570   2.160   3.008
  188SOL    HW1 1463   2.648   2.221   2.991
  188SOL    HW2 1464   2.524   2.141   2.921
  189SOL     OW 1465   6.361   5.643   0.020
  189SOL    HW1 1466   6.441   5.605   7.004
  189SOL    HW2 1467   6.308   5.568   0.061
  190SOL     OW 1468   6.174   5.764   0.211
  190SOL    HW1 1469   6.185   5.740   0.308
  190SOL    HW2 1470   6.137   5.856   0.203
  191SOL     OW 1471   6.630   0.865   6.099
  191SOL    HW1 1472   6.686   0.833   6.175
  191SOL    HW2 1473   6.665   0.827   6.014
  192SOL     OW 1474   0.223   4.947   1.188
  192SOL    HW1 1475   0.253   4.907   1.101
  192SOL    HW2 1476   0.213   5.046   1.176
  193SOL     OW 1477   3.155   5.112   6.311
  193SOL    HW1 1478   3.161   5.110   6.211
  193SOL    HW2 1479   3.169   5.020   6.347
  194SOL     OW 1480   3.947   6.533   2.043
  194SOL    HW1 1481   3.902   6.577   2.121
  194SOL    HW2 1482   3.878   6.490   1.985
  195SOL     OW 1483   3.069   0.595   1.967
  195SOL    HW1 1484   2.972   0.578   1.949
  195SOL    HW2 1485   3.102   0.531   2.035
  196SOL     OW 1486   2.552   1.075   6.402
  196SOL    HW1 1487   2.630   1.126   6.437
  196SOL    HW2 1488   2.514   1.124   6.323
  197SOL     OW 1489   2.338   6.137   0.002
  197SOL    HW1 1490   2.397   6.164   0.078
  197SOL    HW2 1491   2.292   6.218   6.996
  198SOL     OW 1492   4.547   5.805   0.686
  198SOL    HW1 1493   4.574   5.866   0.760
  198SOL    HW2 1494   4.477   5.742   0.719
  199SOL     OW 1495   5.551   0.649   2.196
  199SOL    HW1 1496   5.542   0.666   2.097
  199SOL    HW2 1497   5.516   0.557   2.217
  200SOL     OW 1498   1.406   3.638   2.257
  200SOL    HW1 1499   1.503   3.659   2.265
  200SOL    HW2 1500   1.366   3.623   2.348
  201SOL     OW 1501   2.835   0.747   6.909
  201SOL    HW1 1502   2.805   0.744   6.814
  201SOL    HW2 1503   2.892   0.828   6.923
  202SOL     OW 1504   4.785   6.505   4.115
  202SOL    HW1 1505   4.850   6.466   4.051
  202SOL    HW2 1506   4.803   6.470   4.207
  203SOL     OW 1507   5.078   3.461   6.027
  203SOL    HW1 1508   5.059   3.418   5.938
  203SOL    HW2 1509   5.116   3.552   6.013
  204SOL     OW 1510   1.172   0.193   0.414
  204SOL    HW1 1511   1.221   0.168   0.498
  204SOL    HW2 1512   1.124   0.279   0.428
  205SOL     OW 1513   0.262   1.575   1.094
  205SOL    HW1 1514   0.358   1.550   1.106
  205SOL    HW2 1515   0.216   1.574   1.183
  206SOL     OW 1516   0.821   4.518   1.176
  206SOL    HW1 1517   0.856   4.596   1.125
  206SOL    HW2 1518   0.898   4.468   1.218
  207SOL     OW 1519   4.306   0.324   5.842
  207SOL    HW1 1520   4.317   0.414   5.801
  207SOL    HW2 1521   4.358   0.319   5.927
  208SOL     OW 1522   5.229   4.578   5.868
  208SOL    HW1 1523   5.288   4.497   5.861
  208SOL    HW2 1524   5.226   4.624   5.779
  209SOL     OW 1525   0.301   6.176   5.682
  209SOL    HW1 1526   0.360   6.098   5.700
  209SOL    HW2 1527   0.242   6.156   5.604
  210SOL     OW 1528   3.976   2.162   1.971
  210SOL    HW1 1529   3.878   2.172   1.985
  210SOL    HW2 1530   4.008   2.229   1.904
  211SOL     OW 1531   0.618   1.439   1.909
  211SOL    HW1 1532   0.556   1.367   1.876
  211SOL    HW2 1533   0.657   1.411   1.996
  212SOL     OW 1534   0.525   4.441   3.179
  212SOL    HW1 1535   0.440   4.391   3.163
  212SOL    HW2 1536   0.508   4.539   3.170
  213SOL     OW 1537   5.185   1.123   0.017
  213SOL    HW1 1538   5.205   1.075   0.103
  213SOL    HW2 1539   5.142   1.211   0.037
  214SOL     OW 1540   0.550   6.799   3.197
  214SOL    HW1 1541   0.488   6.861   3.245
  214SOL    HW2 1542   0.506   6.766   3.114
  215SOL     OW 1543   3.969   3.075   1.879
  215SOL    HW1 1544   4.009   3.031   1.799
  215SOL    HW2 1545   4.019   3.047   1.961
  216SOL     OW 1546   1.353   0.113   4.473
  216SOL    HW1 1547   1.258   0.082   4.470
  216SOL    HW2 1548   1.399   0.072   4.552
  217SOL     OW 1549   1.955   2.646   4.255
  217SOL    HW1 1550   1.908   2.558   4.246
  217SOL    HW2 1551   2.022   2.655   4.181
  218SOL     OW 1552   1.075   2.458   4.248
  218SOL    HW1 1553   1.165   2.488   4.281
  218SOL    HW2 1554   1.087   2.379   4.188
  219SOL     OW 1555   3.601   4.148   0.371
  219SOL    HW1 1556   3.589   4.210   0.449
  219SOL    HW2 1557   3.692   4.108   0.375
  220SOL     OW 1558   2.232   5.461   6.960
  220SOL    HW1 1559   2.305   5.394   6.947
  220SOL    HW2 1560   2.206   5.464   0.026
  221SOL     OW 1561   5.609   3.083   4.073
  221SOL    HW1 1562   5.649   3.142   4.003
  221SOL    HW2 1563   5.675   3.070   4.147
  222SOL     OW 1564   1.464   5.387   5.026
  222SOL    HW1 1565   1.473   5.486   5.026
  222SOL    HW2 1566   1.517   5.349   4.950
  223SOL     OW 1567   0.098   3.604   2.051
  223SOL    HW1 1568   0.074   3.603   1.954
  223SOL    HW2 1569   0.154   3.684   2.071
  224SOL     OW 1570   2.751   2.320   2.325
  224SOL    HW1 1571   2.762   2.337   2.227
  224SOL    HW2 1572   2.824   2.260   2.357
  225SOL     OW 1573   5.943   1.125   0.061
  225SOL    HW1 1574   5.885   1.204   0.043
  225SOL    HW2 1575   6.038   1.155   0.067
  226SOL     OW 1576   1.263   6.930   1.061
  226SOL    HW1 1577   1.278   6.831   1.058
  226SOL    HW2 1578   1.311   6.973   0.984
  227SOL     OW 1579   1.464   3.930   3.328
  227SOL    HW1 1580   1.532   3.875   3.376
  227SOL    HW2 1581   1.376   3.883   3.332
  228SOL     OW 1582   3.737   6.962   4.369
  228SOL    HW1 1583   3.817   7.017   4.391
  228SOL    HW2 1584   3.693   6.931   4.453
  229SOL     OW 1585   5.952   5.702   1.293
  229SOL    HW1 1586   5.968   5.667   1.202
  229SOL    HW2 1587   6.000   5.789   1.305
  230SOL     OW 1588   2.147   3.854   4.273
  230SOL    HW1 1589   2.065   3.905   4.247
  230SOL    HW2 1590   2.158   3.858   4.373
  231SOL     OW 1591   6.607   3.185   6.285
  231SOL    HW1 1592   6.681   3.243   6.252
  231SOL    HW2 1593   6.634   3.142   6.371
  232SOL     OW 1594   1.801   3.880   6.406
  232SOL    HW1 1595   1.874   3.811   6.402
  232SOL    HW2 1596   1.729   3.856   6.340
  233SOL     OW 1597   2.634   0.954   5.732
  233SOL    HW1 1598   2.732   0.934   5.724
  233SOL    HW2 1599   2.582   0.872   5.708
  234SOL     OW 1600   2.621   5.056   0.040
  234SOL    HW1 1601   2.598   4.964   0.072
  234SOL    HW2 1602   2.716   5.058   0.010
  235SOL     OW 1603   3.681   3.402   3.916
  235SOL    HW1 1604   3.655   3.388   3.821
  235SOL    HW2 1605   3.603   3.438   3.967
  236SOL     OW 1606   6.320   2.982   6.101
  236SOL    HW1 1607   6.284   2.917   6.168
  236SOL    HW2 1608   6.247   3.045   6.074
  237SOL     OW 1609   6.856   6.918   1.410
  237SOL    HW1 1610   6.948   6.904   1.446
  237SOL    HW2 1611   6.847   6.872   1.321
  238SOL     OW 1612   5.743   3.829   1.861
  238SOL    HW1 1613   5.824   3.859   1.812
  238SOL    HW2 1614   5.677   3.792   1.795
  239SOL     OW 1615   0.249   5.805   6.865
  239SOL    HW1 1616   0.226   5.877   6.800
  239SOL    HW2 1617   0.262   5.719   6.816
  240SOL     OW 1618   1.006   3.779   6.250
  240SOL    HW1 1619   1.000   3.875   6.278
  240SOL    HW2 1620   1.072   3.731   6.308
  241SOL     OW 1621   0.533   1.185   3.710
  241SOL    HW1 1622   0.559   1.099   3.753
  241SOL    HW2 1623   0.452   1.172   3.653
  242SOL     OW 1624   1.496   3.148   5.108
  242SOL    HW1 1625   1.488   3.097   5.022
  242SOL    HW2 1626   1.590   3.181   5.118
  243SOL     OW 1627   4.808   0.435   6.245
  243SOL    HW1 1628   4.828   0.354   6.301
  243SOL    HW2 1629   4.812   0.517   6.303
  244SOL     OW 1630   5.244   1.440   4.827
  244SOL    HW1 1631   5.219   1.522   4.879
  244SOL    HW2 1632   5.336   1.411   4.850
  245SOL     OW 1633   6.262   2.587   5.091
  245SOL    HW1 1634   6.340   2.555   5.038
  245SOL    HW2 1635   6.259   2.540   5.179
  246SOL     OW 1636   4.940   3.863   3.723
  246SOL    HW1 1637   4.873   3.936   3.709
  246SOL    HW2 1638   5.026   3.902   3.755
  247SOL     OW 1639   2.897   1.191   3.555
  247SOL    HW1 1640   2.821   1.252   3.579
  247SOL    HW2 1641   2.874   1.139   3.473
  248SOL     OW 1642   4.596   1.939   4.596
  248SOL    HW1 1643   4.615   1.912   4.691
  248SOL    HW2 1644   4.530   2.015   4.596
  249SOL     OW 1645   3.206   6.561   4.722
  249SOL    HW1 1646   3.176   6.479   4.770
  249SOL    HW2 1647   3.170   6.560   4.629
  250SOL     OW 1648   5.521   2.627   5.534
  250SOL    HW1 1649   5.422   2.641   5.527
  250SOL    HW2 1650   5.566   2.716   5.546
  251SOL     OW 1651   4.580   3.049   6.450
  251SOL    HW1 1652   4.543   3.090   6.533
  251SOL    HW2 1653   4.552   2.953   6.445
  252SOL     OW 1654   6.597   1.149   5.993
  252SOL    HW1 1655   6.654   1.227   6.018
  252SOL    HW2 1656   6.610   1.075   6.059
  253SOL     OW 1657   2.012   2.683   0.985
  253SOL    HW1 1658   2.096   2.700   1.037
  253SOL    HW2 1659   1.935   2.724   1.033
  254SOL     OW 1660   0.035   3.409   4.441
  254SOL    HW1 1661   0.071   3.376   4.354
  254SOL    HW2 1662   6.997   3.481   4.424
  255SOL     OW 1663   3.252   2.137   3.294
  255SOL    HW1 1664   3.241   2.170   3.201
  255SOL    HW2 1665   3.187   2.184   3.354
  256SOL     OW 1666   6.273   5.479   6.613
  256SOL    HW1 1667   6.197   5.493   6.678
  256SOL    HW2 1668   6.235   5.462   6.522
  257SOL     OW 1669   2.687   5.374   5.897
  257SOL    HW1 1670   2.745   5.361   5.816
  257SOL    HW2 1671   2.745   5.374   5.979
  258SOL     OW 1672   4.955   4.546   4.808
  258SOL    HW1 1673   4.885   4.493   4.760
  258SOL    HW2 1674   5.038   4.548   4.752
  259SOL     OW 1675   1.892   3.024   2.594
  259SOL    HW1 1676   1.818   3.088   2.612
  259SOL    HW2 1677   1.875   2.940   2.646
  260SOL     OW 1678   5.143   0.411   6.387
  260SOL    HW1 1679   5.116   0.324   6.427
  260SOL    HW2 1680   5.168   0.475   6.459
  261SOL     OW 1681   0.481   4.337   1.683
  261SOL    HW1 1682   0.574   4.322   1.716
  261SOL    HW2 1683   0.417   4.285   1.740
  262SOL     OW 1684   0.994   2.717   2.566
  262SOL    HW1 1685   1.058   2.732   2.491
  262SOL    HW2 1686   0.906   2.760   2.544
  263SOL     OW 1687   0.800   2.720   4.897
  263SOL    HW1 1688   0.747   2.714   4.812
  263SOL    HW2 1689   0.741   2.696   4.974
  264SOL     OW 1690   0.873   3.514   5.928
  264SOL    HW1 1691   0.783   3.501   5.885
  264SOL    HW2 1692   0.860   3.537   6.024
  265SOL     OW 1693   5.041   4.443   4.212
  265SOL    HW1 1694   5.079   4.508   4.146
  265SOL    HW2 1695   4.957   4.404   4.176
  266SOL     OW 1696   4.179   1.679   0.829
  266SOL    HW1 1697   4.231   1.721   0.755
  266SOL    HW2 1698   4.193   1.731   0.913
  267SOL     OW 1699   1.969   2.484   6.266
  267SOL    HW1 1700   1.875   2.518   6.269
  267SOL    HW2 1701   1.983   2.431   6.182
  268SOL     OW 1702   4.761   4.410   4.637
  268SOL    HW1 1703   4.706   4.439   4.559
  268SOL    HW2 1704   4.703   4.404   4.718
  269SOL     OW 1705   1.483   1.956   6.665
  269SOL    HW1 1706   1.579   1.947   6.692
  269SOL    HW2 1707   1.433   2.007   6.736
  270SOL     OW 1708   5.574   0.793   2.646
  270SOL    HW1 1709   5.652   0.737   2.674
  270SOL    HW2 1710   5.493   0.766   2.699
  271SOL     OW 1711   1.587   0.626   0.635
  271SOL    HW1 1712   1.531   0.543   0.640
  271SOL    HW2 1713   1.664   0.610   0.573
  272SOL     OW 1714   3.977   5.210   4.014
  272SOL    HW1 1715   4.039   5.145   4.058
  272SOL    HW2 1716   3.889   5.211   4.062
  273SOL     OW 1717   1.680   5.318   4.891
  273SOL    HW1 1718   1.740   5.334   4.813
  273SOL    HW2 1719   1.699   5.228   4.930
  274SOL     OW 1720   6.345   2.807   3.115
  274SOL    HW1 1721   6.245   2.811   3.122
  274SOL    HW2 1722   6.382   2.900   3.118
  275SOL     OW 1723   0.012   6.662   5.959
  275SOL    HW1 1724   6.988   6.640   6.040
  275SOL    HW2 1725   0.022   6.580   5.903
  276SOL     OW 1726   6.623   6.104   3.646
  276SOL    HW1 1727   6.626   6.053   3.559
  276SOL    HW2 1728   6.716   6.121   3.677
  277SOL     OW 1729   3.578   1.706   5.453
  277SOL    HW1 1730   3.656   1.742   5.403
  277SOL    HW2 1731   3.526   1.644   5.395
  278SOL     OW 1732   5.391   3.812   2.649
  278SOL    HW1 1733   5.396   3.824   2.550
  278SOL    HW2 1734   5.472   3.853   2.691
  279SOL     OW 1735   0.006   3.105   3.001
  279SOL    HW1 1736   0.060   3.178   2.960
  279SOL    HW2 1737   0.064   3.048   3.060
  280SOL     OW 1738   4.463   0.146   3.416
  280SOL    HW1 1739   4.525   0.112   3.487
  280SOL    HW2 1740   4.402   0.072   3.386
  281SOL     OW 1741   4.589   5.549   4.108
  281SOL    HW1 1742   4.536   5.586   4.032
  281SOL    HW2 1743   4.592   5.615   4.183
  282SOL     OW 1744   4.414   2.223   6.207
  282SOL    HW1 1745   4.413   2.206   6.109
  282SOL    HW2 1746   4.384   2.141   6.256
  283SOL     OW 1747   6.460   0.627   4.996
  283SOL    HW1 1748   6.558   0.612   5.006
  283SOL    HW2 1749   6.437   0.641   4.899
  284SOL     OW 1750   0.361   4.943   5.046
  284SOL    HW1 1751   0.308   4.881   5.102
  284SOL    HW2 1752   0.453   4.953   5.085
  285SOL     OW 1753   4.934   0.194   0.196
  285SOL    HW1 1754   5.030   0.167   0.182
  285SOL    HW2 1755   4.931   0.270   0.261
  286SOL     OW 1756   3.454   5.222   4.585
  286SOL    HW1 1757   3.404   5.140   4.613
  286SOL    HW2 1758   3.408   5.303   4.621
  287SOL     OW 1759   1.794   5.848   5.817
  287SOL    HW1 1760   1.812   5.862   5.915
  287SOL    HW2 1761   1.721   5.910   5.788
  288SOL     OW 1762   3.587   0.862   0.750
  288SOL    HW1 1763   3.642   0.945   0.737
  288SOL    HW2 1764   3.513   0.881   0.814
  289SOL     OW 1765   0.864   6.423   4.820
  289SOL    HW1 1766   0.937   6.382   4.875
  289SOL    HW2 1767   0.776   6.384   4.847
  290SOL     OW 1768   4.398   0.838   3.690
  290SOL    HW1 1769   4.474   0.889   3.730
  290SOL    HW2 1770   4.359   0.778   3.760
  291SOL     OW 1771   4.738   0.534   4.155
  291SOL    HW1 1772   4.719   0.558   4.060
  291SOL    HW2 1773   4.665   0.570   4.213
  292SOL     OW 1774   3.710   0.174   3.857
  292SOL    HW1 1775   3.752   0.141   3.942
  292SOL    HW2 1776   3.778   0.175   3.784
  293SOL     OW 1777   5.510   6.147   2.375
  293SOL    HW1 1778   5.586   6.136   2.438
  293SOL    HW2 1779   5.472   6.057   2.352
  294SOL     OW 1780   5.978   0.255   5.761
  294SOL    HW1 1781   5.880   0.241   5.747
  294SOL    HW2 1782   6.027   0.171   5.736
  295SOL     OW 1783   1.586   2.020   5.306
  295SOL    HW1 1784   1.675   2.008   5.261
  295SOL    HW2 1785   1.595   2.002   5.404
  296SOL     OW 1786   6.902   0.735   1.535
  296SOL    HW1 1787   6.950   0.741   1.447
  296SOL    HW2 1788   6.805   0.755   1.521
  297SOL     OW 1789   5.021   4.339   3.631
  297SOL    HW1 1790   5.078   4.367   3.553
  297SOL    HW2 1791   5.079   4.309   3.706
  298SOL     OW 1792   4.081   0.510   0.316
  298SOL    HW1 1793   4.044   0.565   0.391
  298SOL    HW2 1794   4.171   0.544   0.290
  299SOL     OW 1795   2.996   1.995   0.235
  299SOL    HW1 1796   3.036   2.004   0.327
  299SOL    HW2 1797   3.068   2.002   0.167
  300SOL     OW 1798   3.737   1.342   2.334
  300SOL    HW1 1799   3.666   1.409   2.357
  300SOL    HW2 1800   3.720   1.305   2.242
  301SOL     OW 1801   5.245   6.009   1.705
  301SOL    HW1 1802   5.219   6.076   1.635
  301SOL    HW2 1803   5.313   5.946   1.667
  302SOL     OW 1804   6.755   6.252   1.817
  302SOL    HW1 1805   6.708   6.281   1.900
  302SOL    HW2 1806   6.747   6.322   1.747
  303SOL     OW 1807   6.408   5.513   2.279
  303SOL    HW1 1808   6.316   5.475   2.269
  303SOL    HW2 1809   6.408   5.609   2.249
  304SOL     OW 1810   1.633   6.899   4.927
  304SOL    HW1 1811   1.630   6.813   4.876
  304SOL    HW2 1812   1.640   6.879   5.025
  305SOL     OW 1813   1.109   2.984   1.389
  305SOL    HW1 1814   1.175   2.984   1.314
  305SOL    HW2 1815   1.147   2.932   1.466
  306SOL     OW 1816   6.918   1.047   2.946
  306SOL    HW1 1817   6.938   0.974   3.012
  306SOL    HW2 1818   6.991   1.052   2.879
  307SOL     OW 1819   3.175   3.697   1.333
  307SOL    HW1 1820   3.076   3.701   1.321
  307SOL    HW2 1821   3.196   3.688   1.430
  308SOL     OW 1822   5.589   0.830   4.317
  308SOL    HW1 1823   5.683   0.815   4.285
  308SOL    HW2 1824   5.559   0.921   4.291
  309SOL     OW 1825   0.791   6.989   6.879
  309SOL    HW1 1826   0.845   6.904   6.876
  309SOL    HW2 1827   0.853   0.037   6.888
  310SOL     OW 1828   5.056   6.311   4.500
  310SOL    HW1 1829   5.152   6.299   4.527
  310SOL    HW2 1830   4.999   6.243   4.546
  311SOL     OW 1831   2.314   5.361   3.356
  311SOL    HW1 1832   2.320   5.300   3.277
  311SOL    HW2 1833   2.381   5.434   3.347
  312SOL     OW 1834   4.748   2.253   3.415
  312SOL    HW1 1835   4.836   2.208   3.402
  312SOL    HW2 1836   4.674   2.186   3.410
  313SOL     OW 1837   3.786   3.398   2.746
  313SOL    HW1 1838   3.884   3.381   2.756
  313SOL    HW2 1839   3.753   3.351   2.664
  314SOL     OW 1840   1.920   6.231   5.250
  314SOL    HW1 1841   1.911   6.227   5.151
  314SOL    HW2 1842   1.998   6.289   5.275
  315SOL     OW 1843   6.184   1.410   3.383
  315SOL    HW1 1844   6.255   1.341   3.372
  315SOL    HW2 1845   6.224   1.495   3.418
  316SOL     OW 1846   4.696   1.732   5.703
  316SOL    HW1 1847   4.717   1.702   5.610
  316SOL    HW2 1848   4.736   1.822   5.719
  317SOL     OW 1849   1.566   1.649   1.533
  317SOL    HW1 1850   1.642   1.588   1.559
  317SOL    HW2 1851   1.557   1.648   1.433
  318SOL     OW 1852   6.605   0.728   5.654
  318SOL    HW1 1853   6.561   0.771   5.575
  318SOL    HW2 1854   6.641   0.799   5.715
  319SOL     OW 1855   0.619   1.936   2.591
  319SOL    HW1 1856   0.552   1.873   2.551
  319SOL    HW2 1857   0.572   1.999   2.652
  320SOL     OW 1858   5.864   1.865   6.892
  320SOL    HW1 1859   5.902   1.777   6.864
  320SOL    HW2 1860   5.773   1.852   6.931
  321SOL     OW 1861   3.925   3.305   0.855
  321SOL    HW1 1862   3.993   3.241   0.819
  321SOL    HW2 1863   3.961   3.399   0.849
  322SOL     OW 1864   4.142   3.670   6.597
  322SOL    HW1 1865   4.215   3.604   6.616
  322SOL    HW2 1866   4.158   3.712   6.507
  323SOL     OW 1867   0.502   2.598   3.434
  323SOL    HW1 1868   0.425   2.659   3.417
  323SOL    HW2 1869   0.470   2.518   3.486
  324SOL     OW 1870   2.019   6.833   3.253
  324SOL    HW1 1871   2.052   6.739   3.263
  324SOL    HW2 1872   1.933   6.844   3.303
  325SOL     OW 1873   1.300   3.943   2.511
  325SOL    HW1 1874   1.338   3.881   2.580
  325SOL    HW2 1875   1.334   3.916   2.420
  326SOL     OW 1876   1.674   5.120   6.202
  326SOL    HW1 1877   1.684   5.024   6.227
  326SOL    HW2 1878   1.662   5.176   6.284
  327SOL     OW 1879   3.098   4.876   2.646
  327SOL    HW1 1880   3.140   4.899   2.734
  327SOL    HW2 1881   3.003   4.851   2.660
  328SOL     OW 1882   1.274   4.053   1.925
  328SOL    HW1 1883   1.363   4.009   1.940
  328SOL    HW2 1884   1.267   4.080   1.829
  329SOL     OW 1885   3.061   4.037   1.071
  329SOL    HW1 1886   2.983   3.980   1.045
  329SOL    HW2 1887   3.041   4.083   1.158
  330SOL     OW 1888   3.668   5.724   0.119
  330SOL    HW1 1889   3.725   5.737   0.201
  330SOL    HW2 1890   3.629   5.812   0.092
  331SOL     OW 1891   5.143   5.022   0.626
  331SOL    HW1 1892   5.147   5.012   0.726
  331SOL    HW2 1893   5.223   4.980   0.585
  332SOL     OW 1894   5.294   1.768   3.893
  332SOL    HW1 1895   5.278   1.708   3.815
  332SOL    HW2 1896   5.207   1.786   3.939
  333SOL     OW 1897   4.112   0.933   5.016
  333SOL    HW1 1898   4.044   0.907   4.947
  333SOL    HW2 1899   4.196   0.964   4.970
  334SOL     OW 1900   3.745   3.020   2.641
  334SOL    HW1 1901   3.823   2.982   2.593
  334SOL    HW2 1902   3.725   3.112   2.606
  335SOL     OW 1903   3.996   0.199   6.840
  335SOL    HW1 1904   3.911   0.248   6.859
  335SOL    HW2 1905   4.016   0.204   6.742
  336SOL     OW 1906   3.152   1.268   3.425
  336SOL    HW1 1907   3.069   1.266   3.369
  336SOL    HW2 1908   3.127   1.269   3.522
  337SOL     OW 1909   1.522   2.131   5.789
  337SOL    HW1 1910   1.584   2.127   5.867
  337SOL    HW2 1911   1.428   2.137   5.822
  338SOL     OW 1912   4.267   2.999   1.306
  338SOL    HW1 1913   4.174   2.986   1.337
  338SOL    HW2 1914   4.304   2.912   1.272
  339SOL     OW 1915   4.121   4.811   4.676
  339SOL    HW1 1916   4.144   4.793   4.771
  339SOL    HW2 1917   4.050   4.882   4.671
  340SOL     OW 1918   5.012   3.011   5.048
  340SOL    HW1 1919   4.927   3.024   4.996
  340SOL    HW2 1920   5.071   3.091   5.035
  341SOL     OW 1921   5.532   5.649   4.585
  341SOL    HW1 1922   5.563   5.742   4.608
  341SOL    HW2 1923   5.506   5.601   4.668
  342SOL     OW 1924   4.458   4.150   1.083
  342SOL    HW1 1925   4.367   4.159   1.043
  342SOL    HW2 1926   4.511   4.082   1.032
  343SOL     OW 1927   0.622   6.195   2.617
  343SOL    HW1 1928   0.671   6.164   2.698
  343SOL    HW2 1929   0.524   6.175   2.627
  344SOL     OW 1930   0.592   1.858   1.724
  344SOL    HW1 1931   0.674   1.894   1.681
  344SOL    HW2 1932   0.617   1.806   1.806
  345SOL     OW 1933   6.792   2.287   4.105
  345SOL    HW1 1934   6.818   2.377   4.140
  345SOL    HW2 1935   6.836   2.271   4.017
  346SOL     OW 1936   2.068   6.791   2.634
  346SOL    HW1 1937   2.026   6.701   2.626
  346SOL    HW2 1938   1.997   6.861   2.636
  347SOL     OW 1939   2.037   5.972   0.033
  347SOL    HW1 1940   2.000   6.064   0.018
  347SOL    HW2 1941   2.090   5.943   6.984
  348SOL     OW 1942   4.530   4.928   2.669
  348SOL    HW1 1943   4.525   4.886   2.759
  348SOL    HW2 1944   4.580   5.015   2.675
  349SOL     OW 1945   6.908   4.496   1.718
  349SOL    HW1 1946   6.890   4.446   1.803
  349SOL    HW2 1947   7.006   4.494   1.698
  350SOL     OW 1948   2.962   3.022   0.122
  350SOL    HW1 1949   2.938   2.932   0.159
  350SOL    HW2 1950   2.917   3.093   0.176
  351SOL     OW 1951   2.599   3.792   0.423
  351SOL    HW1 1952   2.520   3.736   0.398
  351SOL    HW2 1953   2.573   3.854   0.497
  352SOL     OW 1954   4.330   6.102   3.822
  352SOL    HW1 1955   4.304   6.046   3.900
  352SOL    HW2 1956   4.389   6.177   3.852
  353SOL     OW 1957   3.314   0.194   6.291
  353SOL    HW1 1958   3.257   0.127   6.339
  353SOL    HW2 1959   3.386   0.146   6.241
  354SOL     OW 1960   5.580   3.103   0.764
  354SOL    HW1 1961   5.483   3.090   0.785
  354SOL    HW2 1962   5.593   3.191   0.717
  355SOL     OW 1963   1.734   2.533   2.492
  355SOL    HW1 1964   1.814   2.549   2.550
  355SOL    HW2 1965   1.662   2.597   2.519
  356SOL     OW 1966   1.790   0.583   4.844
  356SOL    HW1 1967   1.866   0.647   4.859
  356SOL    HW2 1968   1.786   0.518   4.919
  357SOL     OW 1969   0.099   6.142   4.181
  357SOL    HW1 1970   0.074   6.202   4.104
  357SOL    HW2 1971   0.184   6.174   4.222
  358SOL     OW 1972   4.817   6.089   0.928
  358SOL    HW1 1973   4.791   6.183   0.904
  358SOL    HW2 1974   4.894   6.091   0.992
  359SOL     OW 1975   3.313   0.929   1.009
  359SOL    HW1 1976   3.356   1.020   1.016
  359SOL    HW2 1977   3.300   0.892   1.101
  360SOL     OW 1978   1.322   4.236   4.729
  360SOL    HW1 1979   1.272   4.162   4.775
  360SOL    HW2 1980   1.268   4.320   4.733
  361SOL     OW 1981   6.040   6.267   2.601
  361SOL    HW1 1982   5.976   6.340   2.580
  361SOL    HW2 1983   6.023   6.233   2.694
  362SOL     OW 1984   3.613   4.301   0.849
  362SOL    HW1 1985   3.599   4.400   0.840
  362SOL    HW2 1986   3.575   4.270   0.936
  363SOL     OW 1987   6.108   4.586   2.837
  363SOL    HW1 1988   6.130   4.674   2.877
  363SOL    HW2 1989   6.175   4.564   2.765
  364SOL     OW 1990   0.597   5.017   6.545
  364SOL    HW1 1991   0.613   5.116   6.545
  364SOL    HW2 1992   0.673   4.972   6.592
  365SOL     OW 1993   3.085   1.116   0.971
  365SOL    HW1 1994   3.167   1.066   0.943
  365SOL    HW2 1995   3.039   1.067   1.045
  366SOL     OW 1996   5.991   3.465   6.737
  366SOL    HW1 1997   6.083   3.469   6.775
  366SOL    HW2 1998   5.968   3.370   6.715
  367SOL     OW 1999   5.915   2.461   5.974
  367SOL    HW1 2000   5.833   2.445   5.919
  367SOL    HW2 2001   5.996   2.460   5.916
  368SOL     OW 2002   0.244   2.262   5.886
  368SOL    HW1 2003   0.145   2.276   5.875
  368SOL    HW2 2004   0.276   2.312   5.967
  369SOL     OW 2005   5.876   4.106   3.036
  369SOL    HW1 2006   5.932   4.116   3.118
  369SOL    HW2 2007   5.824   4.020   3.041
  370SOL     OW 2008   1.528   1.961   4.520
  370SOL    HW1 2009   1.506   1.972   4.617
  370SOL    HW2 2010   1.484   2.034   4.468
  371SOL     OW 2011   1.847   4.689   6.893
  371SOL    HW1 2012   1.781   4.749   6.848
  371SOL    HW2 2013   1.940   4.717   6.869
  372SOL     OW 2014   1.798   0.372   5.030
  372SOL    HW1 2015   1.865   0.315   4.982
  372SOL    HW2 2016   1.840   0.407   5.114
  373SOL     OW 2017   5.801   0.012   5.385
  373SOL    HW1 2018   5.742   0.091   5.368
  373SOL    HW2 2019   5.895   0.043   5.396
  374SOL     OW 2020   1.925   1.427   2.750
  374SOL    HW1 2021   1.881   1.478   2.676
  374SOL    HW2 2022   2.024   1.432   2.739
  375SOL     OW 2023   0.818   5.272   4.843
  375SOL    HW1 2024   0.806   5.178   4.810
  375SOL    HW2 2025   0.791   5.337   4.772
  376SOL     OW 2026   1.796   1.259   5.397
  376SOL    HW1 2027   1.869   1.327   5.400
  376SOL    HW2 2028   1.761   1.251   5.303
  377SOL     OW 2029   1.861   2.050   0.408
  377SOL    HW1 2030   1.884   1.996   0.327
  377SOL    HW2 2031   1.942   2.058   0.466
  378SOL     OW 2032   3.507   1.300   6.661
  378SOL    HW1 2033   3.441   1.359   6.709
  378SOL    HW2 2034   3.565   1.356   6.602
  379SOL     OW 2035   5.495   2.287   6.920
  379SOL    HW1 2036   5.413   2.323   6.876
  379SOL    HW2 2037   5.537   2.360   6.975
  380SOL     OW 2038   2.785   1.473   1.598
  380SOL    HW1 2039   2.834   1.448   1.515
  380SOL    HW2 2040   2.761   1.389   1.649
  381SOL     OW 2041   1.727   3.385   4.433
  381SOL    HW1 2042   1.701   3.310   4.494
  381SOL    HW2 2043   1.824   3.405   4.445
  382SOL     OW 2044   5.983   0.160   0.034
  382SOL    HW1 2045   5.906   0.097   0.028
  382SOL    HW2 2046   6.044   0.132   0.108
  383SOL     OW 2047   4.787   3.044   0.373
  383SOL    HW1 2048   4.756   3.011   0.462
  383SOL    HW2 2049   4.834   2.971   0.324
  384SOL     OW 2050   0.209   4.394   3.640
  384SOL    HW1 2051   0.160   4.357   3.560
  384SOL    HW2 2052   0.294   4.436   3.610
  385SOL     OW 2053   3.305   5.819   5.442
  385SOL    HW1 2054   3.370   5.751   5.475
  385SOL    HW2 2055   3.338   5.911   5.463
  386SOL     OW 2056   4.343   0.425   4.319
  386SOL    HW1 2057   4.415   0.493   4.309
  386SOL    HW2 2058   4.378   0.335   4.292
  387SOL     OW 2059   1.310   5.485   2.414
  387SOL    HW1 2060   1.252   5.416   2.371
  387SOL    HW2 2061   1.382   5.513   2.350
  388SOL     OW 2062   1.934   2.003   6.427
  388SOL    HW1 2063   1.949   1.990   6.526
  388SOL    HW2 2064   1.843   1.970   6.403
  389SOL     OW 2065   4.026   3.260   2.435
  389SOL    HW1 2066   4.047   3.311   2.519
  389SOL    HW2 2067   3.986   3.322   2.368
  390SOL     OW 2068   3.311   0.757   3.861
  390SOL    HW1 2069   3.260   0.676   3.889
  390SOL    HW2 2070   3.259   0.806   3.790
  391SOL     OW 2071   2.330   2.963   6.453
  391SOL    HW1 2072   2.353   3.061   6.458
  391SOL    HW2 2073   2.344   2.921   6.542
  392SOL     OW 2074   1.923   5.244   0.735
  392SOL    HW1 2075   1.866   5.168   0.704
  392SOL    HW2 2076   1.936   5.238   0.834
  393SOL     OW 2077   6.898   4.523   5.576
  393SOL    HW1 2078   6.868   4.604   5.525
  393SOL    HW2 2079   6.828   4.452   5.571
  394SOL     OW 2080   0.068   6.974   0.253
  394SOL    HW1 2081   7.012   6.995   0.207
  394SOL    HW2 2082   0.137   0.010   0.224
  395SOL     OW 2083   5.336   3.592   3.102
  395SOL    HW1 2084   5.394   3.560   3.028
  395SOL    HW2 2085   5.247   3.545   3.098
  396SOL     OW 2086   3.844   3.907   2.178
  396SOL    HW1 2087   3.876   3.813   2.191
  396SOL    HW2 2088   3.861   3.935   2.084
  397SOL     OW 2089   3.797   2.943   5.749
  397SOL    HW1 2090   3.778   3.041   5.758
  397SOL    HW2 2091   3.835   2.924   5.658
  398SOL     OW 2092   0.258   6.330   1.800
  398SOL    HW1 2093   0.236   6.340   1.703
  398SOL    HW2 2094   0.255   6.233   1.825
  399SOL     OW 2095   5.204   5.953   2.201
  399SOL    HW1 2096   5.222   6.041   2.245
  399SOL    HW2 2097   5.253   5.949   2.114
  400SOL     OW 2098   0.121   0.197   5.517
  400SOL    HW1 2099   0.162   0.123   5.572
  400SOL    HW2 2100   0.022   0.199   5.533
  401SOL     OW 2101   4.926   0.788   6.343
  401SOL    HW1 2102   4.973   0.815   6.259
  401SOL    HW2 2103   4.988   0.799   6.421
  402SOL     OW 2104   5.925   6.483   2.464
  402SOL    HW1 2105   5.956   6.477   2.370
  402SOL    HW2 2106   5.883   6.572   2.481
  403SOL     OW 2107   3.996   2.204   5.742
  403SOL    HW1 2108   3.918   2.167   5.792
  403SOL    HW2 2109   4.020   2.294   5.779
  404SOL     OW 2110   1.592   6.448   3.752
  404SOL    HW1 2111   1.658   6.489   3.688
  404SOL    HW2 2112   1.508   6.426   3.703
  405SOL     OW 2113   1.692   2.802   1.623
  405SOL    HW1 2114   1.676   2.843   1.533
  405SOL    HW2 2115   1.609   2.811   1.678
  406SOL     OW 2116   1.085   2.828   3.767
  406SOL    HW1 2117   1.098   2.924   3.791
  406SOL    HW2 2118   0.990   2.802   3.782
  407SOL     OW 2119   2.085   0.695   4.070
  407SOL    HW1 2120   2.032   0.753   4.007
  407SOL    HW2 2121   2.032   0.613   4.091
  408SOL     OW 2122   1.587   0.856   2.802
  408SOL    HW1 2123   1.667   0.813   2.761
  408SOL    HW2 2124   1.519   0.786   2.824
  409SOL     OW 2125   5.772   3.079   1.843
  409SOL    HW1 2126   5.802   2.986   1.864
  409SOL    HW2 2127   5.676   3.090   1.869
  410SOL     OW 2128   2.290   0.287   6.337
  410SOL    HW1 2129   2.237   0.327   6.262
  410SOL    HW2 2130   2.228   0.257   6.409
  411SOL     OW 2131   6.158   6.846   6.578
  411SOL    HW1 2132   6.170   6.945   6.576
  411SOL    HW2 2133   6.215   6.807   6.650
  412SOL     OW 2134   4.375   6.608   3.574
  412SOL    HW1 2135   4.405   6.647   3.487
  412SOL    HW2 2136   4.276   6.594   3.571
  413SOL     OW 2137   5.122   4.667   1.610
  413SOL    HW1 2138   5.130   4.762   1.578
  413SOL    HW2 2139   5.034   4.630   1.581
  414SOL     OW 2140   3.343   4.991   3.462
  414SOL    HW1 2141   3.282   4.940   3.401
  414SOL    HW2 2142   3.373   5.075   3.417
  415SOL     OW 2143   1.037   5.917   0.358
  415SOL    HW1 2144   1.048   5.982   0.433
  415SOL    HW2 2145   0.963   5.947   0.298
  416SOL     OW 2146   4.710   4.984   5.465
  416SOL    HW1 2147   4.727   4.899   5.415
  416SOL    HW2 2148   4.734   4.971   5.561
  417SOL     OW 2149   2.480   6.230   1.056
  417SOL    HW1 2150   2.545   6.198   0.987
  417SOL    HW2 2151   2.499   6.184   1.143
  418SOL     OW 2152   4.155   6.486   1.285
  418SOL    HW1 2153   4.218   6.415   1.316
  418SOL    HW2 2154   4.071   6.443   1.250
  419SOL     OW 2155   1.271   0.446   1.680
  419SOL    HW1 2156   1.248   0.359   1.638
  419SOL    HW2 2157   1.345   0.490   1.629
  420SOL     OW 2158   6.197   3.227   1.527
  420SOL    HW1 2159   6.136   3.217   1.449
  420SOL    HW2 2160   6.292   3.225   1.495
  421SOL     OW 2161   0.373   4.928   6.130
  421SOL    HW1 2162   0.410   4.911   6.039
  421SOL    HW2 2163   0.408   5.014   6.166
  422SOL     OW 2164   6.084   4.371   0.437
  422SOL    HW1 2165   6.097   4.315   0.518
  422SOL    HW2 2166   6.055   4.463   0.464
  423SOL     OW 2167   0.287   2.983   6.661
  423SOL    HW1 2168   0.222   3.020   6.728
  423SOL    HW2 2169   0.377   2.974   6.704
  424SOL     OW 2170   2.771   3.873   1.030
  424SOL    HW1 2171   2.801   3.924   0.950
  424SOL    HW2 2172   2.696   3.922   1.075
  425SOL     OW 2173   5.762   1.263   2.420
  425SOL    HW1 2174   5.800   1.250   2.329
  425SOL    HW2 2175   5.712   1.181   2.447
  426SOL     OW 2176   5.280   2.226   4.566
  426SOL    HW1 2177   5.306   2.165   4.641
  426SOL    HW2 2178   5.213   2.293   4.600
  427SOL     OW 2179   5.579   4.675   2.120
  427SOL    HW1 2180   5.479   4.685   2.126
  427SOL    HW2 2181   5.622   4.718   2.199
  428SOL     OW 2182   4.517   6.936   4.696
  428SOL    HW1 2183   4.445   6.869   4.677
  428SOL    HW2 2184   4.507   7.014   4.634
  429SOL     OW 2185   2.495   4.283   1.695
  429SOL    HW1 2186   2.587   4.256   1.665
  429SOL    HW2 2187   2.428   4.218   1.659
  430SOL     OW 2188   0.738   0.205   4.722
  430SOL    HW1 2189   0.658   0.214   4.664
  430SOL    HW2 2190   0.762   0.108   4.731
  431SOL     OW 2191   3.233   0.358   0.201
  431SOL    HW1 2192   3.154   0.314   0.243
  431SOL    HW2 2193   3.202   0.434   0.143
  432SOL     OW 2194   6.181   2.530   2.440
  432SOL    HW1 2195   6.187   2.455   2.506
  432SOL    HW2 2196   6.133   2.499   2.358
  433SOL     OW 2197   3.175   6.474   4.287
  433SOL    HW1 2198   3.262   6.460   4.240
  433SOL    HW2 2199   3.167   6.570   4.312
  434SOL     OW 2200   4.257   4.911   1.917
  434SOL    HW1 2201   4.276   5.002   1.878
  434SOL    HW2 2202   4.300   4.904   2.007
  435SOL     OW 2203   3.793   1.909   5.307
  435SOL    HW1 2204   3.838   1.867   5.386
  435SOL    HW2 2205   3.851   1.901   5.226
  436SOL     OW 2206   3.240   6.062   0.996
  436SOL    HW1 2207   3.266   6.145   0.947
  436SOL    HW2 2208   3.318   6.028   1.048
  437SOL     OW 2209   1.047   0.086   6.774
  437SOL    HW1 2210   1.133   0.094   6.825
  437SOL    HW2 2211   1.015   7.022   6.778
  438SOL     OW 2212   1.901   2.708   2.306
  438SOL    HW1 2213   1.832   2.636   2.312
  438SOL    HW2 2214   1.966   2.687   2.233
  439SOL     OW 2215   6.134   4.443   3.521
  439SOL    HW1 2216   6.124   4.542   3.528
  439SOL    HW2 2217   6.165   4.406   3.609
  440SOL     OW 2218   1.269   2.122   4.997
  440SOL    HW1 2219   1.193   2.155   4.940
  440SOL    HW2 2220   1.282   2.185   5.073
  441SOL     OW 2221   0.733   2.033   3.399
  441SOL    HW1 2222   0.735   2.039   3.499
  441SOL    HW2 2223   0.752   1.940   3.370
  442SOL     OW 2224   2.338   4.924   7.015
  442SOL    HW1 2225   2.313   4.972   6.932
  442SOL    HW2 2226   2.414   4.971   0.029
  443SOL     OW 2227   1.010   3.723   4.895
  443SOL    HW1 2228   0.940   3.692   4.830
  443SOL    HW2 2229   1.039   3.816   4.870
  444SOL     OW 2230   5.067   2.266   5.642
  444SOL    HW1 2231   5.069   2.248   5.543
  444SOL    HW2 2232   5.026   2.356   5.658
  445SOL     OW 2233   1.231   5.797   3.270
  445SOL    HW1 2234   1.270   5.860   3.337
  445SOL    HW2 2235   1.256   5.826   3.178
  446SOL     OW 2236   3.981   4.865   3.952
  446SOL    HW1 2237   4.048   4.829   3.888
  446SOL    HW2 2238   3.916   4.924   3.903
  447SOL     OW 2239   0.596   3.044   0.162
  447SOL    HW1 2240   0.612   3.012   0.256
  447SOL    HW2 2241   0.499   3.034   0.140
  448SOL     OW 2242   2.492   0.625   4.659
  448SOL    HW1 2243   2.554   0.659   4.729
  448SOL    HW2 2244   2.516   0.531   4.636
  449SOL     OW 2245   3.834   0.951   5.207
  449SOL    HW1 2246   3.905   1.022   5.203
  449SOL    HW2 2247   3.878   0.861   5.200
  450SOL     OW 2248   1.383   5.919   3.587
  450SOL    HW1 2249   1.326   5.987   3.633
  450SOL    HW2 2250   1.368   5.829   3.628
  451SOL     OW 2251   1.799   2.287   3.454
  451SOL    HW1 2252   1.809   2.267   3.356
  451SOL    HW2 2253   1.889   2.297   3.495
  452SOL     OW 2254   6.502   5.934   1.348
  452SOL    HW1 2255   6.592   5.960   1.383
  452SOL    HW2 2256   6.443   6.015   1.342
  453SOL     OW 2257   2.942   0.572   4.608
  453SOL    HW1 2258   3.038   0.546   4.605
  453SOL    HW2 2259   2.887   0.503   4.560
  454SOL     OW 2260   0.308   5.310   6.009
  454SOL    HW1 2261   0.347   5.359   5.931
  454SOL    HW2 2262   0.378   5.297   6.079
  455SOL     OW 2263   6.796   1.746   3.554
  455SOL    HW1 2264   6.798   1.815   3.627
  455SOL    HW2 2265   6.856   1.670   3.579
  456SOL     OW 2266   5.004   5.421   4.515
  456SOL    HW1 2267   5.084   5.397   4.460
  456SOL    HW2 2268   5.025   5.407   4.612
  457SOL     OW 2269   1.570   3.556   3.514
  457SOL    HW1 2270   1.629   3.576   3.436
  457SOL    HW2 2271   1.540   3.461   3.511
  458SOL     OW 2272   4.912   6.026   4.000
  458SOL    HW1 2273   4.978   5.996   4.069
  458SOL    HW2 2274   4.958   6.085   3.934
  459SOL     OW 2275   1.859   6.522   4.232
  459SOL    HW1 2276   1.911   6.440   4.209
  459SOL    HW2 2277   1.891   6.558   4.320
  460SOL     OW 2278   1.697   0.136   3.317
  460SOL    HW1 2279   1.733   0.189   3.240
  460SOL    HW2 2280   1.697   0.039   3.294
  461SOL     OW 2281   6.135   7.028   5.043
  461SOL    HW1 2282   6.143   0.089   5.002
  461SOL    HW2 2283   6.207   7.016   5.111
  462SOL     OW 2284   4.128   3.027   6.083
  462SOL    HW1 2285   4.189   2.962   6.037
  462SOL    HW2 2286   4.075   2.979   6.154
  463SOL     OW 2287   6.701   5.735   3.522
  463SOL    HW1 2288   6.646   5.720   3.604
  463SOL    HW2 2289   6.685   5.827   3.486
  464SOL     OW 2290   2.440   2.477   6.727
  464SOL    HW1 2291   2.515   2.437   6.674
  464SOL    HW2 2292   2.419   2.568   6.691
  465SOL     OW 2293   1.154   2.742   4.097
  465SOL    HW1 2294   1.067   2.706   4.065
  465SOL    HW2 2295   1.181   2.693   4.180
  466SOL     OW 2296   1.429   4.713   3.112
  466SOL    HW1 2297   1.383   4.661   3.040
  466SOL    HW2 2298   1.379   4.702   3.198
  467SOL     OW 2299   1.048   0.997   7.012
  467SOL    HW1 2300   0.974   1.052   6.973
  467SOL    HW2 2301   1.126   0.996   6.950
  468SOL     OW 2302   3.742   6.340   6.784
  468SOL    HW1 2303   3.654   6.387   6.790
  468SOL    HW2 2304   3.808   6.385   6.844
  469SOL     OW 2305   2.993   4.741   0.687
  469SOL    HW1 2306   2.939   4.659   0.708
  469SOL    HW2 2307   2.967   4.815   0.748
  470SOL     OW 2308   4.005   0.543   2.565
  470SOL    HW1 2309   4.047   0.529   2.475
  470SOL    HW2 2310   4.031   0.469   2.626
  471SOL     OW 2311   1.813   2.366   4.177
  471SOL    HW1 2312   1.832   2.306   4.255
  471SOL    HW2 2313   1.802   2.310   4.095
  472SOL     OW 2314   5.311   4.077   6.593
  472SOL    HW1 2315   5.388   4.133   6.624
  472SOL    HW2 2316   5.238   4.078   6.662
  473SOL     OW 2317   0.952   3.035   2.325
  473SOL    HW1 2318   0.913   3.126   2.342
  473SOL    HW2 2319   0.903   2.967   2.378
  474SOL     OW 2320   4.966   4.655   3.376
  474SOL    HW1 2321   5.021   4.730   3.413
  474SOL    HW2 2322   4.878   4.691   3.345
  475SOL     OW 2323   5.341   0.922   5.959
  475SOL    HW1 2324   5.340   1.016   5.926
  475SOL    HW2 2325   5.346   0.860   5.880
  476SOL     OW 2326   7.014   4.347   2.422
  476SOL    HW1 2327   7.004   4.428   2.479
  476SOL    HW2 2328   0.080   4.334   2.399
  477SOL     OW 2329   1.649   4.145   5.406
  477SOL    HW1 2330   1.609   4.054   5.399
  477SOL    HW2 2331   1.727   4.152   5.344
  478SOL     OW 2332   3.474   6.990   2.424
  478SOL    HW1 2333   3.561   6.977   2.471
  478SOL    HW2 2334   3.490   7.026   2.332
  479SOL     OW 2335   4.322   2.316   0.038
  479SOL    HW1 2336   4.223   2.306   0.048
  479SOL    HW2 2337   4.342   2.380   6.994
  480SOL     OW 2338   2.364   1.554   0.025
  480SOL    HW1 2339   2.282   1.557   0.081
  480SOL    HW2 2340   2.419   1.636   0.042
  481SOL     OW 2341   1.135   0.513   0.156
  481SOL    HW1 2342   1.126   0.556   0.066
  481SOL    HW2 2343   1.156   0.416   0.145
  482SOL     OW 2344   4.635   4.321   2.982
  482SOL    HW1 2345   4.602   4.311   2.888
  482SOL    HW2 2346   4.732   4.344   2.980
  483SOL     OW 2347   0.050   1.913   1.864
  483SOL    HW1 2348   0.028   1.883   1.771
  483SOL    HW2 2349   0.053   2.013   1.868
  484SOL     OW 2350   1.225   3.208   5.086
  484SOL    HW1 2351   1.210   3.122   5.038
  484SOL    HW2 2352   1.314   3.206   5.132
  485SOL     OW 2353   4.090   5.462   2.660
  485SOL    HW1 2354   4.115   5.440   2.565
  485SOL    HW2 2355   4.173   5.483   2.712
  486SOL     OW 2356   6.688   1.895   0.905
  486SOL    HW1 2357   6.721   1.965   0.842
  486SOL    HW2 2358   6.665   1.936   0.993
  487SOL     OW 2359   1.319   1.969   0.753
  487SOL    HW1 2360   1.322   1.892   0.816
  487SOL    HW2 2361   1.401   2.025   0.764
  488SOL     OW 2362   0.522   1.542   1.469
  488SOL    HW1 2363   0.477   1.631   1.461
  488SOL    HW2 2364   0.581   1.542   1.551
  489SOL     OW 2365   3.460   6.249   6.122
  489SOL    HW1 2366   3.398   6.296   6.185
  489SOL    HW2 2367   3.494   6.165   6.165
  490SOL     OW 2368   6.906   6.124   3.437
  490SOL    HW1 2369   6.978   6.069   3.395
  490SOL    HW2 2370   6.942   6.215   3.459
  491SOL     OW 2371   0.452   3.033   2.351
  491SOL    HW1 2372   0.492   3.034   2.443
  491SOL    HW2 2373   0.374   2.970   2.349
  492SOL     OW 2374   2.651   7.024   5.013
  492SOL    HW1 2375   2.557   7.000   5.037
  492SOL    HW2 2376   2.664   7.012   4.914
  493SOL     OW 2377   5.334   6.796   5.578
  493SOL    HW1 2378   5.407   6.800   5.647
  493SOL    HW2 2379   5.270   6.724   5.602
  494SOL     OW 2380   6.730   0.654   6.463
  494SOL    HW1 2381   6.701   0.559   6.463
  494SOL    HW2 2382   6.819   0.662   6.508
  495SOL     OW 2383   4.729   5.684   3.369
  495SOL    HW1 2384   4.755   5.597   3.410
  495SOL    HW2 2385   4.630   5.686   3.354
  496SOL     OW 2386   5.538   3.487   2.275
  496SOL    HW1 2387   5.459   3.453   2.223
  496SOL    HW2 2388   5.524   3.469   2.372
  497SOL     OW 2389   3.745   0.962   4.937
  497SOL    HW1 2390   3.796   0.954   5.022
  497SOL    HW2 2391   3.707   0.872   4.912
  498SOL     OW 2392   2.128   4.399   1.408
  498SOL    HW1 2393   2.069   4.319   1.412
  498SOL    HW2 2394   2.155   4.425   1.501
  499SOL     OW 2395   2.649   0.185   3.828
  499SOL    HW1 2396   2.641   0.103   3.885
  499SOL    HW2 2397   2.710   0.251   3.873
  500SOL     OW 2398   0.437   3.365   3.354
  500SOL    HW1 2399   0.479   3.299   3.415
  500SOL    HW2 2400   0.445   3.333   3.259
  501SOL     OW 2401   3.062   6.176   0.292
  501SOL    HW1 2402   2.984   6.128   0.251
  501SOL    HW2 2403   3.031   6.261   0.334
  502SOL     OW 2404   6.951   4.331   6.877
  502SOL    HW1 2405   6.939   4.297   6.970
  502SOL    HW2 2406   6.862   4.351   6.836
  503SOL     OW 2407   5.707   5.713   5.798
  503SOL    HW1 2408   5.778   5.745   5.861
  503SOL    HW2 2409   5.619   5.714   5.844
  504SOL     OW 2410   1.859   5.483   3.212
  504SOL    HW1 2411   1.802   5.562   3.191
  504SOL    HW2 2412   1.931   5.510   3.277
  505SOL     OW 2413   3.312   6.160   4.737
  505SOL    HW1 2414   3.215   6.172   4.757
  505SOL    HW2 2415   3.364   6.234   4.781
  506SOL     OW 2416   2.116   5.497   4.905
  506SOL    HW1 2417   2.072   5.468   4.820
  506SOL    HW2 2418   2.053   5.482   4.982
  507SOL     OW 2419   3.697   0.648   3.560
  507SOL    HW1 2420   3.729   0.734   3.521
  507SOL    HW2 2421   3.725   0.572   3.501
  508SOL     OW 2422   6.711   3.660   2.321
  508SOL    HW1 2423   6.618   3.656   2.286
  508SOL    HW2 2424   6.767   3.590   2.275
  509SOL     OW 2425   3.335   1.330   1.870
  509SOL    HW1 2426   3.270   1.337   1.793
  509SOL    HW2 2427   3.393   1.250   1.856
  510SOL     OW 2428   6.430   4.943   6.596
  510SOL    HW1 2429   6.527   4.926   6.576
  510SOL    HW2 2430   6.415   5.042   6.604
  511SOL     OW 2431   0.284   1.149   5.958
  511SOL    HW1 2432   0.309   1.181   5.867
  511SOL    HW2 2433   0.187   1.169   5.974
  512SOL     OW 2434   0.026   2.817   0.004
  512SOL    HW1 2435   7.028   2.750   6.967
  512SOL    HW2 2436   0.034   2.774   0.094
  513SOL     OW 2437   5.747   5.937   3.162
  513SOL    HW1 2438   5.652   5.947   3.133
  513SOL    HW2 2439   5.789   5.861   3.111
  514SOL     OW 2440   6.816   2.597   4.137
  514SOL    HW1 2441   6.754   2.582   4.060
  514SOL    HW2 2442   6.764   2.605   4.221
  515SOL     OW 2443   2.092   0.633   6.608
  515SOL    HW1 2444   2.118   0.693   6.683
  515SOL    HW2 2445   2.137   0.664   6.524
  516SOL     OW 2446   2.708   4.533   1.636
  516SOL    HW1 2447   2.692   4.629   1.659
  516SOL    HW2 2448   2.775   4.495   1.700
  517SOL     OW 2449   5.154   5.618   1.998
  517SOL    HW1 2450   5.136   5.592   1.903
  517SOL    HW2 2451   5.243   5.663   2.004
  518SOL     OW 2452   2.496   2.331   2.673
  518SOL    HW1 2453   2.594   2.338   2.689
  518SOL    HW2 2454   2.477   2.344   2.576
  519SOL     OW 2455   0.990   1.011   4.358
  519SOL    HW1 2456   1.078   1.057   4.367
  519SOL    HW2 2457   0.975   0.952   4.438
  520SOL     OW 2458   6.391   4.362   0.025
  520SOL    HW1 2459   6.427   4.435   6.998
  520SOL    HW2 2460   6.370   4.398   0.116
  521SOL     OW 2461   6.966   3.849   6.321
  521SOL    HW1 2462   6.956   3.750   6.331
  521SOL    HW2 2463   6.885   3.886   6.278
  522SOL     OW 2464   3.259   4.146   5.715
  522SOL    HW1 2465   3.271   4.069   5.777
  522SOL    HW2 2466   3.181   4.201   5.745
  523SOL     OW 2467   0.494   4.847   1.630
  523SOL    HW1 2468   0.501   4.834   1.531
  523SOL    HW2 2469   0.491   4.945   1.651
  524SOL     OW 2470   0.994   1.417   0.161
  524SOL    HW1 2471   1.031   1.342   0.106
  524SOL    HW2 2472   0.927   1.381   0.226
  525SOL     OW 2473   2.648   3.615   6.600
  525SOL    HW1 2474   2.708   3.682   6.643
  525SOL    HW2 2475   2.556   3.652   6.593
  526SOL     OW 2476   4.087   6.999   4.012
  526SOL    HW1 2477   4.161   6.953   3.963
  526SOL    HW2 2478   4.005   6.941   4.012
  527SOL     OW 2479   6.495   3.263   6.808
  527SOL    HW1 2480   6.437   3.344   6.803
  527SOL    HW2 2481   6.580   3.285   6.855
  528SOL     OW 2482   1.315   1.401   3.779
  528SOL    HW1 2483   1.241   1.348   3.740
  528SOL    HW2 2484   1.391   1.406   3.715
  529SOL     OW 2485   1.179   6.392   4.379
  529SOL    HW1 2486   1.174   6.491   4.392
  529SOL    HW2 2487   1.088   6.353   4.386
  530SOL     OW 2488   2.963   3.310   5.637
  530SOL    HW1 2489   2.921   3.351   5.556
  530SOL    HW2 2490   3.059   3.290   5.618
  531SOL     OW 2491   0.087   0.388   2.384
  531SOL    HW1 2492   0.047   0.405   2.474
  531SOL    HW2 2493   0.072   0.467   2.325
  532SOL     OW 2494   1.743   1.933   6.829
  532SOL    HW1 2495   1.726   1.838   6.853
  532SOL    HW2 2496   1.686   1.993   6.885
  533SOL     OW 2497   4.065   6.565   3.825
  533SOL    HW1 2498   4.102   6.639   3.770
  533SOL    HW2 2499   4.132   6.539   3.895
  534SOL     OW 2500   5.550   5.356   3.536
  534SOL    HW1 2501   5.557   5.340   3.634
  534SOL    HW2 2502   5.639   5.343   3.493
  535SOL     OW 2503   0.687   3.653   4.379
  535SOL    HW1 2504   0.776   3.693   4.357
  535SOL    HW2 2505   0.621   3.725   4.395
  536SOL     OW 2506   0.167   5.122   2.102
  536SOL    HW1 2507   0.241   5.055   2.108
  536SOL    HW2 2508   0.145   5.156   2.193
  537SOL     OW 2509   2.084   6.566   3.334
  537SOL    HW1 2510   2.068   6.595   3.428
  537SOL    HW2 2511   2.020   6.494   3.309
  538SOL     OW 2512   1.574   4.167   3.359
  538SOL    HW1 2513   1.522   4.224   3.295
  538SOL    HW2 2514   1.532   4.077   3.366
  539SOL     OW 2515   0.961   6.392   0.392
  539SOL    HW1 2516   0.956   6.487   0.361
  539SOL    HW2 2517   1.038   6.346   0.346
  540SOL     OW 2518   0.260   1.169   2.145
  540SOL    HW1 2519   0.235   1.178   2.242
  540SOL    HW2 2520   0.275   1.260   2.106
  541SOL     OW 2521   3.091   6.163   3.782
  541SOL    HW1 2522   3.143   6.218   3.847
  541SOL    HW2 2523   3.150   6.140   3.704
  542SOL     OW 2524   6.213   6.902   0.139
  542SOL    HW1 2525   6.247   6.825   0.194
  542SOL    HW2 2526   6.168   6.968   0.199
  543SOL     OW 2527   1.319   5.245   5.483
  543SOL    HW1 2528   1.398   5.225   5.541
  543SOL    HW2 2529   1.310   5.344   5.472
  544SOL     OW 2530   2.023   4.565   1.221
  544SOL    HW1 2531   1.955   4.615   1.274
  544SOL    HW2 2532   2.061   4.491   1.276
  545SOL     OW 2533   3.333   0.675   3.146
  545SOL    HW1 2534   3.388   0.720   3.076
  545SOL    HW2 2535   3.394   0.636   3.216
  546SOL     OW 2536   1.779   3.176   0.107
  546SOL    HW1 2537   1.866   3.128   0.119
  546SOL    HW2 2538   1.706   3.109   0.092
  547SOL     OW 2539   3.046   1.554   6.768
  547SOL    HW1 2540   3.053   1.648   6.799
  547SOL    HW2 2541   2.984   1.549   6.690
  548SOL     OW 2542   3.733   3.002   2.304
  548SOL    HW1 2543   3.809   2.991   2.368
  548SOL    HW2 2544   3.725   2.919   2.248
  549SOL     OW 2545   4.706   3.378   0.973
  549SOL    HW1 2546   4.775   3.307   0.988
  549SOL    HW2 2547   4.711   3.411   0.878
  550SOL     OW 2548   6.519   4.577   3.423
  550SOL    HW1 2549   6.612   4.541   3.438
  550SOL    HW2 2550   6.497   4.569   3.326
  551SOL     OW 2551   0.776   0.731   1.260
  551SOL    HW1 2552   0.806   0.811   1.311
  551SOL    HW2 2553   0.855   0.688   1.216
  552SOL     OW 2554   4.473   5.382   0.785
  552SOL    HW1 2555   4.425   5.357   0.701
  552SOL    HW2 2556   4.563   5.339   0.787
  553SOL     OW 2557   2.689   6.788   1.597
  553SOL    HW1 2558   2.774   6.796   1.650
  553SOL    HW2 2559   2.631   6.868   1.615
  554SOL     OW 2560   5.583   6.510   5.699
  554SOL    HW1 2561   5.487   6.501   5.727
  554SOL    HW2 2562   5.589   6.507   5.600
  555SOL     OW 2563   2.072   5.175   3.696
  555SOL    HW1 2564   2.020   5.258   3.676
  555SOL    HW2 2565   2.075   5.161   3.795
  556SOL     OW 2566   5.888   2.154   3.916
  556SOL    HW1 2567   5.949   2.138   3.838
  556SOL    HW2 2568   5.818   2.220   3.890
  557SOL     OW 2569   0.403   4.956   0.477
  557SOL    HW1 2570   0.338   4.989   0.546
  557SOL    HW2 2571   0.402   5.017   0.398
  558SOL     OW 2572   3.317   4.072   4.960
  558SOL    HW1 2573   3.314   4.150   5.022
  558SOL    HW2 2574   3.412   4.054   4.935
  559SOL     OW 2575   6.339   6.362   6.765
  559SOL    HW1 2576   6.425   6.330   6.805
  559SOL    HW2 2577   6.337   6.341   6.668
  560SOL     OW 2578   3.710   5.949   0.311
  560SOL    HW1 2579   3.765   5.876   0.351
  560SOL    HW2 2580   3.641   5.979   0.377
  561SOL     OW 2581   6.300   1.233   6.779
  561SOL    HW1 2582   6.360   1.302   6.820
  561SOL    HW2 2583   6.344   1.144   6.782
  562SOL     OW 2584   4.607   0.500   6.066
  562SOL    HW1 2585   4.603   0.595   6.035
  562SOL    HW2 2586   4.678   0.490   6.136
  563SOL     OW 2587   2.107   0.251   3.198
  563SOL    HW1 2588   2.195   0.265   3.153
  563SOL    HW2 2589   2.119   0.189   3.275
  564SOL     OW 2590   2.749   1.700   6.498
  564SOL    HW1 2591   2.650   1.710   6.490
  564SOL    HW2 2592   2.779   1.730   6.588
  565SOL     OW 2593   4.376   3.656   5.773
  565SOL    HW1 2594   4.295   3.712   5.754
  565SOL    HW2 2595   4.434   3.653   5.691
  566SOL     OW 2596   6.015   3.750   3.835
  566SOL    HW1 2597   5.987   3.846   3.843
  566SOL    HW2 2598   5.975   3.697   3.909
  567SOL     OW 2599   3.080   3.989   3.081
  567SOL    HW1 2600   2.994   3.942   3.099
  567SOL    HW2 2601   3.118   4.023   3.168
  568SOL     OW 2602   3.327   2.851   0.288
  568SOL    HW1 2603   3.246   2.893   0.329
  568SOL    HW2 2604   3.308   2.755   0.270
  569SOL     OW 2605   1.894   3.366   0.273
  569SOL    HW1 2606   1.844   3.318   0.201
  569SOL    HW2 2607   1.837   3.371   0.355
  570SOL     OW 2608   2.231   6.441   5.884
  570SOL    HW1 2609   2.226   6.523   5.827
  570SOL    HW2 2610   2.326   6.422   5.906
  571SOL     OW 2611   3.779   0.249   2.652
  571SOL    HW1 2612   3.780   0.280   2.747
  571SOL    HW2 2613   3.790   0.328   2.591
  572SOL     OW 2614   2.662   5.056   5.727
  572SOL    HW1 2615   2.571   5.099   5.730
  572SOL    HW2 2616   2.675   5.010   5.640
  573SOL     OW 2617   4.180   1.435   5.309
  573SOL    HW1 2618   4.197   1.531   5.287
  573SOL    HW2 2619   4.142   1.428   5.401
  574SOL     OW 2620   2.226   2.372   3.531
  574SOL    HW1 2621   2.184   2.282   3.515
  574SOL    HW2 2622   2.163   2.444   3.501
  575SOL     OW 2623   6.302   3.770   6.098
  575SOL    HW1 2624   6.393   3.739   6.069
  575SOL    HW2 2625   6.271   3.843   6.038
  576SOL     OW 2626   1.543   2.160   2.300
  576SOL    HW1 2627   1.570   2.080   2.247
  576SOL    HW2 2628   1.618   2.187   2.361
  577SOL     OW 2629   1.894   0.781   3.160
  577SOL    HW1 2630   1.928   0.869   3.126
  577SOL    HW2 2631   1.971   0.728   3.196
  578SOL     OW 2632   6.614   3.665   3.609
  578SOL    HW1 2633   6.581   3.585   3.559
  578SOL    HW2 2634   6.706   3.689   3.576
  579SOL     OW 2635   3.333   2.154   1.128
  579SOL    HW1 2636   3.314   2.228   1.064
  579SOL    HW2 2637   3.281   2.073   1.102
  580SOL     OW 2638   0.585   4.672   6.762
  580SOL    HW1 2639   0.647   4.594   6.767
  580SOL    HW2 2640   0.531   4.667   6.678
  581SOL     OW 2641   3.507   3.264   2.923
  581SOL    HW1 2642   3.457   3.287   3.006
  581SOL    HW2 2643   3.538   3.348   2.878
  582SOL     OW 2644   5.436   5.033   2.756
  582SOL    HW1 2645   5.495   4.966   2.800
  582SOL    HW2 2646   5.340   5.011   2.774
  583SOL     OW 2647   2.491   5.286   6.937
  583SOL    HW1 2648   2.533   5.360   6.989
  583SOL    HW2 2649   2.510   5.199   6.982
  584SOL     OW 2650   1.158   5.448   5.265
  584SOL    HW1 2651   1.239   5.478   5.315
  584SOL    HW2 2652   1.183   5.419   5.173
  585SOL     OW 2653   6.621   2.979   6.092
  585SOL    HW1 2654   6.691   3.042   6.126
  585SOL    HW2 2655   6.530   3.019   6.105
  586SOL     OW 2656   3.185   0.534   7.014
  586SOL    HW1 2657   3.086   0.537   7.030
  586SOL    HW2 2658   3.202   0.511   6.918
  587SOL     OW 2659   2.604   2.231   5.361
  587SOL    HW1 2660   2.691   2.185   5.346
  587SOL    HW2 2661   2.561   2.194   5.443
  588SOL     OW 2662   2.639   5.562   0.784
  588SOL    HW1 2663   2.710   5.491   0.791
  588SOL    HW2 2664   2.674   5.638   0.729
  589SOL     OW 2665   3.803   5.310   1.897
  589SOL    HW1 2666   3.880   5.268   1.848
  589SOL    HW2 2667   3.818   5.301   1.996
  590SOL     OW 2668   5.731   3.151   1.557
  590SOL    HW1 2669   5.701   3.089   1.629
  590SOL    HW2 2670   5.660   3.220   1.541
  591SOL     OW 2671   4.252   6.468   3.990
  591SOL    HW1 2672   4.320   6.500   4.056
  591SOL    HW2 2673   4.258   6.369   3.980
  592SOL     OW 2674   4.409   6.939   0.975
  592SOL    HW1 2675   4.432   0.002   1.002
  592SOL    HW2 2676   4.486   6.898   0.926
  593SOL     OW 2677   4.404   2.266   3.758
  593SOL    HW1 2678   4.482   2.208   3.781
  593SOL    HW2 2679   4.404   2.347   3.816
  594SOL     OW 2680   4.719   2.600   6.525
  594SOL    HW1 2681   4.817   2.591   6.545
  594SOL    HW2 2682   4.687   2.517   6.479
  595SOL     OW 2683   4.659   6.457   3.507
  595SOL    HW1 2684   4.601   6.499   3.576
  595SOL    HW2 2685   4.644   6.359   3.506
  596SOL     OW 2686   0.985   3.495   1.742
  596SOL    HW1 2687   0.966   3.524   1.648
  596SOL    HW2 2688   1.081   3.513   1.763
  597SOL     OW 2689   4.598   0.583   5.535
  597SOL    HW1 2690   4.642   0.499   5.503
  597SOL    HW2 2691   4.637   0.611   5.622
  598SOL     OW 2692   3.630   3.856   6.958
  598SOL    HW1 2693   3.702   3.826   6.896
  598SOL    HW2 2694   3.669   3.874   0.018
  599SOL     OW 2695   0.835   7.030   2.854
  599SOL    HW1 2696   0.922   0.021   2.810
  599SOL    HW2 2697   0.852   7.000   2.948
  600SOL     OW 2698   1.549   0.462   1.025
  600SOL    HW1 2699   1.464   0.421   1.058
  600SOL    HW2 2700   1.583   0.410   0.947
  601SOL     OW 2701   3.003   5.929   4.078
  601SOL    HW1 2702   3.071   5.999   4.102
  601SOL    HW2 2703   2.955   5.958   3.995
  602SOL     OW 2704   1.346   2.173   0.020
  602SOL    HW1 2705   1.336   2.262   7.006
  602SOL    HW2 2706   1.370   2.186   0.116
  603SOL     OW 2707   4.319   1.999   4.233
  603SOL    HW1 2708   4.305   1.921   4.171
  603SOL    HW2 2709   4.307   2.084   4.181
  604SOL     OW 2710   0.213   3.608   1.455
  604SOL    HW1 2711   0.235   3.529   1.512
  604SOL    HW2 2712   0.297   3.658   1.433
  605SOL     OW 2713   6.740   5.505   2.782
  605SOL    HW1 2714   6.802   5.483   2.858
  605SOL    HW2 2715   6.744   5.603   2.763
  606SOL     OW 2716   5.345   0.404   5.662
  606SOL    HW1 2717   5.332   0.474   5.592
  606SOL    HW2 2718   5.257   0.375   5.698
  607SOL     OW 2719   5.248   0.388   5.060
  607SOL    HW1 2720   5.341   0.425   5.065
  607SOL    HW2 2721   5.228   0.337   5.144
  608SOL     OW 2722   3.627   6.820   0.205
  608SOL    HW1 2723   3.594   6.735   0.248
  608SOL    HW2 2724   3.560   6.893   0.221
  609SOL     OW 2725   3.349   3.300   4.597
  609SOL    HW1 2726   3.343   3.236   4.672
  609SOL    HW2 2727   3.349   3.250   4.510
  610SOL     OW 2728   5.851   2.279   3.472
  610SOL    HW1 2729   5.865   2.191   3.517
  610SOL    HW2 2730   5.755   2.305   3.479
  611SOL     OW 2731   0.925   0.341   6.806
  611SOL    HW1 2732   0.832   0.327   6.773
  611SOL    HW2 2733   0.987   0.276   6.762
  612SOL     OW 2734   3.069   5.767   5.950
  612SOL    HW1 2735   3.164   5.742   5.929
  612SOL    HW2 2736   3.032   5.705   6.019
  613SOL     OW 2737   5.121   0.312   5.785
  613SOL    HW1 2738   5.096   0.232   5.839
  613SOL    HW2 2739   5.040   0.347   5.737
  614SOL     OW 2740   6.220   4.488   0.771
  614SOL    HW1 2741   6.146   4.421   0.776
  614SOL    HW2 2742   6.214   4.549   0.850
  615SOL     OW 2743   0.823   1.323   0.330
  615SOL    HW1 2744   0.783   1.263   0.261
  615SOL    HW2 2745   0.756   1.340   0.402
  616SOL     OW 2746   6.025   1.679   3.874
  616SOL    HW1 2747   5.948   1.734   3.906
  616SOL    HW2 2748   6.063   1.719   3.790
  617SOL     OW 2749   0.218   3.848   6.639
  617SOL    HW1 2750   0.305   3.878   6.679
  617SOL    HW2 2751   0.213   3.748   6.645
  618SOL     OW 2752   5.984   3.981   0.858
  618SOL    HW1 2753   5.941   3.959   0.945
  618SOL    HW2 2754   5.998   3.898   0.805
  619SOL     OW 2755   3.968   0.076   6.581
  619SOL    HW1 2756   3.967   7.013   6.544
  619SOL    HW2 2757   3.880   0.095   6.624
  620SOL     OW 2758   5.832   2.571   1.140
  620SOL    HW1 2759   5.744   2.617   1.142
  620SOL    HW2 2760   5.823   2.480   1.181
  621SOL     OW 2761   2.256   0.182   5.185
  621SOL    HW1 2762   2.352   0.190   5.213
  621SOL    HW2 2763   2.221   0.271   5.160
  622SOL     OW 2764   0.686   2.337   5.138
  622SOL    HW1 2765   0.738   2.349   5.223
  622SOL    HW2 2766   0.678   2.425   5.092
  623SOL     OW 2767   7.020   0.447   4.996
  623SOL    HW1 2768   0.056   0.433   4.922
  623SOL    HW2 2769   6.935   0.483   4.958
  624SOL     OW 2770   6.329   1.419   7.001
  624SOL    HW1 2771   6.250   1.456   0.019
  624SOL    HW2 2772   6.411   1.467   0.000
  625SOL     OW 2773   1.306   1.490   0.330
  625SOL    HW1 2774   1.265   1.402   0.307
  625SOL    HW2 2775   1.260   1.529   0.411
  626SOL     OW 2776   0.855   5.576   2.757
  626SOL    HW1 2777   0.792   5.511   2.800
  626SOL    HW2 2778   0.921   5.526   2.700
  627SOL     OW 2779   6.590   6.344   0.284
  627SOL    HW1 2780   6.518   6.368   0.349
  627SOL    HW2 2781   6.631   6.257   0.309
  628SOL     OW 2782   5.804   3.859   4.654
  628SOL    HW1 2783   5.755   3.940   4.623
  628SOL    HW2 2784   5.895   3.885   4.688
  629SOL     OW 2785   7.008   1.159   0.248
  629SOL    HW1 2786   0.049   1.136   0.314
  629SOL    HW2 2787   6.988   1.257   0.253
  630SOL     OW 2788   6.786   1.775   0.215
  630SOL    HW1 2789   6.771   1.860   0.265
  630SOL    HW2 2790   6.794   1.795   0.117
  631SOL     OW 2791   3.550   1.727   4.281
  631SOL    HW1 2792   3.613   1.789   4.330
  631SOL    HW2 2793   3.596   1.691   4.200
  632SOL     OW 2794   4.204   2.866   0.741
  632SOL    HW1 2795   4.284   2.839   0.794
  632SOL    HW2 2796   4.144   2.923   0.798
  633SOL     OW 2797   2.586   4.410   0.216
  633SOL    HW1 2798   2.672   4.454   0.241
  633SOL    HW2 2799   2.575   4.325   0.267
  634SOL     OW 2800   4.018   3.691   3.555
  634SOL    HW1 2801   4.096   3.689   3.618
  634SOL    HW2 2802   3.989   3.786   3.541
  635SOL     OW 2803   4.873   7.007   6.864
  635SOL    HW1 2804   4.920   6.962   6.939
  635SOL    HW2 2805   4.867   0.075   6.882
  636SOL     OW 2806   3.047   0.257   5.929
  636SOL    HW1 2807   3.050   0.166   5.970
  636SOL    HW2 2808   3.086   0.253   5.837
  637SOL     OW 2809   5.687   1.895   2.548
  637SOL    HW1 2810   5.736   1.970   2.505
  637SOL    HW2 2811   5.752   1.838   2.600
  638SOL     OW 2812   5.652   3.523   4.025
  638SOL    HW1 2813   5.567   3.569   4.052
  638SOL    HW2 2814   5.730   3.584   4.041
  639SOL     OW 2815   5.380   4.165   3.873
  639SOL    HW1 2816   5.293   4.211   3.890
  639SOL    HW2 2817   5.454   4.216   3.917
  640SOL     OW 2818   6.942   4.245   3.419
  640SOL    HW1 2819   6.928   4.150   3.446
  640SOL    HW2 2820   0.006   4.258   3.390
  641SOL     OW 2821   1.088   4.430   5.020
  641SOL    HW1 2822   1.137   4.481   4.950
  641SOL    HW2 2823   1.058   4.492   5.092
  642SOL     OW 2824   1.473   2.768   4.363
  642SOL    HW1 2825   1.512   2.860   4.361
  642SOL    HW2 2826   1.513   2.713   4.291
  643SOL     OW 2827   5.916   0.146   6.532
  643SOL    HW1 2828   5.828   0.166   6.489
  643SOL    HW2 2829   5.908   0.062   6.586
  644SOL     OW 2830   1.472   0.452   4.601
  644SOL    HW1 2831   1.391   0.484   4.648
  644SOL    HW2 2832   1.540   0.526   4.596
  645SOL     OW 2833   3.288   5.408   3.968
  645SOL    HW1 2834   3.295   5.368   3.876
  645SOL    HW2 2835   3.194   5.403   4.000
  646SOL     OW 2836   3.414   0.810   4.557
  646SOL    HW1 2837   3.447   0.856   4.640
  646SOL    HW2 2838   3.355   0.871   4.506
  647SOL     OW 2839   5.583   1.676   4.926
  647SOL    HW1 2840   5.574   1.711   4.833
  647SOL    HW2 2841   5.559   1.748   4.991
  648SOL     OW 2842   6.849   3.335   3.232
  648SOL    HW1 2843   6.858   3.314   3.134
  648SOL    HW2 2844   6.849   3.250   3.284
  649SOL     OW 2845   1.997   4.254   0.732
  649SOL    HW1 2846   2.075   4.199   0.700
  649SOL    HW2 2847   2.026   4.312   0.808
  650SOL     OW 2848   7.014   5.233   0.628
  650SOL    HW1 2849   0.077   5.223   0.663
  650SOL    HW2 2850   7.017   5.249   0.529
  651SOL     OW 2851   1.729   0.187   5.825
  651SOL    HW1 2852   1.760   0.098   5.793
  651SOL    HW2 2853   1.639   0.178   5.867
  652SOL     OW 2854   4.474   6.913   2.206
  652SOL    HW1 2855   4.509   7.006   2.214
  652SOL    HW2 2856   4.456   6.892   2.110
  653SOL     OW 2857   0.612   6.426   0.655
  653SOL    HW1 2858   0.554   6.508   0.655
  653SOL    HW2 2859   0.563   6.351   0.700
  654SOL     OW 2860   6.466   6.434   5.789
  654SOL    HW1 2861   6.474   6.426   5.889
  654SOL    HW2 2862   6.461   6.530   5.763
  655SOL     OW 2863   0.013   5.352   1.670
  655SOL    HW1 2864   0.037   5.286   1.741
  655SOL    HW2 2865   6.963   5.320   1.621
  656SOL     OW 2866   2.570   6.469   0.453
  656SOL    HW1 2867   2.625   6.531   0.509
  656SOL    HW2 2868   2.584   6.375   0.485
  657SOL     OW 2869   3.351   3.528   0.523
  657SOL    HW1 2870   3.382   3.621   0.546
  657SOL    HW2 2871   3.334   3.523   0.424
  658SOL     OW 2872   1.616   4.407   5.972
  658SOL    HW1 2873   1.588   4.355   5.892
  658SOL    HW2 2874   1.646   4.344   6.044
  659SOL     OW 2875   2.839   5.640   4.333
  659SOL    HW1 2876   2.927   5.627   4.287
  659SOL    HW2 2877   2.801   5.551   4.358
  660SOL     OW 2878   4.415   4.736   2.513
  660SOL    HW1 2879   4.467   4.810   2.557
  660SOL    HW2 2880   4.470   4.695   2.441
  661SOL     OW 2881   4.894   4.069   4.386
  661SOL    HW1 2882   4.992   4.051   4.382
  661SOL    HW2 2883   4.847   4.017   4.315
  662SOL     OW 2884   4.448   1.579   6.687
  662SOL    HW1 2885   4.447   1.517   6.765
  662SOL    HW2 2886   4.385   1.546   6.617
  663SOL     OW 2887   0.744   4.892   6.759
  663SOL    HW1 2888   0.677   4.820   6.772
  663SOL    HW2 2889   0.830   4.866   6.802
  664SOL     OW 2890   1.634   5.345   6.854
  664SOL    HW1 2891   1.616   5.401   6.773
  664SOL    HW2 2892   1.733   5.328   6.862
  665SOL     OW 2893   3.792   5.441   1.002
  665SOL    HW1 2894   3.865   5.379   1.032
  665SOL    HW2 2895   3.804   5.530   1.045
  666SOL     OW 2896   4.142   2.270   0.979
  666SOL    HW1 2897   4.113   2.198   1.042
  666SOL    HW2 2898   4.113   2.247   0.886
  667SOL     OW 2899   0.550   3.270   3.884
  667SOL    HW1 2900   0.615   3.252   3.810
  667SOL    HW2 2901   0.588   3.235   3.970
  668SOL     OW 2902   4.876   5.635   0.152
  668SOL    HW1 2903   4.866   5.634   0.053
  668SOL    HW2 2904   4.921   5.720   0.180
  669SOL     OW 2905   2.260   6.183   3.008
  669SOL    HW1 2906   2.325   6.154   2.938
  669SOL    HW2 2907   2.238   6.280   2.994
  670SOL     OW 2908   3.375   3.755   2.602
  670SOL    HW1 2909   3.327   3.832   2.560
  670SOL    HW2 2910   3.342   3.669   2.561
  671SOL     OW 2911   2.315   6.141   6.242
  671SOL    HW1 2912   2.403   6.145   6.195
  671SOL    HW2 2913   2.323   6.081   6.322
  672SOL     OW 2914   1.099   3.626   2.716
  672SOL    HW1 2915   1.098   3.706   2.775
  672SOL    HW2 2916   1.160   3.556   2.755
  673SOL     OW 2917   4.628   0.443   0.747
  673SOL    HW1 2918   4.580   0.479   0.827
  673SOL    HW2 2919   4.709   0.392   0.777
  674SOL     OW 2920   0.197   3.389   4.238
  674SOL    HW1 2921   0.270   3.367   4.303
  674SOL    HW2 2922   0.229   3.373   4.145
  675SOL     OW 2923   0.936   1.474   4.965
  675SOL    HW1 2924   0.839   1.470   4.942
  675SOL    HW2 2925   0.982   1.538   4.904
  676SOL     OW 2926   2.839   5.257   3.617
  676SOL    HW1 2927   2.750   5.291   3.588
  676SOL    HW2 2928   2.911   5.319   3.585
  677SOL     OW 2929   5.932   1.301   6.482
  677SOL    HW1 2930   6.019   1.274   6.521
  677SOL    HW2 2931   5.945   1.381   6.423
  678SOL     OW 2932   2.294   1.576   5.386
  678SOL    HW1 2933   2.287   1.495   5.444
  678SOL    HW2 2934   2.277   1.658   5.440
  679SOL     OW 2935   4.050   0.858   4.735
  679SOL    HW1 2936   4.139   0.819   4.709
  679SOL    HW2 2937   4.045   0.953   4.704
  680SOL     OW 2938   5.899   4.937   5.443
  680SOL    HW1 2939   5.988   4.915   5.480
  680SOL    HW2 2940   5.845   4.986   5.512
  681SOL     OW 2941   6.533   0.190   0.965
  681SOL    HW1 2942   6.544   0.139   1.050
  681SOL    HW2 2943   6.547   0.129   0.887
  682SOL     OW 2944   2.476   6.547   6.448
  682SOL    HW1 2945   2.527   6.486   6.508
  682SOL    HW2 2946   2.379   6.522   6.450
  683SOL     OW 2947   3.166   0.371   6.164
  683SOL    HW1 2948   3.114   0.341   6.084
  683SOL    HW2 2949   3.214   0.293   6.204
  684SOL     OW 2950   6.347   1.863   6.209
  684SOL    HW1 2951   6.391   1.800   6.273
  684SOL    HW2 2952   6.410   1.883   6.134
  685SOL     OW 2953   4.857   0.345   5.657
  685SOL    HW1 2954   4.807   0.398   5.725
  685SOL    HW2 2955   4.797   0.325   5.580
  686SOL     OW 2956   5.997   2.828   3.191
  686SOL    HW1 2957   5.914   2.811   3.138
  686SOL    HW2 2958   6.008   2.757   3.261
  687SOL     OW 2959   6.826   2.740   5.595
  687SOL    HW1 2960   6.870   2.667   5.543
  687SOL    HW2 2961   6.774   2.701   5.671
  688SOL     OW 2962   2.006   3.940   6.847
  688SOL    HW1 2963   1.931   4.007   6.849
  688SOL    HW2 2964   2.025   3.915   6.752
  689SOL     OW 2965   0.694   4.691   5.424
  689SOL    HW1 2966   0.598   4.715   5.408
  689SOL    HW2 2967   0.747   4.706   5.340
  690SOL     OW 2968   0.542   3.639   3.153
  690SOL    HW1 2969   0.486   3.556   3.144
  690SOL    HW2 2970   0.546   3.666   3.249
  691SOL     OW 2971   2.457   1.375   6.601
  691SOL    HW1 2972   2.442   1.379   6.700
  691SOL    HW2 2973   2.382   1.323   6.558
  692SOL     OW 2974   3.422   6.911   3.962
  692SOL    HW1 2975   3.518   6.899   3.935
  692SOL    HW2 2976   3.369   6.946   3.885
  693SOL     OW 2977   6.536   1.537   3.294
  693SOL    HW1 2978   6.522   1.442   3.324
  693SOL    HW2 2979   6.462   1.594   3.328
  694SOL     OW 2980   3.147   5.526   2.567
  694SOL    HW1 2981   3.238   5.485   2.559
  694SOL    HW2 2982   3.155   5.620   2.599
  695SOL     OW 2983   5.400   4.637   5.392
  695SOL    HW1 2984   5.478   4.634   5.330
  695SOL    HW2 2985   5.406   4.717   5.451
  696SOL     OW 2986   3.195   5.085   2.156
  696SOL    HW1 2987   3.218   5.159   2.094
  696SOL    HW2 2988   3.258   5.008   2.142
  697SOL     OW 2989   1.205   3.078   6.016
  697SOL    HW1 2990   1.143   3.094   5.939
  697SOL    HW2 2991   1.286   3.135   6.006
  698SOL     OW 2992   5.772   0.181   4.778
  698SOL    HW1 2993   5.721   0.141   4.855
  698SOL    HW2 2994   5.730   0.268   4.753
  699SOL     OW 2995   1.135   4.206   0.047
  699SOL    HW1 2996   1.196   4.271   0.001
  699SOL    HW2 2997   1.159   4.199   0.143
  700SOL     OW 2998   3.356   1.955   3.468
  700SOL    HW1 2999   3.300   1.894   3.524
  700SOL    HW2 3000   3.297   2.014   3.414
  701SOL     OW 3001   0.811   4.718   6.461
  701SOL    HW1 3002   0.720   4.742   6.428
  701SOL    HW2 3003   0.860   4.801   6.486
  702SOL     OW 3004   5.919   6.303   6.454
  702SOL    HW1 3005   5.861   6.303   6.536
  702SOL    HW2 3006   5.881   6.366   6.386
  703SOL     OW 3007   4.535   3.607   6.550
  703SOL    HW1 3008   4.520   3.523   6.498
  703SOL    HW2 3009   4.632   3.631   6.549
  704SOL     OW 3010   2.033   1.656   6.040
  704SOL    HW1 3011   2.076   1.567   6.054
  704SOL    HW2 3012   2.068   1.720   6.109
  705SOL     OW 3013   5.341   6.423   3.924
  705SOL    HW1 3014   5.332   6.514   3.884
  705SOL    HW2 3015   5.311   6.354   3.858
  706SOL     OW 3016   4.204   1.937   3.300
  706SOL    HW1 3017   4.273   1.912   3.233
  706SOL    HW2 3018   4.137   1.863   3.308
  707SOL     OW 3019   4.829   0.148   2.500
  707SOL    HW1 3020   4.865   0.135   2.592
  707SOL    HW2 3021   4.782   0.236   2.494
  708SOL     OW 3022   4.323   0.334   0.843
  708SOL    HW1 3023   4.400   0.373   0.894
  708SOL    HW2 3024   4.356   0.259   0.786
  709SOL     OW 3025   1.076   5.525   0.877
  709SOL    HW1 3026   1.099   5.607   0.824
  709SOL    HW2 3027   1.152   5.504   0.939
  710SOL     OW 3028   3.833   3.698   2.806
  710SOL    HW1 3029   3.824   3.599   2.812
  710SOL    HW2 3030   3.820   3.739   2.897
  711SOL     OW 3031   0.854   2.199   5.797
  711SOL    HW1 3032   0.886   2.129   5.733
  711SOL    HW2 3033   0.755   2.213   5.784
  712SOL     OW 3034   2.062   4.415   0.955
  712SOL    HW1 3035   1.994   4.464   1.010
  712SOL    HW2 3036   2.121   4.481   0.909
  713SOL     OW 3037   3.175   3.969   0.348
  713SOL    HW1 3038   3.156   4.020   0.432
  713SOL    HW2 3039   3.130   4.013   0.271
  714SOL     OW 3040   6.067   4.504   5.095
  714SOL    HW1 3041   6.084   4.595   5.058
  714SOL    HW2 3042   6.083   4.504   5.194
  715SOL     OW 3043   4.743   6.016   0.316
  715SOL    HW1 3044   4.713   5.925   0.343
  715SOL    HW2 3045   4.664   6.077   0.309
  716SOL     OW 3046   1.184   5.816   1.121
  716SOL    HW1 3047   1.182   5.772   1.032
  716SOL    HW2 3048   1.236   5.902   1.114
  717SOL     OW 3049   6.272   5.176   6.101
  717SOL    HW1 3050   6.344   5.241   6.080
  717SOL    HW2 3051   6.186   5.206   6.059
  718SOL     OW 3052   3.652   1.799   6.178
  718SOL    HW1 3053   3.599   1.718   6.203
  718SOL    HW2 3054   3.685   1.789   6.084
  719SOL     OW 3055   5.804   2.412   1.867
  719SOL    HW1 3056   5.835   2.503   1.841
  719SOL    HW2 3057   5.820   2.348   1.792
  720SOL     OW 3058   2.973   0.982   6.275
  720SOL    HW1 3059   2.946   0.987   6.179
  720SOL    HW2 3060   3.048   0.916   6.285
  721SOL     OW 3061   1.523   0.011   4.684
  721SOL    HW1 3062   1.560   0.101   4.704
  721SOL    HW2 3063   1.510   6.990   4.769
  722SOL     OW 3064   3.643   6.709   5.171
  722SOL    HW1 3065   3.729   6.755   5.150
  722SOL    HW2 3066   3.568   6.759   5.127
  723SOL     OW 3067   2.220   2.937   2.054
  723SOL    HW1 3068   2.206   3.027   2.013
  723SOL    HW2 3069   2.210   2.944   2.153
  724SOL     OW 3070   1.166   1.418   4.647
  724SOL    HW1 3071   1.143   1.493   4.710
  724SOL    HW2 3072   1.193   1.456   4.559
  725SOL     OW 3073   2.990   5.121   1.458
  725SOL    HW1 3074   3.013   5.111   1.554
  725SOL    HW2 3075   2.990   5.218   1.433
  726SOL     OW 3076   4.005   4.797   0.750
  726SOL    HW1 3077   4.103   4.819   0.751
  726SOL    HW2 3078   3.980   4.758   0.661
  727SOL     OW 3079   4.346   5.687   4.646
  727SOL    HW1 3080   4.415   5.679   4.574
  727SOL    HW2 3081   4.292   5.603   4.650
  728SOL     OW 3082   0.665   4.353   5.402
  728SOL    HW1 3083   0.683   4.409   5.483
  728SOL    HW2 3084   0.676   4.409   5.320
  729SOL     OW 3085   2.526   0.364   0.459
  729SOL    HW1 3086   2.454   0.411   0.406
  729SOL    HW2 3087   2.559   0.425   0.530
  730SOL     OW 3088   5.655   0.289   3.479
  730SOL    HW1 3089   5.725   0.232   3.522
  730SOL    HW2 3090   5.629   0.249   3.391
  731SOL     OW 3091   5.636   3.430   6.000
  731SOL    HW1 3092   5.720   3.384   6.030
  731SOL    HW2 3093   5.594   3.476   6.078
  732SOL     OW 3094   0.096   3.595   0.667
  732SOL    HW1 3095   0.141   3.627   0.750
  732SOL    HW2 3096   0.101   3.667   0.597
  733SOL     OW 3097   5.655   4.091   4.643
  733SOL    HW1 3098   5.574   4.113   4.588
  733SOL    HW2 3099   5.645   4.131   4.734
  734SOL     OW 3100   6.576   4.622   2.839
  734SOL    HW1 3101   6.629   4.662   2.914
  734SOL    HW2 3102   6.547   4.530   2.863
  735SOL     OW 3103   3.508   2.334   1.211
  735SOL    HW1 3104   3.455   2.252   1.189
  735SOL    HW2 3105   3.450   2.398   1.261
  736SOL     OW 3106   6.707   6.585   2.365
  736SOL    HW1 3107   6.709   6.630   2.455
  736SOL    HW2 3108   6.612   6.566   2.340
  737SOL     OW 3109   4.635   3.317   0.561
  737SOL    HW1 3110   4.696   3.392   0.585
  737SOL    HW2 3111   4.653   3.287   0.467
  738SOL     OW 3112   1.793   5.082   3.628
  738SOL    HW1 3113   1.759   5.124   3.544
  738SOL    HW2 3114   1.856   5.146   3.674
  739SOL     OW 3115   4.893   6.288   5.369
  739SOL    HW1 3116   4.921   6.307   5.275
  739SOL    HW2 3117   4.799   6.319   5.383
  740SOL     OW 3118   5.479   0.562   0.571
  740SOL    HW1 3119   5.507   0.651   0.607
  740SOL    HW2 3120   5.551   0.525   0.512
  741SOL     OW 3121   2.300   6.496   3.176
  741SOL    HW1 3122   2.213   6.520   3.220
  741SOL    HW2 3123   2.282   6.457   3.086
  742SOL     OW 3124   2.294   6.678   1.531
  742SOL    HW1 3125   2.243   6.729   1.461
  742SOL    HW2 3126   2.359   6.739   1.576
  743SOL     OW 3127   1.430   3.879   4.642
  743SOL    HW1 3128   1.392   3.790   4.664
  743SOL    HW2 3129   1.486   3.911   4.719
  744SOL     OW 3130   6.427   6.952   6.491
  744SOL    HW1 3131   6.359   6.988   6.426
  744SOL    HW2 3132   6.493   7.024   6.512
  745SOL     OW 3133   1.077   5.675   4.194
  745SOL    HW1 3134   1.150   5.736   4.223
  745SOL    HW2 3135   1.115   5.603   4.135
  746SOL     OW 3136   0.641   6.283   4.868
  746SOL    HW1 3137   0.549   6.282   4.907
  746SOL    HW2 3138   0.658   6.196   4.822
  747SOL     OW 3139   4.550   4.849   4.445
  747SOL    HW1 3140   4.608   4.888   4.516
  747SOL    HW2 3141   4.602   4.780   4.394
  748SOL     OW 3142   3.860   5.210   2.797
  748SOL    HW1 3143   3.919   5.147   2.847
  748SOL    HW2 3144   3.776   5.226   2.850
  749SOL     OW 3145   6.363   3.503   5.004
  749SOL    HW1 3146   6.358   3.600   5.027
  749SOL    HW2 3147   6.459   3.475   5.000
  750SOL     OW 3148   1.965   3.042   0.612
  750SOL    HW1 3149   1.930   3.055   0.705
  750SOL    HW2 3150   2.013   3.124   0.583
  751SOL     OW 3151   3.779   1.595   6.351
  751SOL    HW1 3152   3.872   1.612   6.384
  751SOL    HW2 3153   3.783   1.566   6.255
  752SOL     OW 3154   4.332   2.381   1.389
  752SOL    HW1 3155   4.268   2.314   1.352
  752SOL    HW2 3156   4.353   2.358   1.484
  753SOL     OW 3157   2.078   2.936   3.718
  753SOL    HW1 3158   2.084   2.836   3.715
  753SOL    HW2 3159   2.113   2.969   3.806
  754SOL     OW 3160   5.882   3.411   6.450
  754SOL    HW1 3161   5.805   3.407   6.514
  754SOL    HW2 3162   5.934   3.326   6.455
  755SOL     OW 3163   1.156   6.040   0.046
  755SOL    HW1 3164   1.087   5.995   0.102
  755SOL    HW2 3165   1.234   5.979   0.034
  756SOL     OW 3166   4.868   6.506   1.290
  756SOL    HW1 3167   4.948   6.565   1.293
  756SOL    HW2 3168   4.862   6.453   1.375
  757SOL     OW 3169   0.305   6.021   2.991
  757SOL    HW1 3170   0.400   6.028   2.959
  757SOL    HW2 3171   0.290   6.085   3.066
  758SOL     OW 3172   3.825   0.727   1.445
  758SOL    HW1 3173   3.820   0.824   1.422
  758SOL    HW2 3174   3.829   0.674   1.360
  759SOL     OW 3175   0.355   1.014   0.678
  759SOL    HW1 3176   0.368   0.915   0.683
  759SOL    HW2 3177   0.390   1.048   0.590
  760SOL     OW 3178   4.520   0.912   6.437
  760SOL    HW1 3179   4.524   0.856   6.520
  760SOL    HW2 3180   4.426   0.914   6.403
  761SOL     OW 3181   5.664   3.771   5.873
  761SOL    HW1 3182   5.722   3.784   5.953
  761SOL    HW2 3183   5.701   3.698   5.815
  762SOL     OW 3184   2.581   6.609   3.638
  762SOL    HW1 3185   2.491   6.565   3.628
  762SOL    HW2 3186   2.651   6.552   3.595
  763SOL     OW 3187   4.021   5.482   6.034
  763SOL    HW1 3188   4.015   5.582   6.034
  763SOL    HW2 3189   4.072   5.452   5.954
  764SOL     OW 3190   4.536   0.629   4.314
  764SOL    HW1 3191   4.532   0.656   4.410
  764SOL    HW2 3192   4.528   0.710   4.256
  765SOL     OW 3193   1.290   6.427   1.435
  765SOL    HW1 3194   1.316   6.471   1.521
  765SOL    HW2 3195   1.325   6.334   1.433
  766SOL     OW 3196   0.547   1.807   0.463
  766SOL    HW1 3197   0.561   1.723   0.411
  766SOL    HW2 3198   0.625   1.824   0.523
  767SOL     OW 3199   0.131   6.090   2.544
  767SOL    HW1 3200   0.163   6.006   2.501
  767SOL    HW2 3201   0.073   6.141   2.480
  768SOL     OW 3202   2.763   6.906   1.878
  768SOL    HW1 3203   2.790   6.993   1.921
  768SOL    HW2 3204   2.676   6.918   1.830
  769SOL     OW 3205   2.929   0.036   3.830
  769SOL    HW1 3206   3.023   0.005   3.822
  769SOL    HW2 3207   2.927   0.123   3.879
  770SOL     OW 3208   1.701   4.515   2.863
  770SOL    HW1 3209   1.716   4.449   2.789
  770SOL    HW2 3210   1.702   4.467   2.951
  771SOL     OW 3211   1.897   5.183   2.862
  771SOL    HW1 3212   1.832   5.198   2.787
  771SOL    HW2 3213   1.862   5.227   2.945
  772SOL     OW 3214   6.597   4.962   0.822
  772SOL    HW1 3215   6.631   4.980   0.729
  772SOL    HW2 3216   6.500   4.936   0.817
  773SOL     OW 3217   0.442   3.926   3.672
  773SOL    HW1 3218   0.535   3.921   3.636
  773SOL    HW2 3219   0.440   3.888   3.765
  774SOL     OW 3220   1.029   1.547   2.504
  774SOL    HW1 3221   1.056   1.575   2.412
  774SOL    HW2 3222   1.097   1.484   2.540
  775SOL     OW 3223   1.169   1.995   3.167
  775SOL    HW1 3224   1.248   2.045   3.131
  775SOL    HW2 3225   1.095   1.998   3.100
  776SOL     OW 3226   6.928   1.346   5.681
  776SOL    HW1 3227   6.943   1.362   5.583
  776SOL    HW2 3228   6.993   1.401   5.734
  777SOL     OW 3229   3.105   6.382   0.707
  777SOL    HW1 3230   3.025   6.328   0.683
  777SOL    HW2 3231   3.179   6.321   0.736
  778SOL     OW 3232   3.572   1.262   3.961
  778SOL    HW1 3233   3.621   1.331   4.014
  778SOL    HW2 3234   3.572   1.175   4.011
  779SOL     OW 3235   0.662   1.651   2.720
  779SOL    HW1 3236   0.694   1.575   2.662
  779SOL    HW2 3237   0.685   1.738   2.676
  780SOL     OW 3238   6.440   3.827   4.572
  780SOL    HW1 3239   6.351   3.867   4.594
  780SOL    HW2 3240   6.512   3.893   4.595
  781SOL     OW 3241   5.767   0.833   6.292
  781SOL    HW1 3242   5.713   0.830   6.208
  781SOL    HW2 3243   5.821   0.917   6.294
  782SOL     OW 3244   1.206   3.956   0.437
  782SOL    HW1 3245   1.287   3.907   0.404
  782SOL    HW2 3246   1.131   3.891   0.450
  783SOL     OW 3247   3.594   4.568   0.888
  783SOL    HW1 3248   3.660   4.638   0.913
  783SOL    HW2 3249   3.539   4.543   0.968
  784SOL     OW 3250   5.171   6.670   5.914
  784SOL    HW1 3251   5.140   6.764   5.926
  784SOL    HW2 3252   5.106   6.620   5.855
  785SOL     OW 3253   0.296   2.086   3.720
  785SOL    HW1 3254   0.349   2.016   3.672
  785SOL    HW2 3255   0.317   2.083   3.817
  786SOL     OW 3256   1.658   0.916   0.658
  786SOL    HW1 3257   1.746   0.878   0.686
  786SOL    HW2 3258   1.603   0.844   0.616
  787SOL     OW 3259   3.314   1.838   6.431
  787SOL    HW1 3260   3.375   1.918   6.430
  787SOL    HW2 3261   3.219   1.869   6.429
  788SOL     OW 3262   2.268   2.551   4.812
  788SOL    HW1 3263   2.305   2.619   4.875
  788SOL    HW2 3264   2.330   2.473   4.806
  789SOL     OW 3265   5.547   4.292   1.256
  789SOL    HW1 3266   5.478   4.229   1.220
  789SOL    HW2 3267   5.516   4.330   1.343
  790SOL     OW 3268   2.449   1.347   4.199
  790SOL    HW1 3269   2.531   1.296   4.176
  790SOL    HW2 3270   2.413   1.317   4.287
  791SOL     OW 3271   3.814   0.459   3.388
  791SOL    HW1 3272   3.906   0.491   3.409
  791SOL    HW2 3273   3.811   0.359   3.393
  792SOL     OW 3274   0.348   0.413   1.890
  792SOL    HW1 3275   0.376   0.402   1.794
  792SOL    HW2 3276   0.399   0.348   1.947
  793SOL     OW 3277   4.066   6.224   2.368
  793SOL    HW1 3278   3.986   6.173   2.338
  793SOL    HW2 3279   4.087   6.296   2.303
  794SOL     OW 3280   2.748   3.363   5.474
  794SOL    HW1 3281   2.724   3.267   5.455
  794SOL    HW2 3282   2.666   3.420   5.467
  795SOL     OW 3283   3.164   5.485   5.072
  795SOL    HW1 3284   3.141   5.419   5.144
  795SOL    HW2 3285   3.121   5.458   4.986
  796SOL     OW 3286   1.121   2.502   6.528
  796SOL    HW1 3287   1.113   2.518   6.626
  796SOL    HW2 3288   1.130   2.589   6.480
  797SOL     OW 3289   5.403   2.412   2.636
  797SOL    HW1 3290   5.376   2.457   2.721
  797SOL    HW2 3291   5.325   2.405   2.575
  798SOL     OW 3292   5.244   0.376   1.379
  798SOL    HW1 3293   5.235   0.471   1.411
  798SOL    HW2 3294   5.335   0.342   1.399
  799SOL     OW 3295   6.585   1.342   4.216
  799SOL    HW1 3296   6.612   1.289   4.135
  799SOL    HW2 3297   6.500   1.391   4.197
  800SOL     OW 3298   5.730   1.099   2.828
  800SOL    HW1 3299   5.702   1.008   2.860
  800SOL    HW2 3300   5.786   1.089   2.746
  801SOL     OW 3301   1.590   3.649   3.065
  801SOL    HW1 3302   1.628   3.735   3.098
  801SOL    HW2 3303   1.643   3.616   2.987
  802SOL     OW 3304   3.994   0.266   0.383
  802SOL    HW1 3305   4.032   0.353   0.351
  802SOL    HW2 3306   4.057   0.192   0.360
  803SOL     OW 3307   0.231   5.294   5.162
  803SOL    HW1 3308   0.179   5.258   5.085
  803SOL    HW2 3309   0.325   5.262   5.157
  804SOL     OW 3310   6.062   6.486   0.059
  804SOL    HW1 3311   6.119   6.444   7.019
  804SOL    HW2 3312   6.091   6.453   0.149
  805SOL     OW 3313   3.489   2.237   5.598
  805SOL    HW1 3314   3.526   2.144   5.607
  805SOL    HW2 3315   3.506   2.271   5.506
  806SOL     OW 3316   4.438   1.184   4.611
  806SOL    HW1 3317   4.401   1.149   4.697
  806SOL    HW2 3318   4.363   1.203   4.548
  807SOL     OW 3319   0.832   1.491   3.560
  807SOL    HW1 3320   0.872   1.422   3.620
  807SOL    HW2 3321   0.904   1.530   3.502
  808SOL     OW 3322   4.853   3.449   6.197
  808SOL    HW1 3323   4.942   3.478   6.160
  808SOL    HW2 3324   4.785   3.449   6.124
  809SOL     OW 3325   0.936   4.291   1.388
  809SOL    HW1 3326   0.868   4.220   1.372
  809SOL    HW2 3327   1.017   4.272   1.332
  810SOL     OW 3328   3.882   2.686   1.255
  810SOL    HW1 3329   3.799   2.737   1.277
  810SOL    HW2 3330   3.926   2.726   1.175
  811SOL     OW 3331   4.863   5.147   3.764
  811SOL    HW1 3332   4.888   5.065   3.816
  811SOL    HW2 3333   4.820   5.214   3.826
  812SOL     OW 3334   0.219   1.949   2.226
  812SOL    HW1 3335   0.127   1.910   2.237
  812SOL    HW2 3336   0.219   2.012   2.148
  813SOL     OW 3337   3.432   5.025   4.126
  813SOL    HW1 3338   3.516   4.977   4.102
  813SOL    HW2 3339   3.446   5.124   4.115
  814SOL     OW 3340   5.338   6.125   3.177
  814SOL    HW1 3341   5.374   6.185   3.248
  814SOL    HW2 3342   5.279   6.055   3.219
  815SOL     OW 3343   0.145   3.031   2.598
  815SOL    HW1 3344   0.129   3.107   2.535
  815SOL    HW2 3345   0.226   3.050   2.653
  816SOL     OW 3346   6.914   0.132   6.969
  816SOL    HW1 3347   6.853   0.093   6.900
  816SOL    HW2 3348   6.884   0.104   0.030
  817SOL     OW 3349   2.117   3.800   2.050
  817SOL    HW1 3350   2.079   3.891   2.068
  817SOL    HW2 3351   2.059   3.752   1.985
  818SOL     OW 3352   6.462   3.246   1.304
  818SOL    HW1 3353   6.466   3.346   1.297
  818SOL    HW2 3354   6.553   3.211   1.327
  819SOL     OW 3355   5.989   3.036   3.686
  819SOL    HW1 3356   6.074   3.087   3.675
  819SOL    HW2 3357   5.937   3.074   3.763
  820SOL     OW 3358   1.579   3.020   6.304
  820SOL    HW1 3359   1.630   3.057   6.382
  820SOL    HW2 3360   1.609   3.065   6.220
  821SOL     OW 3361   2.297   4.962   0.718
  821SOL    HW1 3362   2.256   4.945   0.807
  821SOL    HW2 3363   2.250   5.039   0.674
  822SOL     OW 3364   1.019   5.193   4.503
  822SOL    HW1 3365   1.050   5.153   4.589
  822SOL    HW2 3366   1.093   5.191   4.437
  823SOL     OW 3367   4.946   4.227   6.972
  823SOL    HW1 3368   4.864   4.247   7.026
  823SOL    HW2 3369   5.025   4.272   7.014
  824SOL     OW 3370   5.424   0.793   5.508
  824SOL    HW1 3371   5.428   0.793   5.408
  824SOL    HW2 3372   5.431   0.886   5.542
  825SOL     OW 3373   1.627   4.173   1.286
  825SOL    HW1 3374   1.570   4.236   1.233
  825SOL    HW2 3375   1.702   4.140   1.228
  826SOL     OW 3376   5.746   3.623   0.766
  826SOL    HW1 3377   5.837   3.588   0.787
  826SOL    HW2 3378   5.753   3.718   0.736
  827SOL     OW 3379   2.702   5.750   6.061
  827SOL    HW1 3380   2.689   5.764   5.963
  827SOL    HW2 3381   2.771   5.813   6.096
  828SOL     OW 3382   6.048   0.101   5.434
  828SOL    HW1 3383   6.043   0.196   5.464
  828SOL    HW2 3384   6.126   0.089   5.373
  829SOL     OW 3385   2.921   3.749   4.185
  829SOL    HW1 3386   2.958   3.707   4.268
  829SOL    HW2 3387   2.839   3.699   4.156
  830SOL     OW 3388   4.695   4.828   6.147
  830SOL    HW1 3389   4.643   4.913   6.137
  830SOL    HW2 3390   4.737   4.805   6.059
  831SOL     OW 3391   6.999   0.245   5.211
  831SOL    HW1 3392   7.009   0.289   5.122
  831SOL    HW2 3393   7.027   0.308   5.283
  832SOL     OW 3394   1.463   0.818   0.325
  832SOL    HW1 3395   1.381   0.761   0.336
  832SOL    HW2 3396   1.497   0.845   0.415
  833SOL     OW 3397   0.541   5.563   6.100
  833SOL    HW1 3398   0.519   5.597   6.191
  833SOL    HW2 3399   0.478   5.602   6.033
  834SOL     OW 3400   3.525   4.243   1.371
  834SOL    HW1 3401   3.426   4.239   1.361
  834SOL    HW2 3402   3.550   4.241   1.468
  835SOL     OW 3403   3.313   7.014   4.189
  835SOL    HW1 3404   3.341   6.956   4.112
  835SOL    HW2 3405   3.351   0.075   4.177
  836SOL     OW 3406   3.637   6.597   6.642
  836SOL    HW1 3407   3.609   6.682   6.599
  836SOL    HW2 3408   3.737   6.589   6.637
  837SOL     OW 3409   4.893   6.402   6.615
  837SOL    HW1 3410   4.876   6.442   6.525
  837SOL    HW2 3411   4.860   6.308   6.616
  838SOL     OW 3412   1.055   0.550   4.765
  838SOL    HW1 3413   1.131   0.509   4.816
  838SOL    HW2 3414   1.065   0.649   4.765
  839SOL     OW 3415   2.687   2.069   2.056
  839SOL    HW1 3416   2.713   2.111   1.969
  839SOL    HW2 3417   2.759   2.086   2.124
  840SOL     OW 3418   6.165   0.213   6.091
  840SOL    HW1 3419   6.071   0.224   6.122
  840SOL    HW2 3420   6.198   0.299   6.052
  841SOL     OW 3421   5.840   4.571   0.473
  841SOL    HW1 3422   5.769   4.623   0.521
  841SOL    HW2 3423   5.796   4.516   0.401
  842SOL     OW 3424   4.093   5.120   4.343
  842SOL    HW1 3425   4.110   5.076   4.431
  842SOL    HW2 3426   4.128   5.062   4.269
  843SOL     OW 3427   4.393   2.505   6.903
  843SOL    HW1 3428   4.468   2.547   6.954
  843SOL    HW2 3429   4.421   2.489   6.809
  844SOL     OW 3430   4.679   6.750   0.986
  844SOL    HW1 3431   4.729   6.706   0.912
  844SOL    HW2 3432   4.743   6.782   1.055
  845SOL     OW 3433   6.341   3.455   4.257
  845SOL    HW1 3434   6.297   3.446   4.168
  845SOL    HW2 3435   6.303   3.386   4.320
  846SOL     OW 3436   5.322   1.699   6.525
  846SOL    HW1 3437   5.392   1.657   6.583
  846SOL    HW2 3438   5.237   1.646   6.532
  847SOL     OW 3439   6.750   3.335   0.348
  847SOL    HW1 3440   6.688   3.307   0.275
  847SOL    HW2 3441   6.698   3.381   0.420
  848SOL     OW 3442   6.429   1.729   6.428
  848SOL    HW1 3443   6.344   1.756   6.473
  848SOL    HW2 3444   6.507   1.763   6.480
  849SOL     OW 3445   0.945   5.613   5.558
  849SOL    HW1 3446   0.884   5.553   5.609
  849SOL    HW2 3447   0.966   5.572   5.469
  850SOL     OW 3448   5.243   0.413   3.337
  850SOL    HW1 3449   5.169   0.410   3.404
  850SOL    HW2 3450   5.305   0.488   3.359
  851SOL     OW 3451   0.364   1.757   1.423
  851SOL    HW1 3452   0.285   1.697   1.411
  851SOL    HW2 3453   0.344   1.824   1.494
  852SOL     OW 3454   2.978   2.592   0.122
  852SOL    HW1 3455   2.969   2.492   0.119
  852SOL    HW2 3456   3.063   2.617   0.167
  853SOL     OW 3457   1.032   4.179   3.246
  853SOL    HW1 3458   1.025   4.262   3.191
  853SOL    HW2 3459   1.116   4.180   3.299
  854SOL     OW 3460   4.722   5.813   2.150
  854SOL    HW1 3461   4.703   5.909   2.166
  854SOL    HW2 3462   4.818   5.794   2.173
  855SOL     OW 3463   5.983   6.786   1.244
  855SOL    HW1 3464   5.941   6.875   1.263
  855SOL    HW2 3465   5.964   6.723   1.320
  856SOL     OW 3466   2.163   1.523   5.163
  856SOL    HW1 3467   2.225   1.502   5.087
  856SOL    HW2 3468   2.216   1.558   5.240
  857SOL     OW 3469   5.834   5.349   1.233
  857SOL    HW1 3470   5.787   5.412   1.171
  857SOL    HW2 3471   5.911   5.306   1.186
  858SOL     OW 3472   2.581   4.535   1.884
  858SOL    HW1 3473   2.577   4.475   1.805
  858SOL    HW2 3474   2.675   4.563   1.901
  859SOL     OW 3475   5.480   5.540   6.856
  859SOL    HW1 3476   5.504   5.526   6.952
  859SOL    HW2 3477   5.472   5.452   6.810
  860SOL     OW 3478   4.249   4.246   0.933
  860SOL    HW1 3479   4.216   4.322   0.990
  860SOL    HW2 3480   4.312   4.281   0.864
  861SOL     OW 3481   1.832   0.032   4.832
  861SOL    HW1 3482   1.812   0.055   4.737
  861SOL    HW2 3483   1.748   0.003   4.878
  862SOL     OW 3484   6.390   4.065   5.537
  862SOL    HW1 3485   6.314   4.115   5.578
  862SOL    HW2 3486   6.355   4.005   5.465
  863SOL     OW 3487   0.972   0.042   0.557
  863SOL    HW1 3488   0.911   0.099   0.502
  863SOL    HW2 3489   1.066   0.071   0.544
  864SOL     OW 3490   5.313   4.601   3.714
  864SOL    HW1 3491   5.334   4.689   3.673
  864SOL    HW2 3492   5.393   4.565   3.761
  865SOL     OW 3493   1.247   6.873   4.820
  865SOL    HW1 3494   1.192   6.822   4.887
  865SOL    HW2 3495   1.291   6.950   4.866
  866SOL     OW 3496   1.790   1.898   1.438
  866SOL    HW1 3497   1.868   1.839   1.458
  866SOL    HW2 3498   1.821   1.979   1.387
  867SOL     OW 3499   3.618   2.690   1.067
  867SOL    HW1 3500   3.665   2.713   1.152
  867SOL    HW2 3501   3.660   2.740   0.991
  868SOL     OW 3502   6.255   6.509   0.883
  868SOL    HW1 3503   6.351   6.521   0.857
  868SOL    HW2 3504   6.233   6.568   0.961
  869SOL     OW 3505   6.638   5.241   2.759
  869SOL    HW1 3506   6.549   5.223   2.717
  869SOL    HW2 3507   6.672   5.330   2.729
  870SOL     OW 3508   6.137   4.144   0.669
  870SOL    HW1 3509   6.067   4.101   0.726
  870SOL    HW2 3510   6.196   4.201   0.726
  871SOL     OW 3511   6.406   2.809   2.260
  871SOL    HW1 3512   6.338   2.787   2.330
  871SOL    HW2 3513   6.379   2.768   2.173
  872SOL     OW 3514   6.247   3.753   3.999
  872SOL    HW1 3515   6.174   3.785   3.939
  872SOL    HW2 3516   6.209   3.727   4.087
  873SOL     OW 3517   4.403   0.435   2.849
  873SOL    HW1 3518   4.431   0.343   2.878
  873SOL    HW2 3519   4.331   0.468   2.910
  874SOL     OW 3520   1.707   3.715   5.509
  874SOL    HW1 3521   1.641   3.641   5.524
  874SOL    HW2 3522   1.794   3.692   5.552
  875SOL     OW 3523   5.188   3.952   1.116
  875SOL    HW1 3524   5.158   3.871   1.167
  875SOL    HW2 3525   5.124   4.027   1.132
  876SOL     OW 3526   6.935   4.576   3.177
  876SOL    HW1 3527   6.928   4.623   3.265
  876SOL    HW2 3528   7.026   4.590   3.139
  877SOL     OW 3529   4.447   4.473   6.732
  877SOL    HW1 3530   4.473   4.402   6.797
  877SOL    HW2 3531   4.477   4.447   6.640
  878SOL     OW 3532   4.118   5.592   6.419
  878SOL    HW1 3533   4.194   5.545   6.375
  878SOL    HW2 3534   4.075   5.655   6.354
  879SOL     OW 3535   3.898   2.007   2.295
  879SOL    HW1 3536   3.845   2.077   2.247
  879SOL    HW2 3537   3.868   1.916   2.265
  880SOL     OW 3538   3.330   4.867   6.903
  880SOL    HW1 3539   3.244   4.816   6.892
  880SOL    HW2 3540   3.400   4.806   6.941
  881SOL     OW 3541   4.264   4.728   5.188
  881SOL    HW1 3542   4.276   4.814   5.238
  881SOL    HW2 3543   4.230   4.748   5.096
  882SOL     OW 3544   1.878   1.270   4.311
  882SOL    HW1 3545   1.808   1.251   4.242
  882SOL    HW2 3546   1.836   1.269   4.402
  883SOL     OW 3547   4.297   5.439   5.167
  883SOL    HW1 3548   4.347   5.362   5.128
  883SOL    HW2 3549   4.229   5.405   5.232
  884SOL     OW 3550   6.907   3.788   2.141
  884SOL    HW1 3551   6.839   3.750   2.204
  884SOL    HW2 3552   6.992   3.805   2.190
  885SOL     OW 3553   5.687   6.248   6.935
  885SOL    HW1 3554   5.595   6.267   6.901
  885SOL    HW2 3555   5.749   6.232   6.857
  886SOL     OW 3556   4.498   0.658   0.434
  886SOL    HW1 3557   4.585   0.683   0.393
  886SOL    HW2 3558   4.511   0.578   0.493
  887SOL     OW 3559   4.175   6.273   5.733
  887SOL    HW1 3560   4.147   6.210   5.805
  887SOL    HW2 3561   4.231   6.225   5.666
  888SOL     OW 3562   6.982   6.397   2.827
  888SOL    HW1 3563   6.883   6.404   2.838
  888SOL    HW2 3564   7.005   6.393   2.730
  889SOL     OW 3565   0.266   6.859   5.884
  889SOL    HW1 3566   0.205   6.854   5.963
  889SOL    HW2 3567   0.360   6.870   5.915
  890SOL     OW 3568   2.759   4.756   2.210
  890SOL    HW1 3569   2.843   4.763   2.264
  890SOL    HW2 3570   2.779   4.708   2.124
  891SOL     OW 3571   6.037   3.596   1.505
  891SOL    HW1 3572   6.039   3.516   1.565
  891SOL    HW2 3573   6.114   3.656   1.527
  892SOL     OW 3574   4.241   3.866   0.650
  892SOL    HW1 3575   4.252   3.914   0.563
  892SOL    HW2 3576   4.151   3.888   0.689
  893SOL     OW 3577   1.834   0.463   1.046
  893SOL    HW1 3578   1.921   0.503   1.016
  893SOL    HW2 3579   1.763   0.534   1.047
  894SOL     OW 3580   1.926   3.982   4.154
  894SOL    HW1 3581   1.853   3.926   4.193
  894SOL    HW2 3582   1.899   4.013   4.063
  895SOL     OW 3583   2.080   6.867   4.255
  895SOL    HW1 3584   2.058   6.808   4.333
  895SOL    HW2 3585   2.000   6.876   4.197
  896SOL     OW 3586   5.713   5.661   4.103
  896SOL    HW1 3587   5.800   5.614   4.120
  896SOL    HW2 3588   5.719   5.712   4.018
  897SOL     OW 3589   4.831   1.311   0.195
  897SOL    HW1 3590   4.854   1.375   0.268
  897SOL    HW2 3591   4.895   1.322   0.119
  898SOL     OW 3592   4.665   6.105   4.098
  898SOL    HW1 3593   4.750   6.085   4.049
  898SOL    HW2 3594   4.605   6.161   4.041
  899SOL     OW 3595   0.342   5.122   0.283
  899SOL    HW1 3596   0.369   5.218   0.269
  899SOL    HW2 3597   0.276   5.096   0.212
  900SOL     OW 3598   5.704   5.944   1.578
  900SOL    HW1 3599   5.611   5.925   1.548
  900SOL    HW2 3600   5.705   5.961   1.676
  901SOL     OW 3601   0.520   1.997   4.898
  901SOL    HW1 3602   0.437   2.004   4.842
  901SOL    HW2 3603   0.581   1.929   4.858
  902SOL     OW 3604   0.112   0.712   6.271
  902SOL    HW1 3605   0.057   0.664   6.202
  902SOL    HW2 3606   0.206   0.720   6.238
  903SOL     OW 3607   6.621   4.539   6.946
  903SOL    HW1 3608   6.671   4.533   0.002
  903SOL    HW2 3609   6.645   4.461   6.888
  904SOL     OW 3610   1.465   2.008   4.079
  904SOL    HW1 3611   1.510   2.083   4.127
  904SOL    HW2 3612   1.379   1.985   4.124
  905SOL     OW 3613   5.240   2.409   6.895
  905SOL    HW1 3614   5.182   2.368   6.824
  905SOL    HW2 3615   5.283   2.492   6.859
  906SOL     OW 3616   0.473   3.982   6.629
  906SOL    HW1 3617   0.506   3.966   6.722
  906SOL    HW2 3618   0.488   4.078   6.605
  907SOL     OW 3619   6.245   2.446   3.129
  907SOL    HW1 3620   6.161   2.414   3.171
  907SOL    HW2 3621   6.249   2.415   3.034
  908SOL     OW 3622   1.470   0.083   3.887
  908SOL    HW1 3623   1.489   0.122   3.796
  908SOL    HW2 3624   1.422   0.151   3.943
  909SOL     OW 3625   2.576   1.227   0.743
  909SOL    HW1 3626   2.590   1.189   0.834
  909SOL    HW2 3627   2.606   1.160   0.674
  910SOL     OW 3628   1.836   0.313   0.667
  910SOL    HW1 3629   1.915   0.326   0.727
  910SOL    HW2 3630   1.833   0.387   0.600
  911SOL     OW 3631   0.473   4.813   1.336
  911SOL    HW1 3632   0.468   4.816   1.236
  911SOL    HW2 3633   0.385   4.839   1.375
  912SOL     OW 3634   0.614   1.882   5.758
  912SOL    HW1 3635   0.607   1.979   5.781
  912SOL    HW2 3636   0.645   1.831   5.839
  913SOL     OW 3637   2.098   0.963   3.440
  913SOL    HW1 3638   2.100   0.863   3.438
  913SOL    HW2 3639   2.181   0.997   3.484
  914SOL     OW 3640   2.374   5.558   5.017
  914SOL    HW1 3641   2.420   5.623   4.956
  914SOL    HW2 3642   2.285   5.533   4.977
  915SOL     OW 3643   0.269   3.183   0.972
  915SOL    HW1 3644   0.299   3.101   1.020
  915SOL    HW2 3645   0.328   3.260   0.998
  916SOL     OW 3646   1.949   2.114   1.713
  916SOL    HW1 3647   1.950   2.069   1.624
  916SOL    HW2 3648   1.862   2.096   1.759
  917SOL     OW 3649   3.777   0.929   1.089
  917SOL    HW1 3650   3.766   0.842   1.137
  917SOL    HW2 3651   3.840   0.918   1.013
  918SOL     OW 3652   3.351   6.224   6.653
  918SOL    HW1 3653   3.257   6.191   6.655
  918SOL    HW2 3654   3.410   6.156   6.610
  919SOL     OW 3655   1.501   6.535   1.990
  919SOL    HW1 3656   1.413   6.498   1.961
  919SOL    HW2 3657   1.524   6.614   1.932
  920SOL     OW 3658   2.309   0.528   2.969
  920SOL    HW1 3659   2.240   0.586   2.926
  920SOL    HW2 3660   2.396   0.539   2.922
  921SOL     OW 3661   5.508   4.484   3.854
  921SOL    HW1 3662   5.486   4.410   3.918
  921SOL    HW2 3663   5.500   4.572   3.900
  922SOL     OW 3664   3.306   3.211   6.507
  922SOL    HW1 3665   3.253   3.209   6.592
  922SOL    HW2 3666   3.296   3.301   6.463
  923SOL     OW 3667   2.836   6.055   0.204
  923SOL    HW1 3668   2.842   6.129   0.138
  923SOL    HW2 3669   2.802   5.972   0.159
  924SOL     OW 3670   5.295   3.117   2.441
  924SOL    HW1 3671   5.276   3.126   2.343
  924SOL    HW2 3672   5.223   3.062   2.484
  925SOL     OW 3673   6.849   2.064   5.784
  925SOL    HW1 3674   6.841   1.971   5.819
  925SOL    HW2 3675   6.765   2.089   5.736
  926SOL     OW 3676   5.527   0.364   0.229
  926SOL    HW1 3677   5.592   0.413   0.287
  926SOL    HW2 3678   5.436   0.368   0.270
  927SOL     OW 3679   4.869   4.255   4.060
  927SOL    HW1 3680   4.816   4.207   3.990
  927SOL    HW2 3681   4.815   4.261   4.144
  928SOL     OW 3682   1.494   0.021   0.493
  928SOL    HW1 3683   1.543   0.080   0.430
  928SOL    HW2 3684   1.558   7.007   0.555
  929SOL     OW 3685   6.604   2.401   2.303
  929SOL    HW1 3686   6.649   2.488   2.279
  929SOL    HW2 3687   6.609   2.386   2.401
  930SOL     OW 3688   6.850   5.147   4.526
  930SOL    HW1 3689   6.781   5.089   4.482
  930SOL    HW2 3690   6.910   5.091   4.582
  931SOL     OW 3691   0.082   3.769   3.225
  931SOL    HW1 3692   0.077   3.715   3.141
  931SOL    HW2 3693   0.048   3.715   3.302
  932SOL     OW 3694   3.489   6.221   1.909
  932SOL    HW1 3695   3.470   6.318   1.888
  932SOL    HW2 3696   3.430   6.163   1.853
  933SOL     OW 3697   0.974   4.629   3.299
  933SOL    HW1 3698   0.932   4.620   3.389
  933SOL    HW2 3699   0.903   4.640   3.230
  934SOL     OW 3700   2.847   1.465   4.654
  934SOL    HW1 3701   2.919   1.476   4.585
  934SOL    HW2 3702   2.882   1.497   4.743
  935SOL     OW 3703   4.615   3.794   5.833
  935SOL    HW1 3704   4.535   3.755   5.879
  935SOL    HW2 3705   4.624   3.891   5.857
  936SOL     OW 3706   0.690   6.614   0.389
  936SOL    HW1 3707   0.707   6.673   0.468
  936SOL    HW2 3708   0.595   6.583   0.390
  937SOL     OW 3709   4.389   1.832   5.033
  937SOL    HW1 3710   4.365   1.759   4.970
  937SOL    HW2 3711   4.387   1.919   4.986
  938SOL     OW 3712   0.230   4.079   6.441
  938SOL    HW1 3713   0.239   4.000   6.501
  938SOL    HW2 3714   0.222   4.163   6.496
  939SOL     OW 3715   5.257   1.408   5.781
  939SOL    HW1 3716   5.215   1.378   5.866
  939SOL    HW2 3717   5.289   1.329   5.729
  940SOL     OW 3718   6.730   1.691   2.876
  940SOL    HW1 3719   6.824   1.705   2.845
  940SOL    HW2 3720   6.702   1.768   2.933
  941SOL     OW 3721   6.253   0.905   3.835
  941SOL    HW1 3722   6.307   0.931   3.915
  941SOL    HW2 3723   6.291   0.823   3.793
  942SOL     OW 3724   4.834   0.356   4.917
  942SOL    HW1 3725   4.770   0.343   4.842
  942SOL    HW2 3726   4.904   0.423   4.891
  943SOL     OW 3727   0.566   3.273   2.535
  943SOL    HW1 3728   0.610   3.363   2.535
  943SOL    HW2 3729   0.490   3.273   2.600
  944SOL     OW 3730   6.393   3.213   5.028
  944SOL    HW1 3731   6.389   3.221   4.929
  944SOL    HW2 3732   6.300   3.215   5.066
  945SOL     OW 3733   5.123   4.668   4.553
  945SOL    HW1 3734   5.050   4.718   4.506
  945SOL    HW2 3735   5.165   4.726   4.622
  946SOL     OW 3736   5.899   2.790   6.342
  946SOL    HW1 3737   5.923   2.795   6.245
  946SOL    HW2 3738   5.862   2.879   6.372
  947SOL     OW 3739   3.002   3.488   5.845
  947SOL    HW1 3740   3.001   3.584   5.817
  947SOL    HW2 3741   2.989   3.430   5.764
  948SOL     OW 3742   4.103   0.967   0.644
  948SOL    HW1 3743   4.052   0.962   0.558
  948SOL    HW2 3744   4.047   1.013   0.712
  949SOL     OW 3745   6.801   6.201   6.003
  949SOL    HW1 3746   6.721   6.150   6.034
  949SOL    HW2 3747   6.806   6.198   5.903
  950SOL     OW 3748   4.010   5.036   2.345
  950SOL    HW1 3749   4.102   5.036   2.383
  950SOL    HW2 3750   4.003   5.106   2.274
  951SOL     OW 3751   1.245   0.374   2.090
  951SOL    HW1 3752   1.312   0.302   2.070
  951SOL    HW2 3753   1.171   0.337   2.145
  952SOL     OW 3754   5.560   1.799   2.327
  952SOL    HW1 3755   5.466   1.831   2.312
  952SOL    HW2 3756   5.595   1.836   2.413
  953SOL     OW 3757   4.291   5.727   5.914
  953SOL    HW1 3758   4.343   5.801   5.872
  953SOL    HW2 3759   4.301   5.732   6.014
  954SOL     OW 3760   5.678   0.171   0.841
  954SOL    HW1 3761   5.701   0.117   0.760
  954SOL    HW2 3762   5.678   0.268   0.818
  955SOL     OW 3763   0.723   5.032   3.912
  955SOL    HW1 3764   0.800   5.012   3.850
  955SOL    HW2 3765   0.690   5.124   3.895
  956SOL     OW 3766   1.006   1.668   1.248
  956SOL    HW1 3767   1.080   1.726   1.217
  956SOL    HW2 3768   0.964   1.622   1.170
  957SOL     OW 3769   1.293   4.590   5.158
  957SOL    HW1 3770   1.257   4.565   5.248
  957SOL    HW2 3771   1.393   4.595   5.163
  958SOL     OW 3772   4.969   1.822   0.848
  958SOL    HW1 3773   5.057   1.797   0.808
  958SOL    HW2 3774   4.982   1.894   0.915
  959SOL     OW 3775   2.917   4.882   2.969
  959SOL    HW1 3776   2.839   4.843   2.921
  959SOL    HW2 3777   2.905   4.871   3.068
  960SOL     OW 3778   1.108   5.814   3.841
  960SOL    HW1 3779   1.149   5.741   3.786
  960SOL    HW2 3780   1.177   5.854   3.900
  961SOL     OW 3781   4.438   6.628   2.751
  961SOL    HW1 3782   4.533   6.657   2.742
  961SOL    HW2 3783   4.435   6.533   2.780
  962SOL     OW 3784   1.543   1.117   3.614
  962SOL    HW1 3785   1.571   1.175   3.690
  962SOL    HW2 3786   1.617   1.110   3.548
  963SOL     OW 3787   5.705   0.178   0.393
  963SOL    HW1 3788   5.799   0.208   0.378
  963SOL    HW2 3789   5.645   0.217   0.323
  964SOL     OW 3790   5.657   3.180   1.084
  964SOL    HW1 3791   5.687   3.275   1.076
  964SOL    HW2 3792   5.730   3.126   1.126
  965SOL     OW 3793   6.289   1.800   0.637
  965SOL    HW1 3794   6.240   1.848   0.710
  965SOL    HW2 3795   6.361   1.744   0.677
  966SOL     OW 3796   5.879   1.441   2.591
  966SOL    HW1 3797   5.844   1.393   2.510
  966SOL    HW2 3798   5.808   1.445   2.661
  967SOL     OW 3799   1.603   5.279   0.590
  967SOL    HW1 3800   1.654   5.200   0.559
  967SOL    HW2 3801   1.566   5.261   0.682
  968SOL     OW 3802   4.478   2.385   2.259
  968SOL    HW1 3803   4.481   2.421   2.166
  968SOL    HW2 3804   4.528   2.445   2.321
  969SOL     OW 3805   3.386   5.970   5.190
  969SOL    HW1 3806   3.394   6.000   5.285
  969SOL    HW2 3807   3.343   5.880   5.187
  970SOL     OW 3808   5.052   1.614   4.997
  970SOL    HW1 3809   5.070   1.647   5.090
  970SOL    HW2 3810   4.978   1.547   4.999
  971SOL     OW 3811   0.248   1.208   2.621
  971SOL    HW1 3812   0.168   1.264   2.642
  971SOL    HW2 3813   0.253   1.131   2.685
  972SOL     OW 3814   5.894   4.411   0.714
  972SOL    HW1 3815   5.880   4.469   0.794
  972SOL    HW2 3816   5.853   4.454   0.633
  973SOL     OW 3817   0.310   5.369   6.430
  973SOL    HW1 3818   0.262   5.311   6.495
  973SOL    HW2 3819   0.406   5.379   6.457
  974SOL     OW 3820   3.664   0.704   2.285
  974SOL    HW1 3821   3.757   0.741   2.291
  974SOL    HW2 3822   3.640   0.687   2.190
  975SOL     OW 3823   2.670   6.364   6.600
  975SOL    HW1 3824   2.700   6.458   6.620
  975SOL    HW2 3825   2.648   6.318   6.686
  976SOL     OW 3826   6.659   2.660   2.593
  976SOL    HW1 3827   6.560   2.674   2.596
  976SOL    HW2 3828   6.701   2.730   2.536
  977SOL     OW 3829   2.139   1.383   4.420
  977SOL    HW1 3830   2.104   1.381   4.513
  977SOL    HW2 3831   2.063   1.374   4.355
  978SOL     OW 3832   5.150   4.054   4.629
  978SOL    HW1 3833   5.063   4.103   4.627
  978SOL    HW2 3834   5.181   4.045   4.723
  979SOL     OW 3835   6.226   1.041   3.048
  979SOL    HW1 3836   6.280   1.108   2.997
  979SOL    HW2 3837   6.227   1.064   3.145
  980SOL     OW 3838   5.257   1.951   3.673
  980SOL    HW1 3839   5.270   2.036   3.724
  980SOL    HW2 3840   5.305   1.877   3.720
  981SOL     OW 3841   1.703   2.025   4.956
  981SOL    HW1 3842   1.741   1.960   5.022
  981SOL    HW2 3843   1.701   2.116   4.998
  982SOL     OW 3844   1.939   2.568   2.658
  982SOL    HW1 3845   2.033   2.550   2.630
  982SOL    HW2 3846   1.936   2.651   2.714
  983SOL     OW 3847   5.916   2.771   3.674
  983SOL    HW1 3848   5.965   2.724   3.748
  983SOL    HW2 3849   5.935   2.869   3.678
  984SOL     OW 3850   3.223   0.706   5.220
  984SOL    HW1 3851   3.220   0.621   5.166
  984SOL    HW2 3852   3.314   0.747   5.213
  985SOL     OW 3853   4.799   4.745   6.632
  985SOL    HW1 3854   4.767   4.687   6.707
  985SOL    HW2 3855   4.796   4.841   6.661
  986SOL     OW 3856   5.523   5.537   0.114
  986SOL    HW1 3857   5.597   5.529   0.182
  986SOL    HW2 3858   5.435   5.519   0.158
  987SOL     OW 3859   4.149   6.950   0.948
  987SOL    HW1 3860   4.246   6.969   0.965
  987SOL    HW2 3861   4.124   6.864   0.992
  988SOL     OW 3862   4.235   2.667   1.337
  988SOL    HW1 3863   4.201   2.694   1.427
  988SOL    HW2 3864   4.277   2.576   1.343
  989SOL     OW 3865   0.347   0.871   5.957
  989SOL    HW1 3866   0.317   0.965   5.965
  989SOL    HW2 3867   0.439   0.868   5.916
  990SOL     OW 3868   5.133   6.874   3.785
  990SOL    HW1 3869   5.184   6.934   3.724
  990SOL    HW2 3870   5.173   6.878   3.877
  991SOL     OW 3871   1.572   1.721   5.160
  991SOL    HW1 3872   1.517   1.790   5.113
  991SOL    HW2 3873   1.513   1.665   5.219
  992SOL     OW 3874   0.502   2.913   0.515
  992SOL    HW1 3875   0.441   2.928   0.436
  992SOL    HW2 3876   0.589   2.876   0.483
  993SOL     OW 3877   2.039   5.232   2.635
  993SOL    HW1 3878   1.944   5.212   2.611
  993SOL    HW2 3879   2.047   5.241   2.734
  994SOL     OW 3880   3.766   3.788   3.070
  994SOL    HW1 3881   3.669   3.787   3.094
  994SOL    HW2 3882   3.812   3.859   3.123
  995SOL     OW 3883   2.385   2.681   6.574
  995SOL    HW1 3884   2.287   2.699   6.585
  995SOL    HW2 3885   2.399   2.606   6.510
  996SOL     OW 3886   1.664   3.706   4.038
  996SOL    HW1 3887   1.671   3.608   4.056
  996SOL    HW2 3888   1.691   3.757   4.119
  997SOL     OW 3889   0.043   0.173   1.370
  997SOL    HW1 3890   0.054   0.266   1.334
  997SOL    HW2 3891   6.987   0.167   1.420
  998SOL     OW 3892   4.639   7.015   3.585
  998SOL    HW1 3893   4.714   7.022   3.519
  998SOL    HW2 3894   4.613   6.919   3.594
  999SOL     OW 3895   5.382   5.533   1.441
  999SOL    HW1 3896   5.405   5.438   1.462
  999SOL    HW2 3897   5.347   5.538   1.347
 1000SOL     OW 3898   0.947   1.007   2.701
 1000SOL    HW1 3899   0.892   1.090   2.711
 1000SOL    HW2 3900   0.969   0.992   2.605
 1001SOL     OW 3901   4.436   0.102   6.735
 1001SOL    HW1 3902   4.376   0.057   6.801
 1001SOL    HW2 3903   4.397   0.094   6.644
 1002SOL     OW 3904   5.450   1.916   6.381
 1002SOL    HW1 3905   5.374   1.976   6.358
 1002SOL    HW2 3906   5.415   1.834   6.426
 1003SOL     OW 3907   2.976   6.847   1.656
 1003SOL    HW1 3908   2.949   6.919   1.592
 1003SOL    HW2 3909   2.983   6.886   1.748
 1004SOL     OW 3910   6.921   0.700   0.048
 1004SOL    HW1 3911   6.850   0.690   7.009
 1004SOL    HW2 3912   6.905   0.784   0.100
 1005SOL     OW 3913   6.704   1.208   3.020
 1005SOL    HW1 3914   6.666   1.235   2.931
 1005SOL    HW2 3915   6.798   1.176   3.007
 1006SOL     OW 3916   2.419   6.143   1.628
 1006SOL    HW1 3917   2.374   6.126   1.715
 1006SOL    HW2 3918   2.377   6.223   1.584
 1007SOL     OW 3919   6.062   0.035   3.498
 1007SOL    HW1 3920   6.098   6.973   3.506
 1007SOL    HW2 3921   6.112   0.084   3.426
 1008SOL     OW 3922   1.578   3.008   4.098
 1008SOL    HW1 3923   1.563   3.046   4.189
 1008SOL    HW2 3924   1.656   2.946   4.101
 1009SOL     OW 3925   6.926   5.559   3.870
 1009SOL    HW1 3926   6.902   5.655   3.884
 1009SOL    HW2 3927   6.843   5.503   3.874
 1010SOL     OW 3928   4.040   2.670   0.135
 1010SOL    HW1 3929   4.036   2.763   0.096
 1010SOL    HW2 3930   3.999   2.606   0.070
 1011SOL     OW 3931   2.541   5.664   3.079
 1011SOL    HW1 3932   2.567   5.653   3.175
 1011SOL    HW2 3933   2.510   5.576   3.043
 1012SOL     OW 3934   6.490   5.222   0.139
 1012SOL    HW1 3935   6.464   5.139   0.188
 1012SOL    HW2 3936   6.531   5.197   0.051
 1013SOL     OW 3937   0.419   1.460   6.374
 1013SOL    HW1 3938   0.414   1.440   6.276
 1013SOL    HW2 3939   0.510   1.496   6.396
 1014SOL     OW 3940   5.276   5.851   0.135
 1014SOL    HW1 3941   5.346   5.780   0.123
 1014SOL    HW2 3942   5.306   5.915   0.206
 1015SOL     OW 3943   3.033   6.818   5.270
 1015SOL    HW1 3944   2.936   6.792   5.263
 1015SOL    HW2 3945   3.051   6.856   5.360
 1016SOL     OW 3946   2.088   2.846   0.791
 1016SOL    HW1 3947   2.032   2.794   0.856
 1016SOL    HW2 3948   2.028   2.893   0.727
 1017SOL     OW 3949   4.488   2.900   0.499
 1017SOL    HW1 3950   4.396   2.925   0.527
 1017SOL    HW2 3951   4.554   2.961   0.544
 1018SOL     OW 3952   1.858   3.497   3.997
 1018SOL    HW1 3953   1.878   3.403   4.026
 1018SOL    HW2 3954   1.942   3.550   3.996
 1019SOL     OW 3955   0.527   0.761   0.239
 1019SOL    HW1 3956   0.516   0.746   0.141
 1019SOL    HW2 3957   0.560   0.676   0.281
 1020SOL     OW 3958   1.539   6.821   1.184
 1020SOL    HW1 3959   1.502   6.905   1.225
 1020SOL    HW2 3960   1.509   6.742   1.238
 1021SOL     OW 3961   6.441   1.057   0.446
 1021SOL    HW1 3962   6.415   1.042   0.542
 1021SOL    HW2 3963   6.360   1.082   0.393
 1022SOL     OW 3964   4.057   5.038   5.947
 1022SOL    HW1 3965   4.148   5.007   5.919
 1022SOL    HW2 3966   4.017   4.972   6.010
 1023SOL     OW 3967   6.391   0.022   2.691
 1023SOL    HW1 3968   6.371   0.113   2.729
 1023SOL    HW2 3969   6.347   6.983   2.748
 1024SOL     OW 3970   6.497   2.988   4.366
 1024SOL    HW1 3971   6.420   2.977   4.304
 1024SOL    HW2 3972   6.485   3.070   4.421
 1025SOL     OW 3973   3.641   4.465   0.399
 1025SOL    HW1 3974   3.673   4.404   0.471
 1025SOL    HW2 3975   3.711   4.474   0.328
 1026SOL     OW 3976   1.000   1.734   0.577
 1026SOL    HW1 3977   1.006   1.824   0.535
 1026SOL    HW2 3978   1.092   1.695   0.588
 1027SOL     OW 3979   2.946   5.822   1.390
 1027SOL    HW1 3980   2.857   5.854   1.360
 1027SOL    HW2 3981   3.006   5.900   1.405
 1028SOL     OW 3982   3.052   5.744   0.051
 1028SOL    HW1 3983   3.015   5.690   0.126
 1028SOL    HW2 3984   2.977   5.793   0.005
 1029SOL     OW 3985   1.786   0.439   0.220
 1029SOL    HW1 3986   1.861   0.506   0.216
 1029SOL    HW2 3987   1.819   0.352   0.184
 1030SOL     OW 3988   3.820   3.262   3.009
 1030SOL    HW1 3989   3.839   3.352   3.047
 1030SOL    HW2 3990   3.778   3.272   2.918
 1031SOL     OW 3991   4.775   5.031   0.772
 1031SOL    HW1 3992   4.873   5.046   0.787
 1031SOL    HW2 3993   4.757   4.933   0.766
 1032SOL     OW 3994   1.460   1.976   4.791
 1032SOL    HW1 3995   1.365   2.008   4.798
 1032SOL    HW2 3996   1.511   2.005   4.872
 1033SOL     OW 3997   1.313   7.012   1.489
 1033SOL    HW1 3998   1.227   7.010   1.540
 1033SOL    HW2 3999   1.366   6.929   1.507
 1034SOL     OW 4000   1.661   6.407   4.626
 1034SOL    HW1 4001   1.581   6.372   4.674
 1034SOL    HW2 4002   1.641   6.498   4.590
 1035SOL     OW 4003   2.877   1.812   3.215
 1035SOL    HW1 4004   2.906   1.907   3.214
 1035SOL    HW2 4005   2.777   1.807   3.212
 1036SOL     OW 4006   3.511   0.239   0.937
 1036SOL    HW1 4007   3.442   0.304   0.905
 1036SOL    HW2 4008   3.513   0.238   1.037
 1037SOL     OW 4009   1.222   1.134   0.875
 1037SOL    HW1 4010   1.304   1.085   0.844
 1037SOL    HW2 4011   1.249   1.221   0.915
 1038SOL     OW 4012   1.223   0.849   5.905
 1038SOL    HW1 4013   1.281   0.767   5.910
 1038SOL    HW2 4014   1.189   0.861   5.812
 1039SOL     OW 4015   4.332   2.437   5.727
 1039SOL    HW1 4016   4.344   2.527   5.684
 1039SOL    HW2 4017   4.397   2.427   5.802
 1040SOL     OW 4018   5.342   2.953   3.051
 1040SOL    HW1 4019   5.315   2.884   2.984
 1040SOL    HW2 4020   5.314   2.924   3.143
 1041SOL     OW 4021   6.712   0.148   4.100
 1041SOL    HW1 4022   6.715   0.114   4.006
 1041SOL    HW2 4023   6.804   0.149   4.139
 1042SOL     OW 4024   3.355   4.905   2.530
 1042SOL    HW1 4025   3.363   4.888   2.432
 1042SOL    HW2 4026   3.260   4.921   2.554
 1043SOL     OW 4027   4.274   1.201   5.975
 1043SOL    HW1 4028   4.187   1.153   5.979
 1043SOL    HW2 4029   4.258   1.300   5.977
 1044SOL     OW 4030   4.324   2.359   1.692
 1044SOL    HW1 4031   4.366   2.303   1.763
 1044SOL    HW2 4032   4.347   2.455   1.708
 1045SOL     OW 4033   2.786   7.023   1.301
 1045SOL    HW1 4034   2.778   6.927   1.276
 1045SOL    HW2 4035   2.850   0.003   1.378
 1046SOL     OW 4036   2.530   6.840   6.439
 1046SOL    HW1 4037   2.613   6.853   6.384
 1046SOL    HW2 4038   2.507   6.742   6.441
 1047SOL     OW 4039   1.438   5.237   2.996
 1047SOL    HW1 4040   1.355   5.289   2.976
 1047SOL    HW2 4041   1.413   5.148   3.035
 1048SOL     OW 4042   4.452   5.429   5.440
 1048SOL    HW1 4043   4.464   5.518   5.484
 1048SOL    HW2 4044   4.403   5.440   5.353
 1049SOL     OW 4045   0.450   4.200   4.792
 1049SOL    HW1 4046   0.533   4.152   4.820
 1049SOL    HW2 4047   0.395   4.140   4.733
 1050SOL     OW 4048   2.608   5.410   1.245
 1050SOL    HW1 4049   2.626   5.495   1.295
 1050SOL    HW2 4050   2.533   5.424   1.181
 1051SOL     OW 4051   3.628   4.698   0.253
 1051SOL    HW1 4052   3.645   4.615   0.307
 1051SOL    HW2 4053   3.574   4.762   0.307
 1052SOL     OW 4054   4.633   0.175   3.960
 1052SOL    HW1 4055   4.704   0.244   3.967
 1052SOL    HW2 4056   4.652   0.101   4.025
 1053SOL     OW 4057   5.698   5.739   3.388
 1053SOL    HW1 4058   5.675   5.787   3.472
 1053SOL    HW2 4059   5.753   5.798   3.329
 1054SOL     OW 4060   2.369   4.967   5.398
 1054SOL    HW1 4061   2.337   4.985   5.490
 1054SOL    HW2 4062   2.407   4.874   5.393
 1055SOL     OW 4063   5.563   6.492   4.497
 1055SOL    HW1 4064   5.637   6.524   4.556
 1055SOL    HW2 4065   5.599   6.465   4.408
 1056SOL     OW 4066   1.542   6.656   5.361
 1056SOL    HW1 4067   1.481   6.620   5.431
 1056SOL    HW2 4068   1.589   6.580   5.316
 1057SOL     OW 4069   3.067   3.671   3.191
 1057SOL    HW1 4070   3.094   3.583   3.151
 1057SOL    HW2 4071   3.065   3.740   3.120
 1058SOL     OW 4072   4.681   1.535   2.673
 1058SOL    HW1 4073   4.592   1.572   2.700
 1058SOL    HW2 4074   4.752   1.604   2.688
 1059SOL     OW 4075   3.019   0.407   1.722
 1059SOL    HW1 4076   3.079   0.483   1.697
 1059SOL    HW2 4077   2.943   0.441   1.777
 1060SOL     OW 4078   0.021   3.881   5.401
 1060SOL    HW1 4079   0.037   3.880   5.500
 1060SOL    HW2 4080   0.100   3.920   5.354
 1061SOL     OW 4081   4.570   4.395   1.417
 1061SOL    HW1 4082   4.582   4.301   1.386
 1061SOL    HW2 4083   4.477   4.408   1.451
 1062SOL     OW 4084   6.768   5.824   6.076
 1062SOL    HW1 4085   6.817   5.783   6.154
 1062SOL    HW2 4086   6.763   5.757   6.002
 1063SOL     OW 4087   1.262   3.981   1.405
 1063SOL    HW1 4088   1.356   3.969   1.376
 1063SOL    HW2 4089   1.203   3.995   1.325
 1064SOL     OW 4090   1.042   4.053   2.483
 1064SOL    HW1 4091   1.060   4.144   2.519
 1064SOL    HW2 4092   1.127   3.999   2.483
 1065SOL     OW 4093   4.730   0.696   5.118
 1065SOL    HW1 4094   4.799   0.750   5.071
 1065SOL    HW2 4095   4.771   0.612   5.153
 1066SOL     OW 4096   5.244   0.305   4.092
 1066SOL    HW1 4097   5.167   0.245   4.071
 1066SOL    HW2 4098   5.288   0.275   4.176
 1067SOL     OW 4099   1.279   2.784   0.586
 1067SOL    HW1 4100   1.352   2.772   0.653
 1067SOL    HW2 4101   1.192   2.754   0.625
 1068SOL     OW 4102   5.851   3.605   1.973
 1068SOL    HW1 4103   5.785   3.673   1.941
 1068SOL    HW2 4104   5.833   3.517   1.928
 1069SOL     OW 4105   4.711   4.908   1.242
 1069SOL    HW1 4106   4.707   4.926   1.143
 1069SOL    HW2 4107   4.769   4.829   1.259
 1070SOL     OW 4108   0.659   1.091   6.533
 1070SOL    HW1 4109   0.692   1.019   6.594
 1070SOL    HW2 4110   0.736   1.127   6.480
 1071SOL     OW 4111   4.035   0.649   3.492
 1071SOL    HW1 4112   4.004   0.744   3.500
 1071SOL    HW2 4113   4.033   0.606   3.582
 1072SOL     OW 4114   1.985   6.165   2.352
 1072SOL    HW1 4115   2.043   6.166   2.270
 1072SOL    HW2 4116   1.898   6.120   2.331
 1073SOL     OW 4117   3.489   5.615   2.399
 1073SOL    HW1 4118   3.452   5.667   2.476
 1073SOL    HW2 4119   3.477   5.668   2.315
 1074SOL     OW 4120   1.909   5.739   1.900
 1074SOL    HW1 4121   1.904   5.751   1.999
 1074SOL    HW2 4122   1.854   5.660   1.873
 1075SOL     OW 4123   4.646   5.099   3.275
 1075SOL    HW1 4124   4.711   5.077   3.348
 1075SOL    HW2 4125   4.577   5.163   3.311
 1076SOL     OW 4126   0.697   4.496   5.134
 1076SOL    HW1 4127   0.783   4.459   5.099
 1076SOL    HW2 4128   0.635   4.513   5.057
 1077SOL     OW 4129   5.724   6.927   0.238
 1077SOL    HW1 4130   5.778   6.959   0.316
 1077SOL    HW2 4131   5.712   6.828   0.243
 1078SOL     OW 4132   1.545   1.211   2.032
 1078SOL    HW1 4133   1.612   1.285   2.029
 1078SOL    HW2 4134   1.468   1.239   2.090
 1079SOL     OW 4135   1.726   5.038   3.304
 1079SOL    HW1 4136   1.768   5.093   3.231
 1079SOL    HW2 4137   1.785   4.961   3.326
 1080SOL     OW 4138   1.941   4.425   3.586
 1080SOL    HW1 4139   1.940   4.499   3.518
 1080SOL    HW2 4140   1.847   4.407   3.617
 1081SOL     OW 4141   0.054   1.348   5.433
 1081SOL    HW1 4142   0.147   1.314   5.422
 1081SOL    HW2 4143   0.039   1.426   5.373
 1082SOL     OW 4144   1.463   0.244   5.975
 1082SOL    HW1 4145   1.397   0.254   6.050
 1082SOL    HW2 4146   1.552   0.217   6.012
 1083SOL     OW 4147   3.589   3.999   2.043
 1083SOL    HW1 4148   3.517   4.029   2.106
 1083SOL    HW2 4149   3.671   4.055   2.057
 1084SOL     OW 4150   6.576   5.298   0.863
 1084SOL    HW1 4151   6.477   5.297   0.853
 1084SOL    HW2 4152   6.605   5.218   0.916
 1085SOL     OW 4153   2.008   3.735   3.691
 1085SOL    HW1 4154   2.055   3.816   3.656
 1085SOL    HW2 4155   1.912   3.757   3.708
 1086SOL     OW 4156   6.050   5.571   2.893
 1086SOL    HW1 4157   6.110   5.495   2.915
 1086SOL    HW2 4158   5.998   5.598   2.975
 1087SOL     OW 4159   5.481   2.958   5.728
 1087SOL    HW1 4160   5.422   2.879   5.745
 1087SOL    HW2 4161   5.426   3.036   5.701
 1088SOL     OW 4162   6.273   4.900   3.443
 1088SOL    HW1 4163   6.253   4.993   3.411
 1088SOL    HW2 4164   6.371   4.883   3.436
 1089SOL     OW 4165   0.962   0.455   4.413
 1089SOL    HW1 4166   0.871   0.481   4.382
 1089SOL    HW2 4167   1.019   0.537   4.423
 1090SOL     OW 4168   2.924   1.391   4.150
 1090SOL    HW1 4169   2.948   1.331   4.074
 1090SOL    HW2 4170   2.895   1.480   4.115
 1091SOL     OW 4171   1.806   2.047   4.153
 1091SOL    HW1 4172   1.759   2.000   4.079
 1091SOL    HW2 4173   1.793   1.997   4.239
 1092SOL     OW 4174   1.943   3.881   1.710
 1092SOL    HW1 4175   1.984   3.898   1.620
 1092SOL    HW2 4176   1.889   3.960   1.738
 1093SOL     OW 4177   1.894   1.579   2.977
 1093SOL    HW1 4178   1.968   1.646   2.979
 1093SOL    HW2 4179   1.911   1.512   2.905
 1094SOL     OW 4180   6.943   6.640   2.610
 1094SOL    HW1 4181   6.961   6.548   2.575
 1094SOL    HW2 4182   7.029   6.682   2.640
 1095SOL     OW 4183   6.379   2.186   5.853
 1095SOL    HW1 4184   6.431   2.166   5.936
 1095SOL    HW2 4185   6.331   2.104   5.823
 1096SOL     OW 4186   3.373   5.003   1.643
 1096SOL    HW1 4187   3.457   5.048   1.614
 1096SOL    HW2 4188   3.314   4.987   1.564
 1097SOL     OW 4189   1.122   4.666   4.805
 1097SOL    HW1 4190   1.125   4.712   4.894
 1097SOL    HW2 4191   1.051   4.707   4.748
 1098SOL     OW 4192   5.565   2.664   1.155
 1098SOL    HW1 4193   5.602   2.732   1.093
 1098SOL    HW2 4194   5.495   2.610   1.108
 1099SOL     OW 4195   4.192   1.393   4.665
 1099SOL    HW1 4196   4.094   1.402   4.644
 1099SOL    HW2 4197   4.207   1.409   4.762
 1100SOL     OW 4198   1.838   1.602   6.250
 1100SOL    HW1 4199   1.855   1.612   6.152
 1100SOL    HW2 4200   1.785   1.681   6.283
 1101SOL     OW 4201   5.262   3.114   1.565
 1101SOL    HW1 4202   5.246   3.187   1.499
 1101SOL    HW2 4203   5.183   3.053   1.567
 1102SOL     OW 4204   1.438   4.842   3.668
 1102SOL    HW1 4205   1.508   4.826   3.737
 1102SOL    HW2 4206   1.471   4.910   3.603
 1103SOL     OW 4207   2.242   0.627   1.394
 1103SOL    HW1 4208   2.275   0.542   1.353
 1103SOL    HW2 4209   2.259   0.625   1.493
 1104SOL     OW 4210   2.097   4.494   6.178
 1104SOL    HW1 4211   2.031   4.457   6.244
 1104SOL    HW2 4212   2.092   4.441   6.094
 1105SOL     OW 4213   4.761   4.159   6.124
 1105SOL    HW1 4214   4.779   4.228   6.194
 1105SOL    HW2 4215   4.823   4.082   6.136
 1106SOL     OW 4216   1.197   1.587   0.038
 1106SOL    HW1 4217   1.141   1.668   0.021
 1106SOL    HW2 4218   1.144   1.521   0.091
 1107SOL     OW 4219   0.632   0.049   6.683
 1107SOL    HW1 4220   0.676   0.009   6.603
 1107SOL    HW2 4221   0.683   0.024   6.765
 1108SOL     OW 4222   2.619   0.435   5.792
 1108SOL    HW1 4223   2.605   0.492   5.711
 1108SOL    HW2 4224   2.533   0.425   5.841
 1109SOL     OW 4225   4.089   5.322   4.659
 1109SOL    HW1 4226   4.088   5.341   4.560
 1109SOL    HW2 4227   4.179   5.285   4.684
 1110SOL     OW 4228   3.433   1.977   1.775
 1110SOL    HW1 4229   3.389   1.886   1.773
 1110SOL    HW2 4230   3.444   2.006   1.870
 1111SOL     OW 4231   5.307   6.303   0.067
 1111SOL    HW1 4232   5.334   6.209   0.046
 1111SOL    HW2 4233   5.386   6.351   0.106
 1112SOL     OW 4234   6.240   0.920   2.353
 1112SOL    HW1 4235   6.205   0.957   2.267
 1112SOL    HW2 4236   6.192   0.834   2.374
 1113SOL     OW 4237   6.048   3.024   2.497
 1113SOL    HW1 4238   6.131   3.051   2.449
 1113SOL    HW2 4239   6.023   2.931   2.471
 1114SOL     OW 4240   4.777   1.256   6.399
 1114SOL    HW1 4241   4.740   1.283   6.488
 1114SOL    HW2 4242   4.866   1.211   6.413
 1115SOL     OW 4243   4.265   3.044   0.126
 1115SOL    HW1 4244   4.307   3.117   0.180
 1115SOL    HW2 4245   4.272   2.958   0.175
 1116SOL     OW 4246   5.265   5.398   3.956
 1116SOL    HW1 4247   5.344   5.431   4.007
 1116SOL    HW2 4248   5.182   5.414   4.009
 1117SOL     OW 4249   2.775   2.837   1.503
 1117SOL    HW1 4250   2.822   2.923   1.525
 1117SOL    HW2 4251   2.677   2.853   1.496
 1118SOL     OW 4252   0.973   4.849   2.529
 1118SOL    HW1 4253   1.014   4.874   2.616
 1118SOL    HW2 4254   0.921   4.926   2.493
 1119SOL     OW 4255   3.556   3.970   1.117
 1119SOL    HW1 4256   3.462   3.956   1.147
 1119SOL    HW2 4257   3.618   3.917   1.175
 1120SOL     OW 4258   5.398   6.613   6.096
 1120SOL    HW1 4259   5.380   6.572   6.186
 1120SOL    HW2 4260   5.312   6.645   6.056
 1121SOL     OW 4261   5.106   2.948   2.553
 1121SOL    HW1 4262   5.018   2.995   2.566
 1121SOL    HW2 4263   5.151   2.936   2.642
 1122SOL     OW 4264   4.787   2.673   6.111
 1122SOL    HW1 4265   4.852   2.613   6.064
 1122SOL    HW2 4266   4.836   2.740   6.165
 1123SOL     OW 4267   4.609   1.637   2.077
 1123SOL    HW1 4268   4.525   1.637   2.023
 1123SOL    HW2 4269   4.628   1.730   2.109
 1124SOL     OW 4270   0.196   3.896   4.922
 1124SOL    HW1 4271   0.130   3.825   4.950
 1124SOL    HW2 4272   0.174   3.982   4.969
 1125SOL     OW 4273   2.719   2.182   5.096
 1125SOL    HW1 4274   2.739   2.280   5.106
 1125SOL    HW2 4275   2.620   2.169   5.092
 1126SOL     OW 4276   4.908   6.837   6.662
 1126SOL    HW1 4277   4.927   6.870   6.570
 1126SOL    HW2 4278   4.930   6.908   6.728
 1127SOL     OW 4279   3.496   5.029   5.584
 1127SOL    HW1 4280   3.480   4.931   5.595
 1127SOL    HW2 4281   3.495   5.073   5.674
 1128SOL     OW 4282   4.364   2.106   4.570
 1128SOL    HW1 4283   4.336   2.183   4.512
 1128SOL    HW2 4284   4.369   2.023   4.516
 1129SOL     OW 4285   3.721   6.875   6.988
 1129SOL    HW1 4286   3.761   6.962   7.016
 1129SOL    HW2 4287   3.683   6.828   0.038
 1130SOL     OW 4288   1.500   4.279   0.347
 1130SOL    HW1 4289   1.538   4.278   0.439
 1130SOL    HW2 4290   1.536   4.358   0.297
 1131SOL     OW 4291   0.764   6.474   5.880
 1131SOL    HW1 4292   0.795   6.379   5.879
 1131SOL    HW2 4293   0.842   6.535   5.889
 1132SOL     OW 4294   4.663   0.550   0.120
 1132SOL    HW1 4295   4.699   0.544   0.214
 1132SOL    HW2 4296   4.625   0.461   0.094
 1133SOL     OW 4297   6.857   2.222   1.179
 1133SOL    HW1 4298   6.843   2.166   1.261
 1133SOL    HW2 4299   6.935   2.187   1.127
 1134SOL     OW 4300   5.618   1.863   7.008
 1134SOL    HW1 4301   5.532   1.910   7.029
 1134SOL    HW2 4302   5.608   1.766   7.028
 1135SOL     OW 4303   3.142   1.862   2.782
 1135SOL    HW1 4304   3.225   1.896   2.826
 1135SOL    HW2 4305   3.062   1.901   2.827
 1136SOL     OW 4306   2.832   4.824   4.394
 1136SOL    HW1 4307   2.784   4.911   4.385
 1136SOL    HW2 4308   2.907   4.820   4.329
 1137SOL     OW 4309   1.082   3.074   0.258
 1137SOL    HW1 4310   1.020   3.145   0.291
 1137SOL    HW2 4311   1.029   2.994   0.231
 1138SOL     OW 4312   1.982   2.329   6.029
 1138SOL    HW1 4313   1.888   2.315   5.997
 1138SOL    HW2 4314   2.043   2.339   5.950
 1139SOL     OW 4315   2.472   6.661   2.718
 1139SOL    HW1 4316   2.546   6.599   2.742
 1139SOL    HW2 4317   2.384   6.614   2.729
 1140SOL     OW 4318   4.070   2.119   2.481
 1140SOL    HW1 4319   4.155   2.132   2.430
 1140SOL    HW2 4320   3.997   2.093   2.418
 1141SOL     OW 4321   5.878   5.788   5.997
 1141SOL    HW1 4322   5.960   5.822   5.952
 1141SOL    HW2 4323   5.839   5.860   6.054
 1142SOL     OW 4324   5.033   0.576   4.902
 1142SOL    HW1 4325   5.081   0.509   4.959
 1142SOL    HW2 4326   5.067   0.571   4.809
 1143SOL     OW 4327   3.856   2.159   2.653
 1143SOL    HW1 4328   3.945   2.149   2.608
 1143SOL    HW2 4329   3.784   2.157   2.584
 1144SOL     OW 4330   0.119   4.118   4.305
 1144SOL    HW1 4331   0.085   4.197   4.355
 1144SOL    HW2 4332   0.215   4.133   4.280
 1145SOL     OW 4333   0.071   5.191   3.409
 1145SOL    HW1 4334   0.157   5.167   3.364
 1145SOL    HW2 4335   0.070   5.289   3.430
 1146SOL     OW 4336   5.553   1.335   1.035
 1146SOL    HW1 4337   5.638   1.291   1.006
 1146SOL    HW2 4338   5.483   1.265   1.053
 1147SOL     OW 4339   1.605   4.066   0.865
 1147SOL    HW1 4340   1.630   4.154   0.905
 1147SOL    HW2 4341   1.669   4.043   0.791
 1148SOL     OW 4342   2.880   6.114   6.604
 1148SOL    HW1 4343   2.798   6.143   6.555
 1148SOL    HW2 4344   2.853   6.058   6.683
 1149SOL     OW 4345   5.564   3.013   3.190
 1149SOL    HW1 4346   5.496   3.015   3.117
 1149SOL    HW2 4347   5.530   3.065   3.269
 1150SOL     OW 4348   2.283   4.441   1.703
 1150SOL    HW1 4349   2.351   4.369   1.688
 1150SOL    HW2 4350   2.292   4.475   1.797
 1151SOL     OW 4351   5.254   5.647   6.700
 1151SOL    HW1 4352   5.200   5.573   6.741
 1151SOL    HW2 4353   5.336   5.662   6.755
 1152SOL     OW 4354   1.081   0.064   4.446
 1152SOL    HW1 4355   1.026   0.132   4.495
 1152SOL    HW2 4356   1.081   7.009   4.497
 1153SOL     OW 4357   2.587   6.745   2.479
 1153SOL    HW1 4358   2.510   6.779   2.424
 1153SOL    HW2 4359   2.560   6.743   2.575
 1154SOL     OW 4360   0.479   3.273   1.618
 1154SOL    HW1 4361   0.522   3.265   1.528
 1154SOL    HW2 4362   0.474   3.183   1.661
 1155SOL     OW 4363   3.467   5.326   6.908
 1155SOL    HW1 4364   3.408   5.402   6.883
 1155SOL    HW2 4365   3.557   5.338   6.866
 1156SOL     OW 4366   2.293   0.717   3.893
 1156SOL    HW1 4367   2.303   0.816   3.898
 1156SOL    HW2 4368   2.214   0.689   3.948
 1157SOL     OW 4369   6.611   2.327   4.507
 1157SOL    HW1 4370   6.632   2.230   4.496
 1157SOL    HW2 4371   6.518   2.345   4.475
 1158SOL     OW 4372   6.127   5.388   5.518
 1158SOL    HW1 4373   6.187   5.445   5.461
 1158SOL    HW2 4374   6.148   5.291   5.502
 1159SOL     OW 4375   4.695   0.745   2.934
 1159SOL    HW1 4376   4.658   0.791   3.015
 1159SOL    HW2 4377   4.735   0.658   2.961
 1160SOL     OW 4378   3.298   3.768   1.647
 1160SOL    HW1 4379   3.379   3.712   1.632
 1160SOL    HW2 4380   3.316   3.861   1.614
 1161SOL     OW 4381   4.763   0.136   5.290
 1161SOL    HW1 4382   4.842   0.099   5.241
 1161SOL    HW2 4383   4.682   0.130   5.231
 1162SOL     OW 4384   3.970   2.995   0.845
 1162SOL    HW1 4385   3.994   3.080   0.799
 1162SOL    HW2 4386   3.891   3.010   0.905
 1163SOL     OW 4387   5.318   2.367   2.070
 1163SOL    HW1 4388   5.260   2.423   2.129
 1163SOL    HW2 4389   5.341   2.282   2.116
 1164SOL     OW 4390   5.452   2.351   3.941
 1164SOL    HW1 4391   5.472   2.423   3.874
 1164SOL    HW2 4392   5.419   2.393   4.026
 1165SOL     OW 4393   1.718   3.693   3.749
 1165SOL    HW1 4394   1.676   3.606   3.723
 1165SOL    HW2 4395   1.737   3.693   3.847
 1166SOL     OW 4396   3.802   1.132   7.015
 1166SOL    HW1 4397   3.704   1.147   0.001
 1166SOL    HW2 4398   3.819   1.035   7.001
 1167SOL     OW 4399   2.914   0.256   5.522
 1167SOL    HW1 4400   2.901   0.354   5.512
 1167SOL    HW2 4401   2.846   0.219   5.586
 1168SOL     OW 4402   5.779   0.016   2.232
 1168SOL    HW1 4403   5.807   6.950   2.238
 1168SOL    HW2 4404   5.857   0.072   2.206
 1169SOL     OW 4405   0.179   3.046   0.570
 1169SOL    HW1 4406   0.269   3.082   0.546
 1169SOL    HW2 4407   0.120   3.045   0.489
 1170SOL     OW 4408   3.890   0.665   2.040
 1170SOL    HW1 4409   3.973   0.718   2.023
 1170SOL    HW2 4410   3.817   0.697   1.980
 1171SOL     OW 4411   2.678   5.866   0.426
 1171SOL    HW1 4412   2.730   5.920   0.360
 1171SOL    HW2 4413   2.584   5.901   0.431
 1172SOL     OW 4414   3.102   3.942   3.707
 1172SOL    HW1 4415   3.134   4.024   3.659
 1172SOL    HW2 4416   3.099   3.865   3.644
 1173SOL     OW 4417   3.818   0.127   5.834
 1173SOL    HW1 4418   3.797   0.183   5.914
 1173SOL    HW2 4419   3.900   0.162   5.789
 1174SOL     OW 4420   2.642   5.701   1.122
 1174SOL    HW1 4421   2.562   5.660   1.077
 1174SOL    HW2 4422   2.634   5.687   1.221
 1175SOL     OW 4423   5.035   3.771   0.234
 1175SOL    HW1 4424   5.108   3.764   0.165
 1175SOL    HW2 4425   4.961   3.709   0.210
 1176SOL     OW 4426   6.120   4.865   0.341
 1176SOL    HW1 4427   6.136   4.788   0.403
 1176SOL    HW2 4428   6.208   4.899   0.307
 1177SOL     OW 4429   0.395   2.352   5.181
 1177SOL    HW1 4430   0.366   2.448   5.178
 1177SOL    HW2 4431   0.494   2.347   5.191
 1178SOL     OW 4432   4.676   4.045   1.751
 1178SOL    HW1 4433   4.598   4.100   1.781
 1178SOL    HW2 4434   4.674   4.037   1.651
 1179SOL     OW 4435   2.254   4.563   0.804
 1179SOL    HW1 4436   2.278   4.619   0.724
 1179SOL    HW2 4437   2.333   4.509   0.832
 1180SOL     OW 4438   2.593   0.939   3.984
 1180SOL    HW1 4439   2.587   0.888   4.070
 1180SOL    HW2 4440   2.628   1.031   4.002
 1181SOL     OW 4441   0.817   3.264   4.373
 1181SOL    HW1 4442   0.861   3.317   4.301
 1181SOL    HW2 4443   0.863   3.175   4.381
 1182SOL     OW 4444   2.141   4.720   3.260
 1182SOL    HW1 4445   2.235   4.684   3.263
 1182SOL    HW2 4446   2.139   4.799   3.199
 1183SOL     OW 4447   4.429   5.503   2.604
 1183SOL    HW1 4448   4.508   5.564   2.615
 1183SOL    HW2 4449   4.424   5.441   2.683
 1184SOL     OW 4450   3.658   2.568   5.757
 1184SOL    HW1 4451   3.632   2.580   5.852
 1184SOL    HW2 4452   3.610   2.635   5.700
 1185SOL     OW 4453   2.046   0.317   0.356
 1185SOL    HW1 4454   2.140   0.333   0.385
 1185SOL    HW2 4455   2.041   0.229   0.307
 1186SOL     OW 4456   6.125   7.005   5.956
 1186SOL    HW1 4457   6.177   0.059   5.970
 1186SOL    HW2 4458   6.031   7.019   5.986
 1187SOL     OW 4459   5.243   6.658   5.180
 1187SOL    HW1 4460   5.164   6.599   5.163
 1187SOL    HW2 4461   5.213   6.753   5.189
 1188SOL     OW 4462   3.115   6.517   6.573
 1188SOL    HW1 4463   3.166   6.511   6.659
 1188SOL    HW2 4464   3.160   6.459   6.504
 1189SOL     OW 4465   5.158   1.164   2.375
 1189SOL    HW1 4466   5.082   1.217   2.413
 1189SOL    HW2 4467   5.129   1.119   2.291
 1190SOL     OW 4468   4.147   4.837   4.358
 1190SOL    HW1 4469   4.183   4.860   4.448
 1190SOL    HW2 4470   4.060   4.790   4.367
 1191SOL     OW 4471   3.470   5.106   5.863
 1191SOL    HW1 4472   3.372   5.111   5.848
 1191SOL    HW2 4473   3.488   5.065   5.953
 1192SOL     OW 4474   5.268   4.657   2.672
 1192SOL    HW1 4475   5.231   4.570   2.639
 1192SOL    HW2 4476   5.213   4.690   2.749
 1193SOL     OW 4477   6.514   6.977   4.106
 1193SOL    HW1 4478   6.578   0.022   4.094
 1193SOL    HW2 4479   6.476   6.981   4.199
 1194SOL     OW 4480   0.394   1.373   0.538
 1194SOL    HW1 4481   0.358   1.401   0.449
 1194SOL    HW2 4482   0.373   1.442   0.606
 1195SOL     OW 4483   6.231   1.897   0.392
 1195SOL    HW1 4484   6.264   1.832   0.323
 1195SOL    HW2 4485   6.260   1.868   0.483
 1196SOL     OW 4486   0.162   4.955   1.714
 1196SOL    HW1 4487   0.143   4.943   1.617
 1196SOL    HW2 4488   0.165   4.866   1.760
 1197SOL     OW 4489   3.725   6.003   5.961
 1197SOL    HW1 4490   3.627   6.018   5.951
 1197SOL    HW2 4491   3.772   6.034   5.878
 1198SOL     OW 4492   2.325   2.802   2.482
 1198SOL    HW1 4493   2.394   2.745   2.437
 1198SOL    HW2 4494   2.342   2.804   2.581
 1199SOL     OW 4495   4.085   3.752   3.110
 1199SOL    HW1 4496   4.032   3.834   3.132
 1199SOL    HW2 4497   4.119   3.710   3.194
 1200SOL     OW 4498   4.335   3.683   5.254
 1200SOL    HW1 4499   4.410   3.623   5.225
 1200SOL    HW2 4500   4.355   3.777   5.226
 1201SOL     OW 4501   0.778   1.176   4.517
 1201SOL    HW1 4502   0.877   1.165   4.525
 1201SOL    HW2 4503   0.736   1.087   4.499
 1202SOL     OW 4504   6.016   0.798   6.140
 1202SOL    HW1 4505   5.937   0.756   6.185
 1202SOL    HW2 4506   6.096   0.740   6.151
 1203SOL     OW 4507   5.585   6.814   0.978
 1203SOL    HW1 4508   5.505   6.800   1.036
 1203SOL    HW2 4509   5.612   6.727   0.938
 1204SOL     OW 4510   4.273   1.374   0.620
 1204SOL    HW1 4511   4.242   1.310   0.550
 1204SOL    HW2 4512   4.196   1.429   0.651
 1205SOL     OW 4513   5.346   3.177   6.963
 1205SOL    HW1 4514   5.372   3.215   0.022
 1205SOL    HW2 4515   5.279   3.104   6.977
 1206SOL     OW 4516   1.742   1.277   5.120
 1206SOL    HW1 4517   1.649   1.241   5.129
 1206SOL    HW2 4518   1.737   1.376   5.109
 1207SOL     OW 4519   6.506   6.393   1.095
 1207SOL    HW1 4520   6.515   6.470   1.031
 1207SOL    HW2 4521   6.462   6.426   1.179
 1208SOL     OW 4522   3.734   4.102   2.685
 1208SOL    HW1 4523   3.656   4.040   2.699
 1208SOL    HW2 4524   3.790   4.069   2.609
 1209SOL     OW 4525   5.735   6.395   5.229
 1209SOL    HW1 4526   5.830   6.404   5.200
 1209SOL    HW2 4527   5.720   6.452   5.310
 1210SOL     OW 4528   4.011   0.384   2.849
 1210SOL    HW1 4529   3.978   0.349   2.936
 1210SOL    HW2 4530   4.061   0.469   2.863
 1211SOL     OW 4531   1.679   3.415   3.797
 1211SOL    HW1 4532   1.692   3.316   3.806
 1211SOL    HW2 4533   1.748   3.463   3.852
 1212SOL     OW 4534   0.526   2.978   5.357
 1212SOL    HW1 4535   0.579   3.052   5.317
 1212SOL    HW2 4536   0.565   2.952   5.445
 1213SOL     OW 4537   6.088   2.588   4.882
 1213SOL    HW1 4538   6.075   2.495   4.848
 1213SOL    HW2 4539   6.144   2.586   4.965
 1214SOL     OW 4540   1.680   3.155   3.845
 1214SOL    HW1 4541   1.674   3.153   3.944
 1214SOL    HW2 4542   1.624   3.081   3.807
 1215SOL     OW 4543   2.268   4.089   2.198
 1215SOL    HW1 4544   2.240   4.072   2.104
 1215SOL    HW2 4545   2.340   4.159   2.200
 1216SOL     OW 4546   0.259   0.110   1.555
 1216SOL    HW1 4547   0.340   0.079   1.506
 1216SOL    HW2 4548   0.180   0.107   1.494
 1217SOL     OW 4549   1.223   6.664   1.000
 1217SOL    HW1 4550   1.213   6.619   0.911
 1217SOL    HW2 4551   1.177   6.609   1.070
 1218SOL     OW 4552   1.181   2.827   4.739
 1218SOL    HW1 4553   1.263   2.864   4.696
 1218SOL    HW2 4554   1.166   2.874   4.827
 1219SOL     OW 4555   4.541   5.020   0.944
 1219SOL    HW1 4556   4.624   4.997   0.893
 1219SOL    HW2 4557   4.501   4.937   0.982
 1220SOL     OW 4558   5.152   3.706   2.303
 1220SOL    HW1 4559   5.244   3.746   2.301
 1220SOL    HW2 4560   5.125   3.678   2.211
 1221SOL     OW 4561   5.820   3.678   6.806
 1221SOL    HW1 4562   5.872   3.749   6.853
 1221SOL    HW2 4563   5.882   3.614   6.761
 1222SOL     OW 4564   6.864   0.180   0.398
 1222SOL    HW1 4565   6.943   0.155   0.455
 1222SOL    HW2 4566   6.836   0.273   0.420
 1223SOL     OW 4567   5.568   0.947   0.729
 1223SOL    HW1 4568   5.585   1.043   0.708
 1223SOL    HW2 4569   5.632   0.917   0.800
 1224SOL     OW 4570   3.567   6.263   7.016
 1224SOL    HW1 4571   3.636   6.207   6.971
 1224SOL    HW2 4572   3.485   6.268   6.958
 1225SOL     OW 4573   3.896   1.934   1.159
 1225SOL    HW1 4574   3.864   2.018   1.204
 1225SOL    HW2 4575   3.983   1.953   1.113
 1226SOL     OW 4576   5.490   6.589   0.739
 1226SOL    HW1 4577   5.441   6.520   0.685
 1226SOL    HW2 4578   5.579   6.552   0.768
 1227SOL     OW 4579   6.365   5.230   5.614
 1227SOL    HW1 4580   6.432   5.170   5.571
 1227SOL    HW2 4581   6.350   5.201   5.708
 1228SOL     OW 4582   3.730   2.973   1.559
 1228SOL    HW1 4583   3.692   3.053   1.607
 1228SOL    HW2 4584   3.679   2.958   1.474
 1229SOL     OW 4585   1.349   6.817   2.173
 1229SOL    HW1 4586   1.394   6.829   2.085
 1229SOL    HW2 4587   1.275   6.750   2.165
 1230SOL     OW 4588   5.413   5.494   2.863
 1230SOL    HW1 4589   5.410   5.547   2.779
 1230SOL    HW2 4590   5.320   5.477   2.895
 1231SOL     OW 4591   1.557   3.185   6.069
 1231SOL    HW1 4592   1.511   3.172   5.981
 1231SOL    HW2 4593   1.626   3.258   6.060
 1232SOL     OW 4594   4.584   1.102   5.270
 1232SOL    HW1 4595   4.589   1.092   5.369
 1232SOL    HW2 4596   4.570   1.198   5.246
 1233SOL     OW 4597   0.583   5.212   3.586
 1233SOL    HW1 4598   0.559   5.123   3.547
 1233SOL    HW2 4599   0.512   5.279   3.563
 1234SOL     OW 4600   0.131   3.050   6.900
 1234SOL    HW1 4601   0.067   3.120   6.931
 1234SOL    HW2 4602   0.101   2.960   6.933
 1235SOL     OW 4603   6.495   5.234   6.584
 1235SOL    HW1 4604   6.443   5.279   6.657
 1235SOL    HW2 4605   6.585   5.209   6.619
 1236SOL     OW 4606   3.245   1.840   0.531
 1236SOL    HW1 4607   3.216   1.817   0.438
 1236SOL    HW2 4608   3.342   1.865   0.530
 1237SOL     OW 4609   1.769   6.639   4.835
 1237SOL    HW1 4610   1.733   6.567   4.895
 1237SOL    HW2 4611   1.743   6.619   4.741
 1238SOL     OW 4612   0.245   6.696   3.156
 1238SOL    HW1 4613   0.302   6.614   3.156
 1238SOL    HW2 4614   0.277   6.758   3.084
 1239SOL     OW 4615   6.755   5.314   4.769
 1239SOL    HW1 4616   6.819   5.388   4.752
 1239SOL    HW2 4617   6.792   5.228   4.732
 1240SOL     OW 4618   6.051   5.580   2.269
 1240SOL    HW1 4619   6.067   5.638   2.189
 1240SOL    HW2 4620   6.076   5.486   2.248
 1241SOL     OW 4621   6.866   4.767   4.785
 1241SOL    HW1 4622   6.840   4.709   4.708
 1241SOL    HW2 4623   6.794   4.763   4.855
 1242SOL     OW 4624   2.113   4.359   6.874
 1242SOL    HW1 4625   2.100   4.280   6.934
 1242SOL    HW2 4626   2.055   4.349   6.793
 1243SOL     OW 4627   0.132   2.205   5.109
 1243SOL    HW1 4628   0.229   2.224   5.127
 1243SOL    HW2 4629   0.087   2.180   5.195
 1244SOL     OW 4630   5.187   0.031   5.479
 1244SOL    HW1 4631   5.240   7.014   5.550
 1244SOL    HW2 4632   5.090   0.017   5.494
 1245SOL     OW 4633   5.446   5.731   1.019
 1245SOL    HW1 4634   5.479   5.680   1.099
 1245SOL    HW2 4635   5.524   5.773   0.973
 1246SOL     OW 4636   4.463   1.228   1.725
 1246SOL    HW1 4637   4.427   1.306   1.776
 1246SOL    HW2 4638   4.538   1.186   1.778
 1247SOL     OW 4639   6.402   6.585   4.491
 1247SOL    HW1 4640   6.380   6.496   4.530
 1247SOL    HW2 4641   6.434   6.573   4.397
 1248SOL     OW 4642   0.919   6.288   4.367
 1248SOL    HW1 4643   0.879   6.212   4.317
 1248SOL    HW2 4644   0.856   6.319   4.438
 1249SOL     OW 4645   6.914   3.980   1.389
 1249SOL    HW1 4646   6.949   3.892   1.422
 1249SOL    HW2 4647   6.984   4.025   1.335
 1250SOL     OW 4648   6.362   3.465   5.403
 1250SOL    HW1 4649   6.403   3.526   5.470
 1250SOL    HW2 4650   6.364   3.508   5.313
 1251SOL     OW 4651   1.876   1.174   2.593
 1251SOL    HW1 4652   1.880   1.161   2.692
 1251SOL    HW2 4653   1.896   1.088   2.547
 1252SOL     OW 4654   3.325   5.457   6.679
 1252SOL    HW1 4655   3.226   5.459   6.666
 1252SOL    HW2 4656   3.362   5.371   6.644
 1253SOL     OW 4657   3.105   0.825   1.392
 1253SOL    HW1 4658   3.088   0.737   1.436
 1253SOL    HW2 4659   3.191   0.821   1.342
 1254SOL     OW 4660   6.367   1.413   3.113
 1254SOL    HW1 4661   6.405   1.321   3.111
 1254SOL    HW2 4662   6.441   1.479   3.125
 1255SOL     OW 4663   5.487   2.754   5.116
 1255SOL    HW1 4664   5.465   2.760   5.018
 1255SOL    HW2 4665   5.584   2.776   5.130
 1256SOL     OW 4666   6.609   6.289   3.349
 1256SOL    HW1 4667   6.577   6.200   3.383
 1256SOL    HW2 4668   6.682   6.323   3.408
 1257SOL     OW 4669   0.165   4.529   4.517
 1257SOL    HW1 4670   0.249   4.475   4.523
 1257SOL    HW2 4671   0.094   4.475   4.472
 1258SOL     OW 4672   2.238   6.130   3.424
 1258SOL    HW1 4673   2.313   6.091   3.370
 1258SOL    HW2 4674   2.197   6.058   3.480
 1259SOL     OW 4675   3.803   6.721   4.888
 1259SOL    HW1 4676   3.847   6.632   4.889
 1259SOL    HW2 4677   3.799   6.757   4.982
 1260SOL     OW 4678   3.046   1.089   1.763
 1260SOL    HW1 4679   3.001   1.017   1.711
 1260SOL    HW2 4680   3.004   1.095   1.854
 1261SOL     OW 4681   6.952   3.550   0.314
 1261SOL    HW1 4682   7.025   3.565   0.382
 1261SOL    HW2 4683   6.902   3.467   0.338
 1262SOL     OW 4684   4.425   4.602   1.233
 1262SOL    HW1 4685   4.495   4.533   1.213
 1262SOL    HW2 4686   4.374   4.575   1.315
 1263SOL     OW 4687   6.260   2.206   1.463
 1263SOL    HW1 4688   6.239   2.122   1.513
 1263SOL    HW2 4689   6.214   2.205   1.375
 1264SOL     OW 4690   0.279   4.337   3.074
 1264SOL    HW1 4691   0.199   4.282   3.097
 1264SOL    HW2 4692   0.344   4.281   3.023
 1265SOL     OW 4693   6.714   4.591   4.050
 1265SOL    HW1 4694   6.752   4.564   3.961
 1265SOL    HW2 4695   6.614   4.592   4.044
 1266SOL     OW 4696   2.719   1.746   4.476
 1266SOL    HW1 4697   2.667   1.679   4.529
 1266SOL    HW2 4698   2.769   1.806   4.539
 1267SOL     OW 4699   5.939   5.772   1.591
 1267SOL    HW1 4700   5.962   5.727   1.504
 1267SOL    HW2 4701   5.855   5.825   1.580
 1268SOL     OW 4702   5.327   2.700   0.743
 1268SOL    HW1 4703   5.397   2.772   0.745
 1268SOL    HW2 4704   5.264   2.717   0.667
 1269SOL     OW 4705   6.154   6.494   5.349
 1269SOL    HW1 4706   6.175   6.402   5.381
 1269SOL    HW2 4707   6.120   6.490   5.255
 1270SOL     OW 4708   2.154   3.889   4.573
 1270SOL    HW1 4709   2.060   3.857   4.581
 1270SOL    HW2 4710   2.164   3.973   4.626
 1271SOL     OW 4711   3.456   1.659   2.945
 1271SOL    HW1 4712   3.401   1.736   2.977
 1271SOL    HW2 4713   3.542   1.656   2.996
 1272SOL     OW 4714   0.406   5.876   1.154
 1272SOL    HW1 4715   0.497   5.902   1.122
 1272SOL    HW2 4716   0.337   5.917   1.095
 1273SOL     OW 4717   2.117   3.726   6.984
 1273SOL    HW1 4718   2.080   3.794   6.920
 1273SOL    HW2 4719   2.211   3.704   6.957
 1274SOL     OW 4720   0.176   2.982   1.733
 1274SOL    HW1 4721   0.175   2.921   1.812
 1274SOL    HW2 4722   0.087   2.978   1.687
 1275SOL     OW 4723   4.843   0.308   3.586
 1275SOL    HW1 4724   4.900   0.243   3.635
 1275SOL    HW2 4725   4.759   0.324   3.638
 1276SOL     OW 4726   6.910   0.359   3.532
 1276SOL    HW1 4727   6.872   0.352   3.624
 1276SOL    HW2 4728   6.990   0.420   3.533
 1277SOL     OW 4729   1.131   0.608   4.155
 1277SOL    HW1 4730   1.078   0.524   4.152
 1277SOL    HW2 4731   1.132   0.644   4.249
 1278SOL     OW 4732   1.774   1.563   5.103
 1278SOL    HW1 4733   1.809   1.596   5.015
 1278SOL    HW2 4734   1.691   1.613   5.127
 1279SOL     OW 4735   2.073   6.746   0.824
 1279SOL    HW1 4736   2.158   6.711   0.783
 1279SOL    HW2 4737   2.065   6.710   0.917
 1280SOL     OW 4738   2.650   6.339   3.417
 1280SOL    HW1 4739   2.691   6.273   3.480
 1280SOL    HW2 4740   2.553   6.350   3.440
 1281SOL     OW 4741   1.039   5.559   3.042
 1281SOL    HW1 4742   1.135   5.559   3.014
 1281SOL    HW2 4743   0.992   5.635   2.998
 1282SOL     OW 4744   0.633   1.052   0.667
 1282SOL    HW1 4745   0.534   1.064   0.670
 1282SOL    HW2 4746   0.660   0.976   0.726
 1283SOL     OW 4747   5.305   3.433   5.391
 1283SOL    HW1 4748   5.245   3.388   5.458
 1283SOL    HW2 4749   5.397   3.440   5.428
 1284SOL     OW 4750   3.114   2.880   1.919
 1284SOL    HW1 4751   3.209   2.850   1.930
 1284SOL    HW2 4752   3.055   2.800   1.910
 1285SOL     OW 4753   5.619   3.685   6.338
 1285SOL    HW1 4754   5.539   3.652   6.289
 1285SOL    HW2 4755   5.630   3.635   6.423
 1286SOL     OW 4756   4.156   4.761   2.461
 1286SOL    HW1 4757   4.253   4.757   2.487
 1286SOL    HW2 4758   4.149   4.780   2.363
 1287SOL     OW 4759   5.445   4.464   6.132
 1287SOL    HW1 4760   5.473   4.549   6.088
 1287SOL    HW2 4761   5.379   4.485   6.204
 1288SOL     OW 4762   6.794   3.256   1.301
 1288SOL    HW1 4763   6.742   3.171   1.313
 1288SOL    HW2 4764   6.788   3.285   1.205
 1289SOL     OW 4765   0.696   6.130   1.620
 1289SOL    HW1 4766   0.667   6.040   1.652
 1289SOL    HW2 4767   0.646   6.153   1.536
 1290SOL     OW 4768   0.411   1.004   0.398
 1290SOL    HW1 4769   0.334   1.052   0.356
 1290SOL    HW2 4770   0.447   0.936   0.335
 1291SOL     OW 4771   1.567   4.768   6.194
 1291SOL    HW1 4772   1.660   4.743   6.218
 1291SOL    HW2 4773   1.546   4.733   6.102
 1292SOL     OW 4774   6.712   4.895   2.192
 1292SOL    HW1 4775   6.625   4.942   2.210
 1292SOL    HW2 4776   6.752   4.930   2.107
 1293SOL     OW 4777   3.088   1.582   6.360
 1293SOL    HW1 4778   3.054   1.672   6.331
 1293SOL    HW2 4779   3.188   1.581   6.353
 1294SOL     OW 4780   0.485   3.134   0.695
 1294SOL    HW1 4781   0.489   3.081   0.610
 1294SOL    HW2 4782   0.405   3.195   0.692
 1295SOL     OW 4783   6.373   3.692   2.721
 1295SOL    HW1 4784   6.314   3.766   2.688
 1295SOL    HW2 4785   6.452   3.683   2.661
 1296SOL     OW 4786   4.467   1.319   6.144
 1296SOL    HW1 4787   4.556   1.281   6.169
 1296SOL    HW2 4788   4.426   1.263   6.072
 1297SOL     OW 4789   5.728   0.683   6.528
 1297SOL    HW1 4790   5.756   0.728   6.443
 1297SOL    HW2 4791   5.688   0.594   6.507
 1298SOL     OW 4792   6.205   3.377   3.332
 1298SOL    HW1 4793   6.141   3.388   3.408
 1298SOL    HW2 4794   6.245   3.285   3.335
 1299SOL     OW 4795   1.460   4.046   2.973
 1299SOL    HW1 4796   1.403   3.967   2.952
 1299SOL    HW2 4797   1.532   4.055   2.904
 1300SOL     OW 4798   3.906   3.520   2.348
 1300SOL    HW1 4799   3.870   3.448   2.290
 1300SOL    HW2 4800   3.996   3.549   2.313
 1301SOL     OW 4801   0.957   5.689   2.410
 1301SOL    HW1 4802   0.974   5.665   2.506
 1301SOL    HW2 4803   0.945   5.788   2.403
 1302SOL     OW 4804   3.054   6.905   4.875
 1302SOL    HW1 4805   2.992   6.832   4.847
 1302SOL    HW2 4806   3.107   6.876   4.954
 1303SOL     OW 4807   4.492   1.740   0.434
 1303SOL    HW1 4808   4.546   1.715   0.514
 1303SOL    HW2 4809   4.429   1.665   0.412
 1304SOL     OW 4810   2.046   1.557   6.511
 1304SOL    HW1 4811   2.117   1.608   6.560
 1304SOL    HW2 4812   2.010   1.614   6.438
 1305SOL     OW 4813   6.124   6.037   6.756
 1305SOL    HW1 4814   6.177   6.002   6.833
 1305SOL    HW2 4815   6.165   6.007   6.670
 1306SOL     OW 4816   0.721   4.953   5.598
 1306SOL    HW1 4817   0.778   4.983   5.674
 1306SOL    HW2 4818   0.711   4.853   5.601
 1307SOL     OW 4819   1.861   3.059   3.655
 1307SOL    HW1 4820   1.821   3.109   3.732
 1307SOL    HW2 4821   1.935   3.002   3.688
 1308SOL     OW 4822   3.770   5.897   4.678
 1308SOL    HW1 4823   3.831   5.896   4.757
 1308SOL    HW2 4824   3.772   5.808   4.632
 1309SOL     OW 4825   5.329   3.154   5.181
 1309SOL    HW1 4826   5.400   3.223   5.190
 1309SOL    HW2 4827   5.249   3.182   5.235
 1310SOL     OW 4828   5.758   3.629   4.855
 1310SOL    HW1 4829   5.772   3.700   4.786
 1310SOL    HW2 4830   5.820   3.552   4.837
 1311SOL     OW 4831   6.481   6.546   4.238
 1311SOL    HW1 4832   6.574   6.583   4.234
 1311SOL    HW2 4833   6.418   6.608   4.191
 1312SOL     OW 4834   0.643   0.329   6.745
 1312SOL    HW1 4835   0.596   0.411   6.716
 1312SOL    HW2 4836   0.588   0.248   6.723
 1313SOL     OW 4837   2.163   5.779   5.620
 1313SOL    HW1 4838   2.232   5.848   5.600
 1313SOL    HW2 4839   2.196   5.689   5.590
 1314SOL     OW 4840   1.775   1.811   5.676
 1314SOL    HW1 4841   1.802   1.717   5.655
 1314SOL    HW2 4842   1.856   1.870   5.675
 1315SOL     OW 4843   0.825   1.060   0.427
 1315SOL    HW1 4844   0.823   1.157   0.400
 1315SOL    HW2 4845   0.758   1.044   0.499
 1316SOL     OW 4846   2.368   0.343   3.160
 1316SOL    HW1 4847   2.331   0.420   3.107
 1316SOL    HW2 4848   2.462   0.363   3.186
 1317SOL     OW 4849   1.043   3.971   4.806
 1317SOL    HW1 4850   1.080   3.961   4.714
 1317SOL    HW2 4851   0.966   4.036   4.804
 1318SOL     OW 4852   6.910   0.760   0.628
 1318SOL    HW1 4853   6.812   0.776   0.643
 1318SOL    HW2 4854   6.960   0.844   0.648
 1319SOL     OW 4855   6.742   1.846   7.001
 1319SOL    HW1 4856   6.707   1.785   6.930
 1319SOL    HW2 4857   6.838   1.866   6.982
 1320SOL     OW 4858   5.878   4.048   0.059
 1320SOL    HW1 4859   5.889   4.136   0.012
 1320SOL    HW2 4860   5.908   4.057   0.154
 1321SOL     OW 4861   4.110   2.516   6.823
 1321SOL    HW1 4862   4.191   2.527   6.881
 1321SOL    HW2 4863   4.136   2.530   6.728
 1322SOL     OW 4864   5.421   1.131   3.515
 1322SOL    HW1 4865   5.367   1.141   3.432
 1322SOL    HW2 4866   5.405   1.040   3.555
 1323SOL     OW 4867   5.034   2.065   5.408
 1323SOL    HW1 4868   4.939   2.035   5.411
 1323SOL    HW2 4869   5.087   2.014   5.476
 1324SOL     OW 4870   1.419   1.837   2.012
 1324SOL    HW1 4871   1.382   1.891   1.936
 1324SOL    HW2 4872   1.509   1.872   2.038
 1325SOL     OW 4873   3.045   0.023   2.280
 1325SOL    HW1 4874   2.969   0.040   2.218
 1325SOL    HW2 4875   3.070   6.957   2.278
 1326SOL     OW 4876   4.986   2.774   4.651
 1326SOL    HW1 4877   5.009   2.765   4.748
 1326SOL    HW2 4878   4.940   2.691   4.620
 1327SOL     OW 4879   3.210   5.469   2.900
 1327SOL    HW1 4880   3.221   5.371   2.878
 1327SOL    HW2 4881   3.155   5.512   2.829
 1328SOL     OW 4882   0.831   2.980   0.493
 1328SOL    HW1 4883   0.890   3.057   0.468
 1328SOL    HW2 4884   0.851   2.951   0.587
 1329SOL     OW 4885   6.760   1.564   0.390
 1329SOL    HW1 4886   6.779   1.645   0.335
 1329SOL    HW2 4887   6.751   1.484   0.331
 1330SOL     OW 4888   6.842   0.008   1.044
 1330SOL    HW1 4889   6.851   0.080   0.975
 1330SOL    HW2 4890   6.933   7.017   1.081
 1331SOL     OW 4891   4.559   2.050   2.868
 1331SOL    HW1 4892   4.527   2.060   2.962
 1331SOL    HW2 4893   4.515   2.118   2.810
 1332SOL     OW 4894   3.370   0.145   0.320
 1332SOL    HW1 4895   3.451   0.145   0.261
 1332SOL    HW2 4896   3.317   0.228   0.304
 1333SOL     OW 4897   3.965   4.086   5.998
 1333SOL    HW1 4898   4.011   4.092   5.910
 1333SOL    HW2 4899   3.974   4.173   6.047
 1334SOL     OW 4900   0.582   2.996   4.355
 1334SOL    HW1 4901   0.582   3.011   4.454
 1334SOL    HW2 4902   0.641   2.918   4.333
 1335SOL     OW 4903   2.690   6.525   2.731
 1335SOL    HW1 4904   2.743   6.602   2.768
 1335SOL    HW2 4905   2.714   6.511   2.635
 1336SOL     OW 4906   1.523   1.113   5.642
 1336SOL    HW1 4907   1.484   1.193   5.689
 1336SOL    HW2 4908   1.538   1.039   5.707
 1337SOL     OW 4909   0.995   2.492   4.936
 1337SOL    HW1 4910   1.039   2.481   5.025
 1337SOL    HW2 4911   0.925   2.564   4.941
 1338SOL     OW 4912   4.409   3.798   6.076
 1338SOL    HW1 4913   4.386   3.890   6.109
 1338SOL    HW2 4914   4.346   3.774   6.002
 1339SOL     OW 4915   0.422   6.382   0.288
 1339SOL    HW1 4916   0.354   6.312   0.268
 1339SOL    HW2 4917   0.510   6.339   0.308
 1340SOL     OW 4918   0.934   1.604   1.503
 1340SOL    HW1 4919   0.944   1.619   1.405
 1340SOL    HW2 4920   0.842   1.572   1.523
 1341SOL     OW 4921   3.746   0.329   5.615
 1341SOL    HW1 4922   3.654   0.296   5.593
 1341SOL    HW2 4923   3.750   0.353   5.712
 1342SOL     OW 4924   1.072   5.604   6.154
 1342SOL    HW1 4925   1.099   5.691   6.111
 1342SOL    HW2 4926   1.068   5.616   6.253
 1343SOL     OW 4927   3.967   6.773   2.542
 1343SOL    HW1 4928   4.048   6.725   2.576
 1343SOL    HW2 4929   3.995   6.858   2.498
 1344SOL     OW 4930   6.989   3.511   3.403
 1344SOL    HW1 4931   6.953   3.443   3.340
 1344SOL    HW2 4932   7.006   3.469   3.492
 1345SOL     OW 4933   0.604   1.442   3.423
 1345SOL    HW1 4934   0.647   1.373   3.366
 1345SOL    HW2 4935   0.673   1.482   3.484
 1346SOL     OW 4936   1.652   0.405   2.585
 1346SOL    HW1 4937   1.667   0.309   2.609
 1346SOL    HW2 4938   1.687   0.463   2.659
 1347SOL     OW 4939   6.489   6.437   3.702
 1347SOL    HW1 4940   6.437   6.390   3.630
 1347SOL    HW2 4941   6.449   6.415   3.791
 1348SOL     OW 4942   5.896   5.059   3.183
 1348SOL    HW1 4943   5.834   5.135   3.165
 1348SOL    HW2 4944   5.924   5.060   3.279
 1349SOL     OW 4945   5.011   2.818   6.704
 1349SOL    HW1 4946   4.998   2.902   6.651
 1349SOL    HW2 4947   4.975   2.831   6.796
 1350SOL     OW 4948   4.136   4.937   6.959
 1350SOL    HW1 4949   4.175   5.029   6.948
 1350SOL    HW2 4950   4.135   4.891   6.870
 1351SOL     OW 4951   0.945   1.040   3.289
 1351SOL    HW1 4952   0.937   1.076   3.196
 1351SOL    HW2 4953   0.943   0.941   3.287
 1352SOL     OW 4954   0.265   0.334   3.202
 1352SOL    HW1 4955   0.247   0.426   3.238
 1352SOL    HW2 4956   0.300   0.341   3.109
 1353SOL     OW 4957   6.933   4.383   6.050
 1353SOL    HW1 4958   6.960   4.320   5.978
 1353SOL    HW2 4959   6.833   4.393   6.051
 1354SOL     OW 4960   6.730   2.027   0.367
 1354SOL    HW1 4961   6.632   2.044   0.361
 1354SOL    HW2 4962   6.749   1.965   0.443
 1355SOL     OW 4963   5.301   3.333   6.269
 1355SOL    HW1 4964   5.208   3.301   6.251
 1355SOL    HW2 4965   5.362   3.255   6.283
 1356SOL     OW 4966   3.468   3.669   4.527
 1356SOL    HW1 4967   3.496   3.753   4.573
 1356SOL    HW2 4968   3.372   3.675   4.502
 1357SOL     OW 4969   2.784   3.491   6.017
 1357SOL    HW1 4970   2.785   3.427   6.094
 1357SOL    HW2 4971   2.864   3.475   5.959
 1358SOL     OW 4972   2.849   2.088   6.284
 1358SOL    HW1 4973   2.756   2.053   6.272
 1358SOL    HW2 4974   2.915   2.018   6.257
 1359SOL     OW 4975   6.705   4.357   1.289
 1359SOL    HW1 4976   6.633   4.422   1.265
 1359SOL    HW2 4977   6.673   4.264   1.274
 1360SOL     OW 4978   4.033   3.783   2.663
 1360SOL    HW1 4979   3.951   3.748   2.707
 1360SOL    HW2 4980   4.102   3.804   2.732
 1361SOL     OW 4981   6.886   6.990   6.382
 1361SOL    HW1 4982   6.904   0.021   6.459
 1361SOL    HW2 4983   6.901   6.896   6.410
 1362SOL     OW 4984   2.898   3.827   5.085
 1362SOL    HW1 4985   2.905   3.793   4.991
 1362SOL    HW2 4986   2.946   3.764   5.146
 1363SOL     OW 4987   6.477   6.265   4.316
 1363SOL    HW1 4988   6.553   6.217   4.359
 1363SOL    HW2 4989   6.507   6.355   4.285
 1364SOL     OW 4990   0.112   2.365   6.741
 1364SOL    HW1 4991   0.155   2.405   6.660
 1364SOL    HW2 4992   0.030   2.418   6.765
 1365SOL     OW 4993   1.210   3.548   5.613
 1365SOL    HW1 4994   1.123   3.579   5.576
 1365SOL    HW2 4995   1.198   3.524   5.709
 1366SOL     OW 4996   0.440   3.826   1.128
 1366SOL    HW1 4997   0.507   3.892   1.093
 1366SOL    HW2 4998   0.460   3.807   1.224
 1367SOL     OW 4999   1.097   4.775   3.059
 1367SOL    HW1 5000   1.100   4.875   3.066
 1367SOL    HW2 5001   1.083   4.736   3.150
 1368SOL     OW 5002   6.994   0.449   4.008
 1368SOL    HW1 5003   6.920   0.491   4.060
 1368SOL    HW2 5004   0.048   0.453   4.061
 1369SOL     OW 5005   2.229   6.005   2.142
 1369SOL    HW1 5006   2.180   6.092   2.134
 1369SOL    HW2 5007   2.228   5.958   2.054
 1370SOL     OW 5008   6.606   2.129   4.235
 1370SOL    HW1 5009   6.666   2.195   4.190
 1370SOL    HW2 5010   6.511   2.160   4.228
 1371SOL     OW 5011   4.950   1.005   4.801
 1371SOL    HW1 5012   4.975   1.099   4.824
 1371SOL    HW2 5013   4.954   0.993   4.702
 1372SOL     OW 5014   6.405   2.335   1.055
 1372SOL    HW1 5015   6.485   2.332   0.995
 1372SOL    HW2 5016   6.347   2.256   1.037
 1373SOL     OW 5017   5.170   1.822   0.607
 1373SOL    HW1 5018   5.205   1.798   0.698
 1373SOL    HW2 5019   5.174   1.921   0.595
 1374SOL     OW 5020   5.433   4.536   6.879
 1374SOL    HW1 5021   5.392   4.453   6.841
 1374SOL    HW2 5022   5.439   4.528   6.979
 1375SOL     OW 5023   6.932   6.754   6.561
 1375SOL    HW1 5024   6.839   6.718   6.556
 1375SOL    HW2 5025   6.997   6.680   6.546
 1376SOL     OW 5026   3.163   4.842   6.392
 1376SOL    HW1 5027   3.251   4.803   6.365
 1376SOL    HW2 5028   3.093   4.770   6.393
 1377SOL     OW 5029   0.900   2.649   4.051
 1377SOL    HW1 5030   0.866   2.625   3.960
 1377SOL    HW2 5031   0.830   2.701   4.100
 1378SOL     OW 5032   5.071   2.754   4.899
 1378SOL    HW1 5033   5.068   2.673   4.958
 1378SOL    HW2 5034   5.039   2.833   4.951
 1379SOL     OW 5035   4.526   5.719   2.997
 1379SOL    HW1 5036   4.621   5.726   3.028
 1379SOL    HW2 5037   4.509   5.788   2.927
 1380SOL     OW 5038   6.896   6.141   2.880
 1380SOL    HW1 5039   6.916   6.234   2.849
 1380SOL    HW2 5040   6.837   6.146   2.961
 1381SOL     OW 5041   5.932   1.613   6.785
 1381SOL    HW1 5042   5.867   1.637   6.713
 1381SOL    HW2 5043   5.984   1.532   6.757
 1382SOL     OW 5044   5.067   2.811   1.233
 1382SOL    HW1 5045   5.030   2.904   1.229
 1382SOL    HW2 5046   5.157   2.813   1.277
 1383SOL     OW 5047   0.436   7.016   1.399
 1383SOL    HW1 5048   0.466   7.026   1.304
 1383SOL    HW2 5049   0.464   6.927   1.434
 1384SOL     OW 5050   4.441   6.950   1.266
 1384SOL    HW1 5051   4.468   6.973   1.172
 1384SOL    HW2 5052   4.499   6.876   1.300
 1385SOL     OW 5053   2.172   4.559   3.736
 1385SOL    HW1 5054   2.194   4.617   3.658
 1385SOL    HW2 5055   2.097   4.497   3.712
 1386SOL     OW 5056   3.518   0.300   3.451
 1386SOL    HW1 5057   3.461   0.248   3.386
 1386SOL    HW2 5058   3.460   0.332   3.526
 1387SOL     OW 5059   2.933   5.642   2.328
 1387SOL    HW1 5060   2.881   5.561   2.354
 1387SOL    HW2 5061   2.890   5.686   2.249
 1388SOL     OW 5062   6.483   6.940   2.211
 1388SOL    HW1 5063   6.496   6.921   2.309
 1388SOL    HW2 5064   6.537   7.020   2.185
 1389SOL     OW 5065   5.946   2.187   4.194
 1389SOL    HW1 5066   5.966   2.281   4.222
 1389SOL    HW2 5067   5.956   2.179   4.094
 1390SOL     OW 5068   0.220   3.851   6.991
 1390SOL    HW1 5069   0.287   3.871   0.032
 1390SOL    HW2 5070   0.259   3.784   6.928
 1391SOL     OW 5071   6.279   6.826   4.622
 1391SOL    HW1 5072   6.300   6.766   4.545
 1391SOL    HW2 5073   6.209   6.782   4.679
 1392SOL     OW 5074   5.823   5.988   6.175
 1392SOL    HW1 5075   5.800   6.063   6.112
 1392SOL    HW2 5076   5.856   6.025   6.261
 1393SOL     OW 5077   6.351   4.863   5.464
 1393SOL    HW1 5078   6.413   4.805   5.411
 1393SOL    HW2 5079   6.289   4.910   5.402
 1394SOL     OW 5080   2.896   5.344   5.044
 1394SOL    HW1 5081   2.803   5.324   5.077
 1394SOL    HW2 5082   2.945   5.258   5.031
 1395SOL     OW 5083   2.329   3.979   5.595
 1395SOL    HW1 5084   2.394   3.912   5.632
 1395SOL    HW2 5085   2.328   3.974   5.496
 1396SOL     OW 5086   1.477   1.236   5.097
 1396SOL    HW1 5087   1.439   1.156   5.145
 1396SOL    HW2 5088   1.406   1.305   5.086
 1397SOL     OW 5089   0.512   0.509   3.740
 1397SOL    HW1 5090   0.533   0.566   3.660
 1397SOL    HW2 5091   0.598   0.482   3.784
 1398SOL     OW 5092   2.817   0.354   6.085
 1398SOL    HW1 5093   2.867   0.429   6.128
 1398SOL    HW2 5094   2.866   0.324   6.003
 1399SOL     OW 5095   3.481   5.699   0.533
 1399SOL    HW1 5096   3.446   5.702   0.439
 1399SOL    HW2 5097   3.407   5.719   0.597
 1400SOL     OW 5098   0.045   0.984   2.725
 1400SOL    HW1 5099   0.133   0.972   2.771
 1400SOL    HW2 5100   0.024   0.904   2.670
 1401SOL     OW 5101   6.676   1.995   4.651
 1401SOL    HW1 5102   6.591   2.004   4.704
 1401SOL    HW2 5103   6.656   1.952   4.563
 1402SOL     OW 5104   0.287   3.607   0.174
 1402SOL    HW1 5105   0.383   3.584   0.161
 1402SOL    HW2 5106   0.256   3.664   0.098
 1403SOL     OW 5107   2.268   2.431   1.830
 1403SOL    HW1 5108   2.336   2.494   1.866
 1403SOL    HW2 5109   2.295   2.337   1.850
 1404SOL     OW 5110   5.216   6.723   0.164
 1404SOL    HW1 5111   5.299   6.701   0.113
 1404SOL    HW2 5112   5.210   6.666   0.245
 1405SOL     OW 5113   1.813   4.081   1.133
 1405SOL    HW1 5114   1.811   4.159   1.070
 1405SOL    HW2 5115   1.887   4.019   1.107
 1406SOL     OW 5116   0.975   5.328   1.258
 1406SOL    HW1 5117   1.030   5.397   1.305
 1406SOL    HW2 5118   1.018   5.305   1.170
 1407SOL     OW 5119   0.351   2.142   2.475
 1407SOL    HW1 5120   0.410   2.223   2.467
 1407SOL    HW2 5121   0.406   2.060   2.467
 1408SOL     OW 5122   5.703   1.261   5.517
 1408SOL    HW1 5123   5.638   1.186   5.511
 1408SOL    HW2 5124   5.688   1.311   5.603
 1409SOL     OW 5125   0.798   1.176   4.873
 1409SOL    HW1 5126   0.706   1.188   4.909
 1409SOL    HW2 5127   0.794   1.169   4.773
 1410SOL     OW 5128   1.786   3.268   6.423
 1410SOL    HW1 5129   1.730   3.246   6.503
 1410SOL    HW2 5130   1.731   3.318   6.356
 1411SOL     OW 5131   2.871   6.476   1.492
 1411SOL    HW1 5132   2.798   6.410   1.508
 1411SOL    HW2 5133   2.900   6.515   1.579
 1412SOL     OW 5134   0.062   2.131   0.835
 1412SOL    HW1 5135   0.076   2.174   0.924
 1412SOL    HW2 5136   0.115   2.046   0.831
 1413SOL     OW 5137   1.586   1.971   5.560
 1413SOL    HW1 5138   1.543   2.035   5.625
 1413SOL    HW2 5139   1.649   1.912   5.610
 1414SOL     OW 5140   2.434   1.277   2.056
 1414SOL    HW1 5141   2.478   1.305   1.971
 1414SOL    HW2 5142   2.335   1.286   2.046
 1415SOL     OW 5143   2.225   0.580   4.636
 1415SOL    HW1 5144   2.319   0.595   4.667
 1415SOL    HW2 5145   2.191   0.664   4.592
 1416SOL     OW 5146   5.054   5.106   4.330
 1416SOL    HW1 5147   5.134   5.154   4.368
 1416SOL    HW2 5148   5.048   5.124   4.232
 1417SOL     OW 5149   2.787   2.152   0.310
 1417SOL    HW1 5150   2.846   2.076   0.283
 1417SOL    HW2 5151   2.708   2.157   0.248
 1418SOL     OW 5152   3.012   3.438   3.704
 1418SOL    HW1 5153   2.937   3.494   3.738
 1418SOL    HW2 5154   3.013   3.442   3.604
 1419SOL     OW 5155   2.211   5.962   5.011
 1419SOL    HW1 5156   2.188   5.881   4.957
 1419SOL    HW2 5157   2.154   6.038   4.982
 1420SOL     OW 5158   2.480   0.175   1.027
 1420SOL    HW1 5159   2.418   0.152   1.102
 1420SOL    HW2 5160   2.560   0.115   1.031
 1421SOL     OW 5161   1.668   3.845   3.520
 1421SOL    HW1 5162   1.648   3.936   3.556
 1421SOL    HW2 5163   1.715   3.791   3.590
 1422SOL     OW 5164   1.613   3.753   1.508
 1422SOL    HW1 5165   1.552   3.795   1.442
 1422SOL    HW2 5166   1.632   3.817   1.582
 1423SOL     OW 5167   5.639   6.167   2.866
 1423SOL    HW1 5168   5.598   6.112   2.938
 1423SOL    HW2 5169   5.738   6.167   2.876
 1424SOL     OW 5170   6.474   5.344   5.933
 1424SOL    HW1 5171   6.548   5.390   5.983
 1424SOL    HW2 5172   6.511   5.265   5.885
 1425SOL     OW 5173   1.106   6.704   4.955
 1425SOL    HW1 5174   1.037   6.720   5.025
 1425SOL    HW2 5175   1.196   6.701   4.998
 1426SOL     OW 5176   2.016   3.175   6.271
 1426SOL    HW1 5177   2.027   3.081   6.303
 1426SOL    HW2 5178   1.933   3.215   6.310
 1427SOL     OW 5179   0.326   6.888   3.720
 1427SOL    HW1 5180   0.408   6.944   3.720
 1427SOL    HW2 5181   0.341   6.805   3.666
 1428SOL     OW 5182   6.308   3.321   0.725
 1428SOL    HW1 5183   6.402   3.318   0.760
 1428SOL    HW2 5184   6.265   3.232   0.739
 1429SOL     OW 5185   5.044   2.229   0.352
 1429SOL    HW1 5186   5.118   2.191   0.296
 1429SOL    HW2 5187   5.078   2.309   0.401
 1430SOL     OW 5188   1.514   4.106   3.939
 1430SOL    HW1 5189   1.599   4.159   3.941
 1430SOL    HW2 5190   1.436   4.168   3.947
 1431SOL     OW 5191   2.366   2.237   1.130
 1431SOL    HW1 5192   2.427   2.165   1.097
 1431SOL    HW2 5193   2.392   2.324   1.089
 1432SOL     OW 5194   2.979   1.182   2.292
 1432SOL    HW1 5195   3.026   1.270   2.287
 1432SOL    HW2 5196   3.040   1.113   2.331
 1433SOL     OW 5197   3.929   0.892   5.546
 1433SOL    HW1 5198   3.872   0.964   5.506
 1433SOL    HW2 5199   4.008   0.875   5.487
 1434SOL     OW 5200   0.107   0.295   5.841
 1434SOL    HW1 5201   0.132   0.254   5.928
 1434SOL    HW2 5202   0.150   0.385   5.832
 1435SOL     OW 5203   6.156   0.279   3.288
 1435SOL    HW1 5204   6.227   0.279   3.358
 1435SOL    HW2 5205   6.183   0.338   3.212
 1436SOL     OW 5206   5.641   3.522   0.290
 1436SOL    HW1 5207   5.668   3.429   0.314
 1436SOL    HW2 5208   5.589   3.522   0.205
 1437SOL     OW 5209   3.023   2.215   3.494
 1437SOL    HW1 5210   2.952   2.278   3.527
 1437SOL    HW2 5211   2.997   2.121   3.514
 1438SOL     OW 5212   3.166   5.999   1.426
 1438SOL    HW1 5213   3.155   6.092   1.458
 1438SOL    HW2 5214   3.257   5.988   1.385
 1439SOL     OW 5215   6.846   5.679   1.413
 1439SOL    HW1 5216   6.926   5.655   1.357
 1439SOL    HW2 5217   6.763   5.649   1.366
 1440SOL     OW 5218   3.327   3.504   6.979
 1440SOL    HW1 5219   3.337   3.589   0.000
 1440SOL    HW2 5220   3.386   3.433   7.017
 1441SOL     OW 5221   6.358   0.544   4.077
 1441SOL    HW1 5222   6.454   0.556   4.104
 1441SOL    HW2 5223   6.321   0.633   4.047
 1442SOL     OW 5224   0.408   6.118   0.176
 1442SOL    HW1 5225   0.428   6.021   0.167
 1442SOL    HW2 5226   0.310   6.133   0.163
 1443SOL     OW 5227   0.733   2.939   3.471
 1443SOL    HW1 5228   0.731   3.034   3.439
 1443SOL    HW2 5229   0.666   2.928   3.545
 1444SOL     OW 5230   5.056   6.115   1.069
 1444SOL    HW1 5231   5.091   6.167   1.147
 1444SOL    HW2 5232   5.126   6.052   1.036
 1445SOL     OW 5233   0.886   2.797   3.059
 1445SOL    HW1 5234   0.815   2.729   3.074
 1445SOL    HW2 5235   0.976   2.758   3.080
 1446SOL     OW 5236   5.992   1.477   7.018
 1446SOL    HW1 5237   5.896   1.449   7.026
 1446SOL    HW2 5238   6.038   1.419   6.950
 1447SOL     OW 5239   6.209   6.276   4.262
 1447SOL    HW1 5240   6.308   6.267   4.274
 1447SOL    HW2 5241   6.180   6.219   4.186
 1448SOL     OW 5242   6.598   3.085   5.348
 1448SOL    HW1 5243   6.634   3.149   5.281
 1448SOL    HW2 5244   6.551   3.134   5.421
 1449SOL     OW 5245   1.688   3.147   5.791
 1449SOL    HW1 5246   1.786   3.164   5.789
 1449SOL    HW2 5247   1.643   3.219   5.845
 1450SOL     OW 5248   1.213   2.145   6.764
 1450SOL    HW1 5249   1.245   2.234   6.796
 1450SOL    HW2 5250   1.226   2.077   6.836
 1451SOL     OW 5251   0.937   5.953   2.412
 1451SOL    HW1 5252   0.849   6.001   2.413
 1451SOL    HW2 5253   0.999   5.995   2.478
 1452SOL     OW 5254   4.262   2.312   5.475
 1452SOL    HW1 5255   4.283   2.369   5.555
 1452SOL    HW2 5256   4.265   2.215   5.501
 1453SOL     OW 5257   0.587   4.137   5.921
 1453SOL    HW1 5258   0.637   4.194   5.855
 1453SOL    HW2 5259   0.652   4.079   5.970
 1454SOL     OW 5260   0.818   2.644   2.133
 1454SOL    HW1 5261   0.753   2.568   2.124
 1454SOL    HW2 5262   0.911   2.607   2.139
 1455SOL     OW 5263   1.758   6.798   2.149
 1455SOL    HW1 5264   1.810   6.833   2.227
 1455SOL    HW2 5265   1.788   6.705   2.127
 1456SOL     OW 5266   6.330   0.121   6.284
 1456SOL    HW1 5267   6.280   0.132   6.198
 1456SOL    HW2 5268   6.414   0.176   6.280
 1457SOL     OW 5269   0.643   6.007   1.098
 1457SOL    HW1 5270   0.731   5.995   1.144
 1457SOL    HW2 5271   0.659   6.031   1.002
 1458SOL     OW 5272   6.107   5.029   4.862
 1458SOL    HW1 5273   6.032   4.974   4.900
 1458SOL    HW2 5274   6.090   5.044   4.765
 1459SOL     OW 5275   3.921   6.876   5.555
 1459SOL    HW1 5276   4.015   6.891   5.585
 1459SOL    HW2 5277   3.873   6.818   5.621
 1460SOL     OW 5278   0.827   0.224   5.138
 1460SOL    HW1 5279   0.738   0.207   5.096
 1460SOL    HW2 5280   0.863   0.312   5.106
 1461SOL     OW 5281   6.810   4.227   2.687
 1461SOL    HW1 5282   6.781   4.156   2.623
 1461SOL    HW2 5283   6.777   4.316   2.655
 1462SOL     OW 5284   1.553   1.051   6.717
 1462SOL    HW1 5285   1.520   0.992   6.790
 1462SOL    HW2 5286   1.640   1.092   6.743
 1463SOL     OW 5287   0.703   5.502   5.776
 1463SOL    HW1 5288   0.634   5.547   5.719
 1463SOL    HW2 5289   0.771   5.569   5.805
 1464SOL     OW 5290   7.016   6.179   2.298
 1464SOL    HW1 5291   0.071   6.218   2.261
 1464SOL    HW2 5292   6.938   6.220   2.250
 1465SOL     OW 5293   1.542   0.986   3.957
 1465SOL    HW1 5294   1.543   0.928   3.876
 1465SOL    HW2 5295   1.589   1.072   3.937
 1466SOL     OW 5296   2.612   1.509   2.440
 1466SOL    HW1 5297   2.673   1.491   2.362
 1466SOL    HW2 5298   2.566   1.598   2.426
 1467SOL     OW 5299   1.880   1.316   3.717
 1467SOL    HW1 5300   1.912   1.395   3.769
 1467SOL    HW2 5301   1.865   1.343   3.621
 1468SOL     OW 5302   2.139   5.355   2.418
 1468SOL    HW1 5303   2.227   5.386   2.454
 1468SOL    HW2 5304   2.101   5.285   2.478
 1469SOL     OW 5305   6.822   0.729   2.922
 1469SOL    HW1 5306   6.914   0.690   2.934
 1469SOL    HW2 5307   6.783   0.748   3.012
 1470SOL     OW 5308   0.997   1.857   2.149
 1470SOL    HW1 5309   0.989   1.807   2.064
 1470SOL    HW2 5310   1.088   1.843   2.189
 1471SOL     OW 5311   0.566   0.218   0.900
 1471SOL    HW1 5312   0.595   0.229   0.995
 1471SOL    HW2 5313   0.565   0.307   0.855
 1472SOL     OW 5314   2.230   5.944   5.994
 1472SOL    HW1 5315   2.214   5.890   6.077
 1472SOL    HW2 5316   2.149   5.998   5.972
 1473SOL     OW 5317   3.344   5.404   5.700
 1473SOL    HW1 5318   3.332   5.337   5.773
 1473SOL    HW2 5319   3.274   5.389   5.630
 1474SOL     OW 5320   4.906   4.543   1.492
 1474SOL    HW1 5321   4.866   4.466   1.542
 1474SOL    HW2 5322   4.841   4.576   1.424
 1475SOL     OW 5323   5.493   0.736   1.093
 1475SOL    HW1 5324   5.569   0.728   1.158
 1475SOL    HW2 5325   5.417   0.786   1.136
 1476SOL     OW 5326   2.654   1.222   1.345
 1476SOL    HW1 5327   2.733   1.245   1.402
 1476SOL    HW2 5328   2.636   1.297   1.282
 1477SOL     OW 5329   3.850   6.551   6.097
 1477SOL    HW1 5330   3.765   6.547   6.151
 1477SOL    HW2 5331   3.828   6.543   6.000
 1478SOL     OW 5332   6.140   5.839   5.495
 1478SOL    HW1 5333   6.043   5.816   5.491
 1478SOL    HW2 5334   6.195   5.756   5.484
 1479SOL     OW 5335   2.435   3.451   1.245
 1479SOL    HW1 5336   2.512   3.507   1.276
 1479SOL    HW2 5337   2.462   3.398   1.165
 1480SOL     OW 5338   2.880   0.217   4.673
 1480SOL    HW1 5339   2.850   0.273   4.750
 1480SOL    HW2 5340   2.860   0.265   4.587
 1481SOL     OW 5341   6.076   3.168   6.414
 1481SOL    HW1 5342   6.112   3.175   6.507
 1481SOL    HW2 5343   6.150   3.183   6.348
 1482SOL     OW 5344   4.515   0.942   1.958
 1482SOL    HW1 5345   4.561   0.878   2.020
 1482SOL    HW2 5346   4.574   1.021   1.942
 1483SOL     OW 5347   5.268   2.516   5.684
 1483SOL    HW1 5348   5.211   2.598   5.683
 1483SOL    HW2 5349   5.290   2.489   5.591
 1484SOL     OW 5350   4.881   4.849   4.108
 1484SOL    HW1 5351   4.841   4.940   4.119
 1484SOL    HW2 5352   4.942   4.849   4.029
 1485SOL     OW 5353   4.566   0.812   4.513
 1485SOL    HW1 5354   4.567   0.837   4.610
 1485SOL    HW2 5355   4.628   0.873   4.463
 1486SOL     OW 5356   5.473   0.565   3.430
 1486SOL    HW1 5357   5.443   0.657   3.403
 1486SOL    HW2 5358   5.560   0.543   3.385
 1487SOL     OW 5359   0.561   2.131   6.877
 1487SOL    HW1 5360   0.551   2.065   6.802
 1487SOL    HW2 5361   0.587   2.083   6.961
 1488SOL     OW 5362   5.238   6.587   3.720
 1488SOL    HW1 5363   5.287   6.628   3.643
 1488SOL    HW2 5364   5.194   6.659   3.773
 1489SOL     OW 5365   3.834   5.457   6.480
 1489SOL    HW1 5366   3.849   5.359   6.472
 1489SOL    HW2 5367   3.921   5.506   6.472
 1490SOL     OW 5368   0.153   3.682   0.932
 1490SOL    HW1 5369   0.200   3.625   0.999
 1490SOL    HW2 5370   0.182   3.777   0.942
 1491SOL     OW 5371   6.431   4.380   2.406
 1491SOL    HW1 5372   6.414   4.363   2.309
 1491SOL    HW2 5373   6.520   4.424   2.416
 1492SOL     OW 5374   5.991   0.169   2.187
 1492SOL    HW1 5375   6.085   0.180   2.217
 1492SOL    HW2 5376   5.946   0.259   2.186
 1493SOL     OW 5377   3.724   0.064   6.246
 1493SOL    HW1 5378   3.823   0.053   6.232
 1493SOL    HW2 5379   3.707   0.150   6.295
 1494SOL     OW 5380   5.164   2.421   6.473
 1494SOL    HW1 5381   5.181   2.518   6.489
 1494SOL    HW2 5382   5.073   2.396   6.506
 1495SOL     OW 5383   0.647   3.961   5.190
 1495SOL    HW1 5384   0.565   3.904   5.195
 1495SOL    HW2 5385   0.656   4.014   5.274
 1496SOL     OW 5386   1.467   1.517   0.785
 1496SOL    HW1 5387   1.521   1.582   0.839
 1496SOL    HW2 5388   1.529   1.452   0.741
 1497SOL     OW 5389   5.395   2.711   2.345
 1497SOL    HW1 5390   5.489   2.745   2.349
 1497SOL    HW2 5391   5.379   2.648   2.422
 1498SOL     OW 5392   2.495   4.634   6.914
 1498SOL    HW1 5393   2.591   4.607   6.926
 1498SOL    HW2 5394   2.462   4.677   6.997
 1499SOL     OW 5395   0.452   2.662   5.379
 1499SOL    HW1 5396   0.382   2.590   5.384
 1499SOL    HW2 5397   0.410   2.747   5.348
 1500SOL     OW 5398   0.615   0.016   0.054
 1500SOL    HW1 5399   0.674   7.008   7.013
 1500SOL    HW2 5400   0.603   6.978   0.126
 1501SOL     OW 5401   5.575   2.430   6.557
 1501SOL    HW1 5402   5.487   2.399   6.520
 1501SOL    HW2 5403   5.630   2.469   6.483
 1502SOL     OW 5404   4.592   0.754   6.973
 1502SOL    HW1 5405   4.493   0.763   6.981
 1502SOL    HW2 5406   4.623   0.676   7.027
 1503SOL     OW 5407   1.547   2.951   2.592
 1503SOL    HW1 5408   1.536   2.851   2.586
 1503SOL    HW2 5409   1.488   2.986   2.665
 1504SOL     OW 5410   0.732   0.525   4.280
 1504SOL    HW1 5411   0.762   0.504   4.187
 1504SOL    HW2 5412   0.633   0.533   4.283
 1505SOL     OW 5413   4.370   0.573   5.386
 1505SOL    HW1 5414   4.458   0.592   5.429
 1505SOL    HW2 5415   4.377   0.587   5.287
 1506SOL     OW 5416   1.064   6.664   0.288
 1506SOL    HW1 5417   1.155   6.666   0.246
 1506SOL    HW2 5418   1.027   6.757   0.291
 1507SOL     OW 5419   0.343   2.001   5.913
 1507SOL    HW1 5420   0.348   1.968   5.819
 1507SOL    HW2 5421   0.317   2.098   5.913
 1508SOL     OW 5422   6.310   1.194   0.877
 1508SOL    HW1 5423   6.282   1.288   0.860
 1508SOL    HW2 5424   6.328   1.181   0.975
 1509SOL     OW 5425   4.486   2.090   4.967
 1509SOL    HW1 5426   4.419   2.161   4.947
 1509SOL    HW2 5427   4.572   2.112   4.920
 1510SOL     OW 5428   5.113   0.519   4.661
 1510SOL    HW1 5429   5.068   0.440   4.619
 1510SOL    HW2 5430   5.209   0.498   4.677
 1511SOL     OW 5431   4.028   3.480   4.055
 1511SOL    HW1 5432   3.999   3.405   3.996
 1511SOL    HW2 5433   4.037   3.446   4.149
 1512SOL     OW 5434   6.436   5.623   0.968
 1512SOL    HW1 5435   6.533   5.602   0.954
 1512SOL    HW2 5436   6.427   5.715   1.006
 1513SOL     OW 5437   3.936   0.651   4.869
 1513SOL    HW1 5438   3.943   0.733   4.812
 1513SOL    HW2 5439   3.866   0.590   4.831
 1514SOL     OW 5440   3.860   2.983   5.162
 1514SOL    HW1 5441   3.903   2.916   5.221
 1514SOL    HW2 5442   3.871   3.075   5.201
 1515SOL     OW 5443   5.444   2.134   2.191
 1515SOL    HW1 5444   5.513   2.115   2.121
 1515SOL    HW2 5445   5.490   2.160   2.276
 1516SOL     OW 5446   6.054   5.520   5.779
 1516SOL    HW1 5447   6.059   5.449   5.709
 1516SOL    HW2 5448   6.068   5.610   5.737
 1517SOL     OW 5449   4.572   6.012   2.552
 1517SOL    HW1 5450   4.558   6.056   2.463
 1517SOL    HW2 5451   4.670   5.995   2.565
 1518SOL     OW 5452   0.060   2.135   0.113
 1518SOL    HW1 5453   0.015   2.163   0.198
 1518SOL    HW2 5454   0.156   2.161   0.117
 1519SOL     OW 5455   6.666   4.686   1.368
 1519SOL    HW1 5456   6.660   4.769   1.423
 1519SOL    HW2 5457   6.690   4.609   1.426
 1520SOL     OW 5458   0.233   4.533   2.043
 1520SOL    HW1 5459   0.332   4.541   2.050
 1520SOL    HW2 5460   0.206   4.437   2.054
 1521SOL     OW 5461   2.296   4.680   6.271
 1521SOL    HW1 5462   2.260   4.596   6.230
 1521SOL    HW2 5463   2.351   4.657   6.352
 1522SOL     OW 5464   5.755   6.009   4.946
 1522SOL    HW1 5465   5.718   5.935   5.002
 1522SOL    HW2 5466   5.817   6.065   5.001
 1523SOL     OW 5467   4.128   6.661   6.989
 1523SOL    HW1 5468   4.057   6.626   0.020
 1523SOL    HW2 5469   4.196   6.710   0.012
 1524SOL     OW 5470   1.923   1.710   2.294
 1524SOL    HW1 5471   1.875   1.794   2.318
 1524SOL    HW2 5472   2.021   1.721   2.313
 1525SOL     OW 5473   6.533   3.405   0.516
 1525SOL    HW1 5474   6.459   3.350   0.555
 1525SOL    HW2 5475   6.496   3.492   0.483
 1526SOL     OW 5476   6.885   1.340   6.434
 1526SOL    HW1 5477   6.900   1.348   6.532
 1526SOL    HW2 5478   6.875   1.243   6.409
 1527SOL     OW 5479   3.909   1.474   4.590
 1527SOL    HW1 5480   3.992   1.530   4.580
 1527SOL    HW2 5481   3.863   1.498   4.675
 1528SOL     OW 5482   3.980   4.836   3.173
 1528SOL    HW1 5483   3.939   4.888   3.248
 1528SOL    HW2 5484   3.965   4.738   3.188
 1529SOL     OW 5485   4.088   0.457   0.032
 1529SOL    HW1 5486   4.156   0.384   0.027
 1529SOL    HW2 5487   4.069   0.479   0.128
 1530SOL     OW 5488   3.889   1.762   2.175
 1530SOL    HW1 5489   3.890   1.665   2.151
 1530SOL    HW2 5490   3.888   1.817   2.091
 1531SOL     OW 5491   4.667   0.325   5.477
 1531SOL    HW1 5492   4.572   0.299   5.497
 1531SOL    HW2 5493   4.713   0.251   5.429
 1532SOL     OW 5494   3.767   4.498   6.029
 1532SOL    HW1 5495   3.703   4.570   6.004
 1532SOL    HW2 5496   3.755   4.474   6.125
 1533SOL     OW 5497   6.343   5.033   6.872
 1533SOL    HW1 5498   6.303   5.054   6.961
 1533SOL    HW2 5499   6.276   5.051   6.800
 1534SOL     OW 5500   3.130   6.084   6.724
 1534SOL    HW1 5501   3.149   6.001   6.671
 1534SOL    HW2 5502   3.031   6.100   6.726
 1535SOL     OW 5503   5.026   5.970   4.257
 1535SOL    HW1 5504   5.073   6.056   4.272
 1535SOL    HW2 5505   5.001   5.929   4.345
 1536SOL     OW 5506   3.548   4.909   6.186
 1536SOL    HW1 5507   3.516   5.003   6.182
 1536SOL    HW2 5508   3.645   4.908   6.211
 1537SOL     OW 5509   4.387   5.969   4.058
 1537SOL    HW1 5510   4.400   5.971   4.158
 1537SOL    HW2 5511   4.477   5.964   4.014
 1538SOL     OW 5512   3.075   6.990   6.706
 1538SOL    HW1 5513   3.109   0.010   6.626
 1538SOL    HW2 5514   3.088   0.016   6.788
 1539SOL     OW 5515   4.856   3.747   1.930
 1539SOL    HW1 5516   4.807   3.756   2.016
 1539SOL    HW2 5517   4.825   3.665   1.882
 1540SOL     OW 5518   0.237   6.559   5.168
 1540SOL    HW1 5519   0.314   6.546   5.231
 1540SOL    HW2 5520   0.162   6.604   5.216
 1541SOL     OW 5521   3.261   2.933   4.460
 1541SOL    HW1 5522   3.288   2.926   4.364
 1541SOL    HW2 5523   3.233   2.843   4.493
 1542SOL     OW 5524   6.515   0.763   2.330
 1542SOL    HW1 5525   6.588   0.763   2.399
 1542SOL    HW2 5526   6.433   0.805   2.368
 1543SOL     OW 5527   3.484   4.924   5.101
 1543SOL    HW1 5528   3.436   4.934   5.014
 1543SOL    HW2 5529   3.451   4.992   5.166
 1544SOL     OW 5530   2.938   3.296   2.705
 1544SOL    HW1 5531   3.015   3.232   2.704
 1544SOL    HW2 5532   2.858   3.252   2.664
 1545SOL     OW 5533   5.074   0.589   2.875
 1545SOL    HW1 5534   5.010   0.518   2.846
 1545SOL    HW2 5535   5.109   0.566   2.966
 1546SOL     OW 5536   4.465   6.798   5.530
 1546SOL    HW1 5537   4.529   6.724   5.550
 1546SOL    HW2 5538   4.428   6.787   5.438
 1547SOL     OW 5539   1.942   4.197   1.472
 1547SOL    HW1 5540   1.845   4.182   1.451
 1547SOL    HW2 5541   1.970   4.135   1.545
 1548SOL     OW 5542   5.568   4.154   6.507
 1548SOL    HW1 5543   5.584   4.243   6.464
 1548SOL    HW2 5544   5.600   4.081   6.446
 1549SOL     OW 5545   4.401   1.964   1.558
 1549SOL    HW1 5546   4.482   2.022   1.553
 1549SOL    HW2 5547   4.337   1.990   1.486
 1550SOL     OW 5548   2.438   3.589   0.312
 1550SOL    HW1 5549   2.345   3.566   0.283
 1550SOL    HW2 5550   2.501   3.579   0.235
 1551SOL     OW 5551   2.002   4.233   6.358
 1551SOL    HW1 5552   2.098   4.231   6.384
 1551SOL    HW2 5553   1.992   4.202   6.263
 1552SOL     OW 5554   2.148   5.441   0.806
 1552SOL    HW1 5555   2.055   5.429   0.769
 1552SOL    HW2 5556   2.215   5.419   0.736
 1553SOL     OW 5557   6.837   1.653   6.805
 1553SOL    HW1 5558   6.789   1.621   6.723
 1553SOL    HW2 5559   6.932   1.676   6.781
 1554SOL     OW 5560   3.877   2.168   3.318
 1554SOL    HW1 5561   3.861   2.070   3.310
 1554SOL    HW2 5562   3.789   2.216   3.311
 1555SOL     OW 5563   5.504   3.045   0.198
 1555SOL    HW1 5564   5.444   3.006   0.127
 1555SOL    HW2 5565   5.448   3.084   0.271
 1556SOL     OW 5566   2.983   2.267   0.147
 1556SOL    HW1 5567   3.047   2.329   0.193
 1556SOL    HW2 5568   2.985   2.178   0.191
 1557SOL     OW 5569   1.814   2.364   5.285
 1557SOL    HW1 5570   1.755   2.439   5.314
 1557SOL    HW2 5571   1.762   2.300   5.230
 1558SOL     OW 5572   6.138   0.651   4.646
 1558SOL    HW1 5573   6.122   0.560   4.608
 1558SOL    HW2 5574   6.078   0.665   4.725
 1559SOL     OW 5575   1.931   2.923   6.860
 1559SOL    HW1 5576   1.944   2.907   6.762
 1559SOL    HW2 5577   1.834   2.917   6.883
 1560SOL     OW 5578   6.787   1.113   5.576
 1560SOL    HW1 5579   6.843   1.148   5.651
 1560SOL    HW2 5580   6.819   1.023   5.549
 1561SOL     OW 5581   6.090   6.498   3.492
 1561SOL    HW1 5582   6.050   6.572   3.546
 1561SOL    HW2 5583   6.019   6.433   3.466
 1562SOL     OW 5584   5.062   5.714   2.475
 1562SOL    HW1 5585   5.156   5.681   2.467
 1562SOL    HW2 5586   5.024   5.730   2.383
 1563SOL     OW 5587   1.997   0.058   5.263
 1563SOL    HW1 5588   2.087   0.087   5.228
 1563SOL    HW2 5589   1.977   6.996   5.231
 1564SOL     OW 5590   1.165   2.139   3.395
 1564SOL    HW1 5591   1.108   2.078   3.450
 1564SOL    HW2 5592   1.168   2.106   3.300
 1565SOL     OW 5593   4.347   4.657   3.730
 1565SOL    HW1 5594   4.346   4.605   3.815
 1565SOL    HW2 5595   4.287   4.736   3.738
 1566SOL     OW 5596   6.171   4.821   2.940
 1566SOL    HW1 5597   6.116   4.902   2.917
 1566SOL    HW2 5598   6.141   4.784   3.028
 1567SOL     OW 5599   6.286   6.138   0.818
 1567SOL    HW1 5600   6.365   6.155   0.877
 1567SOL    HW2 5601   6.203   6.172   0.862
 1568SOL     OW 5602   1.322   6.720   6.753
 1568SOL    HW1 5603   1.250   6.775   6.710
 1568SOL    HW2 5604   1.401   6.714   6.692
 1569SOL     OW 5605   4.657   6.163   3.289
 1569SOL    HW1 5606   4.735   6.178   3.229
 1569SOL    HW2 5607   4.681   6.189   3.382
 1570SOL     OW 5608   1.677   0.488   1.363
 1570SOL    HW1 5609   1.687   0.588   1.363
 1570SOL    HW2 5610   1.698   0.453   1.271
 1571SOL     OW 5611   5.326   2.418   0.742
 1571SOL    HW1 5612   5.326   2.378   0.651
 1571SOL    HW2 5613   5.290   2.511   0.738
 1572SOL     OW 5614   0.034   6.563   1.164
 1572SOL    HW1 5615   0.103   6.525   1.102
 1572SOL    HW2 5616   0.079   6.613   1.238
 1573SOL     OW 5617   5.622   2.276   2.748
 1573SOL    HW1 5618   5.612   2.295   2.845
 1573SOL    HW2 5619   5.552   2.326   2.697
 1574SOL     OW 5620   6.370   0.828   1.897
 1574SOL    HW1 5621   6.385   0.915   1.944
 1574SOL    HW2 5622   6.288   0.785   1.934
 1575SOL     OW 5623   3.003   1.376   0.586
 1575SOL    HW1 5624   2.990   1.302   0.520
 1575SOL    HW2 5625   3.101   1.393   0.597
 1576SOL     OW 5626   0.575   6.703   3.818
 1576SOL    HW1 5627   0.578   6.727   3.915
 1576SOL    HW2 5628   0.559   6.785   3.764
 1577SOL     OW 5629   3.156   2.196   4.377
 1577SOL    HW1 5630   3.153   2.129   4.450
 1577SOL    HW2 5631   3.101   2.276   4.401
 1578SOL     OW 5632   6.361   3.473   5.850
 1578SOL    HW1 5633   6.311   3.460   5.936
 1578SOL    HW2 5634   6.456   3.447   5.863
 1579SOL     OW 5635   6.991   1.765   2.839
 1579SOL    HW1 5636   6.999   1.805   2.748
 1579SOL    HW2 5637   0.051   1.736   2.872
 1580SOL     OW 5638   2.624   3.738   5.401
 1580SOL    HW1 5639   2.645   3.717   5.496
 1580SOL    HW2 5640   2.709   3.751   5.350
 1581SOL     OW 5641   0.417   4.443   5.258
 1581SOL    HW1 5642   0.473   4.467   5.179
 1581SOL    HW2 5643   0.473   4.394   5.325
 1582SOL     OW 5644   1.614   6.667   4.593
 1582SOL    HW1 5645   1.518   6.651   4.617
 1582SOL    HW2 5646   1.620   6.745   4.530
 1583SOL     OW 5647   0.845   4.179   3.650
 1583SOL    HW1 5648   0.926   4.120   3.652
 1583SOL    HW2 5649   0.802   4.173   3.560
 1584SOL     OW 5650   1.351   6.706   4.656
 1584SOL    HW1 5651   1.275   6.641   4.657
 1584SOL    HW2 5652   1.333   6.781   4.719
 1585SOL     OW 5653   5.959   1.315   3.783
 1585SOL    HW1 5654   5.899   1.380   3.828
 1585SOL    HW2 5655   5.913   1.275   3.704
 1586SOL     OW 5656   3.247   4.061   0.666
 1586SOL    HW1 5657   3.230   4.070   0.764
 1586SOL    HW2 5658   3.336   4.019   0.650
 1587SOL     OW 5659   2.623   5.454   0.068
 1587SOL    HW1 5660   2.613   5.519   0.144
 1587SOL    HW2 5661   2.670   5.372   0.101
 1588SOL     OW 5662   5.412   1.508   2.844
 1588SOL    HW1 5663   5.312   1.504   2.843
 1588SOL    HW2 5664   5.449   1.428   2.796
 1589SOL     OW 5665   6.467   4.003   2.738
 1589SOL    HW1 5666   6.394   3.997   2.806
 1589SOL    HW2 5667   6.427   4.008   2.646
 1590SOL     OW 5668   2.592   6.612   6.189
 1590SOL    HW1 5669   2.557   6.582   6.277
 1590SOL    HW2 5670   2.691   6.629   6.196
 1591SOL     OW 5671   0.890   4.960   2.828
 1591SOL    HW1 5672   0.825   4.891   2.797
 1591SOL    HW2 5673   0.853   5.007   2.909
 1592SOL     OW 5674   2.587   4.577   1.347
 1592SOL    HW1 5675   2.508   4.517   1.340
 1592SOL    HW2 5676   2.603   4.600   1.443
 1593SOL     OW 5677   0.759   6.149   3.733
 1593SOL    HW1 5678   0.795   6.242   3.730
 1593SOL    HW2 5679   0.692   6.141   3.807
 1594SOL     OW 5680   6.986   5.667   2.891
 1594SOL    HW1 5681   6.979   5.598   2.964
 1594SOL    HW2 5682   0.003   5.748   2.926
 1595SOL     OW 5683   1.000   5.089   6.816
 1595SOL    HW1 5684   0.973   5.133   6.730
 1595SOL    HW2 5685   0.931   5.108   6.886
 1596SOL     OW 5686   0.578   3.047   4.626
 1596SOL    HW1 5687   0.610   3.074   4.717
 1596SOL    HW2 5688   0.479   3.057   4.620
 1597SOL     OW 5689   2.457   5.874   0.050
 1597SOL    HW1 5690   2.445   5.828   6.992
 1597SOL    HW2 5691   2.397   5.955   0.053
 1598SOL     OW 5692   0.787   3.537   0.323
 1598SOL    HW1 5693   0.764   3.445   0.354
 1598SOL    HW2 5694   0.855   3.532   0.250
 1599SOL     OW 5695   5.211   4.159   5.709
 1599SOL    HW1 5696   5.237   4.223   5.636
 1599SOL    HW2 5697   5.197   4.068   5.670
 1600SOL     OW 5698   5.050   1.985   5.116
 1600SOL    HW1 5699   4.985   1.930   5.064
 1600SOL    HW2 5700   5.022   1.990   5.212
 1601SOL     OW 5701   0.427   4.874   4.461
 1601SOL    HW1 5702   0.480   4.825   4.391
 1601SOL    HW2 5703   0.416   4.969   4.432
 1602SOL     OW 5704   1.874   5.535   4.062
 1602SOL    HW1 5705   1.902   5.560   3.969
 1602SOL    HW2 5706   1.936   5.577   4.128
 1603SOL     OW 5707   0.352   5.805   2.272
 1603SOL    HW1 5708   0.437   5.780   2.319
 1603SOL    HW2 5709   0.282   5.827   2.340
 1604SOL     OW 5710   6.244   4.760   6.722
 1604SOL    HW1 5711   6.159   4.780   6.771
 1604SOL    HW2 5712   6.288   4.845   6.694
 1605SOL     OW 5713   6.364   6.178   2.378
 1605SOL    HW1 5714   6.391   6.206   2.470
 1605SOL    HW2 5715   6.267   6.198   2.365
 1606SOL     OW 5716   3.291   0.491   5.084
 1606SOL    HW1 5717   3.314   0.422   5.153
 1606SOL    HW2 5718   3.344   0.473   5.001
 1607SOL     OW 5719   4.435   2.608   0.460
 1607SOL    HW1 5720   4.492   2.685   0.430
 1607SOL    HW2 5721   4.397   2.561   0.380
 1608SOL     OW 5722   1.465   1.009   5.379
 1608SOL    HW1 5723   1.497   0.954   5.302
 1608SOL    HW2 5724   1.454   0.950   5.460
 1609SOL     OW 5725   4.291   0.676   0.243
 1609SOL    HW1 5726   4.363   0.645   0.305
 1609SOL    HW2 5727   4.289   0.776   0.242
 1610SOL     OW 5728   6.232   3.948   5.331
 1610SOL    HW1 5729   6.287   3.970   5.250
 1610SOL    HW2 5730   6.166   4.021   5.347
 1611SOL     OW 5731   3.257   3.294   1.461
 1611SOL    HW1 5732   3.208   3.336   1.538
 1611SOL    HW2 5733   3.195   3.283   1.384
 1612SOL     OW 5734   3.173   1.302   5.499
 1612SOL    HW1 5735   3.251   1.325   5.556
 1612SOL    HW2 5736   3.130   1.385   5.464
 1613SOL     OW 5737   1.851   6.170   2.046
 1613SOL    HW1 5738   1.803   6.251   2.077
 1613SOL    HW2 5739   1.787   6.093   2.040
 1614SOL     OW 5740   6.383   3.727   0.077
 1614SOL    HW1 5741   6.345   3.789   0.008
 1614SOL    HW2 5742   6.308   3.682   0.125
 1615SOL     OW 5743   6.138   4.673   0.540
 1615SOL    HW1 5744   6.196   4.618   0.600
 1615SOL    HW2 5745   6.043   4.643   0.546
 1616SOL     OW 5746   4.061   2.040   5.543
 1616SOL    HW1 5747   4.027   2.098   5.617
 1616SOL    HW2 5748   4.087   2.097   5.465
 1617SOL     OW 5749   6.306   6.767   1.423
 1617SOL    HW1 5750   6.313   6.861   1.455
 1617SOL    HW2 5751   6.220   6.727   1.456
 1618SOL     OW 5752   1.005   3.556   0.886
 1618SOL    HW1 5753   0.953   3.511   0.958
 1618SOL    HW2 5754   0.966   3.533   0.797
 1619SOL     OW 5755   1.000   1.941   3.842
 1619SOL    HW1 5756   0.991   1.934   3.941
 1619SOL    HW2 5757   1.084   1.895   3.813
 1620SOL     OW 5758   1.902   5.879   1.086
 1620SOL    HW1 5759   1.969   5.948   1.113
 1620SOL    HW2 5760   1.810   5.908   1.112
 1621SOL     OW 5761   0.674   1.168   0.148
 1621SOL    HW1 5762   0.614   1.190   0.072
 1621SOL    HW2 5763   0.633   1.095   0.204
 1622SOL     OW 5764   0.973   2.641   4.434
 1622SOL    HW1 5765   1.007   2.583   4.359
 1622SOL    HW2 5766   1.016   2.613   4.520
 1623SOL     OW 5767   2.617   3.376   5.807
 1623SOL    HW1 5768   2.636   3.289   5.760
 1623SOL    HW2 5769   2.686   3.392   5.877
 1624SOL     OW 5770   3.480   0.856   5.900
 1624SOL    HW1 5771   3.441   0.769   5.873
 1624SOL    HW2 5772   3.417   0.930   5.876
 1625SOL     OW 5773   1.310   5.743   2.006
 1625SOL    HW1 5774   1.342   5.679   2.075
 1625SOL    HW2 5775   1.221   5.781   2.034
 1626SOL     OW 5776   3.108   2.011   6.505
 1626SOL    HW1 5777   3.113   2.109   6.483
 1626SOL    HW2 5778   3.089   2.000   6.603
 1627SOL     OW 5779   6.252   2.235   4.185
 1627SOL    HW1 5780   6.227   2.154   4.131
 1627SOL    HW2 5781   6.169   2.286   4.210
 1628SOL     OW 5782   4.246   4.787   0.175
 1628SOL    HW1 5783   4.219   4.825   0.087
 1628SOL    HW2 5784   4.187   4.710   0.198
 1629SOL     OW 5785   2.931   2.045   4.322
 1629SOL    HW1 5786   2.919   2.138   4.358
 1629SOL    HW2 5787   2.862   2.027   4.253
 1630SOL     OW 5788   1.308   6.592   5.597
 1630SOL    HW1 5789   1.354   6.650   5.663
 1630SOL    HW2 5790   1.220   6.562   5.634
 1631SOL     OW 5791   0.317   1.434   6.073
 1631SOL    HW1 5792   0.259   1.515   6.079
 1631SOL    HW2 5793   0.265   1.353   6.101
 1632SOL     OW 5794   0.106   1.565   6.996
 1632SOL    HW1 5795   0.079   1.612   0.050
 1632SOL    HW2 5796   0.029   1.561   6.933
 1633SOL     OW 5797   4.976   2.009   3.713
 1633SOL    HW1 5798   4.964   2.108   3.700
 1633SOL    HW2 5799   5.073   1.986   3.706
 1634SOL     OW 5800   4.261   4.989   5.667
 1634SOL    HW1 5801   4.287   4.995   5.764
 1634SOL    HW2 5802   4.240   5.081   5.633
 1635SOL     OW 5803   6.294   5.628   5.446
 1635SOL    HW1 5804   6.371   5.607   5.506
 1635SOL    HW2 5805   6.313   5.591   5.355
 1636SOL     OW 5806   2.330   3.978   1.323
 1636SOL    HW1 5807   2.302   3.937   1.236
 1636SOL    HW2 5808   2.424   3.951   1.344
 1637SOL     OW 5809   0.071   0.548   2.916
 1637SOL    HW1 5810   0.103   0.568   3.009
 1637SOL    HW2 5811   0.038   0.454   2.911
 1638SOL     OW 5812   0.766   4.274   4.247
 1638SOL    HW1 5813   0.770   4.323   4.160
 1638SOL    HW2 5814   0.696   4.202   4.242
 1639SOL     OW 5815   4.424   0.134   2.920
 1639SOL    HW1 5816   4.510   0.095   2.952
 1639SOL    HW2 5817   4.347   0.087   2.963
 1640SOL     OW 5818   5.747   1.905   0.896
 1640SOL    HW1 5819   5.701   1.917   0.808
 1640SOL    HW2 5820   5.753   1.807   0.917
 1641SOL     OW 5821   5.312   2.939   4.046
 1641SOL    HW1 5822   5.368   2.879   4.102
 1641SOL    HW2 5823   5.271   3.010   4.103
 1642SOL     OW 5824   6.618   3.558   7.009
 1642SOL    HW1 5825   6.682   3.632   0.001
 1642SOL    HW2 5826   6.659   3.496   6.943
 1643SOL     OW 5827   2.344   5.334   4.060
 1643SOL    HW1 5828   2.259   5.293   4.028
 1643SOL    HW2 5829   2.328   5.429   4.087
 1644SOL     OW 5830   1.323   2.598   1.093
 1644SOL    HW1 5831   1.379   2.638   1.166
 1644SOL    HW2 5832   1.351   2.503   1.079
 1645SOL     OW 5833   2.980   6.576   5.111
 1645SOL    HW1 5834   2.903   6.627   5.148
 1645SOL    HW2 5835   3.032   6.633   5.047
 1646SOL     OW 5836   2.666   6.261   1.665
 1646SOL    HW1 5837   2.583   6.206   1.662
 1646SOL    HW2 5838   2.642   6.358   1.676
 1647SOL     OW 5839   5.506   2.109   4.423
 1647SOL    HW1 5840   5.407   2.121   4.413
 1647SOL    HW2 5841   5.542   2.179   4.484
 1648SOL     OW 5842   6.106   6.249   1.194
 1648SOL    HW1 5843   6.102   6.279   1.098
 1648SOL    HW2 5844   6.023   6.279   1.241
 1649SOL     OW 5845   3.559   0.614   3.792
 1649SOL    HW1 5846   3.566   0.695   3.851
 1649SOL    HW2 5847   3.613   0.627   3.709
 1650SOL     OW 5848   2.510   6.624   4.210
 1650SOL    HW1 5849   2.446   6.699   4.224
 1650SOL    HW2 5850   2.556   6.635   4.122
 1651SOL     OW 5851   1.049   1.141   1.423
 1651SOL    HW1 5852   1.092   1.212   1.368
 1651SOL    HW2 5853   0.995   1.183   1.496
 1652SOL     OW 5854   1.631   2.875   2.003
 1652SOL    HW1 5855   1.571   2.876   1.923
 1652SOL    HW2 5856   1.639   2.782   2.038
 1653SOL     OW 5857   0.178   6.660   1.383
 1653SOL    HW1 5858   0.103   6.602   1.416
 1653SOL    HW2 5859   0.262   6.635   1.430
 1654SOL     OW 5860   6.718   2.646   1.910
 1654SOL    HW1 5861   6.666   2.562   1.890
 1654SOL    HW2 5862   6.753   2.641   2.004
 1655SOL     OW 5863   5.590   3.356   5.455
 1655SOL    HW1 5864   5.563   3.360   5.551
 1655SOL    HW2 5865   5.678   3.403   5.444
 1656SOL     OW 5866   1.693   4.405   3.109
 1656SOL    HW1 5867   1.683   4.497   3.147
 1656SOL    HW2 5868   1.621   4.346   3.146
 1657SOL     OW 5869   0.254   1.057   4.210
 1657SOL    HW1 5870   0.317   1.134   4.226
 1657SOL    HW2 5871   0.256   0.996   4.289
 1658SOL     OW 5872   0.742   0.498   2.898
 1658SOL    HW1 5873   0.706   0.539   2.982
 1658SOL    HW2 5874   0.691   0.533   2.820
 1659SOL     OW 5875   3.781   1.543   6.087
 1659SOL    HW1 5876   3.845   1.585   6.023
 1659SOL    HW2 5877   3.725   1.476   6.039
 1660SOL     OW 5878   1.452   4.851   4.092
 1660SOL    HW1 5879   1.455   4.830   4.190
 1660SOL    HW2 5880   1.397   4.933   4.078
 1661SOL     OW 5881   3.191   1.786   1.530
 1661SOL    HW1 5882   3.280   1.821   1.503
 1661SOL    HW2 5883   3.150   1.738   1.452
 1662SOL     OW 5884   6.617   1.256   3.972
 1662SOL    HW1 5885   6.529   1.294   3.942
 1662SOL    HW2 5886   6.623   1.161   3.943
 1663SOL     OW 5887   2.807   1.515   3.136
 1663SOL    HW1 5888   2.791   1.459   3.054
 1663SOL    HW2 5889   2.838   1.606   3.108
 1664SOL     OW 5890   1.727   0.286   3.806
 1664SOL    HW1 5891   1.650   0.252   3.752
 1664SOL    HW2 5892   1.726   0.386   3.806
 1665SOL     OW 5893   6.622   1.532   2.554
 1665SOL    HW1 5894   6.677   1.490   2.626
 1665SOL    HW2 5895   6.674   1.607   2.512
 1666SOL     OW 5896   6.012   3.761   0.681
 1666SOL    HW1 5897   6.107   3.760   0.651
 1666SOL    HW2 5898   5.952   3.752   0.601
 1667SOL     OW 5899   5.377   6.790   1.151
 1667SOL    HW1 5900   5.376   6.779   1.250
 1667SOL    HW2 5901   5.348   6.705   1.107
 1668SOL     OW 5902   5.298   5.905   5.815
 1668SOL    HW1 5903   5.213   5.885   5.864
 1668SOL    HW2 5904   5.332   5.995   5.842
 1669SOL     OW 5905   5.960   6.919   0.601
 1669SOL    HW1 5906   6.000   6.917   0.692
 1669SOL    HW2 5907   5.875   6.972   0.603
 1670SOL     OW 5908   0.013   5.740   6.667
 1670SOL    HW1 5909   6.947   5.741   6.643
 1670SOL    HW2 5910   0.027   5.687   6.751
 1671SOL     OW 5911   4.322   2.439   0.643
 1671SOL    HW1 5912   4.343   2.513   0.579
 1671SOL    HW2 5913   4.329   2.473   0.737
 1672SOL     OW 5914   2.243   4.041   2.464
 1672SOL    HW1 5915   2.322   4.081   2.510
 1672SOL    HW2 5916   2.243   4.069   2.368
 1673SOL     OW 5917   0.655   2.572   4.445
 1673SOL    HW1 5918   0.613   2.557   4.355
 1673SOL    HW2 5919   0.734   2.511   4.455
 1674SOL     OW 5920   0.840   3.970   1.938
 1674SOL    HW1 5921   0.768   3.984   1.870
 1674SOL    HW2 5922   0.928   3.961   1.891
 1675SOL     OW 5923   4.253   0.137   6.242
 1675SOL    HW1 5924   4.269   0.219   6.186
 1675SOL    HW2 5925   4.295   0.058   6.197
 1676SOL     OW 5926   3.330   1.218   2.130
 1676SOL    HW1 5927   3.428   1.207   2.152
 1676SOL    HW2 5928   3.321   1.261   2.040
 1677SOL     OW 5929   4.162   2.851   5.504
 1677SOL    HW1 5930   4.112   2.833   5.420
 1677SOL    HW2 5931   4.152   2.948   5.529
 1678SOL     OW 5932   4.938   4.839   4.422
 1678SOL    HW1 5933   4.869   4.854   4.493
 1678SOL    HW2 5934   4.984   4.926   4.402
 1679SOL     OW 5935   1.973   3.259   4.999
 1679SOL    HW1 5936   2.039   3.242   5.072
 1679SOL    HW2 5937   2.015   3.320   4.931
 1680SOL     OW 5938   0.981   1.926   4.156
 1680SOL    HW1 5939   0.898   1.980   4.171
 1680SOL    HW2 5940   0.956   1.836   4.118
 1681SOL     OW 5941   6.380   5.883   1.061
 1681SOL    HW1 5942   6.391   5.866   1.159
 1681SOL    HW2 5943   6.431   5.965   1.035
 1682SOL     OW 5944   6.882   2.690   4.655
 1682SOL    HW1 5945   6.980   2.695   4.635
 1682SOL    HW2 5946   6.830   2.730   4.580
 1683SOL     OW 5947   3.612   5.773   1.040
 1683SOL    HW1 5948   3.639   5.699   1.101
 1683SOL    HW2 5949   3.680   5.847   1.044
 1684SOL     OW 5950   1.424   5.823   2.785
 1684SOL    HW1 5951   1.441   5.732   2.747
 1684SOL    HW2 5952   1.394   5.815   2.880
 1685SOL     OW 5953   3.109   1.262   6.484
 1685SOL    HW1 5954   3.108   1.170   6.445
 1685SOL    HW2 5955   3.176   1.318   6.436
 1686SOL     OW 5956   1.896   4.983   5.546
 1686SOL    HW1 5957   1.873   4.887   5.530
 1686SOL    HW2 5958   1.845   5.041   5.482
 1687SOL     OW 5959   2.032   3.309   1.316
 1687SOL    HW1 5960   2.054   3.314   1.218
 1687SOL    HW2 5961   2.116   3.315   1.369
 1688SOL     OW 5962   1.179   2.575   3.825
 1688SOL    HW1 5963   1.155   2.537   3.915
 1688SOL    HW2 5964   1.163   2.674   3.826
 1689SOL     OW 5965   3.972   0.985   1.710
 1689SOL    HW1 5966   4.001   1.063   1.766
 1689SOL    HW2 5967   3.999   1.001   1.615
 1690SOL     OW 5968   1.346   2.726   3.361
 1690SOL    HW1 5969   1.247   2.741   3.363
 1690SOL    HW2 5970   1.386   2.756   3.448
 1691SOL     OW 5971   4.865   3.669   3.242
 1691SOL    HW1 5972   4.863   3.702   3.336
 1691SOL    HW2 5973   4.855   3.569   3.241
 1692SOL     OW 5974   6.616   0.022   1.211
 1692SOL    HW1 5975   6.691   0.016   1.144
 1692SOL    HW2 5976   6.637   6.995   1.290
 1693SOL     OW 5977   0.782   2.330   2.246
 1693SOL    HW1 5978   0.802   2.235   2.222
 1693SOL    HW2 5979   0.757   2.335   2.343
 1694SOL     OW 5980   5.045   6.732   4.211
 1694SOL    HW1 5981   4.967   6.734   4.148
 1694SOL    HW2 5982   5.016   6.762   4.302
 1695SOL     OW 5983   2.485   1.425   5.682
 1695SOL    HW1 5984   2.454   1.426   5.777
 1695SOL    HW2 5985   2.421   1.371   5.627
 1696SOL     OW 5986   5.513   5.279   0.383
 1696SOL    HW1 5987   5.482   5.271   0.478
 1696SOL    HW2 5988   5.612   5.288   0.381
 1697SOL     OW 5989   6.445   6.480   2.324
 1697SOL    HW1 5990   6.387   6.539   2.268
 1697SOL    HW2 5991   6.421   6.384   2.307
 1698SOL     OW 5992   4.597   1.032   0.478
 1698SOL    HW1 5993   4.528   0.967   0.506
 1698SOL    HW2 5994   4.565   1.125   0.495
 1699SOL     OW 5995   2.935   1.033   2.032
 1699SOL    HW1 5996   2.946   1.097   2.109
 1699SOL    HW2 5997   2.940   0.939   2.065
 1700SOL     OW 5998   6.234   1.823   3.706
 1700SOL    HW1 5999   6.155   1.855   3.654
 1700SOL    HW2 6000   6.317   1.864   3.668
 1701SOL     OW 6001   4.904   3.264   5.351
 1701SOL    HW1 6002   4.906   3.166   5.328
 1701SOL    HW2 6003   4.960   3.279   5.433
 1702SOL     OW 6004   6.923   3.373   0.741
 1702SOL    HW1 6005   6.993   3.443   0.724
 1702SOL    HW2 6006   6.967   3.286   0.761
 1703SOL     OW 6007   3.387   4.163   3.057
 1703SOL    HW1 6008   3.305   4.143   3.004
 1703SOL    HW2 6009   3.376   4.250   3.104
 1704SOL     OW 6010   0.506   1.490   1.199
 1704SOL    HW1 6011   0.483   1.393   1.192
 1704SOL    HW2 6012   0.507   1.518   1.294
 1705SOL     OW 6013   3.591   2.047   2.149
 1705SOL    HW1 6014   3.500   2.024   2.113
 1705SOL    HW2 6015   3.622   2.133   2.108
 1706SOL     OW 6016   4.203   6.948   1.399
 1706SOL    HW1 6017   4.291   6.955   1.353
 1706SOL    HW2 6018   4.180   6.852   1.415
 1707SOL     OW 6019   4.372   1.364   2.879
 1707SOL    HW1 6020   4.345   1.393   2.787
 1707SOL    HW2 6021   4.291   1.356   2.937
 1708SOL     OW 6022   5.435   5.686   2.129
 1708SOL    HW1 6023   5.405   5.749   2.201
 1708SOL    HW2 6024   5.460   5.598   2.170
 1709SOL     OW 6025   2.503   6.048   1.935
 1709SOL    HW1 6026   2.601   6.058   1.952
 1709SOL    HW2 6027   2.481   5.951   1.924
 1710SOL     OW 6028   5.708   4.596   3.690
 1710SOL    HW1 6029   5.631   4.567   3.747
 1710SOL    HW2 6030   5.775   4.644   3.746
 1711SOL     OW 6031   1.484   4.088   5.057
 1711SOL    HW1 6032   1.476   4.050   5.149
 1711SOL    HW2 6033   1.395   4.084   5.011
 1712SOL     OW 6034   1.221   3.165   6.691
 1712SOL    HW1 6035   1.144   3.127   6.742
 1712SOL    HW2 6036   1.205   3.262   6.674
 1713SOL     OW 6037   3.249   1.924   0.972
 1713SOL    HW1 6038   3.215   1.910   0.879
 1713SOL    HW2 6039   3.347   1.902   0.976
 1714SOL     OW 6040   4.541   1.905   6.156
 1714SOL    HW1 6041   4.546   1.805   6.162
 1714SOL    HW2 6042   4.476   1.939   6.224
 1715SOL     OW 6043   6.615   3.690   2.589
 1715SOL    HW1 6044   6.634   3.788   2.594
 1715SOL    HW2 6045   6.664   3.651   2.510
 1716SOL     OW 6046   4.923   0.103   1.380
 1716SOL    HW1 6047   4.914   0.195   1.418
 1716SOL    HW2 6048   4.913   0.107   1.281
 1717SOL     OW 6049   1.713   6.227   6.600
 1717SOL    HW1 6050   1.748   6.208   6.508
 1717SOL    HW2 6051   1.770   6.180   6.667
 1718SOL     OW 6052   1.750   1.541   0.872
 1718SOL    HW1 6053   1.792   1.450   0.874
 1718SOL    HW2 6054   1.819   1.609   0.847
 1719SOL     OW 6055   2.387   4.406   1.295
 1719SOL    HW1 6056   2.309   4.405   1.357
 1719SOL    HW2 6057   2.354   4.403   1.201
 1720SOL     OW 6058   6.948   1.118   1.416
 1720SOL    HW1 6059   0.008   1.159   1.425
 1720SOL    HW2 6060   6.952   1.022   1.443
 1721SOL     OW 6061   1.213   6.406   2.680
 1721SOL    HW1 6062   1.219   6.393   2.581
 1721SOL    HW2 6063   1.259   6.491   2.705
 1722SOL     OW 6064   5.067   1.515   3.873
 1722SOL    HW1 6065   5.140   1.487   3.811
 1722SOL    HW2 6066   4.985   1.460   3.855
 1723SOL     OW 6067   6.964   2.814   3.171
 1723SOL    HW1 6068   0.031   2.790   3.159
 1723SOL    HW2 6069   6.908   2.756   3.112
 1724SOL     OW 6070   5.703   1.650   0.986
 1724SOL    HW1 6071   5.755   1.576   1.030
 1724SOL    HW2 6072   5.611   1.618   0.965
 1725SOL     OW 6073   2.901   5.085   0.411
 1725SOL    HW1 6074   2.998   5.104   0.394
 1725SOL    HW2 6075   2.853   5.075   0.323
 1726SOL     OW 6076   6.958   4.237   5.792
 1726SOL    HW1 6077   0.011   4.250   5.739
 1726SOL    HW2 6078   6.883   4.287   5.750
 1727SOL     OW 6079   3.502   2.990   4.535
 1727SOL    HW1 6080   3.412   2.983   4.493
 1727SOL    HW2 6081   3.503   2.940   4.622
 1728SOL     OW 6082   5.434   5.511   4.775
 1728SOL    HW1 6083   5.450   5.479   4.868
 1728SOL    HW2 6084   5.340   5.541   4.765
 1729SOL     OW 6085   2.042   3.700   4.009
 1729SOL    HW1 6086   2.073   3.773   4.071
 1729SOL    HW2 6087   2.030   3.738   3.918
 1730SOL     OW 6088   6.952   0.563   4.417
 1730SOL    HW1 6089   6.912   0.609   4.338
 1730SOL    HW2 6090   6.939   0.465   4.409
 1731SOL     OW 6091   1.015   5.665   2.015
 1731SOL    HW1 6092   1.049   5.596   2.079
 1731SOL    HW2 6093   1.046   5.643   1.923
 1732SOL     OW 6094   2.446   4.876   6.009
 1732SOL    HW1 6095   2.425   4.807   6.079
 1732SOL    HW2 6096   2.516   4.840   5.947
 1733SOL     OW 6097   1.400   3.778   2.699
 1733SOL    HW1 6098   1.392   3.825   2.787
 1733SOL    HW2 6099   1.365   3.685   2.708
 1734SOL     OW 6100   4.929   3.064   1.792
 1734SOL    HW1 6101   4.886   3.120   1.721
 1734SOL    HW2 6102   4.861   3.042   1.862
 1735SOL     OW 6103   5.765   5.510   0.998
 1735SOL    HW1 6104   5.711   5.460   0.930
 1735SOL    HW2 6105   5.715   5.593   1.025
 1736SOL     OW 6106   4.839   1.746   0.538
 1736SOL    HW1 6107   4.845   1.720   0.634
 1736SOL    HW2 6108   4.896   1.827   0.522
 1737SOL     OW 6109   2.933   0.601   4.284
 1737SOL    HW1 6110   2.961   0.682   4.334
 1737SOL    HW2 6111   3.008   0.572   4.224
 1738SOL     OW 6112   1.895   2.192   3.929
 1738SOL    HW1 6113   1.892   2.154   4.021
 1738SOL    HW2 6114   1.806   2.233   3.907
 1739SOL     OW 6115   4.922   2.991   5.329
 1739SOL    HW1 6116   4.846   2.929   5.344
 1739SOL    HW2 6117   4.960   2.975   5.238
 1740SOL     OW 6118   0.340   1.737   6.682
 1740SOL    HW1 6119   0.433   1.775   6.685
 1740SOL    HW2 6120   0.345   1.637   6.686
 1741SOL     OW 6121   2.526   1.002   3.368
 1741SOL    HW1 6122   2.442   1.022   3.419
 1741SOL    HW2 6123   2.538   0.903   3.360
 1742SOL     OW 6124   4.077   6.086   5.922
 1742SOL    HW1 6125   4.167   6.066   5.962
 1742SOL    HW2 6126   4.047   6.007   5.868
 1743SOL     OW 6127   1.926   1.563   2.073
 1743SOL    HW1 6128   1.926   1.628   2.148
 1743SOL    HW2 6129   1.890   1.607   1.991
 1744SOL     OW 6130   0.526   0.101   1.778
 1744SOL    HW1 6131   0.573   0.050   1.850
 1744SOL    HW2 6132   0.434   0.065   1.766
 1745SOL     OW 6133   0.073   0.821   4.182
 1745SOL    HW1 6134   0.116   0.911   4.177
 1745SOL    HW2 6135   7.008   0.832   4.211
 1746SOL     OW 6136   1.783   5.169   5.396
 1746SOL    HW1 6137   1.880   5.189   5.410
 1746SOL    HW2 6138   1.732   5.255   5.390
 1747SOL     OW 6139   5.194   7.006   2.595
 1747SOL    HW1 6140   5.227   6.978   2.686
 1747SOL    HW2 6141   5.107   6.960   2.576
 1748SOL     OW 6142   0.042   0.958   3.449
 1748SOL    HW1 6143   0.003   0.976   3.539
 1748SOL    HW2 6144   0.090   0.870   3.450
 1749SOL     OW 6145   2.786   6.677   5.286
 1749SOL    HW1 6146   2.846   6.621   5.344
 1749SOL    HW2 6147   2.701   6.696   5.334
 1750SOL     OW 6148   6.173   0.621   3.742
 1750SOL    HW1 6149   6.159   0.629   3.643
 1750SOL    HW2 6150   6.085   0.631   3.789
 1751SOL     OW 6151   3.687   5.639   4.574
 1751SOL    HW1 6152   3.591   5.646   4.550
 1751SOL    HW2 6153   3.737   5.593   4.501
 1752SOL     OW 6154   6.960   2.243   2.540
 1752SOL    HW1 6155   6.899   2.205   2.470
 1752SOL    HW2 6156   6.905   2.275   2.618
 1753SOL     OW 6157   0.072   1.987   0.570
 1753SOL    HW1 6158   0.095   2.059   0.635
 1753SOL    HW2 6159   7.003   1.977   0.565
 1754SOL     OW 6160   3.442   3.178   1.658
 1754SOL    HW1 6161   3.390   3.212   1.580
 1754SOL    HW2 6162   3.399   3.095   1.694
 1755SOL     OW 6163   5.806   5.317   1.964
 1755SOL    HW1 6164   5.716   5.361   1.968
 1755SOL    HW2 6165   5.803   5.233   2.017
 1756SOL     OW 6166   4.275   4.483   6.364
 1756SOL    HW1 6167   4.192   4.467   6.418
 1756SOL    HW2 6168   4.347   4.421   6.395
 1757SOL     OW 6169   2.119   5.772   4.855
 1757SOL    HW1 6170   2.072   5.802   4.772
 1757SOL    HW2 6171   2.102   5.675   4.870
 1758SOL     OW 6172   2.181   0.700   3.473
 1758SOL    HW1 6173   2.140   0.656   3.553
 1758SOL    HW2 6174   2.280   0.700   3.482
 1759SOL     OW 6175   0.909   4.739   5.902
 1759SOL    HW1 6176   0.902   4.728   6.002
 1759SOL    HW2 6177   0.975   4.672   5.867
 1760SOL     OW 6178   6.635   1.085   1.411
 1760SOL    HW1 6179   6.606   1.180   1.397
 1760SOL    HW2 6180   6.695   1.079   1.490
 1761SOL     OW 6181   0.159   0.157   0.011
 1761SOL    HW1 6182   0.185   0.245   0.049
 1761SOL    HW2 6183   0.063   0.159   7.015
 1762SOL     OW 6184   6.204   1.570   5.126
 1762SOL    HW1 6185   6.233   1.542   5.035
 1762SOL    HW2 6186   6.277   1.549   5.192
 1763SOL     OW 6187   1.983   3.475   4.445
 1763SOL    HW1 6188   1.971   3.552   4.507
 1763SOL    HW2 6189   2.048   3.499   4.373
 1764SOL     OW 6190   1.361   4.152   2.687
 1764SOL    HW1 6191   1.453   4.146   2.727
 1764SOL    HW2 6192   1.343   4.069   2.634
 1765SOL     OW 6193   3.612   2.212   6.863
 1765SOL    HW1 6194   3.533   2.225   6.804
 1765SOL    HW2 6195   3.584   2.218   6.959
 1766SOL     OW 6196   4.985   3.346   3.904
 1766SOL    HW1 6197   5.013   3.442   3.900
 1766SOL    HW2 6198   5.023   3.297   3.826
 1767SOL     OW 6199   6.073   3.543   3.043
 1767SOL    HW1 6200   6.032   3.471   3.099
 1767SOL    HW2 6201   6.156   3.577   3.088
 1768SOL     OW 6202   3.625   1.668   4.631
 1768SOL    HW1 6203   3.669   1.630   4.712
 1768SOL    HW2 6204   3.599   1.593   4.570
 1769SOL     OW 6205   4.339   2.307   4.875
 1769SOL    HW1 6206   4.278   2.280   4.801
 1769SOL    HW2 6207   4.288   2.363   4.941
 1770SOL     OW 6208   0.728   5.359   4.601
 1770SOL    HW1 6209   0.735   5.271   4.553
 1770SOL    HW2 6210   0.644   5.405   4.573
 1771SOL     OW 6211   2.854   5.330   0.581
 1771SOL    HW1 6212   2.870   5.233   0.563
 1771SOL    HW2 6213   2.761   5.343   0.613
 1772SOL     OW 6214   3.208   6.993   3.721
 1772SOL    HW1 6215   3.173   6.901   3.734
 1772SOL    HW2 6216   3.272   6.995   3.645
 1773SOL     OW 6217   2.595   4.743   6.244
 1773SOL    HW1 6218   2.609   4.645   6.227
 1773SOL    HW2 6219   2.532   4.755   6.320
 1774SOL     OW 6220   4.248   6.750   1.763
 1774SOL    HW1 6221   4.235   6.808   1.683
 1774SOL    HW2 6222   4.187   6.670   1.757
 1775SOL     OW 6223   1.025   4.759   4.185
 1775SOL    HW1 6224   0.945   4.741   4.243
 1775SOL    HW2 6225   1.102   4.704   4.217
 1776SOL     OW 6226   3.213   0.173   3.892
 1776SOL    HW1 6227   3.291   0.236   3.891
 1776SOL    HW2 6228   3.219   0.112   3.813
 1777SOL     OW 6229   2.838   5.316   5.666
 1777SOL    HW1 6230   2.832   5.372   5.584
 1777SOL    HW2 6231   2.919   5.257   5.661
 1778SOL     OW 6232   4.668   3.323   5.729
 1778SOL    HW1 6233   4.572   3.294   5.722
 1778SOL    HW2 6234   4.702   3.345   5.638
 1779SOL     OW 6235   4.106   1.121   4.633
 1779SOL    HW1 6236   4.164   1.137   4.553
 1779SOL    HW2 6237   4.014   1.156   4.614
 1780SOL     OW 6238   3.395   3.150   6.122
 1780SOL    HW1 6239   3.448   3.194   6.194
 1780SOL    HW2 6240   3.457   3.112   6.053
 1781SOL     OW 6241   4.546   5.579   3.816
 1781SOL    HW1 6242   4.563   5.522   3.735
 1781SOL    HW2 6243   4.605   5.549   3.891
 1782SOL     OW 6244   3.609   1.573   2.399
 1782SOL    HW1 6245   3.580   1.649   2.340
 1782SOL    HW2 6246   3.551   1.569   2.480
 1783SOL     OW 6247   1.455   4.639   6.447
 1783SOL    HW1 6248   1.530   4.577   6.472
 1783SOL    HW2 6249   1.457   4.654   6.348
 1784SOL     OW 6250   3.880   1.276   5.875
 1784SOL    HW1 6251   3.892   1.222   5.792
 1784SOL    HW2 6252   3.823   1.225   5.940
 1785SOL     OW 6253   6.529   5.200   3.685
 1785SOL    HW1 6254   6.456   5.247   3.637
 1785SOL    HW2 6255   6.617   5.220   3.642
 1786SOL     OW 6256   1.042   2.627   1.049
 1786SOL    HW1 6257   1.139   2.642   1.030
 1786SOL    HW2 6258   0.990   2.709   1.022
 1787SOL     OW 6259   2.279   0.915   5.204
 1787SOL    HW1 6260   2.307   0.832   5.157
 1787SOL    HW2 6261   2.262   0.987   5.136
 1788SOL     OW 6262   3.594   3.043   7.028
 1788SOL    HW1 6263   3.533   3.114   0.034
 1788SOL    HW2 6264   3.601   2.968   0.063
 1789SOL     OW 6265   6.276   2.159   3.397
 1789SOL    HW1 6266   6.204   2.197   3.455
 1789SOL    HW2 6267   6.353   2.223   3.394
 1790SOL     OW 6268   3.987   6.150   4.001
 1790SOL    HW1 6269   3.980   6.249   3.985
 1790SOL    HW2 6270   3.981   6.102   3.913
 1791SOL     OW 6271   6.742   0.881   3.628
 1791SOL    HW1 6272   6.838   0.901   3.642
 1791SOL    HW2 6273   6.712   0.811   3.693
 1792SOL     OW 6274   6.819   3.071   4.444
 1792SOL    HW1 6275   6.813   2.975   4.415
 1792SOL    HW2 6276   6.732   3.117   4.429
 1793SOL     OW 6277   6.846   6.817   3.231
 1793SOL    HW1 6278   6.867   6.787   3.324
 1793SOL    HW2 6279   6.904   6.768   3.167
 1794SOL     OW 6280   5.817   6.225   6.027
 1794SOL    HW1 6281   5.773   6.223   5.937
 1794SOL    HW2 6282   5.817   6.319   6.062
 1795SOL     OW 6283   0.774   2.763   1.279
 1795SOL    HW1 6284   0.731   2.814   1.205
 1795SOL    HW2 6285   0.734   2.671   1.284
 1796SOL     OW 6286   2.356   0.453   4.160
 1796SOL    HW1 6287   2.291   0.526   4.176
 1796SOL    HW2 6288   2.340   0.412   4.070
 1797SOL     OW 6289   1.286   0.390   6.880
 1797SOL    HW1 6290   1.199   0.435   6.858
 1797SOL    HW2 6291   1.360   0.456   6.874
 1798SOL     OW 6292   5.022   2.055   4.437
 1798SOL    HW1 6293   5.118   2.038   4.417
 1798SOL    HW2 6294   4.976   2.092   4.356
 1799SOL     OW 6295   6.327   1.937   5.760
 1799SOL    HW1 6296   6.294   1.872   5.692
 1799SOL    HW2 6297   6.391   1.891   5.822
 1800SOL     OW 6298   3.834   4.872   2.525
 1800SOL    HW1 6299   3.854   4.775   2.518
 1800SOL    HW2 6300   3.888   4.922   2.457
 1801SOL     OW 6301   0.372   0.691   2.307
 1801SOL    HW1 6302   0.431   0.626   2.259
 1801SOL    HW2 6303   0.277   0.676   2.280
 1802SOL     OW 6304   5.587   5.251   2.829
 1802SOL    HW1 6305   5.535   5.169   2.804
 1802SOL    HW2 6306   5.526   5.330   2.827
 1803SOL     OW 6307   0.298   6.446   6.855
 1803SOL    HW1 6308   0.350   6.460   6.771
 1803SOL    HW2 6309   0.322   6.516   6.922
 1804SOL     OW 6310   2.113   3.896   5.419
 1804SOL    HW1 6311   2.181   3.823   5.426
 1804SOL    HW2 6312   2.093   3.931   5.510
 1805SOL     OW 6313   6.165   4.213   5.644
 1805SOL    HW1 6314   6.129   4.175   5.558
 1805SOL    HW2 6315   6.130   4.160   5.721
 1806SOL     OW 6316   1.090   1.015   0.573
 1806SOL    HW1 6317   1.087   0.945   0.644
 1806SOL    HW2 6318   0.997   1.042   0.549
 1807SOL     OW 6319   4.990   2.666   5.535
 1807SOL    HW1 6320   4.893   2.648   5.518
 1807SOL    HW2 6321   5.037   2.681   5.448
 1808SOL     OW 6322   0.727   3.911   6.032
 1808SOL    HW1 6323   0.715   3.945   6.125
 1808SOL    HW2 6324   0.816   3.868   6.022
 1809SOL     OW 6325   2.143   2.456   4.564
 1809SOL    HW1 6326   2.200   2.495   4.636
 1809SOL    HW2 6327   2.098   2.530   4.514
 1810SOL     OW 6328   3.060   0.184   3.410
 1810SOL    HW1 6329   3.064   0.256   3.480
 1810SOL    HW2 6330   3.024   0.100   3.451
 1811SOL     OW 6331   4.906   4.685   3.708
 1811SOL    HW1 6332   4.862   4.617   3.650
 1811SOL    HW2 6333   4.909   4.651   3.802
 1812SOL     OW 6334   4.285   6.493   5.233
 1812SOL    HW1 6335   4.320   6.586   5.223
 1812SOL    HW2 6336   4.187   6.496   5.252
 1813SOL     OW 6337   6.142   5.020   0.874
 1813SOL    HW1 6338   6.174   5.105   0.831
 1813SOL    HW2 6339   6.133   5.033   0.972
 1814SOL     OW 6340   6.325   1.728   0.203
 1814SOL    HW1 6341   6.343   1.671   0.283
 1814SOL    HW2 6342   6.411   1.754   0.159
 1815SOL     OW 6343   5.905   1.923   2.057
 1815SOL    HW1 6344   5.895   1.992   2.129
 1815SOL    HW2 6345   5.997   1.929   2.018
 1816SOL     OW 6346   2.386   3.915   0.941
 1816SOL    HW1 6347   2.343   3.892   1.028
 1816SOL    HW2 6348   2.386   4.015   0.929
 1817SOL     OW 6349   3.539   0.293   2.976
 1817SOL    HW1 6350   3.495   0.373   2.935
 1817SOL    HW2 6351   3.484   0.262   3.054
 1818SOL     OW 6352   1.962   6.251   2.912
 1818SOL    HW1 6353   1.882   6.284   2.861
 1818SOL    HW2 6354   1.974   6.154   2.895
 1819SOL     OW 6355   0.705   5.173   1.676
 1819SOL    HW1 6356   0.719   5.235   1.599
 1819SOL    HW2 6357   0.608   5.155   1.688
 1820SOL     OW 6358   4.998   0.771   2.108
 1820SOL    HW1 6359   4.995   0.671   2.116
 1820SOL    HW2 6360   4.949   0.799   2.026
 1821SOL     OW 6361   1.525   0.766   1.703
 1821SOL    HW1 6362   1.522   0.725   1.794
 1821SOL    HW2 6363   1.575   0.853   1.707
 1822SOL     OW 6364   2.041   2.544   1.693
 1822SOL    HW1 6365   2.062   2.642   1.694
 1822SOL    HW2 6366   2.115   2.494   1.737
 1823SOL     OW 6367   3.071   6.046   3.048
 1823SOL    HW1 6368   3.151   6.010   3.001
 1823SOL    HW2 6369   3.092   6.057   3.145
 1824SOL     OW 6370   3.135   2.643   1.607
 1824SOL    HW1 6371   3.067   2.573   1.587
 1824SOL    HW2 6372   3.209   2.603   1.661
 1825SOL     OW 6373   1.481   1.408   3.580
 1825SOL    HW1 6374   1.546   1.466   3.530
 1825SOL    HW2 6375   1.468   1.322   3.531
 1826SOL     OW 6376   3.101   6.895   1.016
 1826SOL    HW1 6377   3.037   6.848   0.955
 1826SOL    HW2 6378   3.133   6.979   0.971
 1827SOL     OW 6379   6.830   6.012   1.712
 1827SOL    HW1 6380   6.812   6.106   1.739
 1827SOL    HW2 6381   6.921   5.985   1.746
 1828SOL     OW 6382   1.325   2.383   0.743
 1828SOL    HW1 6383   1.354   2.377   0.839
 1828SOL    HW2 6384   1.373   2.314   0.689
 1829SOL     OW 6385   3.765   0.195   3.382
 1829SOL    HW1 6386   3.677   0.239   3.403
 1829SOL    HW2 6387   3.754   0.096   3.384
 1830SOL     OW 6388   6.117   5.816   4.094
 1830SOL    HW1 6389   6.108   5.811   4.193
 1830SOL    HW2 6390   6.185   5.750   4.063
 1831SOL     OW 6391   6.095   0.091   1.935
 1831SOL    HW1 6392   6.047   0.091   2.023
 1831SOL    HW2 6393   6.171   0.156   1.939
 1832SOL     OW 6394   5.366   1.195   1.225
 1832SOL    HW1 6395   5.283   1.143   1.244
 1832SOL    HW2 6396   5.346   1.293   1.235
 1833SOL     OW 6397   5.456   0.128   5.726
 1833SOL    HW1 6398   5.415   0.209   5.685
 1833SOL    HW2 6399   5.391   0.085   5.788
 1834SOL     OW 6400   2.437   4.082   0.487
 1834SOL    HW1 6401   2.403   4.164   0.533
 1834SOL    HW2 6402   2.500   4.034   0.547
 1835SOL     OW 6403   1.525   3.500   1.569
 1835SOL    HW1 6404   1.555   3.593   1.547
 1835SOL    HW2 6405   1.565   3.471   1.656
 1836SOL     OW 6406   5.261   1.747   0.852
 1836SOL    HW1 6407   5.333   1.680   0.835
 1836SOL    HW2 6408   5.206   1.719   0.930
 1837SOL     OW 6409   1.003   2.107   4.389
 1837SOL    HW1 6410   0.998   2.019   4.342
 1837SOL    HW2 6411   1.098   2.136   4.394
 1838SOL     OW 6412   0.114   1.692   4.357
 1838SOL    HW1 6413   0.053   1.697   4.436
 1838SOL    HW2 6414   0.089   1.614   4.300
 1839SOL     OW 6415   5.212   3.183   4.931
 1839SOL    HW1 6416   5.264   3.166   5.015
 1839SOL    HW2 6417   5.233   3.112   4.865
 1840SOL     OW 6418   3.754   5.960   1.721
 1840SOL    HW1 6419   3.712   6.030   1.663
 1840SOL    HW2 6420   3.746   5.871   1.676
 1841SOL     OW 6421   2.406   1.638   4.145
 1841SOL    HW1 6422   2.441   1.546   4.161
 1841SOL    HW2 6423   2.349   1.667   4.222
 1842SOL     OW 6424   0.948   5.580   0.521
 1842SOL    HW1 6425   1.043   5.602   0.543
 1842SOL    HW2 6426   0.917   5.503   0.577
 1843SOL     OW 6427   6.817   1.928   4.113
 1843SOL    HW1 6428   6.804   1.837   4.153
 1843SOL    HW2 6429   6.757   1.993   4.159
 1844SOL     OW 6430   3.929   0.022   5.366
 1844SOL    HW1 6431   3.863   0.092   5.393
 1844SOL    HW2 6432   3.927   6.977   5.432
 1845SOL     OW 6433   1.947   6.833   4.928
 1845SOL    HW1 6434   1.900   6.918   4.906
 1845SOL    HW2 6435   1.889   6.756   4.903
 1846SOL     OW 6436   4.060   2.345   0.188
 1846SOL    HW1 6437   4.098   2.256   0.212
 1846SOL    HW2 6438   3.975   2.332   0.136
 1847SOL     OW 6439   1.106   0.581   5.952
 1847SOL    HW1 6440   1.055   0.557   6.035
 1847SOL    HW2 6441   1.204   0.587   5.974
 1848SOL     OW 6442   0.549   6.834   2.511
 1848SOL    HW1 6443   0.566   6.736   2.501
 1848SOL    HW2 6444   0.526   6.873   2.421
 1849SOL     OW 6445   3.524   1.904   0.930
 1849SOL    HW1 6446   3.622   1.916   0.918
 1849SOL    HW2 6447   3.476   1.982   0.890
 1850SOL     OW 6448   0.217   3.182   2.358
 1850SOL    HW1 6449   0.200   3.275   2.326
 1850SOL    HW2 6450   0.316   3.167   2.365
 1851SOL     OW 6451   0.316   2.421   1.450
 1851SOL    HW1 6452   0.357   2.332   1.468
 1851SOL    HW2 6453   0.217   2.416   1.464
 1852SOL     OW 6454   6.004   3.730   2.165
 1852SOL    HW1 6455   5.962   3.689   2.084
 1852SOL    HW2 6456   6.072   3.797   2.136
 1853SOL     OW 6457   0.189   3.400   3.231
 1853SOL    HW1 6458   0.278   3.419   3.272
 1853SOL    HW2 6459   0.126   3.366   3.301
 1854SOL     OW 6460   2.382   6.372   3.396
 1854SOL    HW1 6461   2.378   6.420   3.308
 1854SOL    HW2 6462   2.318   6.295   3.395
 1855SOL     OW 6463   5.110   4.095   6.780
 1855SOL    HW1 6464   5.094   3.998   6.794
 1855SOL    HW2 6465   5.047   4.148   6.837
 1856SOL     OW 6466   6.454   3.681   5.558
 1856SOL    HW1 6467   6.516   3.758   5.574
 1856SOL    HW2 6468   6.368   3.695   5.607
 1857SOL     OW 6469   4.071   1.005   6.045
 1857SOL    HW1 6470   3.999   1.017   6.113
 1857SOL    HW2 6471   4.030   0.995   5.954
 1858SOL     OW 6472   5.849   3.342   3.284
 1858SOL    HW1 6473   5.892   3.403   3.351
 1858SOL    HW2 6474   5.903   3.258   3.276
 1859SOL     OW 6475   4.419   1.677   3.364
 1859SOL    HW1 6476   4.371   1.708   3.446
 1859SOL    HW2 6477   4.367   1.603   3.321
 1860SOL     OW 6478   0.010   0.711   3.872
 1860SOL    HW1 6479   7.027   0.800   3.915
 1860SOL    HW2 6480   0.013   0.640   3.941
 1861SOL     OW 6481   5.354   0.211   2.394
 1861SOL    HW1 6482   5.278   0.177   2.451
 1861SOL    HW2 6483   5.439   0.204   2.446
 1862SOL     OW 6484   2.535   0.535   6.456
 1862SOL    HW1 6485   2.554   0.474   6.379
 1862SOL    HW2 6486   2.568   0.627   6.435
 1863SOL     OW 6487   1.735   1.244   0.978
 1863SOL    HW1 6488   1.790   1.182   0.922
 1863SOL    HW2 6489   1.740   1.215   1.074
 1864SOL     OW 6490   0.891   6.725   5.949
 1864SOL    HW1 6491   0.918   6.753   6.042
 1864SOL    HW2 6492   0.829   6.794   5.911
 1865SOL     OW 6493   3.498   0.141   6.081
 1865SOL    HW1 6494   3.523   0.226   6.035
 1865SOL    HW2 6495   3.578   0.102   6.127
 1866SOL     OW 6496   4.095   4.827   3.489
 1866SOL    HW1 6497   4.124   4.770   3.412
 1866SOL    HW2 6498   4.155   4.907   3.496
 1867SOL     OW 6499   0.562   3.889   6.878
 1867SOL    HW1 6500   0.480   3.833   6.887
 1867SOL    HW2 6501   0.580   3.937   6.964
 1868SOL     OW 6502   4.506   4.492   0.080
 1868SOL    HW1 6503   4.406   4.481   0.086
 1868SOL    HW2 6504   4.537   4.552   0.154
 1869SOL     OW 6505   6.041   2.679   5.587
 1869SOL    HW1 6506   6.030   2.579   5.584
 1869SOL    HW2 6507   6.100   2.703   5.664
 1870SOL     OW 6508   2.079   2.669   5.900
 1870SOL    HW1 6509   2.069   2.591   5.838
 1870SOL    HW2 6510   2.141   2.736   5.860
 1871SOL     OW 6511   0.410   0.706   6.853
 1871SOL    HW1 6512   0.311   0.689   6.856
 1871SOL    HW2 6513   0.428   0.803   6.868
 1872SOL     OW 6514   3.613   2.382   6.540
 1872SOL    HW1 6515   3.637   2.475   6.511
 1872SOL    HW2 6516   3.688   2.320   6.519
 1873SOL     OW 6517   4.885   1.803   6.022
 1873SOL    HW1 6518   4.810   1.820   5.957
 1873SOL    HW2 6519   4.971   1.798   5.973
 1874SOL     OW 6520   3.441   1.175   1.284
 1874SOL    HW1 6521   3.528   1.187   1.235
 1874SOL    HW2 6522   3.408   1.264   1.316
 1875SOL     OW 6523   0.329   1.186   0.178
 1875SOL    HW1 6524   0.291   1.185   0.086
 1875SOL    HW2 6525   0.294   1.265   0.228
 1876SOL     OW 6526   4.106   6.747   5.911
 1876SOL    HW1 6527   4.086   6.656   5.875
 1876SOL    HW2 6528   4.203   6.767   5.899
 1877SOL     OW 6529   0.494   6.991   2.287
 1877SOL    HW1 6530   0.538   0.050   2.277
 1877SOL    HW2 6531   0.396   7.004   2.300
 1878SOL     OW 6532   6.824   2.084   3.540
 1878SOL    HW1 6533   6.754   2.153   3.519
 1878SOL    HW2 6534   6.844   2.031   3.458
 1879SOL     OW 6535   1.386   4.318   4.230
 1879SOL    HW1 6536   1.444   4.267   4.167
 1879SOL    HW2 6537   1.414   4.299   4.325
 1880SOL     OW 6538   0.008   1.723   4.606
 1880SOL    HW1 6539   0.058   1.684   4.683
 1880SOL    HW2 6540   7.008   1.815   4.629
 1881SOL     OW 6541   5.816   2.020   3.594
 1881SOL    HW1 6542   5.734   2.003   3.648
 1881SOL    HW2 6543   5.879   1.942   3.601
 1882SOL     OW 6544   1.551   4.012   6.056
 1882SOL    HW1 6545   1.574   3.921   6.092
 1882SOL    HW2 6546   1.502   4.001   5.969
 1883SOL     OW 6547   0.200   1.845   3.269
 1883SOL    HW1 6548   0.170   1.762   3.317
 1883SOL    HW2 6549   0.298   1.839   3.250
 1884SOL     OW 6550   0.127   2.322   1.019
 1884SOL    HW1 6551   0.091   2.412   1.040
 1884SOL    HW2 6552   0.186   2.291   1.094
 1885SOL     OW 6553   1.873   2.261   6.632
 1885SOL    HW1 6554   1.911   2.169   6.637
 1885SOL    HW2 6555   1.946   2.326   6.609
 1886SOL     OW 6556   1.785   0.945   1.749
 1886SOL    HW1 6557   1.860   0.985   1.802
 1886SOL    HW2 6558   1.815   0.857   1.712
 1887SOL     OW 6559   1.215   5.970   4.754
 1887SOL    HW1 6560   1.129   5.995   4.708
 1887SOL    HW2 6561   1.210   5.997   4.850
 1888SOL     OW 6562   3.180   2.382   0.415
 1888SOL    HW1 6563   3.233   2.433   0.483
 1888SOL    HW2 6564   3.197   2.284   0.427
 1889SOL     OW 6565   7.029   2.849   5.767
 1889SOL    HW1 6566   6.953   2.824   5.707
 1889SOL    HW2 6567   7.009   2.937   5.811
 1890SOL     OW 6568   1.397   6.274   4.222
 1890SOL    HW1 6569   1.334   6.303   4.294
 1890SOL    HW2 6570   1.454   6.351   4.194
 1891SOL     OW 6571   5.570   2.289   1.950
 1891SOL    HW1 6572   5.636   2.354   1.912
 1891SOL    HW2 6573   5.487   2.337   1.977
 1892SOL     OW 6574   1.945   0.521   2.456
 1892SOL    HW1 6575   1.894   0.477   2.529
 1892SOL    HW2 6576   2.043   0.517   2.477
 1893SOL     OW 6577   3.110   3.752   0.838
 1893SOL    HW1 6578   3.184   3.709   0.889
 1893SOL    HW2 6579   3.070   3.685   0.775
 1894SOL     OW 6580   3.386   4.089   3.775
 1894SOL    HW1 6581   3.483   4.105   3.793
 1894SOL    HW2 6582   3.332   4.125   3.852
 1895SOL     OW 6583   4.540   0.639   1.889
 1895SOL    HW1 6584   4.448   0.616   1.857
 1895SOL    HW2 6585   4.539   0.728   1.933
 1896SOL     OW 6586   5.168   0.939   1.547
 1896SOL    HW1 6587   5.258   0.914   1.585
 1896SOL    HW2 6588   5.121   0.999   1.611
 1897SOL     OW 6589   2.406   5.624   1.481
 1897SOL    HW1 6590   2.418   5.714   1.522
 1897SOL    HW2 6591   2.333   5.575   1.529
 1898SOL     OW 6592   2.392   5.615   3.830
 1898SOL    HW1 6593   2.444   5.530   3.817
 1898SOL    HW2 6594   2.403   5.673   3.750
 1899SOL     OW 6595   0.382   1.115   1.590
 1899SOL    HW1 6596   0.380   1.055   1.670
 1899SOL    HW2 6597   0.445   1.190   1.606
 1900SOL     OW 6598   2.105   0.367   6.639
 1900SOL    HW1 6599   2.112   0.467   6.638
 1900SOL    HW2 6600   2.173   0.329   6.703
 1901SOL     OW 6601   1.787   1.990   1.095
 1901SOL    HW1 6602   1.849   1.918   1.127
 1901SOL    HW2 6603   1.839   2.073   1.076
 1902SOL     OW 6604   1.905   0.938   5.106
 1902SOL    HW1 6605   1.956   1.021   5.126
 1902SOL    HW2 6606   1.859   0.906   5.188
 1903SOL     OW 6607   0.368   3.673   2.596
 1903SOL    HW1 6608   0.407   3.682   2.505
 1903SOL    HW2 6609   0.418   3.732   2.660
 1904SOL     OW 6610   5.659   5.691   3.754
 1904SOL    HW1 6611   5.732   5.627   3.774
 1904SOL    HW2 6612   5.682   5.744   3.672
 1905SOL     OW 6613   1.083   0.290   3.528
 1905SOL    HW1 6614   1.171   0.241   3.529
 1905SOL    HW2 6615   1.027   0.256   3.452
 1906SOL     OW 6616   1.957   0.093   4.531
 1906SOL    HW1 6617   1.893   0.113   4.457
 1906SOL    HW2 6618   2.009   0.175   4.553
 1907SOL     OW 6619   3.865   1.650   1.732
 1907SOL    HW1 6620   3.790   1.691   1.680
 1907SOL    HW2 6621   3.906   1.719   1.791
 1908SOL     OW 6622   3.584   6.606   5.733
 1908SOL    HW1 6623   3.667   6.652   5.763
 1908SOL    HW2 6624   3.572   6.521   5.785
 1909SOL     OW 6625   0.743   3.616   2.980
 1909SOL    HW1 6626   0.805   3.695   2.975
 1909SOL    HW2 6627   0.672   3.635   3.048
 1910SOL     OW 6628   0.034   5.352   5.956
 1910SOL    HW1 6629   0.130   5.332   5.973
 1910SOL    HW2 6630   7.016   5.365   6.043
 1911SOL     OW 6631   0.032   3.707   5.051
 1911SOL    HW1 6632   0.092   3.669   5.120
 1911SOL    HW2 6633   6.967   3.695   5.079
 1912SOL     OW 6634   3.127   5.779   1.079
 1912SOL    HW1 6635   3.125   5.871   1.040
 1912SOL    HW2 6636   3.041   5.732   1.058
 1913SOL     OW 6637   2.533   0.188   4.744
 1913SOL    HW1 6638   2.556   0.255   4.816
 1913SOL    HW2 6639   2.608   0.123   4.735
 1914SOL     OW 6640   4.034   3.210   6.666
 1914SOL    HW1 6641   4.078   3.123   6.645
 1914SOL    HW2 6642   3.959   3.226   6.602
 1915SOL     OW 6643   3.654   2.496   5.463
 1915SOL    HW1 6644   3.619   2.412   5.421
 1915SOL    HW2 6645   3.585   2.535   5.523
 1916SOL     OW 6646   4.079   5.410   1.291
 1916SOL    HW1 6647   4.105   5.464   1.370
 1916SOL    HW2 6648   4.142   5.430   1.215
 1917SOL     OW 6649   2.248   2.888   6.757
 1917SOL    HW1 6650   2.313   2.862   6.829
 1917SOL    HW2 6651   2.237   2.988   6.757
 1918SOL     OW 6652   1.362   1.708   4.892
 1918SOL    HW1 6653   1.424   1.637   4.926
 1918SOL    HW2 6654   1.414   1.779   4.845
 1919SOL     OW 6655   1.251   1.783   2.260
 1919SOL    HW1 6656   1.337   1.806   2.214
 1919SOL    HW2 6657   1.246   1.831   2.347
 1920SOL     OW 6658   0.373   3.975   2.970
 1920SOL    HW1 6659   0.395   3.945   3.063
 1920SOL    HW2 6660   0.276   3.962   2.953
 1921SOL     OW 6661   1.611   3.842   6.632
 1921SOL    HW1 6662   1.678   3.840   6.558
 1921SOL    HW2 6663   1.574   3.935   6.640
 1922SOL     OW 6664   3.031   3.417   1.623
 1922SOL    HW1 6665   3.040   3.391   1.719
 1922SOL    HW2 6666   2.939   3.392   1.591
 1923SOL     OW 6667   4.189   1.767   6.135
 1923SOL    HW1 6668   4.153   1.789   6.225
 1923SOL    HW2 6669   4.267   1.825   6.115
 1924SOL     OW 6670   4.480   6.601   0.152
 1924SOL    HW1 6671   4.492   6.520   0.210
 1924SOL    HW2 6672   4.560   6.611   0.093
 1925SOL     OW 6673   1.417   4.730   0.696
 1925SOL    HW1 6674   1.409   4.810   0.756
 1925SOL    HW2 6675   1.470   4.659   0.743
 1926SOL     OW 6676   3.142   6.667   2.657
 1926SOL    HW1 6677   3.205   6.713   2.593
 1926SOL    HW2 6678   3.082   6.606   2.606
 1927SOL     OW 6679   2.583   4.763   0.386
 1927SOL    HW1 6680   2.592   4.851   0.434
 1927SOL    HW2 6681   2.595   4.777   0.288
 1928SOL     OW 6682   6.018   4.282   4.564
 1928SOL    HW1 6683   5.951   4.344   4.523
 1928SOL    HW2 6684   6.078   4.334   4.625
 1929SOL     OW 6685   2.667   0.370   1.296
 1929SOL    HW1 6686   2.708   0.437   1.359
 1929SOL    HW2 6687   2.669   0.406   1.203
 1930SOL     OW 6688   5.443   3.750   6.598
 1930SOL    HW1 6689   5.423   3.795   6.511
 1930SOL    HW2 6690   5.476   3.818   6.664
 1931SOL     OW 6691   0.942   2.426   0.889
 1931SOL    HW1 6692   0.994   2.486   0.950
 1931SOL    HW2 6693   0.847   2.422   0.920
 1932SOL     OW 6694   4.884   2.637   3.304
 1932SOL    HW1 6695   4.935   2.566   3.255
 1932SOL    HW2 6696   4.787   2.610   3.310
 1933SOL     OW 6697   1.421   3.109   0.837
 1933SOL    HW1 6698   1.420   3.124   0.738
 1933SOL    HW2 6699   1.384   3.190   0.883
 1934SOL     OW 6700   6.913   1.476   4.896
 1934SOL    HW1 6701   6.836   1.518   4.850
 1934SOL    HW2 6702   6.882   1.430   4.980
 1935SOL     OW 6703   4.799   4.834   3.267
 1935SOL    HW1 6704   4.701   4.819   3.273
 1935SOL    HW2 6705   4.828   4.896   3.340
 1936SOL     OW 6706   4.736   4.132   3.833
 1936SOL    HW1 6707   4.777   4.116   3.744
 1936SOL    HW2 6708   4.664   4.201   3.824
 1937SOL     OW 6709   3.971   6.243   0.149
 1937SOL    HW1 6710   3.927   6.309   0.210
 1937SOL    HW2 6711   4.027   6.180   0.203
 1938SOL     OW 6712   1.632   2.172   1.213
 1938SOL    HW1 6713   1.696   2.098   1.190
 1938SOL    HW2 6714   1.545   2.133   1.242
 1939SOL     OW 6715   6.818   6.588   4.718
 1939SOL    HW1 6716   6.797   6.510   4.779
 1939SOL    HW2 6717   6.829   6.671   4.773
 1940SOL     OW 6718   6.246   4.616   1.411
 1940SOL    HW1 6719   6.310   4.566   1.353
 1940SOL    HW2 6720   6.287   4.628   1.502
 1941SOL     OW 6721   1.855   2.906   4.028
 1941SOL    HW1 6722   1.880   2.918   4.124
 1941SOL    HW2 6723   1.854   2.809   4.006
 1942SOL     OW 6724   5.634   2.758   2.490
 1942SOL    HW1 6725   5.619   2.813   2.572
 1942SOL    HW2 6726   5.680   2.814   2.421
 1943SOL     OW 6727   1.594   0.222   2.968
 1943SOL    HW1 6728   1.504   0.254   2.936
 1943SOL    HW2 6729   1.648   0.300   2.999
 1944SOL     OW 6730   5.852   3.702   0.423
 1944SOL    HW1 6731   5.927   3.696   0.358
 1944SOL    HW2 6732   5.793   3.622   0.415
 1945SOL     OW 6733   3.896   5.620   6.776
 1945SOL    HW1 6734   3.828   5.587   6.710
 1945SOL    HW2 6735   3.874   5.584   6.867
 1946SOL     OW 6736   5.707   0.371   1.184
 1946SOL    HW1 6737   5.634   0.397   1.121
 1946SOL    HW2 6738   5.744   0.282   1.157
 1947SOL     OW 6739   5.420   5.939   4.052
 1947SOL    HW1 6740   5.421   6.038   4.069
 1947SOL    HW2 6741   5.457   5.891   4.132
 1948SOL     OW 6742   6.134   5.195   2.751
 1948SOL    HW1 6743   6.094   5.158   2.667
 1948SOL    HW2 6744   6.119   5.294   2.754
 1949SOL     OW 6745   4.060   3.420   0.122
 1949SOL    HW1 6746   4.066   3.337   0.068
 1949SOL    HW2 6747   3.966   3.454   0.121
 1950SOL     OW 6748   3.552   2.887   2.820
 1950SOL    HW1 6749   3.468   2.936   2.795
 1950SOL    HW2 6750   3.629   2.922   2.766
 1951SOL     OW 6751   7.010   4.615   6.474
 1951SOL    HW1 6752   6.952   4.536   6.456
 1951SOL    HW2 6753   0.049   4.590   6.541
 1952SOL     OW 6754   5.782   4.675   1.161
 1952SOL    HW1 6755   5.783   4.771   1.135
 1952SOL    HW2 6756   5.687   4.643   1.164
 1953SOL     OW 6757   6.856   1.790   5.829
 1953SOL    HW1 6758   6.933   1.792   5.764
 1953SOL    HW2 6759   6.847   1.698   5.867
 1954SOL     OW 6760   6.272   0.346   1.284
 1954SOL    HW1 6761   6.202   0.386   1.226
 1954SOL    HW2 6762   6.244   0.254   1.313
 1955SOL     OW 6763   0.616   0.356   2.478
 1955SOL    HW1 6764   0.528   0.368   2.524
 1955SOL    HW2 6765   0.646   0.444   2.440
 1956SOL     OW 6766   4.500   0.253   1.909
 1956SOL    HW1 6767   4.473   0.252   2.006
 1956SOL    HW2 6768   4.578   0.313   1.896
 1957SOL     OW 6769   5.120   4.534   3.897
 1957SOL    HW1 6770   5.181   4.567   3.825
 1957SOL    HW2 6771   5.107   4.606   3.965
 1958SOL     OW 6772   4.886   1.429   1.804
 1958SOL    HW1 6773   4.949   1.391   1.871
 1958SOL    HW2 6774   4.836   1.506   1.845
 1959SOL     OW 6775   0.557   0.098   3.935
 1959SOL    HW1 6776   0.628   0.141   3.991
 1959SOL    HW2 6777   0.476   0.157   3.935
 1960SOL     OW 6778   0.500   3.738   2.299
 1960SOL    HW1 6779   0.507   3.642   2.269
 1960SOL    HW2 6780   0.572   3.791   2.254
 1961SOL     OW 6781   6.042   4.036   4.431
 1961SOL    HW1 6782   6.088   4.079   4.353
 1961SOL    HW2 6783   6.040   4.101   4.508
 1962SOL     OW 6784   1.523   6.624   2.508
 1962SOL    HW1 6785   1.545   6.703   2.451
 1962SOL    HW2 6786   1.428   6.629   2.537
 1963SOL     OW 6787   1.290   1.815   1.443
 1963SOL    HW1 6788   1.383   1.782   1.459
 1963SOL    HW2 6789   1.273   1.823   1.345
 1964SOL     OW 6790   3.640   5.110   1.544
 1964SOL    HW1 6791   3.728   5.080   1.507
 1964SOL    HW2 6792   3.648   5.204   1.577
 1965SOL     OW 6793   1.714   2.396   4.656
 1965SOL    HW1 6794   1.730   2.337   4.576
 1965SOL    HW2 6795   1.787   2.382   4.722
 1966SOL     OW 6796   1.375   5.610   1.381
 1966SOL    HW1 6797   1.454   5.581   1.326
 1966SOL    HW2 6798   1.291   5.570   1.343
 1967SOL     OW 6799   6.281   2.670   4.123
 1967SOL    HW1 6800   6.314   2.748   4.176
 1967SOL    HW2 6801   6.318   2.586   4.162
 1968SOL     OW 6802   2.489   0.725   5.739
 1968SOL    HW1 6803   2.529   0.669   5.666
 1968SOL    HW2 6804   2.390   0.729   5.728
 1969SOL     OW 6805   2.925   1.275   1.404
 1969SOL    HW1 6806   3.007   1.225   1.434
 1969SOL    HW2 6807   2.919   1.271   1.304
 1970SOL     OW 6808   0.494   0.343   5.106
 1970SOL    HW1 6809   0.483   0.326   5.204
 1970SOL    HW2 6810   0.514   0.257   5.059
 1971SOL     OW 6811   0.238   1.035   5.647
 1971SOL    HW1 6812   0.192   0.954   5.682
 1971SOL    HW2 6813   0.205   1.055   5.555
 1972SOL     OW 6814   6.018   2.607   0.929
 1972SOL    HW1 6815   5.919   2.605   0.943
 1972SOL    HW2 6816   6.058   2.523   0.963
 1973SOL     OW 6817   2.739   4.255   1.539
 1973SOL    HW1 6818   2.726   4.354   1.528
 1973SOL    HW2 6819   2.679   4.206   1.476
 1974SOL     OW 6820   4.878   6.966   4.569
 1974SOL    HW1 6821   4.895   7.005   4.660
 1974SOL    HW2 6822   4.956   6.910   4.542
 1975SOL     OW 6823   2.044   1.988   4.265
 1975SOL    HW1 6824   1.967   1.995   4.202
 1975SOL    HW2 6825   2.062   2.078   4.306
 1976SOL     OW 6826   5.555   5.769   0.679
 1976SOL    HW1 6827   5.582   5.729   0.591
 1976SOL    HW2 6828   5.459   5.749   0.696
 1977SOL     OW 6829   1.818   3.159   5.291
 1977SOL    HW1 6830   1.778   3.242   5.253
 1977SOL    HW2 6831   1.916   3.157   5.271
 1978SOL     OW 6832   1.750   5.728   3.141
 1978SOL    HW1 6833   1.771   5.731   3.043
 1978SOL    HW2 6834   1.736   5.821   3.175
 1979SOL     OW 6835   5.203   5.143   7.030
 1979SOL    HW1 6836   5.217   5.168   6.934
 1979SOL    HW2 6837   5.134   5.203   0.040
 1980SOL     OW 6838   4.417   0.541   3.531
 1980SOL    HW1 6839   4.329   0.554   3.576
 1980SOL    HW2 6840   4.456   0.630   3.508
 1981SOL     OW 6841   5.787   2.550   2.671
 1981SOL    HW1 6842   5.742   2.634   2.642
 1981SOL    HW2 6843   5.828   2.504   2.592
 1982SOL     OW 6844   0.205   3.744   3.863
 1982SOL    HW1 6845   0.164   3.784   3.781
 1982SOL    HW2 6846   0.142   3.755   3.940
 1983SOL     OW 6847   1.447   0.593   1.498
 1983SOL    HW1 6848   1.512   0.539   1.445
 1983SOL    HW2 6849   1.496   0.649   1.564
 1984SOL     OW 6850   4.470   2.520   5.161
 1984SOL    HW1 6851   4.402   2.477   5.100
 1984SOL    HW2 6852   4.423   2.585   5.221
 1985SOL     OW 6853   0.191   6.061   1.789
 1985SOL    HW1 6854   0.211   6.061   1.691
 1985SOL    HW2 6855   0.160   5.971   1.817
 1986SOL     OW 6856   3.212   0.831   6.229
 1986SOL    HW1 6857   3.210   0.758   6.160
 1986SOL    HW2 6858   3.281   0.810   6.298
 1987SOL     OW 6859   2.391   1.671   3.873
 1987SOL    HW1 6860   2.484   1.681   3.838
 1987SOL    HW2 6861   2.393   1.672   3.973
 1988SOL     OW 6862   0.529   1.971   0.752
 1988SOL    HW1 6863   0.616   1.928   0.728
 1988SOL    HW2 6864   0.510   2.046   0.688
 1989SOL     OW 6865   1.884   5.827   4.225
 1989SOL    HW1 6866   1.868   5.925   4.220
 1989SOL    HW2 6867   1.796   5.779   4.224
 1990SOL     OW 6868   3.325   5.708   0.322
 1990SOL    HW1 6869   3.347   5.771   0.247
 1990SOL    HW2 6870   3.250   5.745   0.376
 1991SOL     OW 6871   1.846   5.520   0.075
 1991SOL    HW1 6872   1.775   5.574   0.030
 1991SOL    HW2 6873   1.900   5.472   0.006
 1992SOL     OW 6874   7.007   0.470   0.170
 1992SOL    HW1 6875   7.009   0.501   0.265
 1992SOL    HW2 6876   6.966   0.541   0.112
 1993SOL     OW 6877   3.327   1.625   5.322
 1993SOL    HW1 6878   3.303   1.722   5.325
 1993SOL    HW2 6879   3.336   1.596   5.227
 1994SOL     OW 6880   5.533   2.290   1.521
 1994SOL    HW1 6881   5.556   2.196   1.546
 1994SOL    HW2 6882   5.616   2.338   1.492
 1995SOL     OW 6883   5.485   2.577   3.815
 1995SOL    HW1 6884   5.524   2.589   3.723
 1995SOL    HW2 6885   5.516   2.652   3.874
 1996SOL     OW 6886   2.499   1.818   1.249
 1996SOL    HW1 6887   2.488   1.799   1.346
 1996SOL    HW2 6888   2.597   1.826   1.228
 1997SOL     OW 6889   3.444   1.610   3.937
 1997SOL    HW1 6890   3.354   1.633   3.974
 1997SOL    HW2 6891   3.515   1.658   3.989
 1998SOL     OW 6892   1.362   3.853   0.731
 1998SOL    HW1 6893   1.422   3.838   0.810
 1998SOL    HW2 6894   1.355   3.951   0.711
 1999SOL     OW 6895   1.041   0.442   5.371
 1999SOL    HW1 6896   0.965   0.500   5.400
 1999SOL    HW2 6897   1.043   0.436   5.271
 2000SOL     OW 6898   3.865   3.229   5.697
 2000SOL    HW1 6899   3.915   3.245   5.782
 2000SOL    HW2 6900   3.783   3.286   5.695
 2001SOL     OW 6901   2.264   1.231   0.467
 2001SOL    HW1 6902   2.212   1.210   0.550
 2001SOL    HW2 6903   2.325   1.308   0.485
 2002SOL     OW 6904   0.485   5.151   0.991
 2002SOL    HW1 6905   0.450   5.158   0.898
 2002SOL    HW2 6906   0.410   5.161   1.056
 2003SOL     OW 6907   6.849   4.755   1.749
 2003SOL    HW1 6908   6.864   4.666   1.706
 2003SOL    HW2 6909   6.896   4.758   1.837
 2004SOL     OW 6910   4.441   0.567   4.832
 2004SOL    HW1 6911   4.399   0.651   4.796
 2004SOL    HW2 6912   4.491   0.588   4.915
 2005SOL     OW 6913   0.157   4.735   0.058
 2005SOL    HW1 6914   0.228   4.684   0.106
 2005SOL    HW2 6915   0.194   4.770   7.002
 2006SOL     OW 6916   5.648   6.603   4.092
 2006SOL    HW1 6917   5.686   6.676   4.149
 2006SOL    HW2 6918   5.552   6.589   4.116
 2007SOL     OW 6919   5.324   4.322   1.429
 2007SOL    HW1 6920   5.277   4.234   1.430
 2007SOL    HW2 6921   5.306   4.371   1.515
 2008SOL     OW 6922   2.140   3.514   3.600
 2008SOL    HW1 6923   2.080   3.582   3.643
 2008SOL    HW2 6924   2.194   3.558   3.528
 2009SOL     OW 6925   5.645   6.402   2.588
 2009SOL    HW1 6926   5.702   6.448   2.521
 2009SOL    HW2 6927   5.564   6.457   2.607
 2010SOL     OW 6928   2.164   1.398   1.800
 2010SOL    HW1 6929   2.099   1.427   1.729
 2010SOL    HW2 6930   2.247   1.455   1.794
 2011SOL     OW 6931   0.515   1.231   4.887
 2011SOL    HW1 6932   0.419   1.251   4.909
 2011SOL    HW2 6933   0.564   1.318   4.877
 2012SOL     OW 6934   1.588   3.587   2.530
 2012SOL    HW1 6935   1.513   3.521   2.529
 2012SOL    HW2 6936   1.673   3.541   2.502
 2013SOL     OW 6937   6.706   3.570   4.000
 2013SOL    HW1 6938   6.747   3.524   3.921
 2013SOL    HW2 6939   6.654   3.650   3.969
 2014SOL     OW 6940   3.116   6.990   2.695
 2014SOL    HW1 6941   3.202   6.976   2.744
 2014SOL    HW2 6942   3.135   7.003   2.598
 2015SOL     OW 6943   3.455   6.592   0.262
 2015SOL    HW1 6944   3.416   6.506   0.293
 2015SOL    HW2 6945   3.528   6.574   0.196
 2016SOL     OW 6946   1.490   5.624   5.303
 2016SOL    HW1 6947   1.538   5.703   5.342
 2016SOL    HW2 6948   1.464   5.644   5.209
 2017SOL     OW 6949   4.716   0.243   3.261
 2017SOL    HW1 6950   4.786   0.299   3.304
 2017SOL    HW2 6951   4.633   0.297   3.248
 2018SOL     OW 6952   6.567   2.780   3.792
 2018SOL    HW1 6953   6.573   2.747   3.697
 2018SOL    HW2 6954   6.472   2.776   3.823
 2019SOL     OW 6955   5.885   4.292   6.340
 2019SOL    HW1 6956   5.802   4.341   6.364
 2019SOL    HW2 6957   5.864   4.220   6.274
 2020SOL     OW 6958   1.641   6.324   5.544
 2020SOL    HW1 6959   1.564   6.295   5.600
 2020SOL    HW2 6960   1.707   6.373   5.601
 2021SOL     OW 6961   6.343   6.521   3.954
 2021SOL    HW1 6962   6.252   6.495   3.921
 2021SOL    HW2 6963   6.340   6.613   3.992
 2022SOL     OW 6964   1.665   4.408   4.567
 2022SOL    HW1 6965   1.748   4.458   4.543
 2022SOL    HW2 6966   1.643   4.424   4.663
 2023SOL     OW 6967   0.583   0.283   0.005
 2023SOL    HW1 6968   0.575   0.188   0.034
 2023SOL    HW2 6969   0.610   0.286   6.939
 2024SOL     OW 6970   6.819   5.813   3.870
 2024SOL    HW1 6971   6.835   5.910   3.852
 2024SOL    HW2 6972   6.735   5.784   3.826
 2025SOL     OW 6973   3.202   0.504   3.871
 2025SOL    HW1 6974   3.269   0.478   3.801
 2025SOL    HW2 6975   3.110   0.501   3.832
 2026SOL     OW 6976   6.641   2.096   6.456
 2026SOL    HW1 6977   6.621   2.171   6.518
 2026SOL    HW2 6978   6.710   2.125   6.389
 2027SOL     OW 6979   0.384   6.657   1.581
 2027SOL    HW1 6980   0.310   6.644   1.647
 2027SOL    HW2 6981   0.445   6.730   1.613
 2028SOL     OW 6982   3.588   5.333   3.536
 2028SOL    HW1 6983   3.558   5.318   3.631
 2028SOL    HW2 6984   3.643   5.416   3.532
 2029SOL     OW 6985   6.633   2.534   6.906
 2029SOL    HW1 6986   6.660   2.438   6.904
 2029SOL    HW2 6987   6.540   2.544   6.870
 2030SOL     OW 6988   3.476   0.508   2.620
 2030SOL    HW1 6989   3.573   0.498   2.600
 2030SOL    HW2 6990   3.430   0.551   2.542
 2031SOL     OW 6991   0.013   6.391   2.571
 2031SOL    HW1 6992   6.976   6.348   2.512
 2031SOL    HW2 6993   0.099   6.340   2.567
 2032SOL     OW 6994   3.423   1.504   1.237
 2032SOL    HW1 6995   3.516   1.539   1.227
 2032SOL    HW2 6996   3.376   1.553   1.310
 2033SOL     OW 6997   2.252   0.796   0.999
 2033SOL    HW1 6998   2.263   0.847   1.084
 2033SOL    HW2 6999   2.237   0.860   0.924
 2034SOL     OW 7000   1.527   5.178   5.645
 2034SOL    HW1 7001   1.556   5.093   5.602
 2034SOL    HW2 7002   1.601   5.244   5.643
 2035SOL     OW 7003   6.253   6.658   2.457
 2035SOL    HW1 7004   6.294   6.568   2.470
 2035SOL    HW2 7005   6.267   6.687   2.362
 2036SOL     OW 7006   1.398   3.667   3.711
 2036SOL    HW1 7007   1.481   3.649   3.658
 2036SOL    HW2 7008   1.412   3.748   3.768
 2037SOL     OW 7009   6.509   2.807   6.344
 2037SOL    HW1 7010   6.466   2.775   6.260
 2037SOL    HW2 7011   6.496   2.739   6.416
 2038SOL     OW 7012   2.349   1.012   0.353
 2038SOL    HW1 7013   2.328   1.100   0.396
 2038SOL    HW2 7014   2.425   1.023   0.290
 2039SOL     OW 7015   0.155   6.632   2.794
 2039SOL    HW1 7016   0.196   6.570   2.861
 2039SOL    HW2 7017   0.188   6.609   2.702
 2040SOL     OW 7018   2.413   1.608   0.430
 2040SOL    HW1 7019   2.455   1.531   0.478
 2040SOL    HW2 7020   2.357   1.574   0.355
 2041SOL     OW 7021   1.031   0.250   5.609
 2041SOL    HW1 7022   0.954   0.191   5.584
 2041SOL    HW2 7023   1.040   0.324   5.542
 2042SOL     OW 7024   4.913   0.436   5.980
 2042SOL    HW1 7025   4.921   0.342   5.947
 2042SOL    HW2 7026   4.919   0.436   6.080
 2043SOL     OW 7027   6.417   2.375   2.708
 2043SOL    HW1 7028   6.335   2.326   2.678
 2043SOL    HW2 7029   6.446   2.437   2.635
 2044SOL     OW 7030   6.151   1.006   0.995
 2044SOL    HW1 7031   6.193   0.995   1.085
 2044SOL    HW2 7032   6.218   1.046   0.932
 2045SOL     OW 7033   1.260   5.513   4.513
 2045SOL    HW1 7034   1.205   5.519   4.430
 2045SOL    HW2 7035   1.213   5.459   4.582
 2046SOL     OW 7036   6.355   2.418   5.366
 2046SOL    HW1 7037   6.421   2.408   5.291
 2046SOL    HW2 7038   6.345   2.330   5.413
 2047SOL     OW 7039   6.364   2.620   1.070
 2047SOL    HW1 7040   6.331   2.527   1.052
 2047SOL    HW2 7041   6.373   2.633   1.169
 2048SOL     OW 7042   0.428   0.683   4.757
 2048SOL    HW1 7043   0.330   0.660   4.761
 2048SOL    HW2 7044   0.473   0.626   4.688
 2049SOL     OW 7045   5.290   1.542   4.178
 2049SOL    HW1 7046   5.356   1.541   4.103
 2049SOL    HW2 7047   5.201   1.512   4.145
 2050SOL     OW 7048   0.145   2.740   4.628
 2050SOL    HW1 7049   0.195   2.685   4.695
 2050SOL    HW2 7050   0.199   2.749   4.545
 2051SOL     OW 7051   1.823   6.061   6.772
 2051SOL    HW1 7052   1.904   6.017   6.734
 2051SOL    HW2 7053   1.824   6.053   6.872
 2052SOL     OW 7054   1.560   2.891   0.840
 2052SOL    HW1 7055   1.513   2.803   0.833
 2052SOL    HW2 7056   1.493   2.964   0.854
 2053SOL     OW 7057   1.242   5.248   5.009
 2053SOL    HW1 7058   1.336   5.281   5.004
 2053SOL    HW2 7059   1.227   5.203   5.097
 2054SOL     OW 7060   3.344   3.297   3.157
 2054SOL    HW1 7061   3.323   3.240   3.236
 2054SOL    HW2 7062   3.261   3.313   3.104
 2055SOL     OW 7063   6.725   2.694   4.997
 2055SOL    HW1 7064   6.705   2.781   4.953
 2055SOL    HW2 7065   6.703   2.619   4.934
 2056SOL     OW 7066   3.998   4.614   1.763
 2056SOL    HW1 7067   4.093   4.602   1.792
 2056SOL    HW2 7068   3.965   4.703   1.794
 2057SOL     OW 7069   4.943   3.364   5.099
 2057SOL    HW1 7070   4.880   3.442   5.100
 2057SOL    HW2 7071   4.948   3.325   5.191
 2058SOL     OW 7072   0.691   6.612   2.401
 2058SOL    HW1 7073   0.720   6.576   2.490
 2058SOL    HW2 7074   0.741   6.565   2.328
 2059SOL     OW 7075   2.738   0.192   5.808
 2059SOL    HW1 7076   2.690   0.279   5.793
 2059SOL    HW2 7077   2.700   0.123   5.747
 2060SOL     OW 7078   0.445   3.018   1.774
 2060SOL    HW1 7079   0.476   2.940   1.828
 2060SOL    HW2 7080   0.349   3.006   1.750
 2061SOL     OW 7081   2.314   2.064   2.314
 2061SOL    HW1 7082   2.279   2.150   2.277
 2061SOL    HW2 7083   2.405   2.079   2.352
 2062SOL     OW 7084   6.682   5.981   5.332
 2062SOL    HW1 7085   6.701   6.078   5.313
 2062SOL    HW2 7086   6.649   5.971   5.425
 2063SOL     OW 7087   1.315   6.788   4.385
 2063SOL    HW1 7088   1.349   6.881   4.370
 2063SOL    HW2 7089   1.322   6.765   4.483
 2064SOL     OW 7090   0.972   3.038   4.373
 2064SOL    HW1 7091   0.982   2.995   4.284
 2064SOL    HW2 7092   0.923   2.976   4.435
 2065SOL     OW 7093   5.497   3.447   5.705
 2065SOL    HW1 7094   5.449   3.535   5.704
 2065SOL    HW2 7095   5.556   3.442   5.786
 2066SOL     OW 7096   6.652   4.135   5.464
 2066SOL    HW1 7097   6.684   4.079   5.387
 2066SOL    HW2 7098   6.555   4.117   5.479
 2067SOL     OW 7099   6.286   4.798   1.216
 2067SOL    HW1 7100   6.264   4.757   1.304
 2067SOL    HW2 7101   6.236   4.884   1.205
 2068SOL     OW 7102   3.812   1.374   4.074
 2068SOL    HW1 7103   3.862   1.384   4.160
 2068SOL    HW2 7104   3.870   1.326   4.008
 2069SOL     OW 7105   0.428   2.233   4.069
 2069SOL    HW1 7106   0.340   2.281   4.066
 2069SOL    HW2 7107   0.452   2.215   4.164
 2070SOL     OW 7108   1.577   2.993   1.146
 2070SOL    HW1 7109   1.479   2.973   1.156
 2070SOL    HW2 7110   1.597   3.017   1.051
 2071SOL     OW 7111   5.956   2.016   6.235
 2071SOL    HW1 7112   5.983   2.107   6.203
 2071SOL    HW2 7113   5.988   1.947   6.171
 2072SOL     OW 7114   4.126   5.150   5.181
 2072SOL    HW1 7115   4.188   5.165   5.104
 2072SOL    HW2 7116   4.098   5.238   5.219
 2073SOL     OW 7117   3.544   6.161   5.755
 2073SOL    HW1 7118   3.550   6.254   5.792
 2073SOL    HW2 7119   3.512   6.099   5.826
 2074SOL     OW 7120   1.709   2.551   6.698
 2074SOL    HW1 7121   1.663   2.541   6.786
 2074SOL    HW2 7122   1.675   2.480   6.635
 2075SOL     OW 7123   6.511   1.997   3.226
 2075SOL    HW1 7124   6.580   1.934   3.261
 2075SOL    HW2 7125   6.420   1.963   3.249
 2076SOL     OW 7126   6.274   0.429   5.390
 2076SOL    HW1 7127   6.255   0.394   5.482
 2076SOL    HW2 7128   6.219   0.510   5.373
 2077SOL     OW 7129   5.901   2.084   1.745
 2077SOL    HW1 7130   5.907   2.172   1.699
 2077SOL    HW2 7131   5.943   2.013   1.689
 2078SOL     OW 7132   1.364   5.181   5.867
 2078SOL    HW1 7133   1.449   5.175   5.815
 2078SOL    HW2 7134   1.290   5.211   5.806
 2079SOL     OW 7135   5.937   0.986   2.052
 2079SOL    HW1 7136   5.912   0.901   2.099
 2079SOL    HW2 7137   6.011   1.031   2.102
 2080SOL     OW 7138   3.598   1.582   5.106
 2080SOL    HW1 7139   3.580   1.526   5.025
 2080SOL    HW2 7140   3.538   1.662   5.105
 2081SOL     OW 7141   1.005   6.521   3.961
 2081SOL    HW1 7142   1.091   6.534   4.009
 2081SOL    HW2 7143   0.982   6.424   3.960
 2082SOL     OW 7144   0.671   6.482   3.230
 2082SOL    HW1 7145   0.714   6.418   3.293
 2082SOL    HW2 7146   0.698   6.575   3.253
 2083SOL     OW 7147   0.483   5.676   4.142
 2083SOL    HW1 7148   0.421   5.741   4.187
 2083SOL    HW2 7149   0.543   5.726   4.080
 2084SOL     OW 7150   1.066   2.682   1.501
 2084SOL    HW1 7151   1.130   2.611   1.472
 2084SOL    HW2 7152   0.991   2.689   1.436
 2085SOL     OW 7153   5.079   6.294   0.855
 2085SOL    HW1 7154   5.042   6.223   0.916
 2085SOL    HW2 7155   5.065   6.384   0.897
 2086SOL     OW 7156   3.590   5.832   6.712
 2086SOL    HW1 7157   3.542   5.793   6.791
 2086SOL    HW2 7158   3.681   5.864   6.740
 2087SOL     OW 7159   4.637   1.971   0.370
 2087SOL    HW1 7160   4.689   2.013   0.445
 2087SOL    HW2 7161   4.604   1.881   0.399
 2088SOL     OW 7162   1.031   5.887   5.205
 2088SOL    HW1 7163   0.991   5.802   5.241
 2088SOL    HW2 7164   0.960   5.957   5.200
 2089SOL     OW 7165   3.899   2.392   5.337
 2089SOL    HW1 7166   3.925   2.454   5.263
 2089SOL    HW2 7167   3.830   2.436   5.395
 2090SOL     OW 7168   5.070   3.017   5.581
 2090SOL    HW1 7169   5.074   2.993   5.484
 2090SOL    HW2 7170   4.990   2.974   5.622
 2091SOL     OW 7171   6.703   6.122   0.954
 2091SOL    HW1 7172   6.780   6.139   1.016
 2091SOL    HW2 7173   6.617   6.127   1.006
 2092SOL     OW 7174   5.490   3.778   0.873
 2092SOL    HW1 7175   5.526   3.812   0.960
 2092SOL    HW2 7176   5.546   3.812   0.798
 2093SOL     OW 7177   3.679   2.146   2.432
 2093SOL    HW1 7178   3.673   2.087   2.352
 2093SOL    HW2 7179   3.683   2.242   2.403
 2094SOL     OW 7180   5.639   2.248   0.566
 2094SOL    HW1 7181   5.716   2.185   0.554
 2094SOL    HW2 7182   5.591   2.227   0.651
 2095SOL     OW 7183   6.318   6.069   3.405
 2095SOL    HW1 7184   6.403   6.020   3.384
 2095SOL    HW2 7185   6.264   6.015   3.470
 2096SOL     OW 7186   4.521   6.023   3.022
 2096SOL    HW1 7187   4.533   6.006   3.119
 2096SOL    HW2 7188   4.605   5.997   2.973
 2097SOL     OW 7189   2.797   3.844   6.704
 2097SOL    HW1 7190   2.833   3.883   6.789
 2097SOL    HW2 7191   2.866   3.852   6.632
 2098SOL     OW 7192   4.146   5.926   3.190
 2098SOL    HW1 7193   4.227   5.946   3.244
 2098SOL    HW2 7194   4.068   5.910   3.250
 2099SOL     OW 7195   4.467   1.797   0.173
 2099SOL    HW1 7196   4.490   1.881   0.123
 2099SOL    HW2 7197   4.483   1.812   0.271
 2100SOL     OW 7198   5.291   1.304   0.730
 2100SOL    HW1 7199   5.234   1.276   0.807
 2100SOL    HW2 7200   5.257   1.261   0.646
 2101SOL     OW 7201   6.846   6.462   1.007
 2101SOL    HW1 7202   6.929   6.479   1.061
 2101SOL    HW2 7203   6.802   6.378   1.038
 2102SOL     OW 7204   4.522   3.803   1.269
 2102SOL    HW1 7205   4.459   3.725   1.263
 2102SOL    HW2 7206   4.522   3.838   1.363
 2103SOL     OW 7207   2.852   3.659   0.434
 2103SOL    HW1 7208   2.760   3.683   0.402
 2103SOL    HW2 7209   2.870   3.705   0.520
 2104SOL     OW 7210   1.430   4.756   1.959
 2104SOL    HW1 7211   1.509   4.801   1.918
 2104SOL    HW2 7212   1.407   4.799   2.046
 2105SOL     OW 7213   3.715   4.517   6.955
 2105SOL    HW1 7214   3.737   4.465   6.873
 2105SOL    HW2 7215   3.642   4.470   7.005
 2106SOL     OW 7216   5.446   3.536   1.258
 2106SOL    HW1 7217   5.539   3.514   1.287
 2106SOL    HW2 7218   5.447   3.561   1.161
 2107SOL     OW 7219   5.862   3.173   5.590
 2107SOL    HW1 7220   5.815   3.086   5.578
 2107SOL    HW2 7221   5.850   3.229   5.508
 2108SOL     OW 7222   5.657   6.605   5.933
 2108SOL    HW1 7223   5.638   6.550   5.852
 2108SOL    HW2 7224   5.571   6.621   5.983
 2109SOL     OW 7225   3.073   5.391   2.251
 2109SOL    HW1 7226   3.052   5.467   2.313
 2109SOL    HW2 7227   3.109   5.314   2.304
 2110SOL     OW 7228   4.349   0.584   5.815
 2110SOL    HW1 7229   4.338   0.641   5.734
 2110SOL    HW2 7230   4.388   0.638   5.889
 2111SOL     OW 7231   1.303   2.211   5.923
 2111SOL    HW1 7232   1.367   2.266   5.976
 2111SOL    HW2 7233   1.213   2.213   5.966
 2112SOL     OW 7234   5.692   2.281   6.255
 2112SOL    HW1 7235   5.658   2.254   6.345
 2112SOL    HW2 7236   5.791   2.267   6.251
 2113SOL     OW 7237   1.884   6.840   4.608
 2113SOL    HW1 7238   1.935   6.918   4.571
 2113SOL    HW2 7239   1.899   6.835   4.707
 2114SOL     OW 7240   2.163   2.848   0.260
 2114SOL    HW1 7241   2.180   2.804   0.172
 2114SOL    HW2 7242   2.067   2.877   0.265
 2115SOL     OW 7243   1.248   4.434   1.664
 2115SOL    HW1 7244   1.175   4.464   1.603
 2115SOL    HW2 7245   1.232   4.471   1.756
 2116SOL     OW 7246   0.608   2.724   0.936
 2116SOL    HW1 7247   0.605   2.817   0.899
 2116SOL    HW2 7248   0.526   2.674   0.908
 2117SOL     OW 7249   5.133   2.864   1.597
 2117SOL    HW1 7250   5.187   2.843   1.678
 2117SOL    HW2 7251   5.042   2.824   1.606
 2118SOL     OW 7252   6.186   3.596   2.305
 2118SOL    HW1 7253   6.143   3.541   2.377
 2118SOL    HW2 7254   6.114   3.639   2.250
 2119SOL     OW 7255   1.525   1.408   0.175
 2119SOL    HW1 7256   1.453   1.471   0.204
 2119SOL    HW2 7257   1.497   1.314   0.197
 2120SOL     OW 7258   6.372   1.827   2.827
 2120SOL    HW1 7259   6.298   1.835   2.893
 2120SOL    HW2 7260   6.382   1.731   2.800
 2121SOL     OW 7261   2.398   2.237   6.326
 2121SOL    HW1 7262   2.331   2.212   6.395
 2121SOL    HW2 7263   2.455   2.157   6.304
 2122SOL     OW 7264   6.034   6.587   6.162
 2122SOL    HW1 7265   6.098   6.661   6.184
 2122SOL    HW2 7266   6.074   6.526   6.094
 2123SOL     OW 7267   6.635   6.097   2.376
 2123SOL    HW1 7268   6.538   6.114   2.359
 2123SOL    HW2 7269   6.654   6.103   2.474
 2124SOL     OW 7270   3.165   1.898   5.623
 2124SOL    HW1 7271   3.069   1.873   5.610
 2124SOL    HW2 7272   3.172   1.997   5.637
 2125SOL     OW 7273   1.589   6.022   3.038
 2125SOL    HW1 7274   1.653   6.051   3.110
 2125SOL    HW2 7275   1.636   5.963   2.974
 2126SOL     OW 7276   4.007   2.999   0.155
 2126SOL    HW1 7277   3.961   2.992   0.067
 2126SOL    HW2 7278   4.094   3.048   0.144
 2127SOL     OW 7279   0.478   2.272   5.462
 2127SOL    HW1 7280   0.423   2.299   5.541
 2127SOL    HW2 7281   0.450   2.326   5.382
 2128SOL     OW 7282   5.866   3.869   1.088
 2128SOL    HW1 7283   5.769   3.846   1.092
 2128SOL    HW2 7284   5.918   3.787   1.063
 2129SOL     OW 7285   5.095   4.117   4.129
 2129SOL    HW1 7286   5.080   4.027   4.170
 2129SOL    HW2 7287   5.011   4.170   4.133
 2130SOL     OW 7288   2.555   1.523   1.460
 2130SOL    HW1 7289   2.468   1.551   1.501
 2130SOL    HW2 7290   2.620   1.501   1.532
 2131SOL     OW 7291   5.386   2.205   0.484
 2131SOL    HW1 7292   5.461   2.271   0.478
 2131SOL    HW2 7293   5.395   2.151   0.567
 2132SOL     OW 7294   3.369   1.314   0.061
 2132SOL    HW1 7295   3.276   1.342   0.087
 2132SOL    HW2 7296   3.435   1.359   0.121
 2133SOL     OW 7297   2.408   2.546   1.598
 2133SOL    HW1 7298   2.360   2.493   1.669
 2133SOL    HW2 7299   2.394   2.502   1.509
 2134SOL     OW 7300   1.115   0.681   4.412
 2134SOL    HW1 7301   1.205   0.693   4.453
 2134SOL    HW2 7302   1.057   0.759   4.434
 2135SOL     OW 7303   0.521   1.866   4.080
 2135SOL    HW1 7304   0.433   1.899   4.046
 2135SOL    HW2 7305   0.508   1.775   4.120
 2136SOL     OW 7306   0.773   3.571   4.809
 2136SOL    HW1 7307   0.818   3.519   4.736
 2136SOL    HW2 7308   0.691   3.614   4.772
 2137SOL     OW 7309   0.803   6.992   5.045
 2137SOL    HW1 7310   0.836   6.908   5.087
 2137SOL    HW2 7311   0.830   0.040   5.102
 2138SOL     OW 7312   6.067   2.316   1.647
 2138SOL    HW1 7313   6.020   2.375   1.581
 2138SOL    HW2 7314   6.155   2.287   1.610
 2139SOL     OW 7315   3.541   0.866   3.937
 2139SOL    HW1 7316   3.451   0.829   3.915
 2139SOL    HW2 7317   3.582   0.905   3.855
 2140SOL     OW 7318   3.017   6.314   2.924
 2140SOL    HW1 7319   3.097   6.296   2.866
 2140SOL    HW2 7320   2.981   6.227   2.959
 2141SOL     OW 7321   6.414   3.031   1.762
 2141SOL    HW1 7322   6.338   3.095   1.753
 2141SOL    HW2 7323   6.454   3.040   1.853
 2142SOL     OW 7324   1.436   2.239   3.367
 2142SOL    HW1 7325   1.477   2.237   3.458
 2142SOL    HW2 7326   1.336   2.240   3.376
 2143SOL     OW 7327   3.648   6.285   1.141
 2143SOL    HW1 7328   3.670   6.271   1.045
 2143SOL    HW2 7329   3.685   6.209   1.195
 2144SOL     OW 7330   1.630   0.743   3.233
 2144SOL    HW1 7331   1.722   0.751   3.197
 2144SOL    HW2 7332   1.623   0.661   3.291
 2145SOL     OW 7333   3.482   5.752   3.696
 2145SOL    HW1 7334   3.553   5.789   3.636
 2145SOL    HW2 7335   3.393   5.765   3.653
 2146SOL     OW 7336   3.403   4.083   2.309
 2146SOL    HW1 7337   3.361   4.081   2.218
 2146SOL    HW2 7338   3.331   4.080   2.379
 2147SOL     OW 7339   0.277   1.350   6.948
 2147SOL    HW1 7340   0.292   1.386   6.856
 2147SOL    HW2 7341   0.220   1.412   7.000
 2148SOL     OW 7342   5.051   3.623   3.805
 2148SOL    HW1 7343   5.141   3.601   3.768
 2148SOL    HW2 7344   5.024   3.714   3.775
 2149SOL     OW 7345   3.437   0.611   1.663
 2149SOL    HW1 7346   3.505   0.578   1.728
 2149SOL    HW2 7347   3.448   0.710   1.649
 2150SOL     OW 7348   3.446   1.992   2.562
 2150SOL    HW1 7349   3.528   2.011   2.508
 2150SOL    HW2 7350   3.377   1.949   2.503
 2151SOL     OW 7351   3.496   2.031   5.319
 2151SOL    HW1 7352   3.397   2.041   5.311
 2151SOL    HW2 7353   3.522   2.029   5.416
 2152SOL     OW 7354   5.380   6.391   1.729
 2152SOL    HW1 7355   5.356   6.296   1.709
 2152SOL    HW2 7356   5.451   6.394   1.799
 2153SOL     OW 7357   4.239   1.232   4.040
 2153SOL    HW1 7358   4.288   1.239   4.127
 2153SOL    HW2 7359   4.160   1.172   4.050
 2154SOL     OW 7360   3.401   5.879   4.724
 2154SOL    HW1 7361   3.316   5.826   4.724
 2154SOL    HW2 7362   3.380   5.975   4.744
 2155SOL     OW 7363   1.839   5.145   0.130
 2155SOL    HW1 7364   1.749   5.127   0.091
 2155SOL    HW2 7365   1.903   5.167   0.056
 2156SOL     OW 7366   2.067   0.367   1.562
 2156SOL    HW1 7367   2.165   0.382   1.548
 2156SOL    HW2 7368   2.050   0.341   1.657
 2157SOL     OW 7369   6.593   0.928   4.504
 2157SOL    HW1 7370   6.563   0.902   4.595
 2157SOL    HW2 7371   6.623   1.023   4.504
 2158SOL     OW 7372   3.209   6.565   0.032
 2158SOL    HW1 7373   3.211   6.523   6.971
 2158SOL    HW2 7374   3.286   6.532   0.086
 2159SOL     OW 7375   1.626   6.462   4.971
 2159SOL    HW1 7376   1.643   6.440   5.067
 2159SOL    HW2 7377   1.560   6.397   4.933
 2160SOL     OW 7378   4.296   4.204   1.507
 2160SOL    HW1 7379   4.292   4.276   1.577
 2160SOL    HW2 7380   4.223   4.219   1.440
 2161SOL     OW 7381   4.915   3.389   3.245
 2161SOL    HW1 7382   4.958   3.388   3.335
 2161SOL    HW2 7383   4.906   3.296   3.211
 2162SOL     OW 7384   1.662   0.776   0.146
 2162SOL    HW1 7385   1.572   0.767   0.189
 2162SOL    HW2 7386   1.732   0.736   0.206
 2163SOL     OW 7387   1.045   6.643   6.619
 2163SOL    HW1 7388   0.983   6.581   6.570
 2163SOL    HW2 7389   1.119   6.590   6.660
 2164SOL     OW 7390   2.064   0.621   5.869
 2164SOL    HW1 7391   1.965   0.612   5.885
 2164SOL    HW2 7392   2.095   0.543   5.815
 2165SOL     OW 7393   1.502   1.028   2.330
 2165SOL    HW1 7394   1.585   0.993   2.287
 2165SOL    HW2 7395   1.422   0.987   2.286
 2166SOL     OW 7396   1.781   2.735   5.506
 2166SOL    HW1 7397   1.737   2.779   5.427
 2166SOL    HW2 7398   1.714   2.725   5.580
 2167SOL     OW 7399   3.136   0.410   2.168
 2167SOL    HW1 7400   3.081   0.380   2.246
 2167SOL    HW2 7401   3.221   0.451   2.200
 2168SOL     OW 7402   6.227   2.872   5.175
 2168SOL    HW1 7403   6.203   2.871   5.078
 2168SOL    HW2 7404   6.202   2.784   5.216
 2169SOL     OW 7405   5.349   2.380   6.147
 2169SOL    HW1 7406   5.382   2.474   6.152
 2169SOL    HW2 7407   5.389   2.335   6.067
 2170SOL     OW 7408   5.105   4.719   5.167
 2170SOL    HW1 7409   5.107   4.762   5.257
 2170SOL    HW2 7410   5.131   4.623   5.175
 2171SOL     OW 7411   6.754   2.715   0.060
 2171SOL    HW1 7412   6.720   2.782   0.125
 2171SOL    HW2 7413   6.680   2.654   0.033
 2172SOL     OW 7414   3.003   1.181   0.384
 2172SOL    HW1 7415   2.917   1.131   0.374
 2172SOL    HW2 7416   3.050   1.183   0.295
 2173SOL     OW 7417   4.076   0.213   5.726
 2173SOL    HW1 7418   4.154   0.264   5.763
 2173SOL    HW2 7419   4.034   0.266   5.653
 2174SOL     OW 7420   6.483   4.447   5.781
 2174SOL    HW1 7421   6.425   4.386   5.835
 2174SOL    HW2 7422   6.438   4.536   5.772
 2175SOL     OW 7423   3.393   1.093   3.530
 2175SOL    HW1 7424   3.342   1.018   3.488
 2175SOL    HW2 7425   3.331   1.171   3.545
 2176SOL     OW 7426   1.673   2.028   1.769
 2176SOL    HW1 7427   1.666   1.929   1.760
 2176SOL    HW2 7428   1.642   2.072   1.685
 2177SOL     OW 7429   6.537   1.344   2.150
 2177SOL    HW1 7430   6.484   1.346   2.235
 2177SOL    HW2 7431   6.629   1.380   2.168
 2178SOL     OW 7432   0.846   4.107   0.539
 2178SOL    HW1 7433   0.881   4.191   0.498
 2178SOL    HW2 7434   0.882   4.097   0.632
 2179SOL     OW 7435   1.606   5.477   4.045
 2179SOL    HW1 7436   1.591   5.381   4.069
 2179SOL    HW2 7437   1.704   5.496   4.042
 2180SOL     OW 7438   3.106   3.722   2.910
 2180SOL    HW1 7439   3.079   3.787   2.840
 2180SOL    HW2 7440   3.203   3.699   2.899
 2181SOL     OW 7441   4.448   4.768   6.065
 2181SOL    HW1 7442   4.387   4.766   6.145
 2181SOL    HW2 7443   4.542   4.757   6.096
 2182SOL     OW 7444   0.038   3.580   6.430
 2182SOL    HW1 7445   0.115   3.564   6.368
 2182SOL    HW2 7446   7.013   3.497   6.436
 2183SOL     OW 7447   2.978   3.230   0.734
 2183SOL    HW1 7448   2.928   3.144   0.747
 2183SOL    HW2 7449   2.915   3.300   0.699
 2184SOL     OW 7450   4.008   0.792   6.325
 2184SOL    HW1 7451   4.085   0.807   6.263
 2184SOL    HW2 7452   3.963   0.705   6.302
 2185SOL     OW 7453   1.762   1.668   0.570
 2185SOL    HW1 7454   1.720   1.759   0.580
 2185SOL    HW2 7455   1.820   1.650   0.650
 2186SOL     OW 7456   0.100   4.756   2.280
 2186SOL    HW1 7457   0.136   4.683   2.337
 2186SOL    HW2 7458   0.175   4.806   2.237
 2187SOL     OW 7459   0.235   1.285   1.428
 2187SOL    HW1 7460   0.232   1.226   1.347
 2187SOL    HW2 7461   0.295   1.244   1.497
 2188SOL     OW 7462   5.057   5.899   3.738
 2188SOL    HW1 7463   4.990   5.856   3.677
 2188SOL    HW2 7464   5.109   5.828   3.786
 2189SOL     OW 7465   1.786   6.904   6.036
 2189SOL    HW1 7466   1.824   6.824   6.082
 2189SOL    HW2 7467   1.687   6.896   6.032
 2190SOL     OW 7468   6.121   2.747   1.590
 2190SOL    HW1 7469   6.060   2.826   1.602
 2190SOL    HW2 7470   6.213   2.771   1.620
 2191SOL     OW 7471   3.496   2.611   5.968
 2191SOL    HW1 7472   3.406   2.654   5.982
 2191SOL    HW2 7473   3.483   2.516   5.940
 2192SOL     OW 7474   4.393   6.255   5.392
 2192SOL    HW1 7475   4.443   6.270   5.307
 2192SOL    HW2 7476   4.310   6.310   5.392
 2193SOL     OW 7477   0.087   5.464   5.707
 2193SOL    HW1 7478   0.088   5.426   5.800
 2193SOL    HW2 7479   7.028   5.506   5.689
 2194SOL     OW 7480   1.717   5.991   0.387
 2194SOL    HW1 7481   1.752   5.898   0.374
 2194SOL    HW2 7482   1.775   6.056   0.337
 2195SOL     OW 7483   0.469   6.468   1.905
 2195SOL    HW1 7484   0.391   6.417   1.869
 2195SOL    HW2 7485   0.437   6.553   1.948
 2196SOL     OW 7486   3.107   0.895   5.507
 2196SOL    HW1 7487   3.022   0.890   5.559
 2196SOL    HW2 7488   3.141   0.803   5.489
 2197SOL     OW 7489   4.645   4.454   1.806
 2197SOL    HW1 7490   4.700   4.393   1.748
 2197SOL    HW2 7491   4.589   4.399   1.868
 2198SOL     OW 7492   6.855   3.642   6.790
 2198SOL    HW1 7493   6.907   3.633   6.874
 2198SOL    HW2 7494   6.889   3.720   6.737
 2199SOL     OW 7495   5.182   6.976   0.728
 2199SOL    HW1 7496   5.118   0.012   0.689
 2199SOL    HW2 7497   5.242   7.022   0.794
 2200SOL     OW 7498   4.221   0.542   4.542
 2200SOL    HW1 7499   4.123   0.531   4.551
 2200SOL    HW2 7500   4.254   0.487   4.465
 2201SOL     OW 7501   6.265   3.832   2.504
 2201SOL    HW1 7502   6.296   3.918   2.463
 2201SOL    HW2 7503   6.256   3.763   2.432
 2202SOL     OW 7504   3.563   4.929   4.420
 2202SOL    HW1 7505   3.661   4.948   4.411
 2202SOL    HW2 7506   3.518   4.945   4.333
 2203SOL     OW 7507   3.599   2.084   2.989
 2203SOL    HW1 7508   3.696   2.090   2.968
 2203SOL    HW2 7509   3.584   2.098   3.087
 2204SOL     OW 7510   3.535   1.152   6.937
 2204SOL    HW1 7511   3.555   1.196   6.850
 2204SOL    HW2 7512   3.465   1.203   6.985
 2205SOL     OW 7513   1.770   0.255   6.634
 2205SOL    HW1 7514   1.820   0.257   6.547
 2205SOL    HW2 7515   1.673   0.272   6.616
 2206SOL     OW 7516   3.063   3.750   6.244
 2206SOL    HW1 7517   3.070   3.708   6.335
 2206SOL    HW2 7518   3.142   3.723   6.189
 2207SOL     OW 7519   1.130   4.475   6.269
 2207SOL    HW1 7520   1.215   4.488   6.218
 2207SOL    HW2 7521   1.056   4.526   6.225
 2208SOL     OW 7522   0.940   3.686   1.923
 2208SOL    HW1 7523   1.007   3.748   1.882
 2208SOL    HW2 7524   0.931   3.604   1.866
 2209SOL     OW 7525   1.754   5.878   6.443
 2209SOL    HW1 7526   1.661   5.890   6.410
 2209SOL    HW2 7527   1.753   5.859   6.541
 2210SOL     OW 7528   0.686   4.938   3.252
 2210SOL    HW1 7529   0.751   4.878   3.206
 2210SOL    HW2 7530   0.692   5.030   3.214
 2211SOL     OW 7531   5.804   1.620   5.634
 2211SOL    HW1 7532   5.773   1.711   5.662
 2211SOL    HW2 7533   5.807   1.615   5.534
 2212SOL     OW 7534   0.283   6.497   6.137
 2212SOL    HW1 7535   0.197   6.502   6.187
 2212SOL    HW2 7536   0.264   6.471   6.042
 2213SOL     OW 7537   4.251   2.344   4.318
 2213SOL    HW1 7538   4.229   2.425   4.264
 2213SOL    HW2 7539   4.325   2.365   4.382
 2214SOL     OW 7540   5.289   0.516   5.376
 2214SOL    HW1 7541   5.356   0.580   5.338
 2214SOL    HW2 7542   5.197   0.555   5.368
 2215SOL     OW 7543   6.862   1.651   5.486
 2215SOL    HW1 7544   6.953   1.673   5.521
 2215SOL    HW2 7545   6.797   1.646   5.562
 2216SOL     OW 7546   1.133   0.051   1.233
 2216SOL    HW1 7547   1.183   0.135   1.251
 2216SOL    HW2 7548   1.192   7.017   1.184
 2217SOL     OW 7549   4.105   0.383   0.644
 2217SOL    HW1 7550   4.198   0.395   0.678
 2217SOL    HW2 7551   4.108   0.329   0.559
 2218SOL     OW 7552   1.138   6.229   6.864
 2218SOL    HW1 7553   1.194   6.302   6.903
 2218SOL    HW2 7554   1.140   6.149   6.924
 2219SOL     OW 7555   1.625   4.059   2.741
 2219SOL    HW1 7556   1.641   3.986   2.675
 2219SOL    HW2 7557   1.697   4.128   2.733
 2220SOL     OW 7558   0.425   2.237   4.946
 2220SOL    HW1 7559   0.416   2.284   5.033
 2220SOL    HW2 7560   0.467   2.147   4.960
 2221SOL     OW 7561   6.618   2.033   1.145
 2221SOL    HW1 7562   6.674   2.111   1.175
 2221SOL    HW2 7563   6.522   2.050   1.168
 2222SOL     OW 7564   3.906   0.392   1.694
 2222SOL    HW1 7565   3.926   0.489   1.679
 2222SOL    HW2 7566   3.929   0.340   1.612
 2223SOL     OW 7567   6.406   5.318   3.457
 2223SOL    HW1 7568   6.491   5.349   3.413
 2223SOL    HW2 7569   6.360   5.252   3.398
 2224SOL     OW 7570   1.876   4.674   1.413
 2224SOL    HW1 7571   1.780   4.700   1.415
 2224SOL    HW2 7572   1.916   4.689   1.504
 2225SOL     OW 7573   5.881   4.605   2.487
 2225SOL    HW1 7574   5.933   4.638   2.565
 2225SOL    HW2 7575   5.812   4.540   2.517
 2226SOL     OW 7576   3.992   3.090   1.499
 2226SOL    HW1 7577   4.015   3.187   1.508
 2226SOL    HW2 7578   3.895   3.076   1.517
 2227SOL     OW 7579   6.526   4.027   6.097
 2227SOL    HW1 7580   6.488   4.006   6.007
 2227SOL    HW2 7581   6.510   4.123   6.119
 2228SOL     OW 7582   3.066   4.863   0.183
 2228SOL    HW1 7583   3.161   4.882   0.208
 2228SOL    HW2 7584   3.065   4.792   0.112
 2229SOL     OW 7585   4.787   1.483   4.211
 2229SOL    HW1 7586   4.746   1.451   4.297
 2229SOL    HW2 7587   4.740   1.440   4.135
 2230SOL     OW 7588   1.381   5.647   4.016
 2230SOL    HW1 7589   1.447   5.578   3.985
 2230SOL    HW2 7590   1.388   5.657   4.116
 2231SOL     OW 7591   1.744   1.382   2.100
 2231SOL    HW1 7592   1.827   1.434   2.078
 2231SOL    HW2 7593   1.744   1.359   2.197
 2232SOL     OW 7594   0.465   3.375   3.072
 2232SOL    HW1 7595   0.401   3.343   3.003
 2232SOL    HW2 7596   0.556   3.384   3.032
 2233SOL     OW 7597   3.524   5.136   0.365
 2233SOL    HW1 7598   3.526   5.235   0.368
 2233SOL    HW2 7599   3.590   5.103   0.297
 2234SOL     OW 7600   3.784   1.991   0.909
 2234SOL    HW1 7601   3.825   1.972   0.998
 2234SOL    HW2 7602   3.821   1.928   0.841
 2235SOL     OW 7603   1.163   0.117   6.375
 2235SOL    HW1 7604   1.220   0.035   6.372
 2235SOL    HW2 7605   1.190   0.174   6.452
 2236SOL     OW 7606   0.617   4.198   0.806
 2236SOL    HW1 7607   0.616   4.118   0.746
 2236SOL    HW2 7608   0.591   4.280   0.754
 2237SOL     OW 7609   6.803   3.542   4.658
 2237SOL    HW1 7610   6.825   3.564   4.563
 2237SOL    HW2 7611   6.871   3.584   4.718
 2238SOL     OW 7612   0.191   5.405   2.092
 2238SOL    HW1 7613   0.272   5.462   2.082
 2238SOL    HW2 7614   0.193   5.333   2.023
 2239SOL     OW 7615   4.164   4.840   3.756
 2239SOL    HW1 7616   4.133   4.808   3.667
 2239SOL    HW2 7617   4.177   4.939   3.754
 2240SOL     OW 7618   6.794   5.481   3.423
 2240SOL    HW1 7619   6.780   5.564   3.476
 2240SOL    HW2 7620   6.771   5.498   3.327
 2241SOL     OW 7621   0.229   6.265   2.171
 2241SOL    HW1 7622   0.280   6.350   2.182
 2241SOL    HW2 7623   0.272   6.209   2.100
 2242SOL     OW 7624   5.164   2.081   3.030
 2242SOL    HW1 7625   5.144   2.069   2.932
 2242SOL    HW2 7626   5.149   1.994   3.078
 2243SOL     OW 7627   2.839   6.314   4.575
 2243SOL    HW1 7628   2.833   6.344   4.480
 2243SOL    HW2 7629   2.779   6.235   4.589
 2244SOL     OW 7630   3.831   0.968   4.281
 2244SOL    HW1 7631   3.773   0.997   4.357
 2244SOL    HW2 7632   3.872   0.879   4.303
 2245SOL     OW 7633   6.756   2.283   2.078
 2245SOL    HW1 7634   6.732   2.322   2.167
 2245SOL    HW2 7635   6.848   2.244   2.083
 2246SOL     OW 7636   1.454   3.002   5.319
 2246SOL    HW1 7637   1.541   2.997   5.367
 2246SOL    HW2 7638   1.461   3.066   5.243
 2247SOL     OW 7639   2.272   2.163   5.526
 2247SOL    HW1 7640   2.228   2.129   5.443
 2247SOL    HW2 7641   2.215   2.234   5.568
 2248SOL     OW 7642   5.134   4.213   5.236
 2248SOL    HW1 7643   5.069   4.270   5.187
 2248SOL    HW2 7644   5.093   4.125   5.258
 2249SOL     OW 7645   5.551   5.901   2.754
 2249SOL    HW1 7646   5.555   5.994   2.793
 2249SOL    HW2 7647   5.607   5.897   2.672
 2250SOL     OW 7648   5.643   3.841   1.382
 2250SOL    HW1 7649   5.549   3.841   1.417
 2250SOL    HW2 7650   5.703   3.798   1.450
 2251SOL     OW 7651   6.145   1.703   6.948
 2251SOL    HW1 7652   6.184   1.689   0.009
 2251SOL    HW2 7653   6.060   1.652   6.939
 2252SOL     OW 7654   5.795   2.807   5.081
 2252SOL    HW1 7655   5.735   2.885   5.096
 2252SOL    HW2 7656   5.880   2.838   5.038
 2253SOL     OW 7657   2.218   3.149   6.755
 2253SOL    HW1 7658   2.165   3.225   6.791
 2253SOL    HW2 7659   2.266   3.177   6.672
 2254SOL     OW 7660   2.124   3.436   6.024
 2254SOL    HW1 7661   2.061   3.359   6.013
 2254SOL    HW2 7662   2.179   3.447   5.941
 2255SOL     OW 7663   6.004   2.594   1.814
 2255SOL    HW1 7664   6.043   2.505   1.839
 2255SOL    HW2 7665   6.041   2.623   1.726
 2256SOL     OW 7666   3.105   4.784   2.122
 2256SOL    HW1 7667   3.063   4.741   2.202
 2256SOL    HW2 7668   3.197   4.816   2.146
 2257SOL     OW 7669   1.274   3.390   4.651
 2257SOL    HW1 7670   1.271   3.296   4.616
 2257SOL    HW2 7671   1.338   3.396   4.727
 2258SOL     OW 7672   1.879   4.652   4.842
 2258SOL    HW1 7673   1.891   4.558   4.874
 2258SOL    HW2 7674   1.966   4.687   4.808
 2259SOL     OW 7675   5.632   4.398   6.322
 2259SOL    HW1 7676   5.671   4.489   6.309
 2259SOL    HW2 7677   5.559   4.384   6.255
 2260SOL     OW 7678   3.964   5.008   2.948
 2260SOL    HW1 7679   3.974   4.957   3.033
 2260SOL    HW2 7680   4.015   4.963   2.875
 2261SOL     OW 7681   5.338   6.585   0.974
 2261SOL    HW1 7682   5.374   6.579   0.880
 2261SOL    HW2 7683   5.393   6.528   1.034
 2262SOL     OW 7684   5.708   1.946   4.503
 2262SOL    HW1 7685   5.627   1.991   4.464
 2262SOL    HW2 7686   5.786   1.959   4.442
 2263SOL     OW 7687   2.023   5.686   5.872
 2263SOL    HW1 7688   2.084   5.723   5.801
 2263SOL    HW2 7689   1.928   5.705   5.847
 2264SOL     OW 7690   3.142   3.006   2.343
 2264SOL    HW1 7691   3.164   2.912   2.369
 2264SOL    HW2 7692   3.151   3.066   2.422
 2265SOL     OW 7693   0.103   1.251   2.366
 2265SOL    HW1 7694   0.005   1.262   2.381
 2265SOL    HW2 7695   0.152   1.327   2.410
 2266SOL     OW 7696   6.259   0.707   0.726
 2266SOL    HW1 7697   6.201   0.776   0.682
 2266SOL    HW2 7698   6.267   0.728   0.823
 2267SOL     OW 7699   5.327   2.505   4.826
 2267SOL    HW1 7700   5.354   2.589   4.871
 2267SOL    HW2 7701   5.375   2.496   4.739
 2268SOL     OW 7702   6.731   6.024   0.710
 2268SOL    HW1 7703   6.702   6.094   0.645
 2268SOL    HW2 7704   6.699   6.048   0.802
 2269SOL     OW 7705   6.179   6.069   5.641
 2269SOL    HW1 7706   6.170   5.986   5.587
 2269SOL    HW2 7707   6.254   6.058   5.707
 2270SOL     OW 7708   3.307   3.650   1.916
 2270SOL    HW1 7709   3.285   3.669   1.821
 2270SOL    HW2 7710   3.225   3.618   1.964
 2271SOL     OW 7711   5.939   4.337   1.563
 2271SOL    HW1 7712   5.921   4.411   1.498
 2271SOL    HW2 7713   6.037   4.326   1.574
 2272SOL     OW 7714   5.051   2.299   5.241
 2272SOL    HW1 7715   5.031   2.216   5.293
 2272SOL    HW2 7716   5.131   2.343   5.280
 2273SOL     OW 7717   0.633   0.611   3.131
 2273SOL    HW1 7718   0.624   0.705   3.165
 2273SOL    HW2 7719   0.563   0.554   3.174
 2274SOL     OW 7720   1.799   3.564   4.797
 2274SOL    HW1 7721   1.728   3.504   4.834
 2274SOL    HW2 7722   1.798   3.651   4.846
 2275SOL     OW 7723   5.039   6.056   4.762
 2275SOL    HW1 7724   5.070   5.998   4.837
 2275SOL    HW2 7725   5.031   6.003   4.679
 2276SOL     OW 7726   4.017   4.473   0.797
 2276SOL    HW1 7727   3.936   4.515   0.756
 2276SOL    HW2 7728   4.099   4.521   0.764
 2277SOL     OW 7729   3.188   3.768   5.536
 2277SOL    HW1 7730   3.141   3.848   5.499
 2277SOL    HW2 7731   3.274   3.796   5.579
 2278SOL     OW 7732   5.169   6.174   2.379
 2278SOL    HW1 7733   5.234   6.197   2.451
 2278SOL    HW2 7734   5.155   6.254   2.320
 2279SOL     OW 7735   5.343   3.687   4.422
 2279SOL    HW1 7736   5.431   3.680   4.374
 2279SOL    HW2 7737   5.268   3.674   4.357
 2280SOL     OW 7738   6.715   6.279   5.227
 2280SOL    HW1 7739   6.678   6.355   5.279
 2280SOL    HW2 7740   6.649   6.250   5.158
 2281SOL     OW 7741   3.688   2.057   1.765
 2281SOL    HW1 7742   3.707   2.116   1.844
 2281SOL    HW2 7743   3.590   2.036   1.762
 2282SOL     OW 7744   4.594   5.261   4.650
 2282SOL    HW1 7745   4.619   5.335   4.713
 2282SOL    HW2 7746   4.659   5.259   4.574
 2283SOL     OW 7747   6.543   3.979   3.107
 2283SOL    HW1 7748   6.552   3.939   3.016
 2283SOL    HW2 7749   6.464   4.039   3.109
 2284SOL     OW 7750   2.344   2.626   2.260
 2284SOL    HW1 7751   2.253   2.628   2.218
 2284SOL    HW2 7752   2.413   2.644   2.190
 2285SOL     OW 7753   1.633   3.830   0.506
 2285SOL    HW1 7754   1.627   3.863   0.412
 2285SOL    HW2 7755   1.545   3.789   0.533
 2286SOL     OW 7756   6.863   5.759   4.969
 2286SOL    HW1 7757   6.860   5.735   5.066
 2286SOL    HW2 7758   6.770   5.779   4.938
 2287SOL     OW 7759   2.248   2.856   1.361
 2287SOL    HW1 7760   2.162   2.907   1.364
 2287SOL    HW2 7761   2.264   2.822   1.269
 2288SOL     OW 7762   0.562   6.476   3.683
 2288SOL    HW1 7763   0.654   6.462   3.645
 2288SOL    HW2 7764   0.562   6.559   3.738
 2289SOL     OW 7765   5.369   1.924   1.967
 2289SOL    HW1 7766   5.353   1.994   1.898
 2289SOL    HW2 7767   5.451   1.872   1.943
 2290SOL     OW 7768   3.042   3.324   3.116
 2290SOL    HW1 7769   3.051   3.233   3.076
 2290SOL    HW2 7770   3.012   3.388   3.046
 2291SOL     OW 7771   1.976   1.804   1.158
 2291SOL    HW1 7772   2.071   1.774   1.158
 2291SOL    HW2 7773   1.917   1.726   1.179
 2292SOL     OW 7774   4.928   2.343   4.048
 2292SOL    HW1 7775   4.996   2.288   4.097
 2292SOL    HW2 7776   4.975   2.406   3.987
 2293SOL     OW 7777   5.557   1.235   0.734
 2293SOL    HW1 7778   5.594   1.290   0.809
 2293SOL    HW2 7779   5.457   1.245   0.733
 2294SOL     OW 7780   2.146   2.483   5.607
 2294SOL    HW1 7781   2.197   2.558   5.566
 2294SOL    HW2 7782   2.048   2.502   5.601
 2295SOL     OW 7783   6.609   0.329   1.571
 2295SOL    HW1 7784   6.544   0.377   1.629
 2295SOL    HW2 7785   6.572   0.322   1.478
 2296SOL     OW 7786   2.369   4.873   3.756
 2296SOL    HW1 7787   2.316   4.853   3.838
 2296SOL    HW2 7788   2.362   4.796   3.692
 2297SOL     OW 7789   5.123   4.644   5.615
 2297SOL    HW1 7790   5.131   4.743   5.618
 2297SOL    HW2 7791   5.131   4.613   5.520
 2298SOL     OW 7792   3.971   3.193   4.547
 2298SOL    HW1 7793   3.925   3.167   4.463
 2298SOL    HW2 7794   3.912   3.172   4.625
 2299SOL     OW 7795   5.092   3.581   4.603
 2299SOL    HW1 7796   5.158   3.650   4.573
 2299SOL    HW2 7797   5.050   3.610   4.689
 2300SOL     OW 7798   3.383   6.843   3.214
 2300SOL    HW1 7799   3.430   6.835   3.302
 2300SOL    HW2 7800   3.427   6.783   3.148
 2301SOL     OW 7801   3.091   3.422   4.629
 2301SOL    HW1 7802   3.177   3.371   4.633
 2301SOL    HW2 7803   3.069   3.460   4.719
 2302SOL     OW 7804   4.034   1.517   0.653
 2302SOL    HW1 7805   4.074   1.593   0.704
 2302SOL    HW2 7806   3.976   1.463   0.714
 2303SOL     OW 7807   2.363   3.095   1.239
 2303SOL    HW1 7808   2.330   3.183   1.273
 2303SOL    HW2 7809   2.317   3.072   1.153
 2304SOL     OW 7810   6.571   5.693   3.769
 2304SOL    HW1 7811   6.543   5.597   3.771
 2304SOL    HW2 7812   6.520   5.743   3.840
 2305SOL     OW 7813   1.671   1.199   3.878
 2305SOL    HW1 7814   1.644   1.254   3.957
 2305SOL    HW2 7815   1.744   1.246   3.828
 2306SOL     OW 7816   1.875   4.721   3.363
 2306SOL    HW1 7817   1.969   4.723   3.328
 2306SOL    HW2 7818   1.812   4.698   3.289
 2307SOL     OW 7819   1.298   3.153   5.507
 2307SOL    HW1 7820   1.357   3.077   5.479
 2307SOL    HW2 7821   1.337   3.239   5.475
 2308SOL     OW 7822   2.007   5.138   1.613
 2308SOL    HW1 7823   2.082   5.073   1.607
 2308SOL    HW2 7824   1.988   5.158   1.709
 2309SOL     OW 7825   1.742   0.138   4.053
 2309SOL    HW1 7826   1.647   0.162   4.072
 2309SOL    HW2 7827   1.761   0.152   3.955
 2310SOL     OW 7828   4.427   0.036   1.748
 2310SOL    HW1 7829   4.440   0.051   1.650
 2310SOL    HW2 7830   4.459   0.117   1.799
 2311SOL     OW 7831   2.626   6.137   0.445
 2311SOL    HW1 7832   2.559   6.074   0.484
 2311SOL    HW2 7833   2.590   6.173   0.359
 2312SOL     OW 7834   3.649   5.930   2.500
 2312SOL    HW1 7835   3.716   5.873   2.452
 2312SOL    HW2 7836   3.568   5.875   2.522
 2313SOL     OW 7837   5.085   4.782   2.855
 2313SOL    HW1 7838   5.059   4.759   2.949
 2313SOL    HW2 7839   5.015   4.842   2.815
 2314SOL     OW 7840   3.438   5.496   3.064
 2314SOL    HW1 7841   3.353   5.514   3.014
 2314SOL    HW2 7842   3.443   5.399   3.087
 2315SOL     OW 7843   4.765   3.101   6.249
 2315SOL    HW1 7844   4.731   3.132   6.160
 2315SOL    HW2 7845   4.687   3.082   6.309
 2316SOL     OW 7846   5.248   2.543   3.514
 2316SOL    HW1 7847   5.214   2.597   3.592
 2316SOL    HW2 7848   5.209   2.451   3.518
 2317SOL     OW 7849   1.198   4.677   2.227
 2317SOL    HW1 7850   1.103   4.652   2.243
 2317SOL    HW2 7851   1.207   4.777   2.228
 2318SOL     OW 7852   0.535   1.617   3.230
 2318SOL    HW1 7853   0.542   1.564   3.315
 2318SOL    HW2 7854   0.555   1.558   3.152
 2319SOL     OW 7855   1.884   3.972   4.556
 2319SOL    HW1 7856   1.876   4.017   4.645
 2319SOL    HW2 7857   1.827   4.019   4.489
 2320SOL     OW 7858   0.161   2.280   4.035
 2320SOL    HW1 7859   0.111   2.366   4.018
 2320SOL    HW2 7860   0.119   2.206   3.983
 2321SOL     OW 7861   2.973   0.148   5.054
 2321SOL    HW1 7862   3.009   0.230   5.010
 2321SOL    HW2 7863   2.962   0.076   4.985
 2322SOL     OW 7864   1.325   1.710   5.778
 2322SOL    HW1 7865   1.288   1.746   5.692
 2322SOL    HW2 7866   1.276   1.627   5.803
 2323SOL     OW 7867   4.527   5.389   3.291
 2323SOL    HW1 7868   4.482   5.479   3.297
 2323SOL    HW2 7869   4.463   5.319   3.322
 2324SOL     OW 7870   0.995   6.101   2.656
 2324SOL    HW1 7871   0.941   6.166   2.709
 2324SOL    HW2 7872   1.042   6.038   2.718
 2325SOL     OW 7873   0.937   3.550   1.336
 2325SOL    HW1 7874   0.871   3.589   1.400
 2325SOL    HW2 7875   0.906   3.565   1.242
 2326SOL     OW 7876   1.730   4.984   6.483
 2326SOL    HW1 7877   1.747   4.888   6.507
 2326SOL    HW2 7878   1.634   5.005   6.502
 2327SOL     OW 7879   4.769   2.773   4.072
 2327SOL    HW1 7880   4.759   2.791   4.170
 2327SOL    HW2 7881   4.859   2.802   4.041
 2328SOL     OW 7882   4.968   1.425   2.971
 2328SOL    HW1 7883   4.993   1.339   3.016
 2328SOL    HW2 7884   4.981   1.417   2.873
 2329SOL     OW 7885   1.144   5.454   4.045
 2329SOL    HW1 7886   1.222   5.444   4.107
 2329SOL    HW2 7887   1.166   5.414   3.956
 2330SOL     OW 7888   0.503   4.586   2.055
 2330SOL    HW1 7889   0.530   4.629   1.969
 2330SOL    HW2 7890   0.577   4.527   2.087
 2331SOL     OW 7891   0.222   4.046   5.303
 2331SOL    HW1 7892   0.286   4.098   5.360
 2331SOL    HW2 7893   0.235   4.072   5.207
 2332SOL     OW 7894   5.220   2.801   6.299
 2332SOL    HW1 7895   5.120   2.796   6.300
 2332SOL    HW2 7896   5.248   2.890   6.264
 2333SOL     OW 7897   0.943   5.116   3.366
 2333SOL    HW1 7898   0.907   5.118   3.459
 2333SOL    HW2 7899   0.868   5.108   3.301
 2334SOL     OW 7900   3.475   6.626   6.900
 2334SOL    HW1 7901   3.539   6.623   6.824
 2334SOL    HW2 7902   3.471   6.719   6.938
 2335SOL     OW 7903   5.297   6.948   3.531
 2335SOL    HW1 7904   5.279   0.015   3.544
 2335SOL    HW2 7905   5.354   6.914   3.605
 2336SOL     OW 7906   5.073   1.147   5.992
 2336SOL    HW1 7907   4.979   1.133   6.022
 2336SOL    HW2 7908   5.110   1.228   6.036
 2337SOL     OW 7909   5.628   0.465   3.061
 2337SOL    HW1 7910   5.563   0.404   3.107
 2337SOL    HW2 7911   5.702   0.487   3.124
 2338SOL     OW 7912   0.088   6.538   0.171
 2338SOL    HW1 7913   0.152   6.596   0.223
 2338SOL    HW2 7914   0.124   6.445   0.166
 2339SOL     OW 7915   3.579   4.711   6.573
 2339SOL    HW1 7916   3.553   4.639   6.637
 2339SOL    HW2 7917   3.507   4.724   6.505
 2340SOL     OW 7918   3.203   6.130   5.052
 2340SOL    HW1 7919   3.251   6.190   4.989
 2340SOL    HW2 7920   3.269   6.072   5.100
 2341SOL     OW 7921   5.837   5.047   0.643
 2341SOL    HW1 7922   5.872   4.970   0.697
 2341SOL    HW2 7923   5.794   5.012   0.560
 2342SOL     OW 7924   6.983   0.570   5.231
 2342SOL    HW1 7925   7.003   0.517   5.149
 2342SOL    HW2 7926   6.946   0.659   5.204
 2343SOL     OW 7927   1.156   6.163   1.000
 2343SOL    HW1 7928   1.119   6.093   0.939
 2343SOL    HW2 7929   1.187   6.241   0.946
 2344SOL     OW 7930   2.426   1.458   2.625
 2344SOL    HW1 7931   2.383   1.373   2.597
 2344SOL    HW2 7932   2.494   1.486   2.558
 2345SOL     OW 7933   1.293   0.784   4.849
 2345SOL    HW1 7934   1.272   0.771   4.945
 2345SOL    HW2 7935   1.340   0.872   4.837
 2346SOL     OW 7936   4.828   3.662   5.687
 2346SOL    HW1 7937   4.749   3.691   5.741
 2346SOL    HW2 7938   4.806   3.671   5.590
 2347SOL     OW 7939   1.577   3.431   1.866
 2347SOL    HW1 7940   1.495   3.464   1.913
 2347SOL    HW2 7941   1.657   3.481   1.899
 2348SOL     OW 7942   2.898   6.507   3.591
 2348SOL    HW1 7943   2.911   6.431   3.528
 2348SOL    HW2 7944   2.868   6.472   3.680
 2349SOL     OW 7945   0.026   6.926   6.048
 2349SOL    HW1 7946   0.013   6.829   6.029
 2349SOL    HW2 7947   6.968   6.972   6.048
 2350SOL     OW 7948   2.897   0.494   5.182
 2350SOL    HW1 7949   2.863   0.587   5.194
 2350SOL    HW2 7950   2.969   0.475   5.249
 2351SOL     OW 7951   2.641   4.772   3.650
 2351SOL    HW1 7952   2.636   4.693   3.712
 2351SOL    HW2 7953   2.595   4.849   3.692
 2352SOL     OW 7954   6.996   4.374   2.858
 2352SOL    HW1 7955   6.941   4.307   2.808
 2352SOL    HW2 7956   7.018   4.337   2.949
 2353SOL     OW 7957   2.640   4.061   5.824
 2353SOL    HW1 7958   2.726   4.084   5.869
 2353SOL    HW2 7959   2.638   4.101   5.733
 2354SOL     OW 7960   3.792   2.494   0.780
 2354SOL    HW1 7961   3.750   2.453   0.860
 2354SOL    HW2 7962   3.809   2.591   0.798
 2355SOL     OW 7963   0.635   6.550   0.932
 2355SOL    HW1 7964   0.718   6.596   0.964
 2355SOL    HW2 7965   0.647   6.523   0.837
 2356SOL     OW 7966   2.273   5.073   2.856
 2356SOL    HW1 7967   2.303   5.053   2.763
 2356SOL    HW2 7968   2.237   5.166   2.860
 2357SOL     OW 7969   5.111   4.450   2.609
 2357SOL    HW1 7970   5.085   4.372   2.553
 2357SOL    HW2 7971   5.040   4.468   2.678
 2358SOL     OW 7972   3.514   0.253   5.038
 2358SOL    HW1 7973   3.460   0.252   5.122
 2358SOL    HW2 7974   3.573   0.172   5.036
 2359SOL     OW 7975   2.934   1.763   5.594
 2359SOL    HW1 7976   2.842   1.751   5.557
 2359SOL    HW2 7977   2.955   1.688   5.656
 2360SOL     OW 7978   3.768   4.885   0.691
 2360SOL    HW1 7979   3.855   4.874   0.740
 2360SOL    HW2 7980   3.733   4.795   0.665
 2361SOL     OW 7981   3.412   6.587   2.859
 2361SOL    HW1 7982   3.447   6.678   2.840
 2361SOL    HW2 7983   3.323   6.575   2.815
 2362SOL     OW 7984   4.512   5.901   4.482
 2362SOL    HW1 7985   4.418   5.909   4.447
 2362SOL    HW2 7986   4.560   5.988   4.468
 2363SOL     OW 7987   3.783   3.034   6.701
 2363SOL    HW1 7988   3.848   3.017   6.775
 2363SOL    HW2 7989   3.692   3.003   6.729
 2364SOL     OW 7990   5.042   1.565   2.118
 2364SOL    HW1 7991   4.982   1.488   2.094
 2364SOL    HW2 7992   5.047   1.574   2.218
 2365SOL     OW 7993   4.945   3.527   4.383
 2365SOL    HW1 7994   5.002   3.555   4.460
 2365SOL    HW2 7995   4.891   3.604   4.351
 2366SOL     OW 7996   1.991   4.040   5.645
 2366SOL    HW1 7997   1.915   3.976   5.657
 2366SOL    HW2 7998   1.961   4.133   5.668
 2367SOL     OW 7999   0.837   3.573   6.178
 2367SOL    HW1 8000   0.869   3.667   6.189
 2367SOL    HW2 8001   0.870   3.517   6.253
 2368SOL     OW 8002   5.462   0.501   4.431
 2368SOL    HW1 8003   5.397   0.433   4.398
 2368SOL    HW2 8004   5.420   0.592   4.430
 2369SOL     OW 8005   3.443   1.591   3.663
 2369SOL    HW1 8006   3.526   1.631   3.624
 2369SOL    HW2 8007   3.448   1.595   3.763
 2370SOL     OW 8008   4.698   2.580   0.978
 2370SOL    HW1 8009   4.791   2.614   0.987
 2370SOL    HW2 8010   4.634   2.646   1.017
 2371SOL     OW 8011   0.758   6.555   2.671
 2371SOL    HW1 8012   0.771   6.651   2.697
 2371SOL    HW2 8013   0.844   6.505   2.683
 2372SOL     OW 8014   6.401   1.519   5.961
 2372SOL    HW1 8015   6.466   1.542   6.033
 2372SOL    HW2 8016   6.309   1.546   5.990
 2373SOL     OW 8017   6.209   0.578   6.199
 2373SOL    HW1 8018   6.148   0.518   6.252
 2373SOL    HW2 8019   6.290   0.600   6.253
 2374SOL     OW 8020   6.311   5.744   3.351
 2374SOL    HW1 8021   6.222   5.707   3.377
 2374SOL    HW2 8022   6.354   5.683   3.284
 2375SOL     OW 8023   0.631   0.660   3.954
 2375SOL    HW1 8024   0.586   0.652   4.043
 2375SOL    HW2 8025   0.673   0.572   3.931
 2376SOL     OW 8026   7.005   2.111   2.991
 2376SOL    HW1 8027   0.072   2.110   2.967
 2376SOL    HW2 8028   6.985   2.031   3.048
 2377SOL     OW 8029   3.421   4.704   6.328
 2377SOL    HW1 8030   3.446   4.795   6.293
 2377SOL    HW2 8031   3.418   4.639   6.252
 2378SOL     OW 8032   6.063   2.174   0.567
 2378SOL    HW1 8033   6.129   2.181   0.641
 2378SOL    HW2 8034   6.099   2.219   0.485
 2379SOL     OW 8035   0.229   5.061   0.640
 2379SOL    HW1 8036   0.164   5.032   0.711
 2379SOL    HW2 8037   0.296   5.123   0.681
 2380SOL     OW 8038   6.129   3.199   5.108
 2380SOL    HW1 8039   6.092   3.292   5.104
 2380SOL    HW2 8040   6.079   3.147   5.178
 2381SOL     OW 8041   2.139   4.641   5.186
 2381SOL    HW1 8042   2.040   4.632   5.200
 2381SOL    HW2 8043   2.185   4.558   5.219
 2382SOL     OW 8044   1.973   6.021   2.779
 2382SOL    HW1 8045   1.882   5.980   2.771
 2382SOL    HW2 8046   2.033   5.959   2.829
 2383SOL     OW 8047   5.185   6.044   5.557
 2383SOL    HW1 8048   5.231   5.956   5.567
 2383SOL    HW2 8049   5.097   6.030   5.511
 2384SOL     OW 8050   0.828   2.446   1.590
 2384SOL    HW1 8051   0.748   2.389   1.609
 2384SOL    HW2 8052   0.910   2.402   1.624
 2385SOL     OW 8053   0.419   2.045   0.442
 2385SOL    HW1 8054   0.497   1.984   0.453
 2385SOL    HW2 8055   0.432   2.101   0.360
 2386SOL     OW 8056   2.911   5.186   4.254
 2386SOL    HW1 8057   2.977   5.112   4.242
 2386SOL    HW2 8058   2.933   5.238   4.336
 2387SOL     OW 8059   0.607   2.533   3.928
 2387SOL    HW1 8060   0.620   2.557   3.832
 2387SOL    HW2 8061   0.604   2.433   3.937
 2388SOL     OW 8062   0.240   2.213   6.296
 2388SOL    HW1 8063   0.249   2.279   6.222
 2388SOL    HW2 8064   0.232   2.121   6.259
 2389SOL     OW 8065   5.495   5.021   4.255
 2389SOL    HW1 8066   5.508   5.076   4.173
 2389SOL    HW2 8067   5.446   5.074   4.324
 2390SOL     OW 8068   4.400   3.854   6.421
 2390SOL    HW1 8069   4.333   3.797   6.371
 2390SOL    HW2 8070   4.457   3.795   6.478
 2391SOL     OW 8071   3.665   3.497   6.868
 2391SOL    HW1 8072   3.701   3.404   6.874
 2391SOL    HW2 8073   3.568   3.493   6.846
 2392SOL     OW 8074   3.221   5.142   5.639
 2392SOL    HW1 8075   3.289   5.104   5.576
 2392SOL    HW2 8076   3.132   5.101   5.621
 2393SOL     OW 8077   4.093   5.307   2.022
 2393SOL    HW1 8078   4.188   5.278   2.008
 2393SOL    HW2 8079   4.055   5.339   1.935
 2394SOL     OW 8080   0.113   3.818   3.626
 2394SOL    HW1 8081   0.138   3.780   3.537
 2394SOL    HW2 8082   0.080   3.912   3.614
 2395SOL     OW 8083   0.784   3.388   6.821
 2395SOL    HW1 8084   0.761   3.480   6.791
 2395SOL    HW2 8085   0.825   3.338   6.744
 2396SOL     OW 8086   5.713   0.692   5.536
 2396SOL    HW1 8087   5.724   0.709   5.438
 2396SOL    HW2 8088   5.621   0.720   5.564
 2397SOL     OW 8089   0.598   5.163   5.817
 2397SOL    HW1 8090   0.663   5.168   5.740
 2397SOL    HW2 8091   0.643   5.197   5.900
 2398SOL     OW 8092   2.439   5.705   3.545
 2398SOL    HW1 8093   2.501   5.627   3.537
 2398SOL    HW2 8094   2.398   5.724   3.456
 2399SOL     OW 8095   2.789   2.031   3.657
 2399SOL    HW1 8096   2.784   1.951   3.597
 2399SOL    HW2 8097   2.709   2.089   3.641
 2400SOL     OW 8098   2.193   3.717   0.403
 2400SOL    HW1 8099   2.098   3.711   0.434
 2400SOL    HW2 8100   2.206   3.804   0.355
 2401SOL     OW 8101   3.441   0.227   4.216
 2401SOL    HW1 8102   3.441   0.264   4.123
 2401SOL    HW2 8103   3.535   0.219   4.248
 2402SOL     OW 8104   1.104   2.279   3.073
 2402SOL    HW1 8105   1.017   2.265   3.121
 2402SOL    HW2 8106   1.154   2.354   3.117
 2403SOL     OW 8107   3.711   3.042   0.921
 2403SOL    HW1 8108   3.619   3.014   0.949
 2403SOL    HW2 8109   3.705   3.118   0.856
 2404SOL     OW 8110   6.341   1.445   1.199
 2404SOL    HW1 8111   6.357   1.536   1.161
 2404SOL    HW2 8112   6.367   1.376   1.132
 2405SOL     OW 8113   2.735   4.936   6.615
 2405SOL    HW1 8114   2.717   4.914   6.711
 2405SOL    HW2 8115   2.796   4.868   6.576
 2406SOL     OW 8116   1.620   0.526   3.397
 2406SOL    HW1 8117   1.578   0.570   3.477
 2406SOL    HW2 8118   1.676   0.449   3.428
 2407SOL     OW 8119   4.507   2.136   3.124
 2407SOL    HW1 8120   4.454   2.219   3.106
 2407SOL    HW2 8121   4.532   2.132   3.220
 2408SOL     OW 8122   2.295   5.793   3.340
 2408SOL    HW1 8123   2.296   5.721   3.270
 2408SOL    HW2 8124   2.338   5.875   3.303
 2409SOL     OW 8125   2.527   2.871   1.115
 2409SOL    HW1 8126   2.511   2.910   1.024
 2409SOL    HW2 8127   2.468   2.919   1.181
 2410SOL     OW 8128   6.157   3.598   6.270
 2410SOL    HW1 8129   6.084   3.623   6.334
 2410SOL    HW2 8130   6.194   3.681   6.229
 2411SOL     OW 8131   2.705   4.373   6.568
 2411SOL    HW1 8132   2.790   4.323   6.548
 2411SOL    HW2 8133   2.676   4.353   6.662
 2412SOL     OW 8134   2.713   3.106   6.906
 2412SOL    HW1 8135   2.673   3.018   6.879
 2412SOL    HW2 8136   2.806   3.113   6.871
 2413SOL     OW 8137   6.336   3.235   6.297
 2413SOL    HW1 8138   6.432   3.207   6.290
 2413SOL    HW2 8139   6.327   3.303   6.369
 2414SOL     OW 8140   5.712   2.371   3.812
 2414SOL    HW1 8141   5.673   2.366   3.720
 2414SOL    HW2 8142   5.641   2.353   3.880
 2415SOL     OW 8143   2.361   6.748   0.422
 2415SOL    HW1 8144   2.356   6.653   0.391
 2415SOL    HW2 8145   2.327   6.755   0.516
 2416SOL     OW 8146   0.578   3.024   2.870
 2416SOL    HW1 8147   0.614   3.026   2.777
 2416SOL    HW2 8148   0.636   2.966   2.927
 2417SOL     OW 8149   4.615   2.602   0.002
 2417SOL    HW1 8150   4.715   2.611   0.011
 2417SOL    HW2 8151   4.570   2.670   0.059
 2418SOL     OW 8152   4.082   4.155   5.224
 2418SOL    HW1 8153   4.125   4.245   5.213
 2418SOL    HW2 8154   4.006   4.146   5.159
 2419SOL     OW 8155   2.330   6.834   4.210
 2419SOL    HW1 8156   2.231   6.848   4.217
 2419SOL    HW2 8157   2.377   6.894   4.275
 2420SOL     OW 8158   3.666   5.789   1.960
 2420SOL    HW1 8159   3.712   5.732   1.891
 2420SOL    HW2 8160   3.668   5.885   1.930
 2421SOL     OW 8161   4.152   6.747   3.667
 2421SOL    HW1 8162   4.214   6.804   3.720
 2421SOL    HW2 8163   4.059   6.779   3.678
 2422SOL     OW 8164   3.777   6.844   1.358
 2422SOL    HW1 8165   3.847   6.914   1.373
 2422SOL    HW2 8166   3.704   6.853   1.426
 2423SOL     OW 8167   2.176   5.845   1.910
 2423SOL    HW1 8168   2.084   5.808   1.894
 2423SOL    HW2 8169   2.240   5.769   1.923
 2424SOL     OW 8170   5.482   6.346   6.743
 2424SOL    HW1 8171   5.458   6.307   6.654
 2424SOL    HW2 8172   5.400   6.383   6.786
 2425SOL     OW 8173   4.857   5.591   5.895
 2425SOL    HW1 8174   4.799   5.544   5.961
 2425SOL    HW2 8175   4.850   5.690   5.909
 2426SOL     OW 8176   1.460   5.854   4.804
 2426SOL    HW1 8177   1.367   5.881   4.783
 2426SOL    HW2 8178   1.476   5.761   4.772
 2427SOL     OW 8179   4.819   6.145   6.543
 2427SOL    HW1 8180   4.804   6.055   6.502
 2427SOL    HW2 8181   4.733   6.178   6.584
 2428SOL     OW 8182   0.076   1.275   3.404
 2428SOL    HW1 8183   0.054   1.210   3.332
 2428SOL    HW2 8184   7.023   1.323   3.432
 2429SOL     OW 8185   5.071   5.010   2.256
 2429SOL    HW1 8186   5.080   4.933   2.320
 2429SOL    HW2 8187   5.049   5.093   2.308
 2430SOL     OW 8188   5.805   2.043   0.503
 2430SOL    HW1 8189   5.811   2.011   0.408
 2430SOL    HW2 8190   5.897   2.061   0.538
 2431SOL     OW 8191   5.831   1.651   1.842
 2431SOL    HW1 8192   5.764   1.692   1.903
 2431SOL    HW2 8193   5.850   1.713   1.766
 2432SOL     OW 8194   3.279   5.377   1.625
 2432SOL    HW1 8195   3.312   5.353   1.534
 2432SOL    HW2 8196   3.208   5.313   1.653
 2433SOL     OW 8197   0.508   5.866   0.306
 2433SOL    HW1 8198   0.415   5.861   0.344
 2433SOL    HW2 8199   0.571   5.896   0.377
 2434SOL     OW 8200   4.157   2.026   2.179
 2434SOL    HW1 8201   4.097   1.966   2.232
 2434SOL    HW2 8202   4.103   2.096   2.134
 2435SOL     OW 8203   5.575   5.814   0.331
 2435SOL    HW1 8204   5.621   5.802   0.242
 2435SOL    HW2 8205   5.504   5.884   0.322
 2436SOL     OW 8206   1.961   1.150   1.510
 2436SOL    HW1 8207   2.003   1.165   1.599
 2436SOL    HW2 8208   1.889   1.080   1.518
 2437SOL     OW 8209   5.836   5.580   2.078
 2437SOL    HW1 8210   5.832   5.553   2.174
 2437SOL    HW2 8211   5.835   5.498   2.020
 2438SOL     OW 8212   3.810   2.123   4.874
 2438SOL    HW1 8213   3.786   2.028   4.895
 2438SOL    HW2 8214   3.748   2.184   4.924
 2439SOL     OW 8215   0.016   5.624   6.914
 2439SOL    HW1 8216   0.009   5.526   6.931
 2439SOL    HW2 8217   0.107   5.656   6.942
 2440SOL     OW 8218   4.169   0.484   4.873
 2440SOL    HW1 8219   4.109   0.563   4.889
 2440SOL    HW2 8220   4.264   0.515   4.864
 2441SOL     OW 8221   5.439   0.672   0.009
 2441SOL    HW1 8222   5.535   0.646   0.006
 2441SOL    HW2 8223   5.420   0.718   0.096
 2442SOL     OW 8224   5.932   3.661   2.855
 2442SOL    HW1 8225   5.966   3.616   2.938
 2442SOL    HW2 8226   5.850   3.713   2.877
 2443SOL     OW 8227   2.405   0.916   6.164
 2443SOL    HW1 8228   2.432   0.841   6.103
 2443SOL    HW2 8229   2.328   0.887   6.220
 2444SOL     OW 8230   3.900   4.714   0.264
 2444SOL    HW1 8231   3.943   4.804   0.256
 2444SOL    HW2 8232   3.806   4.720   0.231
 2445SOL     OW 8233   6.208   1.589   2.065
 2445SOL    HW1 8234   6.176   1.607   2.158
 2445SOL    HW2 8235   6.308   1.594   2.063
 2446SOL     OW 8236   0.871   2.512   2.688
 2446SOL    HW1 8237   0.946   2.477   2.743
 2446SOL    HW2 8238   0.892   2.606   2.659
 2447SOL     OW 8239   2.147   0.688   0.672
 2447SOL    HW1 8240   2.242   0.707   0.696
 2447SOL    HW2 8241   2.141   0.670   0.573
 2448SOL     OW 8242   6.119   1.814   4.197
 2448SOL    HW1 8243   6.130   1.719   4.170
 2448SOL    HW2 8244   6.191   1.839   4.261
 2449SOL     OW 8245   1.361   3.537   1.986
 2449SOL    HW1 8246   1.375   3.552   2.084
 2449SOL    HW2 8247   1.276   3.487   1.971
 2450SOL     OW 8248   3.097   5.212   6.977
 2450SOL    HW1 8249   3.151   5.189   6.897
 2450SOL    HW2 8250   3.150   5.272   0.007
 2451SOL     OW 8251   0.776   0.177   4.090
 2451SOL    HW1 8252   0.835   0.258   4.099
 2451SOL    HW2 8253   0.811   0.104   4.150
 2452SOL     OW 8254   2.390   2.073   3.493
 2452SOL    HW1 8255   2.407   2.161   3.536
 2452SOL    HW2 8256   2.413   2.077   3.396
 2453SOL     OW 8257   6.827   2.680   0.952
 2453SOL    HW1 8258   6.828   2.750   0.881
 2453SOL    HW2 8259   6.820   2.724   1.042
 2454SOL     OW 8260   2.463   5.712   6.841
 2454SOL    HW1 8261   2.418   5.756   6.763
 2454SOL    HW2 8262   2.503   5.625   6.811
 2455SOL     OW 8263   3.789   1.159   0.817
 2455SOL    HW1 8264   3.761   1.251   0.844
 2455SOL    HW2 8265   3.767   1.143   0.721
 2456SOL     OW 8266   0.815   3.716   6.572
 2456SOL    HW1 8267   0.741   3.731   6.506
 2456SOL    HW2 8268   0.776   3.696   6.662
 2457SOL     OW 8269   6.000   0.952   5.323
 2457SOL    HW1 8270   6.020   1.042   5.283
 2457SOL    HW2 8271   5.951   0.964   5.409
 2458SOL     OW 8272   0.914   0.465   3.650
 2458SOL    HW1 8273   0.865   0.503   3.571
 2458SOL    HW2 8274   0.985   0.403   3.618
 2459SOL     OW 8275   3.115   5.992   5.799
 2459SOL    HW1 8276   3.080   5.909   5.841
 2459SOL    HW2 8277   3.103   6.069   5.862
 2460SOL     OW 8278   1.352   0.953   0.605
 2460SOL    HW1 8279   1.276   1.008   0.573
 2460SOL    HW2 8280   1.404   1.004   0.674
 2461SOL     OW 8281   4.984   6.674   3.854
 2461SOL    HW1 8282   4.890   6.705   3.873
 2461SOL    HW2 8283   5.042   6.754   3.837
 2462SOL     OW 8284   2.169   5.156   0.577
 2462SOL    HW1 8285   2.194   5.245   0.538
 2462SOL    HW2 8286   2.071   5.140   0.563
 2463SOL     OW 8287   6.901   2.221   0.426
 2463SOL    HW1 8288   6.836   2.151   0.397
 2463SOL    HW2 8289   6.863   2.272   0.503
 2464SOL     OW 8290   1.359   2.992   3.120
 2464SOL    HW1 8291   1.347   2.957   3.213
 2464SOL    HW2 8292   1.309   3.078   3.110
 2465SOL     OW 8293   6.729   6.396   6.167
 2465SOL    HW1 8294   6.710   6.363   6.259
 2465SOL    HW2 8295   6.752   6.318   6.108
 2466SOL     OW 8296   1.592   1.725   2.436
 2466SOL    HW1 8297   1.669   1.780   2.404
 2466SOL    HW2 8298   1.524   1.786   2.479
 2467SOL     OW 8299   4.856   1.955   5.755
 2467SOL    HW1 8300   4.868   2.054   5.764
 2467SOL    HW2 8301   4.946   1.910   5.762
 2468SOL     OW 8302   4.248   6.930   0.372
 2468SOL    HW1 8303   4.161   6.921   0.420
 2468SOL    HW2 8304   4.246   7.012   0.315
 2469SOL     OW 8305   3.860   3.349   5.440
 2469SOL    HW1 8306   3.780   3.409   5.424
 2469SOL    HW2 8307   3.841   3.287   5.516
 2470SOL     OW 8308   3.987   5.236   6.137
 2470SOL    HW1 8309   3.999   5.180   6.055
 2470SOL    HW2 8310   3.969   5.331   6.110
 2471SOL     OW 8311   3.374   6.895   6.990
 2471SOL    HW1 8312   3.360   6.891   0.058
 2471SOL    HW2 8313   3.309   6.834   6.944
 2472SOL     OW 8314   4.286   2.292   3.495
 2472SOL    HW1 8315   4.191   2.267   3.515
 2472SOL    HW2 8316   4.340   2.287   3.579
 2473SOL     OW 8317   1.194   4.287   5.573
 2473SOL    HW1 8318   1.281   4.287   5.622
 2473SOL    HW2 8319   1.210   4.303   5.476
 2474SOL     OW 8320   1.101   5.588   1.286
 2474SOL    HW1 8321   1.147   5.647   1.221
 2474SOL    HW2 8322   1.026   5.637   1.330
 2475SOL     OW 8323   4.249   0.563   2.064
 2475SOL    HW1 8324   4.199   0.647   2.042
 2475SOL    HW2 8325   4.198   0.484   2.031
 2476SOL     OW 8326   5.654   0.193   2.454
 2476SOL    HW1 8327   5.741   0.218   2.497
 2476SOL    HW2 8328   5.671   0.134   2.376
 2477SOL     OW 8329   3.965   1.054   3.626
 2477SOL    HW1 8330   4.054   1.048   3.580
 2477SOL    HW2 8331   3.970   1.124   3.698
 2478SOL     OW 8332   5.982   1.021   1.771
 2478SOL    HW1 8333   5.942   1.018   1.862
 2478SOL    HW2 8334   5.920   0.975   1.706
 2479SOL     OW 8335   1.277   3.187   2.172
 2479SOL    HW1 8336   1.277   3.242   2.256
 2479SOL    HW2 8337   1.362   3.135   2.168
 2480SOL     OW 8338   4.195   3.181   0.791
 2480SOL    HW1 8339   4.250   3.190   0.708
 2480SOL    HW2 8340   4.245   3.126   0.858
 2481SOL     OW 8341   3.360   6.810   1.061
 2481SOL    HW1 8342   3.261   6.818   1.046
 2481SOL    HW2 8343   3.404   6.779   0.976
 2482SOL     OW 8344   5.443   3.118   6.426
 2482SOL    HW1 8345   5.350   3.086   6.414
 2482SOL    HW2 8346   5.445   3.190   6.496
 2483SOL     OW 8347   2.192   1.905   6.798
 2483SOL    HW1 8348   2.224   1.881   6.889
 2483SOL    HW2 8349   2.227   1.995   6.772
 2484SOL     OW 8350   3.304   1.017   0.127
 2484SOL    HW1 8351   3.319   0.969   0.214
 2484SOL    HW2 8352   3.386   1.069   0.103
 2485SOL     OW 8353   5.427   3.047   1.207
 2485SOL    HW1 8354   5.404   3.103   1.128
 2485SOL    HW2 8355   5.525   3.053   1.224
 2486SOL     OW 8356   1.562   4.636   5.226
 2486SOL    HW1 8357   1.629   4.702   5.191
 2486SOL    HW2 8358   1.610   4.563   5.275
 2487SOL     OW 8359   4.597   6.540   0.518
 2487SOL    HW1 8360   4.559   6.624   0.480
 2487SOL    HW2 8361   4.546   6.513   0.600
 2488SOL     OW 8362   0.914   4.061   2.195
 2488SOL    HW1 8363   0.950   4.052   2.287
 2488SOL    HW2 8364   0.902   3.970   2.154
 2489SOL     OW 8365   0.662   5.808   3.975
 2489SOL    HW1 8366   0.745   5.829   4.026
 2489SOL    HW2 8367   0.653   5.873   3.899
 2490SOL     OW 8368   0.200   5.251   1.092
 2490SOL    HW1 8369   0.196   5.306   1.175
 2490SOL    HW2 8370   0.149   5.297   1.019
 2491SOL     OW 8371   2.990   4.063   0.147
 2491SOL    HW1 8372   2.904   4.020   0.175
 2491SOL    HW2 8373   2.983   4.162   0.159
 2492SOL     OW 8374   4.584   3.943   0.928
 2492SOL    HW1 8375   4.503   3.886   0.914
 2492SOL    HW2 8376   4.647   3.897   0.991
 2493SOL     OW 8377   6.708   6.990   1.860
 2493SOL    HW1 8378   6.788   0.017   1.843
 2493SOL    HW2 8379   6.736   6.904   1.902
 2494SOL     OW 8380   5.360   4.284   2.744
 2494SOL    HW1 8381   5.382   4.331   2.830
 2494SOL    HW2 8382   5.275   4.321   2.707
 2495SOL     OW 8383   5.199   5.939   3.328
 2495SOL    HW1 8384   5.205   5.852   3.378
 2495SOL    HW2 8385   5.110   5.981   3.347
 2496SOL     OW 8386   0.640   2.651   6.388
 2496SOL    HW1 8387   0.635   2.707   6.471
 2496SOL    HW2 8388   0.719   2.590   6.394
 2497SOL     OW 8389   0.247   0.299   0.586
 2497SOL    HW1 8390   0.284   0.303   0.493
 2497SOL    HW2 8391   0.277   0.214   0.630
 2498SOL     OW 8392   2.694   1.750   5.456
 2498SOL    HW1 8393   2.613   1.798   5.422
 2498SOL    HW2 8394   2.732   1.694   5.382
 2499SOL     OW 8395   5.990   2.978   2.015
 2499SOL    HW1 8396   5.932   2.906   1.975
 2499SOL    HW2 8397   5.933   3.045   2.061
 2500SOL     OW 8398   3.807   4.138   6.916
 2500SOL    HW1 8399   3.903   4.109   6.920
 2500SOL    HW2 8400   3.771   4.147   7.009
 2501SOL     OW 8401   5.298   5.541   1.179
 2501SOL    HW1 8402   5.202   5.515   1.185
 2501SOL    HW2 8403   5.312   5.596   1.096
 2502SOL     OW 8404   1.368   0.228   4.096
 2502SOL    HW1 8405   1.425   0.256   4.174
 2502SOL    HW2 8406   1.296   0.167   4.128
 2503SOL     OW 8407   2.417   6.419   4.378
 2503SOL    HW1 8408   2.341   6.427   4.313
 2503SOL    HW2 8409   2.489   6.483   4.353
 2504SOL     OW 8410   4.097   5.258   3.506
 2504SOL    HW1 8411   4.126   5.347   3.540
 2504SOL    HW2 8412   3.999   5.246   3.521
 2505SOL     OW 8413   7.004   6.899   2.867
 2505SOL    HW1 8414   0.039   6.831   2.834
 2505SOL    HW2 8415   0.013   6.948   2.945
 2506SOL     OW 8416   6.448   3.920   6.328
 2506SOL    HW1 8417   6.511   3.843   6.335
 2506SOL    HW2 8418   6.447   3.953   6.233
 2507SOL     OW 8419   6.514   3.346   0.133
 2507SOL    HW1 8420   6.464   3.365   0.218
 2507SOL    HW2 8421   6.525   3.431   0.081
 2508SOL     OW 8422   3.108   1.535   3.435
 2508SOL    HW1 8423   3.122   1.547   3.336
 2508SOL    HW2 8424   3.168   1.463   3.468
 2509SOL     OW 8425   0.263   3.992   0.748
 2509SOL    HW1 8426   0.362   3.975   0.752
 2509SOL    HW2 8427   0.245   4.060   0.677
 2510SOL     OW 8428   2.832   5.261   1.209
 2510SOL    HW1 8429   2.836   5.176   1.262
 2510SOL    HW2 8430   2.738   5.294   1.205
 2511SOL     OW 8431   3.605   1.957   3.964
 2511SOL    HW1 8432   3.702   1.981   3.956
 2511SOL    HW2 8433   3.582   1.943   4.060
 2512SOL     OW 8434   4.611   3.946   5.603
 2512SOL    HW1 8435   4.621   3.873   5.670
 2512SOL    HW2 8436   4.635   3.912   5.512
 2513SOL     OW 8437   1.967   4.455   5.022
 2513SOL    HW1 8438   1.910   4.373   5.022
 2513SOL    HW2 8439   2.060   4.430   4.995
 2514SOL     OW 8440   0.416   3.711   4.866
 2514SOL    HW1 8441   0.388   3.617   4.886
 2514SOL    HW2 8442   0.337   3.772   4.877
 2515SOL     OW 8443   1.128   6.598   0.569
 2515SOL    HW1 8444   1.140   6.595   0.469
 2515SOL    HW2 8445   1.064   6.526   0.597
 2516SOL     OW 8446   5.542   1.729   2.763
 2516SOL    HW1 8447   5.579   1.725   2.671
 2516SOL    HW2 8448   5.500   1.641   2.786
 2517SOL     OW 8449   0.543   6.810   5.902
 2517SOL    HW1 8450   0.546   6.715   5.933
 2517SOL    HW2 8451   0.636   6.842   5.884
 2518SOL     OW 8452   1.723   5.084   0.412
 2518SOL    HW1 8453   1.641   5.032   0.388
 2518SOL    HW2 8454   1.775   5.104   0.329
 2519SOL     OW 8455   3.747   6.214   1.996
 2519SOL    HW1 8456   3.824   6.199   1.934
 2519SOL    HW2 8457   3.662   6.213   1.944
 2520SOL     OW 8458   3.102   1.793   0.760
 2520SOL    HW1 8459   3.146   1.791   0.670
 2520SOL    HW2 8460   3.003   1.777   0.748
 2521SOL     OW 8461   2.816   0.730   5.266
 2521SOL    HW1 8462   2.875   0.760   5.191
 2521SOL    HW2 8463   2.759   0.807   5.296
 2522SOL     OW 8464   0.869   2.373   5.376
 2522SOL    HW1 8465   0.969   2.376   5.380
 2522SOL    HW2 8466   0.831   2.425   5.453
 2523SOL     OW 8467   0.437   2.858   1.229
 2523SOL    HW1 8468   0.412   2.850   1.132
 2523SOL    HW2 8469   0.496   2.937   1.242
 2524SOL     OW 8470   0.819   6.706   4.791
 2524SOL    HW1 8471   0.807   6.607   4.784
 2524SOL    HW2 8472   0.877   6.726   4.870
 2525SOL     OW 8473   1.137   2.373   5.437
 2525SOL    HW1 8474   1.108   2.309   5.508
 2525SOL    HW2 8475   1.228   2.348   5.405
 2526SOL     OW 8476   1.356   4.912   6.250
 2526SOL    HW1 8477   1.440   4.864   6.227
 2526SOL    HW2 8478   1.362   5.007   6.220
 2527SOL     OW 8479   5.192   6.209   5.762
 2527SOL    HW1 8480   5.279   6.208   5.810
 2527SOL    HW2 8481   5.197   6.148   5.683
 2528SOL     OW 8482   6.368   4.667   6.939
 2528SOL    HW1 8483   6.309   4.701   6.867
 2528SOL    HW2 8484   6.457   4.642   6.901
 2529SOL     OW 8485   6.600   6.183   6.597
 2529SOL    HW1 8486   6.580   6.181   6.499
 2529SOL    HW2 8487   6.577   6.094   6.637
 2530SOL     OW 8488   2.841   6.419   4.923
 2530SOL    HW1 8489   2.817   6.488   4.854
 2530SOL    HW2 8490   2.898   6.461   4.993
 2531SOL     OW 8491   5.156   5.898   4.973
 2531SOL    HW1 8492   5.183   5.802   4.974
 2531SOL    HW2 8493   5.226   5.953   5.018
 2532SOL     OW 8494   0.413   5.786   0.855
 2532SOL    HW1 8495   0.399   5.698   0.899
 2532SOL    HW2 8496   0.351   5.853   0.896
 2533SOL     OW 8497   3.813   6.552   4.260
 2533SOL    HW1 8498   3.761   6.627   4.218
 2533SOL    HW2 8499   3.751   6.476   4.279
 2534SOL     OW 8500   3.821   1.065   2.173
 2534SOL    HW1 8501   3.745   1.045   2.111
 2534SOL    HW2 8502   3.843   0.982   2.225
 2535SOL     OW 8503   3.459   2.669   5.580
 2535SOL    HW1 8504   3.387   2.621   5.530
 2535SOL    HW2 8505   3.427   2.689   5.673
 2536SOL     OW 8506   1.161   1.769   5.097
 2536SOL    HW1 8507   1.246   1.820   5.093
 2536SOL    HW2 8508   1.182   1.671   5.109
 2537SOL     OW 8509   3.723   0.286   6.391
 2537SOL    HW1 8510   3.652   0.333   6.338
 2537SOL    HW2 8511   3.810   0.334   6.381
 2538SOL     OW 8512   0.813   4.362   3.121
 2538SOL    HW1 8513   0.779   4.269   3.117
 2538SOL    HW2 8514   0.737   4.425   3.135
 2539SOL     OW 8515   6.198   0.922   4.654
 2539SOL    HW1 8516   6.182   0.826   4.674
 2539SOL    HW2 8517   6.209   0.973   4.739
 2540SOL     OW 8518   3.820   1.821   2.936
 2540SOL    HW1 8519   3.853   1.915   2.936
 2540SOL    HW2 8520   3.814   1.788   2.841
 2541SOL     OW 8521   2.405   0.634   5.306
 2541SOL    HW1 8522   2.380   0.639   5.210
 2541SOL    HW2 8523   2.405   0.726   5.345
 2542SOL     OW 8524   2.817   2.315   5.843
 2542SOL    HW1 8525   2.784   2.338   5.934
 2542SOL    HW2 8526   2.780   2.225   5.816
 2543SOL     OW 8527   1.418   0.656   2.809
 2543SOL    HW1 8528   1.342   0.639   2.746
 2543SOL    HW2 8529   1.405   0.603   2.893
 2544SOL     OW 8530   0.512   6.166   1.393
 2544SOL    HW1 8531   0.500   6.265   1.400
 2544SOL    HW2 8532   0.540   6.142   1.300
 2545SOL     OW 8533   1.068   6.993   2.513
 2545SOL    HW1 8534   1.040   6.900   2.535
 2545SOL    HW2 8535   0.989   0.024   2.523
 2546SOL     OW 8536   0.348   0.688   1.919
 2546SOL    HW1 8537   0.372   0.592   1.903
 2546SOL    HW2 8538   0.421   0.733   1.971
 2547SOL     OW 8539   6.650   4.680   0.561
 2547SOL    HW1 8540   6.574   4.671   0.626
 2547SOL    HW2 8541   6.714   4.604   0.572
 2548SOL     OW 8542   0.972   6.620   5.476
 2548SOL    HW1 8543   0.874   6.618   5.454
 2548SOL    HW2 8544   0.985   6.664   5.564
 2549SOL     OW 8545   2.066   0.259   0.902
 2549SOL    HW1 8546   2.066   0.340   0.961
 2549SOL    HW2 8547   2.074   0.287   0.806
 2550SOL     OW 8548   0.165   0.465   6.544
 2550SOL    HW1 8549   0.115   0.539   6.589
 2550SOL    HW2 8550   0.169   0.386   6.605
 2551SOL     OW 8551   3.109   5.245   0.677
 2551SOL    HW1 8552   3.024   5.298   0.677
 2551SOL    HW2 8553   3.184   5.302   0.644
 2552SOL     OW 8554   1.921   6.422   4.630
 2552SOL    HW1 8555   1.938   6.422   4.729
 2552SOL    HW2 8556   1.830   6.386   4.612
 2553SOL     OW 8557   4.964   3.416   5.742
 2553SOL    HW1 8558   4.878   3.366   5.740
 2553SOL    HW2 8559   4.946   3.514   5.733
 2554SOL     OW 8560   2.089   6.854   0.234
 2554SOL    HW1 8561   2.028   6.886   0.162
 2554SOL    HW2 8562   2.065   6.760   0.258
 2555SOL     OW 8563   5.175   0.075   5.009
 2555SOL    HW1 8564   5.181   0.058   4.911
 2555SOL    HW2 8565   5.081   0.095   5.034
 2556SOL     OW 8566   4.033   5.839   0.144
 2556SOL    HW1 8567   4.062   5.923   0.190
 2556SOL    HW2 8568   3.988   5.779   0.209
 2557SOL     OW 8569   2.128   4.771   6.870
 2557SOL    HW1 8570   2.167   4.770   6.778
 2557SOL    HW2 8571   2.180   4.834   6.928
 2558SOL     OW 8572   5.514   1.406   4.870
 2558SOL    HW1 8573   5.569   1.489   4.880
 2558SOL    HW2 8574   5.570   1.333   4.830
 2559SOL     OW 8575   0.700   4.084   4.945
 2559SOL    HW1 8576   0.756   4.166   4.962
 2559SOL    HW2 8577   0.686   4.035   5.030
 2560SOL     OW 8578   5.467   2.853   4.241
 2560SOL    HW1 8579   5.548   2.899   4.276
 2560SOL    HW2 8580   5.493   2.766   4.199
 2561SOL     OW 8581   3.004   6.134   5.264
 2561SOL    HW1 8582   3.050   6.077   5.332
 2561SOL    HW2 8583   3.040   6.112   5.173
 2562SOL     OW 8584   2.232   5.376   1.332
 2562SOL    HW1 8585   2.306   5.324   1.376
 2562SOL    HW2 8586   2.212   5.336   1.243
 2563SOL     OW 8587   3.697   1.985   0.303
 2563SOL    HW1 8588   3.792   1.958   0.288
 2563SOL    HW2 8589   3.690   2.084   0.307
 2564SOL     OW 8590   2.137   5.356   6.495
 2564SOL    HW1 8591   2.152   5.263   6.527
 2564SOL    HW2 8592   2.099   5.353   6.402
 2565SOL     OW 8593   0.978   0.382   0.372
 2565SOL    HW1 8594   0.937   0.301   0.330
 2565SOL    HW2 8595   0.982   0.456   0.304
 2566SOL     OW 8596   2.661   6.729   1.065
 2566SOL    HW1 8597   2.578   6.717   1.011
 2566SOL    HW2 8598   2.645   6.698   1.159
 2567SOL     OW 8599   1.079   0.561   0.867
 2567SOL    HW1 8600   0.991   0.536   0.827
 2567SOL    HW2 8601   1.119   0.636   0.814
 2568SOL     OW 8602   4.350   0.626   6.709
 2568SOL    HW1 8603   4.288   0.676   6.648
 2568SOL    HW2 8604   4.306   0.615   6.799
 2569SOL     OW 8605   2.982   1.475   1.941
 2569SOL    HW1 8606   3.035   1.412   1.997
 2569SOL    HW2 8607   3.043   1.528   1.882
 2570SOL     OW 8608   5.492   0.114   6.554
 2570SOL    HW1 8609   5.505   0.083   6.649
 2570SOL    HW2 8610   5.436   0.198   6.554
 2571SOL     OW 8611   2.421   4.532   4.871
 2571SOL    HW1 8612   2.361   4.457   4.900
 2571SOL    HW2 8613   2.388   4.617   4.912
 2572SOL     OW 8614   2.398   5.815   0.731
 2572SOL    HW1 8615   2.307   5.775   0.740
 2572SOL    HW2 8616   2.452   5.794   0.813
 2573SOL     OW 8617   0.079   2.091   1.547
 2573SOL    HW1 8618   0.159   2.073   1.490
 2573SOL    HW2 8619   0.054   2.007   1.595
 2574SOL     OW 8620   5.753   4.131   0.734
 2574SOL    HW1 8621   5.807   4.212   0.757
 2574SOL    HW2 8622   5.784   4.054   0.789
 2575SOL     OW 8623   5.464   5.264   0.867
 2575SOL    HW1 8624   5.523   5.340   0.841
 2575SOL    HW2 8625   5.480   5.241   0.964
 2576SOL     OW 8626   4.608   6.732   4.836
 2576SOL    HW1 8627   4.579   6.805   4.775
 2576SOL    HW2 8628   4.682   6.764   4.895
 2577SOL     OW 8629   4.156   6.398   2.152
 2577SOL    HW1 8630   4.225   6.460   2.188
 2577SOL    HW2 8631   4.085   6.451   2.105
 2578SOL     OW 8632   4.867   1.851   4.956
 2578SOL    HW1 8633   4.785   1.818   4.910
 2578SOL    HW2 8634   4.947   1.800   4.922
 2579SOL     OW 8635   1.976   6.612   3.013
 2579SOL    HW1 8636   1.986   6.515   3.035
 2579SOL    HW2 8637   2.055   6.642   2.959
 2580SOL     OW 8638   3.634   4.013   6.643
 2580SOL    HW1 8639   3.544   4.042   6.611
 2580SOL    HW2 8640   3.647   4.042   6.738
 2581SOL     OW 8641   1.829   5.003   1.998
 2581SOL    HW1 8642   1.767   5.072   2.035
 2581SOL    HW2 8643   1.777   4.923   1.969
 2582SOL     OW 8644   0.392   4.113   1.313
 2582SOL    HW1 8645   0.379   4.111   1.214
 2582SOL    HW2 8646   0.456   4.187   1.337
 2583SOL     OW 8647   1.369   1.672   6.599
 2583SOL    HW1 8648   1.407   1.758   6.634
 2583SOL    HW2 8649   1.282   1.690   6.554
 2584SOL     OW 8650   4.863   5.065   5.960
 2584SOL    HW1 8651   4.806   5.147   5.963
 2584SOL    HW2 8652   4.809   4.987   5.929
 2585SOL     OW 8653   3.951   3.437   0.565
 2585SOL    HW1 8654   3.999   3.482   0.640
 2585SOL    HW2 8655   3.880   3.498   0.530
 2586SOL     OW 8656   3.632   1.016   4.446
 2586SOL    HW1 8657   3.565   0.948   4.415
 2586SOL    HW2 8658   3.610   1.045   4.539
 2587SOL     OW 8659   6.605   0.585   3.414
 2587SOL    HW1 8660   6.675   0.638   3.366
 2587SOL    HW2 8661   6.592   0.497   3.368
 2588SOL     OW 8662   5.098   1.862   6.746
 2588SOL    HW1 8663   5.172   1.796   6.756
 2588SOL    HW2 8664   5.081   1.879   6.650
 2589SOL     OW 8665   1.402   6.397   5.144
 2589SOL    HW1 8666   1.360   6.487   5.137
 2589SOL    HW2 8667   1.488   6.404   5.193
 2590SOL     OW 8668   3.537   4.741   7.028
 2590SOL    HW1 8669   3.596   4.691   6.964
 2590SOL    HW2 8670   3.572   4.728   0.091
 2591SOL     OW 8671   0.002   4.797   2.925
 2591SOL    HW1 8672   6.963   4.785   2.854
 2591SOL    HW2 8673   0.043   4.708   2.947
 2592SOL     OW 8674   3.056   5.702   0.490
 2592SOL    HW1 8675   3.050   5.629   0.421
 2592SOL    HW2 8676   3.002   5.676   0.570
 2593SOL     OW 8677   4.241   5.913   0.004
 2593SOL    HW1 8678   4.335   5.930   0.032
 2593SOL    HW2 8679   4.196   5.853   0.071
 2594SOL     OW 8680   1.714   4.450   6.273
 2594SOL    HW1 8681   1.729   4.357   6.239
 2594SOL    HW2 8682   1.644   4.448   6.344
 2595SOL     OW 8683   0.404   0.748   4.354
 2595SOL    HW1 8684   0.446   0.812   4.289
 2595SOL    HW2 8685   0.470   0.723   4.424
 2596SOL     OW 8686   3.184   2.238   1.799
 2596SOL    HW1 8687   3.225   2.300   1.732
 2596SOL    HW2 8688   3.104   2.283   1.841
 2597SOL     OW 8689   0.498   5.150   6.246
 2597SOL    HW1 8690   0.593   5.149   6.275
 2597SOL    HW2 8691   0.443   5.200   6.312
 2598SOL     OW 8692   6.458   1.569   2.781
 2598SOL    HW1 8693   6.526   1.590   2.851
 2598SOL    HW2 8694   6.503   1.533   2.700
 2599SOL     OW 8695   1.480   5.712   1.110
 2599SOL    HW1 8696   1.445   5.801   1.083
 2599SOL    HW2 8697   1.411   5.641   1.091
 2600SOL     OW 8698   5.517   2.532   4.609
 2600SOL    HW1 8699   5.584   2.512   4.537
 2600SOL    HW2 8700   5.443   2.587   4.572
 2601SOL     OW 8701   1.942   1.484   1.669
 2601SOL    HW1 8702   1.907   1.565   1.716
 2601SOL    HW2 8703   1.865   1.429   1.635
 2602SOL     OW 8704   1.143   4.798   5.052
 2602SOL    HW1 8705   1.210   4.745   5.104
 2602SOL    HW2 8706   1.076   4.837   5.115
 2603SOL     OW 8707   2.912   0.812   3.001
 2603SOL    HW1 8708   2.822   0.774   2.979
 2603SOL    HW2 8709   2.983   0.752   2.965
 2604SOL     OW 8710   4.968   2.285   2.616
 2604SOL    HW1 8711   4.908   2.342   2.673
 2604SOL    HW2 8712   4.946   2.301   2.519
 2605SOL     OW 8713   1.674   2.747   2.940
 2605SOL    HW1 8714   1.579   2.772   2.921
 2605SOL    HW2 8715   1.700   2.780   3.030
 2606SOL     OW 8716   5.798   5.085   1.405
 2606SOL    HW1 8717   5.730   5.095   1.477
 2606SOL    HW2 8718   5.753   5.088   1.316
 2607SOL     OW 8719   0.723   1.703   1.906
 2607SOL    HW1 8720   0.674   1.618   1.887
 2607SOL    HW2 8721   0.676   1.754   1.978
 2608SOL     OW 8722   3.981   5.708   1.021
 2608SOL    HW1 8723   4.048   5.719   1.095
 2608SOL    HW2 8724   3.910   5.778   1.030
 2609SOL     OW 8725   6.164   1.345   2.288
 2609SOL    HW1 8726   6.111   1.426   2.263
 2609SOL    HW2 8727   6.248   1.373   2.334
 2610SOL     OW 8728   0.922   4.343   4.685
 2610SOL    HW1 8729   0.922   4.271   4.615
 2610SOL    HW2 8730   1.010   4.391   4.685
 2611SOL     OW 8731   4.357   6.147   0.616
 2611SOL    HW1 8732   4.329   6.235   0.577
 2611SOL    HW2 8733   4.405   6.162   0.702
 2612SOL     OW 8734   5.963   6.412   4.634
 2612SOL    HW1 8735   5.875   6.364   4.631
 2612SOL    HW2 8736   6.030   6.355   4.682
 2613SOL     OW 8737   2.109   5.375   5.680
 2613SOL    HW1 8738   2.128   5.402   5.775
 2613SOL    HW2 8739   2.145   5.445   5.618
 2614SOL     OW 8740   6.974   2.438   0.028
 2614SOL    HW1 8741   6.940   2.376   6.988
 2614SOL    HW2 8742   6.939   2.530   0.011
 2615SOL     OW 8743   0.827   3.295   2.401
 2615SOL    HW1 8744   0.855   3.340   2.486
 2615SOL    HW2 8745   0.727   3.291   2.398
 2616SOL     OW 8746   2.634   2.330   6.197
 2616SOL    HW1 8747   2.605   2.284   6.281
 2616SOL    HW2 8748   2.563   2.318   6.127
 2617SOL     OW 8749   4.329   0.902   0.465
 2617SOL    HW1 8750   4.388   0.827   0.497
 2617SOL    HW2 8751   4.272   0.934   0.541
 2618SOL     OW 8752   6.873   0.320   3.797
 2618SOL    HW1 8753   6.876   0.220   3.809
 2618SOL    HW2 8754   6.930   0.363   3.866
 2619SOL     OW 8755   5.253   1.764   1.702
 2619SOL    HW1 8756   5.198   1.781   1.784
 2619SOL    HW2 8757   5.202   1.705   1.639
 2620SOL     OW 8758   6.774   0.049   3.296
 2620SOL    HW1 8759   6.755   0.049   3.394
 2620SOL    HW2 8760   6.791   6.986   3.266
 2621SOL     OW 8761   0.926   5.449   2.248
 2621SOL    HW1 8762   0.907   5.511   2.324
 2621SOL    HW2 8763   0.856   5.377   2.247
 2622SOL     OW 8764   2.640   3.721   5.969
 2622SOL    HW1 8765   2.687   3.637   5.996
 2622SOL    HW2 8766   2.627   3.721   5.870
 2623SOL     OW 8767   0.679   1.121   5.332
 2623SOL    HW1 8768   0.736   1.164   5.262
 2623SOL    HW2 8769   0.627   1.192   5.381
 2624SOL     OW 8770   0.402   2.023   5.302
 2624SOL    HW1 8771   0.460   1.954   5.347
 2624SOL    HW2 8772   0.424   2.113   5.338
 2625SOL     OW 8773   2.522   3.816   5.717
 2625SOL    HW1 8774   2.574   3.886   5.766
 2625SOL    HW2 8775   2.582   3.739   5.695
 2626SOL     OW 8776   6.516   0.322   6.277
 2626SOL    HW1 8777   6.564   0.337   6.191
 2626SOL    HW2 8778   6.470   0.407   6.304
 2627SOL     OW 8779   1.865   1.117   5.887
 2627SOL    HW1 8780   1.891   1.031   5.843
 2627SOL    HW2 8781   1.806   1.097   5.966
 2628SOL     OW 8782   1.908   3.902   5.209
 2628SOL    HW1 8783   1.838   3.832   5.219
 2628SOL    HW2 8784   1.965   3.905   5.291
 2629SOL     OW 8785   3.697   3.256   2.502
 2629SOL    HW1 8786   3.784   3.261   2.452
 2629SOL    HW2 8787   3.629   3.312   2.454
 2630SOL     OW 8788   3.610   1.226   2.570
 2630SOL    HW1 8789   3.595   1.128   2.557
 2630SOL    HW2 8790   3.676   1.259   2.503
 2631SOL     OW 8791   5.373   0.930   6.659
 2631SOL    HW1 8792   5.324   1.013   6.686
 2631SOL    HW2 8793   5.336   0.852   6.710
 2632SOL     OW 8794   5.813   3.262   0.316
 2632SOL    HW1 8795   5.882   3.315   0.365
 2632SOL    HW2 8796   5.777   3.191   0.377
 2633SOL     OW 8797   6.859   2.117   4.958
 2633SOL    HW1 8798   6.937   2.114   4.895
 2633SOL    HW2 8799   6.856   2.206   5.004
 2634SOL     OW 8800   0.573   5.799   3.681
 2634SOL    HW1 8801   0.603   5.711   3.718
 2634SOL    HW2 8802   0.651   5.846   3.640
 2635SOL     OW 8803   6.657   6.063   4.441
 2635SOL    HW1 8804   6.683   5.969   4.466
 2635SOL    HW2 8805   6.732   6.105   4.389
 2636SOL     OW 8806   3.918   0.757   6.729
 2636SOL    HW1 8807   3.950   0.844   6.691
 2636SOL    HW2 8808   3.858   0.711   6.662
 2637SOL     OW 8809   6.349   1.498   4.149
 2637SOL    HW1 8810   6.276   1.450   4.198
 2637SOL    HW2 8811   6.322   1.510   4.053
 2638SOL     OW 8812   0.105   6.683   4.486
 2638SOL    HW1 8813   0.202   6.661   4.502
 2638SOL    HW2 8814   0.095   6.728   4.397
 2639SOL     OW 8815   6.749   5.940   6.871
 2639SOL    HW1 8816   6.728   5.942   6.773
 2639SOL    HW2 8817   6.848   5.953   6.884
 2640SOL     OW 8818   6.695   6.757   5.052
 2640SOL    HW1 8819   6.742   6.776   5.138
 2640SOL    HW2 8820   6.633   6.680   5.064
 2641SOL     OW 8821   5.350   2.145   1.770
 2641SOL    HW1 8822   5.397   2.137   1.683
 2641SOL    HW2 8823   5.394   2.216   1.825
 2642SOL     OW 8824   6.207   0.285   4.041
 2642SOL    HW1 8825   6.289   0.331   4.007
 2642SOL    HW2 8826   6.211   0.280   4.141
 2643SOL     OW 8827   1.110   3.659   3.660
 2643SOL    HW1 8828   1.054   3.716   3.719
 2643SOL    HW2 8829   1.203   3.654   3.696
 2644SOL     OW 8830   4.655   5.336   4.994
 2644SOL    HW1 8831   4.641   5.367   5.088
 2644SOL    HW2 8832   4.710   5.404   4.945
 2645SOL     OW 8833   4.986   5.257   3.389
 2645SOL    HW1 8834   5.080   5.282   3.413
 2645SOL    HW2 8835   4.965   5.294   3.298
 2646SOL     OW 8836   0.334   2.622   6.850
 2646SOL    HW1 8837   0.290   2.599   6.763
 2646SOL    HW2 8838   0.282   2.582   6.925
 2647SOL     OW 8839   5.898   0.003   1.580
 2647SOL    HW1 8840   5.906   7.021   1.481
 2647SOL    HW2 8841   5.975   0.058   1.613
 2648SOL     OW 8842   6.916   6.398   4.497
 2648SOL    HW1 8843   7.001   6.347   4.510
 2648SOL    HW2 8844   6.923   6.487   4.542
 2649SOL     OW 8845   5.960   2.982   1.569
 2649SOL    HW1 8846   5.888   3.050   1.580
 2649SOL    HW2 8847   6.049   3.027   1.575
 2650SOL     OW 8848   2.088   5.518   4.296
 2650SOL    HW1 8849   2.064   5.460   4.375
 2650SOL    HW2 8850   2.094   5.613   4.326
 2651SOL     OW 8851   2.943   1.491   0.863
 2651SOL    HW1 8852   2.973   1.584   0.883
 2651SOL    HW2 8853   2.991   1.458   0.782
 2652SOL     OW 8854   4.792   3.203   5.960
 2652SOL    HW1 8855   4.795   3.264   6.039
 2652SOL    HW2 8856   4.732   3.242   5.890
 2653SOL     OW 8857   4.341   6.067   6.003
 2653SOL    HW1 8858   4.385   6.135   6.061
 2653SOL    HW2 8859   4.410   6.017   5.951
 2654SOL     OW 8860   4.684   6.214   1.299
 2654SOL    HW1 8861   4.594   6.181   1.328
 2654SOL    HW2 8862   4.672   6.281   1.225
 2655SOL     OW 8863   4.821   5.362   3.585
 2655SOL    HW1 8864   4.873   5.331   3.505
 2655SOL    HW2 8865   4.806   5.284   3.647
 2656SOL     OW 8866   3.433   5.646   4.371
 2656SOL    HW1 8867   3.498   5.721   4.358
 2656SOL    HW2 8868   3.343   5.674   4.338
 2657SOL     OW 8869   1.933   3.506   0.649
 2657SOL    HW1 8870   1.965   3.572   0.582
 2657SOL    HW2 8871   1.974   3.416   0.630
 2658SOL     OW 8872   4.597   4.695   0.251
 2658SOL    HW1 8873   4.663   4.754   0.205
 2658SOL    HW2 8874   4.512   4.745   0.266
 2659SOL     OW 8875   4.658   3.179   5.481
 2659SOL    HW1 8876   4.612   3.252   5.431
 2659SOL    HW2 8877   4.734   3.144   5.427
 2660SOL     OW 8878   0.732   0.920   1.690
 2660SOL    HW1 8879   0.644   0.879   1.714
 2660SOL    HW2 8880   0.798   0.847   1.670
 2661SOL     OW 8881   1.876   6.823   1.746
 2661SOL    HW1 8882   1.858   6.725   1.751
 2661SOL    HW2 8883   1.808   6.867   1.687
 2662SOL     OW 8884   2.906   7.025   3.546
 2662SOL    HW1 8885   2.829   0.031   3.495
 2662SOL    HW2 8886   2.912   0.040   3.636
 2663SOL     OW 8887   4.599   5.087   6.601
 2663SOL    HW1 8888   4.690   5.046   6.611
 2663SOL    HW2 8889   4.602   5.183   6.628
 2664SOL     OW 8890   4.292   3.421   5.522
 2664SOL    HW1 8891   4.280   3.406   5.620
 2664SOL    HW2 8892   4.227   3.490   5.491
 2665SOL     OW 8893   2.467   3.468   5.425
 2665SOL    HW1 8894   2.369   3.473   5.406
 2665SOL    HW2 8895   2.512   3.549   5.387
 2666SOL     OW 8896   1.546   4.291   1.535
 2666SOL    HW1 8897   1.565   4.245   1.449
 2666SOL    HW2 8898   1.530   4.222   1.607
 2667SOL     OW 8899   0.867   5.385   4.005
 2667SOL    HW1 8900   0.858   5.356   4.101
 2667SOL    HW2 8901   0.950   5.440   3.995
 2668SOL     OW 8902   5.986   2.779   4.531
 2668SOL    HW1 8903   5.907   2.764   4.591
 2668SOL    HW2 8904   6.070   2.758   4.581
 2669SOL     OW 8905   3.397   5.698   6.567
 2669SOL    HW1 8906   3.471   5.742   6.618
 2669SOL    HW2 8907   3.372   5.613   6.614
 2670SOL     OW 8908   5.753   2.732   4.675
 2670SOL    HW1 8909   5.763   2.671   4.753
 2670SOL    HW2 8910   5.675   2.703   4.619
 2671SOL     OW 8911   4.702   5.452   6.058
 2671SOL    HW1 8912   4.666   5.388   5.990
 2671SOL    HW2 8913   4.629   5.477   6.122
 2672SOL     OW 8914   3.288   6.533   1.624
 2672SOL    HW1 8915   3.265   6.612   1.567
 2672SOL    HW2 8916   3.349   6.472   1.574
 2673SOL     OW 8917   5.718   1.714   2.119
 2673SOL    HW1 8918   5.797   1.775   2.111
 2673SOL    HW2 8919   5.658   1.747   2.192
 2674SOL     OW 8920   1.320   5.134   4.032
 2674SOL    HW1 8921   1.381   5.204   4.069
 2674SOL    HW2 8922   1.244   5.119   4.096
 2675SOL     OW 8923   0.152   6.474   4.262
 2675SOL    HW1 8924   0.222   6.410   4.229
 2675SOL    HW2 8925   0.108   6.436   4.344
 2676SOL     OW 8926   3.507   3.374   2.325
 2676SOL    HW1 8927   3.427   3.413   2.369
 2676SOL    HW2 8928   3.480   3.294   2.271
 2677SOL     OW 8929   2.542   4.941   1.514
 2677SOL    HW1 8930   2.595   4.890   1.580
 2677SOL    HW2 8931   2.597   4.958   1.432
 2678SOL     OW 8932   6.982   2.196   1.779
 2678SOL    HW1 8933   6.964   2.295   1.773
 2678SOL    HW2 8934   0.013   2.169   1.705
 2679SOL     OW 8935   1.728   4.780   2.508
 2679SOL    HW1 8936   1.657   4.838   2.551
 2679SOL    HW2 8937   1.716   4.782   2.409
 2680SOL     OW 8938   1.299   2.378   6.893
 2680SOL    HW1 8939   1.377   2.380   6.830
 2680SOL    HW2 8940   1.268   2.472   6.909
 2681SOL     OW 8941   1.239   2.950   4.986
 2681SOL    HW1 8942   1.320   2.894   5.005
 2681SOL    HW2 8943   1.160   2.913   5.035
 2682SOL     OW 8944   4.975   3.784   3.026
 2682SOL    HW1 8945   4.932   3.752   3.110
 2682SOL    HW2 8946   5.064   3.825   3.046
 2683SOL     OW 8947   2.331   4.739   2.351
 2683SOL    HW1 8948   2.406   4.674   2.342
 2683SOL    HW2 8949   2.366   4.825   2.390
 2684SOL     OW 8950   4.562   0.102   1.513
 2684SOL    HW1 8951   4.548   0.191   1.469
 2684SOL    HW2 8952   4.612   0.042   1.452
 2685SOL     OW 8953   6.158   4.984   5.310
 2685SOL    HW1 8954   6.164   5.076   5.269
 2685SOL    HW2 8955   6.080   4.936   5.271
 2686SOL     OW 8956   1.116   1.877   5.486
 2686SOL    HW1 8957   1.210   1.860   5.457
 2686SOL    HW2 8958   1.069   1.790   5.501
 2687SOL     OW 8959   3.602   6.017   0.547
 2687SOL    HW1 8960   3.648   5.940   0.592
 2687SOL    HW2 8961   3.517   6.038   0.596
 2688SOL     OW 8962   2.809   2.064   0.577
 2688SOL    HW1 8963   2.865   2.132   0.626
 2688SOL    HW2 8964   2.785   2.100   0.487
 2689SOL     OW 8965   0.086   4.057   2.590
 2689SOL    HW1 8966   0.057   4.145   2.554
 2689SOL    HW2 8967   0.122   4.000   2.516
 2690SOL     OW 8968   3.074   3.391   6.927
 2690SOL    HW1 8969   3.082   3.302   6.881
 2690SOL    HW2 8970   3.165   3.431   6.937
 2691SOL     OW 8971   0.035   4.602   3.834
 2691SOL    HW1 8972   0.079   4.533   3.777
 2691SOL    HW2 8973   6.967   4.584   3.840
 2692SOL     OW 8974   2.517   6.835   2.914
 2692SOL    HW1 8975   2.500   6.772   2.838
 2692SOL    HW2 8976   2.441   6.900   2.921
 2693SOL     OW 8977   2.137   4.590   4.259
 2693SOL    HW1 8978   2.098   4.622   4.173
 2693SOL    HW2 8979   2.214   4.529   4.240
 2694SOL     OW 8980   4.040   6.681   3.321
 2694SOL    HW1 8981   4.066   6.751   3.387
 2694SOL    HW2 8982   4.122   6.631   3.292
 2695SOL     OW 8983   5.655   0.045   2.909
 2695SOL    HW1 8984   5.565   0.076   2.939
 2695SOL    HW2 8985   5.688   0.103   2.835
 2696SOL     OW 8986   4.898   4.288   5.525
 2696SOL    HW1 8987   4.938   4.248   5.608
 2696SOL    HW2 8988   4.799   4.277   5.528
 2697SOL     OW 8989   4.213   1.713   2.745
 2697SOL    HW1 8990   4.157   1.780   2.698
 2697SOL    HW2 8991   4.309   1.738   2.737
 2698SOL     OW 8992   1.729   4.896   6.777
 2698SOL    HW1 8993   1.635   4.907   6.743
 2698SOL    HW2 8994   1.794   4.924   6.707
 2699SOL     OW 8995   2.752   5.972   1.169
 2699SOL    HW1 8996   2.687   5.919   1.115
 2699SOL    HW2 8997   2.844   5.961   1.131
 2700SOL     OW 8998   2.591   1.451   1.168
 2700SOL    HW1 8999   2.562   1.501   1.249
 2700SOL    HW2 9000   2.691   1.450   1.163
 2701SOL     OW 9001   5.422   2.146   5.576
 2701SOL    HW1 9002   5.336   2.102   5.549
 2701SOL    HW2 9003   5.418   2.172   5.672
 2702SOL     OW 9004   1.215   2.173   2.848
 2702SOL    HW1 9005   1.183   2.206   2.937
 2702SOL    HW2 9006   1.141   2.124   2.802
 2703SOL     OW 9007   1.241   5.882   1.513
 2703SOL    HW1 9008   1.265   5.816   1.441
 2703SOL    HW2 9009   1.252   5.838   1.603
 2704SOL     OW 9010   0.020   5.712   2.058
 2704SOL    HW1 9011   0.024   5.760   2.146
 2704SOL    HW2 9012   0.089   5.640   2.056
 2705SOL     OW 9013   6.724   0.587   5.055
 2705SOL    HW1 9014   6.749   0.559   4.962
 2705SOL    HW2 9015   6.747   0.513   5.118
 2706SOL     OW 9016   6.358   4.728   3.999
 2706SOL    HW1 9017   6.370   4.781   3.915
 2706SOL    HW2 9018   6.314   4.786   4.068
 2707SOL     OW 9019   4.039   6.960   4.322
 2707SOL    HW1 9020   4.074   6.991   4.234
 2707SOL    HW2 9021   4.020   6.862   4.318
 2708SOL     OW 9022   6.535   2.824   1.062
 2708SOL    HW1 9023   6.468   2.750   1.051
 2708SOL    HW2 9024   6.595   2.803   1.140
 2709SOL     OW 9025   5.061   0.175   6.483
 2709SOL    HW1 9026   5.131   0.104   6.487
 2709SOL    HW2 9027   5.008   0.175   6.567
 2710SOL     OW 9028   1.823   2.659   3.911
 2710SOL    HW1 9029   1.878   2.586   3.871
 2710SOL    HW2 9030   1.742   2.620   3.956
 2711SOL     OW 9031   3.266   0.832   3.449
 2711SOL    HW1 9032   3.199   0.758   3.454
 2711SOL    HW2 9033   3.267   0.870   3.357
 2712SOL     OW 9034   2.406   5.525   2.428
 2712SOL    HW1 9035   2.434   5.608   2.475
 2712SOL    HW2 9036   2.481   5.459   2.428
 2713SOL     OW 9037   4.097   4.056   6.620
 2713SOL    HW1 9038   4.028   3.992   6.587
 2713SOL    HW2 9039   4.164   4.007   6.675
 2714SOL     OW 9040   3.815   3.546   0.080
 2714SOL    HW1 9041   3.779   3.542   7.017
 2714SOL    HW2 9042   3.739   3.544   0.145
 2715SOL     OW 9043   5.554   2.340   1.074
 2715SOL    HW1 9044   5.551   2.391   0.989
 2715SOL    HW2 9045   5.566   2.242   1.054
 2716SOL     OW 9046   5.165   3.200   3.730
 2716SOL    HW1 9047   5.229   3.229   3.801
 2716SOL    HW2 9048   5.191   3.110   3.695
 2717SOL     OW 9049   1.104   6.835   1.917
 2717SOL    HW1 9050   1.178   6.903   1.924
 2717SOL    HW2 9051   1.077   6.806   2.009
 2718SOL     OW 9052   0.289   1.329   5.314
 2718SOL    HW1 9053   0.277   1.428   5.302
 2718SOL    HW2 9054   0.255   1.282   5.233
 2719SOL     OW 9055   1.261   4.146   1.656
 2719SOL    HW1 9056   1.276   4.236   1.614
 2719SOL    HW2 9057   1.282   4.075   1.589
 2720SOL     OW 9058   1.009   0.341   3.248
 2720SOL    HW1 9059   0.984   0.377   3.158
 2720SOL    HW2 9060   0.927   0.309   3.295
 2721SOL     OW 9061   3.552   6.679   3.081
 2721SOL    HW1 9062   3.521   6.616   3.009
 2721SOL    HW2 9063   3.638   6.647   3.119
 2722SOL     OW 9064   4.861   5.180   6.453
 2722SOL    HW1 9065   4.771   5.221   6.434
 2722SOL    HW2 9066   4.879   5.109   6.385
 2723SOL     OW 9067   2.223   6.371   6.557
 2723SOL    HW1 9068   2.217   6.453   6.614
 2723SOL    HW2 9069   2.148   6.370   6.491
 2724SOL     OW 9070   1.431   6.120   6.620
 2724SOL    HW1 9071   1.459   6.208   6.658
 2724SOL    HW2 9072   1.512   6.067   6.598
 2725SOL     OW 9073   5.507   3.857   4.830
 2725SOL    HW1 9074   5.488   3.763   4.800
 2725SOL    HW2 9075   5.582   3.894   4.775
 2726SOL     OW 9076   0.770   2.285   1.969
 2726SOL    HW1 9077   0.849   2.328   2.013
 2726SOL    HW2 9078   0.751   2.197   2.012
 2727SOL     OW 9079   1.408   3.655   4.215
 2727SOL    HW1 9080   1.457   3.629   4.299
 2727SOL    HW2 9081   1.429   3.589   4.143
 2728SOL     OW 9082   5.429   6.255   6.162
 2728SOL    HW1 9083   5.468   6.172   6.202
 2728SOL    HW2 9084   5.393   6.313   6.235
 2729SOL     OW 9085   6.857   6.497   0.385
 2729SOL    HW1 9086   6.937   6.543   0.346
 2729SOL    HW2 9087   6.777   6.516   0.328
 2730SOL     OW 9088   1.121   6.170   2.037
 2730SOL    HW1 9089   1.049   6.110   2.072
 2730SOL    HW2 9090   1.187   6.115   1.985
 2731SOL     OW 9091   3.428   3.554   3.297
 2731SOL    HW1 9092   3.410   3.476   3.237
 2731SOL    HW2 9093   3.366   3.551   3.375
 2732SOL     OW 9094   6.048   2.333   0.947
 2732SOL    HW1 9095   5.960   2.288   0.960
 2732SOL    HW2 9096   6.115   2.266   0.914
 2733SOL     OW 9097   0.059   1.349   5.129
 2733SOL    HW1 9098   7.015   1.288   5.102
 2733SOL    HW2 9099   0.021   1.433   5.167
 2734SOL     OW 9100   3.692   5.746   1.554
 2734SOL    HW1 9101   3.765   5.678   1.569
 2734SOL    HW2 9102   3.610   5.699   1.522
 2735SOL     OW 9103   1.395   2.078   1.356
 2735SOL    HW1 9104   1.315   2.132   1.330
 2735SOL    HW2 9105   1.397   1.994   1.303
 2736SOL     OW 9106   6.088   6.461   5.084
 2736SOL    HW1 9107   6.033   6.537   5.119
 2736SOL    HW2 9108   6.137   6.490   5.002
 2737SOL     OW 9109   2.750   3.349   6.250
 2737SOL    HW1 9110   2.774   3.431   6.302
 2737SOL    HW2 9111   2.662   3.314   6.282
 2738SOL     OW 9112   6.085   6.136   2.374
 2738SOL    HW1 9113   6.062   6.184   2.458
 2738SOL    HW2 9114   6.004   6.133   2.314
 2739SOL     OW 9115   0.751   4.772   0.809
 2739SOL    HW1 9116   0.775   4.856   0.857
 2739SOL    HW2 9117   0.729   4.794   0.713
 2740SOL     OW 9118   6.657   5.235   1.805
 2740SOL    HW1 9119   6.699   5.214   1.893
 2740SOL    HW2 9120   6.720   5.209   1.732
 2741SOL     OW 9121   0.036   1.805   5.149
 2741SOL    HW1 9122   0.121   1.840   5.110
 2741SOL    HW2 9123   6.993   1.815   5.082
 2742SOL     OW 9124   1.955   5.187   1.002
 2742SOL    HW1 9125   1.867   5.235   1.005
 2742SOL    HW2 9126   2.029   5.251   1.021
 2743SOL     OW 9127   6.693   4.606   2.163
 2743SOL    HW1 9128   6.674   4.704   2.168
 2743SOL    HW2 9129   6.626   4.562   2.103
 2744SOL     OW 9130   4.116   2.950   1.690
 2744SOL    HW1 9131   4.084   2.987   1.603
 2744SOL    HW2 9132   4.140   2.854   1.679
 2745SOL     OW 9133   6.622   1.497   5.351
 2745SOL    HW1 9134   6.708   1.531   5.390
 2745SOL    HW2 9135   6.618   1.398   5.360
 2746SOL     OW 9136   0.807   2.389   4.239
 2746SOL    HW1 9137   0.794   2.379   4.337
 2746SOL    HW2 9138   0.896   2.433   4.221
 2747SOL     OW 9139   4.792   5.605   6.908
 2747SOL    HW1 9140   4.882   5.562   6.904
 2747SOL    HW2 9141   4.742   5.585   6.824
 2748SOL     OW 9142   4.270   0.890   1.815
 2748SOL    HW1 9143   4.365   0.904   1.844
 2748SOL    HW2 9144   4.222   0.978   1.813
 2749SOL     OW 9145   0.324   4.586   1.243
 2749SOL    HW1 9146   0.254   4.551   1.306
 2749SOL    HW2 9147   0.404   4.616   1.295
 2750SOL     OW 9148   2.340   4.390   2.248
 2750SOL    HW1 9149   2.392   4.473   2.230
 2750SOL    HW2 9150   2.342   4.369   2.345
 2751SOL     OW 9151   1.209   2.264   1.253
 2751SOL    HW1 9152   1.120   2.309   1.242
 2751SOL    HW2 9153   1.265   2.315   1.318
 2752SOL     OW 9154   3.399   4.310   6.051
 2752SOL    HW1 9155   3.391   4.294   6.149
 2752SOL    HW2 9156   3.460   4.387   6.034
 2753SOL     OW 9157   6.996   6.085   4.988
 2753SOL    HW1 9158   6.973   6.033   5.070
 2753SOL    HW2 9159   6.964   6.036   4.907
 2754SOL     OW 9160   0.273   6.942   6.915
 2754SOL    HW1 9161   0.196   6.881   6.898
 2754SOL    HW2 9162   0.247   7.009   6.985
 2755SOL     OW 9163   3.931   0.265   3.116
 2755SOL    HW1 9164   3.868   0.191   3.093
 2755SOL    HW2 9165   4.023   0.228   3.128
 2756SOL     OW 9166   4.114   6.077   0.303
 2756SOL    HW1 9167   4.097   6.074   0.402
 2756SOL    HW2 9168   4.210   6.098   0.286
 2757SOL     OW 9169   2.391   6.823   0.971
 2757SOL    HW1 9170   2.333   6.902   0.951
 2757SOL    HW2 9171   2.342   6.761   1.032
 2758SOL     OW 9172   4.551   0.221   4.309
 2758SOL    HW1 9173   4.620   0.292   4.293
 2758SOL    HW2 9174   4.597   0.136   4.334
 2759SOL     OW 9175   5.445   6.672   5.360
 2759SOL    HW1 9176   5.425   6.748   5.422
 2759SOL    HW2 9177   5.371   6.664   5.293
 2760SOL     OW 9178   0.958   5.773   1.430
 2760SOL    HW1 9179   0.989   5.868   1.426
 2760SOL    HW2 9180   0.947   5.745   1.525
 2761SOL     OW 9181   2.174   4.509   4.523
 2761SOL    HW1 9182   2.271   4.505   4.548
 2761SOL    HW2 9183   2.165   4.544   4.430
 2762SOL     OW 9184   1.104   0.998   5.101
 2762SOL    HW1 9185   1.155   1.084   5.107
 2762SOL    HW2 9186   1.168   0.921   5.111
 2763SOL     OW 9187   5.495   1.189   3.759
 2763SOL    HW1 9188   5.594   1.183   3.773
 2763SOL    HW2 9189   5.473   1.165   3.664
 2764SOL     OW 9190   6.547   0.282   1.286
 2764SOL    HW1 9191   6.450   0.302   1.278
 2764SOL    HW2 9192   6.565   0.189   1.253
 2765SOL     OW 9193   5.416   0.196   0.536
 2765SOL    HW1 9194   5.505   0.187   0.492
 2765SOL    HW2 9195   5.427   0.190   0.636
 2766SOL     OW 9196   5.145   2.758   0.508
 2766SOL    HW1 9197   5.130   2.718   0.417
 2766SOL    HW2 9198   5.138   2.858   0.501
 2767SOL     OW 9199   6.694   4.778   6.865
 2767SOL    HW1 9200   6.750   4.771   6.783
 2767SOL    HW2 9201   6.671   4.687   6.898
 2768SOL     OW 9202   5.083   0.843   0.233
 2768SOL    HW1 9203   5.171   0.890   0.228
 2768SOL    HW2 9204   5.033   0.856   0.147
 2769SOL     OW 9205   0.324   4.280   3.868
 2769SOL    HW1 9206   0.264   4.294   3.789
 2769SOL    HW2 9207   0.420   4.281   3.838
 2770SOL     OW 9208   2.399   5.535   6.183
 2770SOL    HW1 9209   2.496   5.546   6.203
 2770SOL    HW2 9210   2.367   5.448   6.220
 2771SOL     OW 9211   6.182   1.110   2.141
 2771SOL    HW1 9212   6.257   1.122   2.076
 2771SOL    HW2 9213   6.184   1.185   2.208
 2772SOL     OW 9214   4.769   1.313   0.869
 2772SOL    HW1 9215   4.684   1.357   0.839
 2772SOL    HW2 9216   4.760   1.285   0.964
 2773SOL     OW 9217   5.897   2.597   5.264
 2773SOL    HW1 9218   5.840   2.651   5.201
 2773SOL    HW2 9219   5.932   2.656   5.336
 2774SOL     OW 9220   6.283   3.588   3.206
 2774SOL    HW1 9221   6.263   3.494   3.233
 2774SOL    HW2 9222   6.378   3.610   3.228
 2775SOL     OW 9223   0.078   5.387   6.720
 2775SOL    HW1 9224   0.009   5.351   6.657
 2775SOL    HW2 9225   0.092   5.323   6.796
 2776SOL     OW 9226   5.494   5.302   5.534
 2776SOL    HW1 9227   5.471   5.227   5.596
 2776SOL    HW2 9228   5.548   5.371   5.583
 2777SOL     OW 9229   2.729   0.990   1.824
 2777SOL    HW1 9230   2.758   0.925   1.753
 2777SOL    HW2 9231   2.803   1.003   1.889
 2778SOL     OW 9232   1.251   0.423   4.901
 2778SOL    HW1 9233   1.245   0.358   4.826
 2778SOL    HW2 9234   1.331   0.403   4.958
 2779SOL     OW 9235   5.049   6.583   0.951
 2779SOL    HW1 9236   5.143   6.615   0.935
 2779SOL    HW2 9237   5.014   6.623   1.036
 2780SOL     OW 9238   0.053   6.049   6.596
 2780SOL    HW1 9239   0.032   6.134   6.548
 2780SOL    HW2 9240   0.005   5.973   6.552
 2781SOL     OW 9241   6.135   5.390   1.417
 2781SOL    HW1 9242   6.104   5.447   1.493
 2781SOL    HW2 9243   6.180   5.448   1.348
 2782SOL     OW 9244   3.072   2.161   5.613
 2782SOL    HW1 9245   2.978   2.126   5.606
 2782SOL    HW2 9246   3.080   2.217   5.696
 2783SOL     OW 9247   5.921   3.175   4.647
 2783SOL    HW1 9248   5.975   3.096   4.618
 2783SOL    HW2 9249   5.865   3.150   4.726
 2784SOL     OW 9250   2.900   1.969   1.003
 2784SOL    HW1 9251   2.979   2.028   0.986
 2784SOL    HW2 9252   2.816   2.020   0.983
 2785SOL     OW 9253   5.881   1.711   0.659
 2785SOL    HW1 9254   5.945   1.638   0.637
 2785SOL    HW2 9255   5.926   1.777   0.720
 2786SOL     OW 9256   4.107   5.539   2.214
 2786SOL    HW1 9257   4.140   5.457   2.167
 2786SOL    HW2 9258   4.090   5.611   2.147
 2787SOL     OW 9259   2.829   2.719   6.887
 2787SOL    HW1 9260   2.875   2.749   6.803
 2787SOL    HW2 9261   2.849   2.622   6.902
 2788SOL     OW 9262   2.459   4.525   6.510
 2788SOL    HW1 9263   2.533   4.457   6.505
 2788SOL    HW2 9264   2.403   4.506   6.591
 2789SOL     OW 9265   2.196   2.796   3.331
 2789SOL    HW1 9266   2.206   2.879   3.387
 2789SOL    HW2 9267   2.261   2.727   3.363
 2790SOL     OW 9268   2.599   5.271   2.741
 2790SOL    HW1 9269   2.579   5.262   2.643
 2790SOL    HW2 9270   2.694   5.245   2.757
 2791SOL     OW 9271   1.024   4.167   3.972
 2791SOL    HW1 9272   1.117   4.204   3.978
 2791SOL    HW2 9273   0.959   4.242   3.961
 2792SOL     OW 9274   0.712   6.965   4.698
 2792SOL    HW1 9275   0.748   6.943   4.607
 2792SOL    HW2 9276   0.722   6.885   4.757
 2793SOL     OW 9277   4.885   3.171   2.851
 2793SOL    HW1 9278   4.981   3.196   2.860
 2793SOL    HW2 9279   4.829   3.236   2.902
 2794SOL     OW 9280   0.040   2.576   1.043
 2794SOL    HW1 9281   0.116   2.633   1.014
 2794SOL    HW2 9282   6.988   2.601   0.991
 2795SOL     OW 9283   1.926   3.039   0.344
 2795SOL    HW1 9284   1.974   3.126   0.333
 2795SOL    HW2 9285   1.948   2.999   0.433
 2796SOL     OW 9286   6.001   4.857   2.679
 2796SOL    HW1 9287   5.981   4.948   2.642
 2796SOL    HW2 9288   6.095   4.832   2.658
 2797SOL     OW 9289   4.578   5.129   4.191
 2797SOL    HW1 9290   4.546   5.123   4.286
 2797SOL    HW2 9291   4.537   5.209   4.148
 2798SOL     OW 9292   1.070   4.637   1.513
 2798SOL    HW1 9293   1.060   4.702   1.438
 2798SOL    HW2 9294   0.984   4.588   1.527
 2799SOL     OW 9295   0.278   6.772   0.201
 2799SOL    HW1 9296   0.349   6.747   0.135
 2799SOL    HW2 9297   0.261   6.871   0.196
 2800SOL     OW 9298   4.522   4.865   0.014
 2800SOL    HW1 9299   4.526   4.914   0.101
 2800SOL    HW2 9300   4.428   4.836   7.026
 2801SOL     OW 9301   5.020   5.409   5.108
 2801SOL    HW1 9302   4.951   5.440   5.173
 2801SOL    HW2 9303   5.053   5.318   5.134
 2802SOL     OW 9304   4.522   2.698   6.261
 2802SOL    HW1 9305   4.515   2.733   6.167
 2802SOL    HW2 9306   4.618   2.676   6.281
 2803SOL     OW 9307   3.431   6.026   6.312
 2803SOL    HW1 9308   3.481   6.039   6.398
 2803SOL    HW2 9309   3.341   5.989   6.332
 2804SOL     OW 9310   6.699   4.747   5.032
 2804SOL    HW1 9311   6.714   4.834   5.079
 2804SOL    HW2 9312   6.629   4.694   5.080
 2805SOL     OW 9313   5.018   2.755   2.063
 2805SOL    HW1 9314   4.919   2.742   2.070
 2805SOL    HW2 9315   5.050   2.818   2.134
 2806SOL     OW 9316   0.096   5.213   4.433
 2806SOL    HW1 9317   0.026   5.143   4.428
 2806SOL    HW2 9318   0.053   5.303   4.432
 2807SOL     OW 9319   5.844   5.432   3.731
 2807SOL    HW1 9320   5.841   5.397   3.637
 2807SOL    HW2 9321   5.918   5.500   3.739
 2808SOL     OW 9322   5.361   2.745   2.660
 2808SOL    HW1 9323   5.302   2.698   2.594
 2808SOL    HW2 9324   5.329   2.838   2.673
 2809SOL     OW 9325   5.827   2.808   1.908
 2809SOL    HW1 9326   5.900   2.757   1.862
 2809SOL    HW2 9327   5.740   2.759   1.897
 2810SOL     OW 9328   3.468   6.071   3.667
 2810SOL    HW1 9329   3.474   6.044   3.763
 2810SOL    HW2 9330   3.502   5.997   3.609
 2811SOL     OW 9331   0.625   1.129   3.411
 2811SOL    HW1 9332   0.686   1.078   3.473
 2811SOL    HW2 9333   0.554   1.175   3.464
 2812SOL     OW 9334   5.302   3.370   0.121
 2812SOL    HW1 9335   5.385   3.416   0.090
 2812SOL    HW2 9336   5.269   3.415   0.204
 2813SOL     OW 9337   6.516   0.268   5.789
 2813SOL    HW1 9338   6.428   0.294   5.749
 2813SOL    HW2 9339   6.527   0.169   5.784
 2814SOL     OW 9340   4.869   3.261   6.909
 2814SOL    HW1 9341   4.890   3.280   7.005
 2814SOL    HW2 9342   4.777   3.224   6.902
 2815SOL     OW 9343   6.565   1.225   5.413
 2815SOL    HW1 9344   6.484   1.191   5.461
 2815SOL    HW2 9345   6.647   1.200   5.463
 2816SOL     OW 9346   6.652   5.977   3.396
 2816SOL    HW1 9347   6.739   6.021   3.374
 2816SOL    HW2 9348   6.623   5.920   3.319
 2817SOL     OW 9349   2.661   7.004   1.040
 2817SOL    HW1 9350   2.648   6.905   1.042
 2817SOL    HW2 9351   2.707   0.003   1.124
 2818SOL     OW 9352   0.356   0.041   6.702
 2818SOL    HW1 9353   0.341   0.002   6.792
 2818SOL    HW2 9354   0.454   0.045   6.683
 2819SOL     OW 9355   0.420   0.942   1.362
 2819SOL    HW1 9356   0.403   1.007   1.436
 2819SOL    HW2 9357   0.495   0.975   1.305
 2820SOL     OW 9358   1.538   1.856   3.134
 2820SOL    HW1 9359   1.491   1.944   3.122
 2820SOL    HW2 9360   1.478   1.793   3.182
 2821SOL     OW 9361   4.152   3.316   0.394
 2821SOL    HW1 9362   4.132   3.370   0.476
 2821SOL    HW2 9363   4.117   3.363   0.313
 2822SOL     OW 9364   4.739   2.314   6.984
 2822SOL    HW1 9365   4.681   2.395   6.995
 2822SOL    HW2 9366   4.764   2.278   0.043
 2823SOL     OW 9367   3.624   6.294   0.674
 2823SOL    HW1 9368   3.600   6.207   0.633
 2823SOL    HW2 9369   3.567   6.367   0.635
 2824SOL     OW 9370   2.937   1.122   4.060
 2824SOL    HW1 9371   3.026   1.117   4.014
 2824SOL    HW2 9372   2.945   1.083   4.152
 2825SOL     OW 9373   6.426   0.618   6.632
 2825SOL    HW1 9374   6.371   0.540   6.660
 2825SOL    HW2 9375   6.496   0.637   6.701
 2826SOL     OW 9376   4.947   2.014   0.082
 2826SOL    HW1 9377   4.894   2.097   0.099
 2826SOL    HW2 9378   4.899   1.935   0.121
 2827SOL     OW 9379   6.323   0.722   5.227
 2827SOL    HW1 9380   6.394   0.745   5.293
 2827SOL    HW2 9381   6.362   0.667   5.153
 2828SOL     OW 9382   2.674   1.134   0.463
 2828SOL    HW1 9383   2.611   1.114   0.388
 2828SOL    HW2 9384   2.711   1.226   0.452
 2829SOL     OW 9385   3.566   3.968   6.058
 2829SOL    HW1 9386   3.654   3.940   6.097
 2829SOL    HW2 9387   3.582   4.031   5.982
 2830SOL     OW 9388   0.950   3.486   6.448
 2830SOL    HW1 9389   0.956   3.412   6.515
 2830SOL    HW2 9390   0.906   3.566   6.490
 2831SOL     OW 9391   0.567   6.145   3.461
 2831SOL    HW1 9392   0.649   6.200   3.447
 2831SOL    HW2 9393   0.543   6.144   3.558
 2832SOL     OW 9394   0.867   0.806   2.287
 2832SOL    HW1 9395   0.910   0.869   2.351
 2832SOL    HW2 9396   0.872   0.844   2.194
 2833SOL     OW 9397   4.628   2.509   2.427
 2833SOL    HW1 9398   4.598   2.445   2.498
 2833SOL    HW2 9399   4.677   2.585   2.470
 2834SOL     OW 9400   2.261   6.268   5.578
 2834SOL    HW1 9401   2.277   6.195   5.512
 2834SOL    HW2 9402   2.309   6.247   5.663
 2835SOL     OW 9403   6.837   0.588   1.835
 2835SOL    HW1 9404   6.920   0.625   1.877
 2835SOL    HW2 9405   6.773   0.662   1.817
 2836SOL     OW 9406   5.917   6.757   2.252
 2836SOL    HW1 9407   5.931   6.789   2.158
 2836SOL    HW2 9408   5.836   6.698   2.256
 2837SOL     OW 9409   5.242   4.159   3.345
 2837SOL    HW1 9410   5.316   4.137   3.281
 2837SOL    HW2 9411   5.191   4.238   3.310
 2838SOL     OW 9412   1.786   4.496   1.027
 2838SOL    HW1 9413   1.794   4.504   1.127
 2838SOL    HW2 9414   1.807   4.585   0.986
 2839SOL     OW 9415   5.938   1.823   1.610
 2839SOL    HW1 9416   5.981   1.732   1.610
 2839SOL    HW2 9417   5.855   1.821   1.554
 2840SOL     OW 9418   1.453   0.657   3.566
 2840SOL    HW1 9419   1.436   0.667   3.664
 2840SOL    HW2 9420   1.408   0.732   3.517
 2841SOL     OW 9421   0.562   0.954   6.269
 2841SOL    HW1 9422   0.589   1.005   6.350
 2841SOL    HW2 9423   0.640   0.902   6.235
 2842SOL     OW 9424   6.958   3.926   4.335
 2842SOL    HW1 9425   7.028   3.997   4.328
 2842SOL    HW2 9426   6.870   3.964   4.308
 2843SOL     OW 9427   2.885   1.417   2.551
 2843SOL    HW1 9428   2.870   1.326   2.590
 2843SOL    HW2 9429   2.797   1.466   2.548
 2844SOL     OW 9430   0.841   5.812   0.697
 2844SOL    HW1 9431   0.841   5.755   0.780
 2844SOL    HW2 9432   0.887   5.763   0.623
 2845SOL     OW 9433   0.357   2.605   0.859
 2845SOL    HW1 9434   0.286   2.639   0.797
 2845SOL    HW2 9435   0.351   2.505   0.865
 2846SOL     OW 9436   4.546   0.798   6.694
 2846SOL    HW1 9437   4.603   0.786   6.775
 2846SOL    HW2 9438   4.477   0.725   6.690
 2847SOL     OW 9439   5.340   3.552   3.451
 2847SOL    HW1 9440   5.438   3.571   3.450
 2847SOL    HW2 9441   5.324   3.456   3.427
 2848SOL     OW 9442   1.365   3.269   6.298
 2848SOL    HW1 9443   1.299   3.199   6.324
 2848SOL    HW2 9444   1.440   3.227   6.247
 2849SOL     OW 9445   3.541   6.955   0.763
 2849SOL    HW1 9446   3.615   7.013   0.798
 2849SOL    HW2 9447   3.480   7.010   0.706
 2850SOL     OW 9448   3.296   6.772   2.461
 2850SOL    HW1 9449   3.325   6.699   2.399
 2850SOL    HW2 9450   3.364   6.845   2.460
 2851SOL     OW 9451   0.158   2.586   5.680
 2851SOL    HW1 9452   0.067   2.577   5.640
 2851SOL    HW2 9453   0.181   2.683   5.686
 2852SOL     OW 9454   6.070   4.230   0.211
 2852SOL    HW1 9455   6.077   4.275   0.300
 2852SOL    HW2 9456   6.124   4.146   0.212
 2853SOL     OW 9457   1.799   2.828   0.194
 2853SOL    HW1 9458   1.838   2.906   0.245
 2853SOL    HW2 9459   1.700   2.825   0.210
 2854SOL     OW 9460   4.038   1.150   5.249
 2854SOL    HW1 9461   3.996   1.241   5.256
 2854SOL    HW2 9462   4.121   1.155   5.193
 2855SOL     OW 9463   2.959   0.700   6.499
 2855SOL    HW1 9464   2.934   0.639   6.575
 2855SOL    HW2 9465   2.952   0.795   6.529
 2856SOL     OW 9466   1.821   2.621   6.042
 2856SOL    HW1 9467   1.767   2.571   5.974
 2856SOL    HW2 9468   1.917   2.619   6.016
 2857SOL     OW 9469   3.327   1.899   2.304
 2857SOL    HW1 9470   3.279   1.848   2.376
 2857SOL    HW2 9471   3.409   1.848   2.277
 2858SOL     OW 9472   5.401   3.868   2.371
 2858SOL    HW1 9473   5.438   3.961   2.361
 2858SOL    HW2 9474   5.450   3.806   2.310
 2859SOL     OW 9475   5.217   1.924   0.216
 2859SOL    HW1 9476   5.167   2.007   0.191
 2859SOL    HW2 9477   5.314   1.935   0.193
 2860SOL     OW 9478   3.743   2.091   1.345
 2860SOL    HW1 9479   3.646   2.115   1.343
 2860SOL    HW2 9480   3.785   2.128   1.428
 2861SOL     OW 9481   4.238   4.442   6.041
 2861SOL    HW1 9482   4.335   4.435   6.063
 2861SOL    HW2 9483   4.226   4.441   5.942
 2862SOL     OW 9484   5.201   1.927   3.410
 2862SOL    HW1 9485   5.280   1.883   3.366
 2862SOL    HW2 9486   5.225   1.951   3.504
 2863SOL     OW 9487   4.657   1.658   6.937
 2863SOL    HW1 9488   4.572   1.607   6.951
 2863SOL    HW2 9489   4.722   1.633   7.008
 2864SOL     OW 9490   4.226   1.529   1.247
 2864SOL    HW1 9491   4.145   1.568   1.203
 2864SOL    HW2 9492   4.307   1.582   1.221
 2865SOL     OW 9493   5.504   4.486   5.624
 2865SOL    HW1 9494   5.431   4.501   5.557
 2865SOL    HW2 9495   5.497   4.553   5.698
 2866SOL     OW 9496   6.295   6.234   0.077
 2866SOL    HW1 9497   6.357   6.186   0.016
 2866SOL    HW2 9498   6.327   6.328   0.091
 2867SOL     OW 9499   5.834   3.807   2.367
 2867SOL    HW1 9500   5.869   3.770   2.453
 2867SOL    HW2 9501   5.884   3.766   2.290
 2868SOL     OW 9502   0.071   2.871   5.478
 2868SOL    HW1 9503   0.017   2.951   5.451
 2868SOL    HW2 9504   0.134   2.897   5.551
 2869SOL     OW 9505   6.536   1.104   3.653
 2869SOL    HW1 9506   6.505   1.128   3.745
 2869SOL    HW2 9507   6.617   1.046   3.659
 2870SOL     OW 9508   0.595   1.832   4.440
 2870SOL    HW1 9509   0.631   1.910   4.388
 2870SOL    HW2 9510   0.495   1.841   4.447
 2871SOL     OW 9511   0.676   2.357   0.413
 2871SOL    HW1 9512   0.775   2.357   0.426
 2871SOL    HW2 9513   0.642   2.450   0.422
 2872SOL     OW 9514   2.918   1.402   2.848
 2872SOL    HW1 9515   2.912   1.423   2.750
 2872SOL    HW2 9516   2.968   1.476   2.894
 2873SOL     OW 9517   6.841   4.812   2.672
 2873SOL    HW1 9518   6.887   4.846   2.590
 2873SOL    HW2 9519   6.742   4.811   2.656
 2874SOL     OW 9520   3.939   6.159   3.378
 2874SOL    HW1 9521   3.905   6.214   3.454
 2874SOL    HW2 9522   4.002   6.213   3.323
 2875SOL     OW 9523   5.203   6.733   0.596
 2875SOL    HW1 9524   5.212   6.826   0.633
 2875SOL    HW2 9525   5.109   6.702   0.607
 2876SOL     OW 9526   0.884   0.157   1.953
 2876SOL    HW1 9527   0.870   0.212   1.870
 2876SOL    HW2 9528   0.816   0.083   1.956
 2877SOL     OW 9529   3.662   2.806   5.440
 2877SOL    HW1 9530   3.749   2.758   5.449
 2877SOL    HW2 9531   3.587   2.747   5.470
 2878SOL     OW 9532   3.981   5.040   4.624
 2878SOL    HW1 9533   3.894   5.048   4.674
 2878SOL    HW2 9534   4.024   5.130   4.619
 2879SOL     OW 9535   5.089   4.439   0.860
 2879SOL    HW1 9536   5.014   4.393   0.812
 2879SOL    HW2 9537   5.085   4.415   0.957
 2880SOL     OW 9538   6.206   6.948   1.234
 2880SOL    HW1 9539   6.203   6.984   1.140
 2880SOL    HW2 9540   6.139   6.875   1.244
 2881SOL     OW 9541   5.375   6.362   0.569
 2881SOL    HW1 9542   5.456   6.304   0.570
 2881SOL    HW2 9543   5.293   6.305   0.583
 2882SOL     OW 9544   0.595   4.372   2.430
 2882SOL    HW1 9545   0.567   4.427   2.508
 2882SOL    HW2 9546   0.695   4.363   2.430
 2883SOL     OW 9547   5.512   6.674   3.479
 2883SOL    HW1 9548   5.551   6.763   3.502
 2883SOL    HW2 9549   5.572   6.602   3.513
 2884SOL     OW 9550   0.697   5.441   3.430
 2884SOL    HW1 9551   0.645   5.524   3.451
 2884SOL    HW2 9552   0.786   5.445   3.475
 2885SOL     OW 9553   0.960   3.115   2.695
 2885SOL    HW1 9554   1.033   3.085   2.633
 2885SOL    HW2 9555   0.985   3.093   2.789
 2886SOL     OW 9556   2.778   4.190   6.161
 2886SOL    HW1 9557   2.744   4.096   6.167
 2886SOL    HW2 9558   2.875   4.192   6.185
 2887SOL     OW 9559   1.804   6.929   4.187
 2887SOL    HW1 9560   1.760   6.936   4.277
 2887SOL    HW2 9561   1.809   7.020   4.146
 2888SOL     OW 9562   0.727   4.353   0.227
 2888SOL    HW1 9563   0.809   4.356   0.284
 2888SOL    HW2 9564   0.753   4.330   0.133
 2889SOL     OW 9565   2.015   6.508   2.592
 2889SOL    HW1 9566   2.100   6.459   2.613
 2889SOL    HW2 9567   1.991   6.494   2.496
 2890SOL     OW 9568   2.693   7.007   0.782
 2890SOL    HW1 9569   2.777   0.025   0.756
 2890SOL    HW2 9570   2.680   7.015   0.881
 2891SOL     OW 9571   2.143   3.950   3.569
 2891SOL    HW1 9572   2.134   3.956   3.470
 2891SOL    HW2 9573   2.190   4.032   3.603
 2892SOL     OW 9574   5.330   3.627   6.858
 2892SOL    HW1 9575   5.278   3.543   6.845
 2892SOL    HW2 9576   5.382   3.648   6.775
 2893SOL     OW 9577   0.203   6.571   4.866
 2893SOL    HW1 9578   0.146   6.646   4.834
 2893SOL    HW2 9579   0.209   6.573   4.966
 2894SOL     OW 9580   3.035   3.206   0.354
 2894SOL    HW1 9581   3.045   3.306   0.353
 2894SOL    HW2 9582   2.943   3.183   0.386
 2895SOL     OW 9583   4.150   2.967   6.597
 2895SOL    HW1 9584   4.155   2.969   6.497
 2895SOL    HW2 9585   4.187   2.881   6.631
 2896SOL     OW 9586   3.723   5.338   6.825
 2896SOL    HW1 9587   3.700   5.296   6.737
 2896SOL    HW2 9588   3.823   5.335   6.837
 2897SOL     OW 9589   3.359   5.275   3.389
 2897SOL    HW1 9590   3.292   5.349   3.395
 2897SOL    HW2 9591   3.436   5.295   3.449
 2898SOL     OW 9592   4.108   5.519   4.159
 2898SOL    HW1 9593   4.013   5.546   4.175
 2898SOL    HW2 9594   4.115   5.475   4.070
 2899SOL     OW 9595   0.763   1.894   0.288
 2899SOL    HW1 9596   0.735   1.804   0.320
 2899SOL    HW2 9597   0.855   1.914   0.322
 2900SOL     OW 9598   2.291   5.048   5.662
 2900SOL    HW1 9599   2.224   5.005   5.723
 2900SOL    HW2 9600   2.329   5.129   5.707
 2901SOL     OW 9601   2.099   0.072   3.416
 2901SOL    HW1 9602   2.006   0.108   3.418
 2901SOL    HW2 9603   2.098   7.008   3.381
 2902SOL     OW 9604   5.445   6.540   1.524
 2902SOL    HW1 9605   5.431   6.482   1.604
 2902SOL    HW2 9606   5.541   6.540   1.498
 2903SOL     OW 9607   3.019   0.565   0.581
 2903SOL    HW1 9608   2.960   0.507   0.636
 2903SOL    HW2 9609   3.026   0.655   0.624
 2904SOL     OW 9610   2.214   3.542   5.342
 2904SOL    HW1 9611   2.114   3.547   5.336
 2904SOL    HW2 9612   2.251   3.633   5.360
 2905SOL     OW 9613   1.577   2.498   3.460
 2905SOL    HW1 9614   1.573   2.553   3.376
 2905SOL    HW2 9615   1.611   2.407   3.439
 2906SOL     OW 9616   5.264   5.528   2.381
 2906SOL    HW1 9617   5.279   5.477   2.296
 2906SOL    HW2 9618   5.333   5.600   2.390
 2907SOL     OW 9619   0.709   1.357   4.277
 2907SOL    HW1 9620   0.716   1.451   4.311
 2907SOL    HW2 9621   0.733   1.293   4.350
 2908SOL     OW 9622   4.510   6.782   4.296
 2908SOL    HW1 9623   4.423   6.765   4.342
 2908SOL    HW2 9624   4.497   6.779   4.197
 2909SOL     OW 9625   0.409   6.382   3.957
 2909SOL    HW1 9626   0.333   6.366   3.894
 2909SOL    HW2 9627   0.468   6.454   3.919
 2910SOL     OW 9628   4.816   6.176   4.642
 2910SOL    HW1 9629   4.828   6.122   4.726
 2910SOL    HW2 9630   4.769   6.120   4.574
 2911SOL     OW 9631   1.552   5.397   3.682
 2911SOL    HW1 9632   1.492   5.338   3.627
 2911SOL    HW2 9633   1.578   5.477   3.628
 2912SOL     OW 9634   4.244   0.054   6.532
 2912SOL    HW1 9635   4.271   0.064   6.437
 2912SOL    HW2 9636   4.158   0.102   6.548
 2913SOL     OW 9637   1.932   4.642   2.616
 2913SOL    HW1 9638   1.968   4.582   2.544
 2913SOL    HW2 9639   1.868   4.707   2.577
 2914SOL     OW 9640   6.071   6.784   5.764
 2914SOL    HW1 9641   6.111   6.693   5.779
 2914SOL    HW2 9642   6.003   6.803   5.834
 2915SOL     OW 9643   5.451   1.408   5.219
 2915SOL    HW1 9644   5.548   1.384   5.222
 2915SOL    HW2 9645   5.397   1.337   5.263
 2916SOL     OW 9646   6.583   6.048   6.341
 2916SOL    HW1 9647   6.524   5.976   6.305
 2916SOL    HW2 9648   6.624   6.099   6.265
 2917SOL     OW 9649   4.303   6.640   2.308
 2917SOL    HW1 9650   4.277   6.663   2.402
 2917SOL    HW2 9651   4.340   6.722   2.263
 2918SOL     OW 9652   6.616   4.135   3.680
 2918SOL    HW1 9653   6.632   4.057   3.620
 2918SOL    HW2 9654   6.552   4.198   3.636
 2919SOL     OW 9655   6.815   0.966   0.932
 2919SOL    HW1 9656   6.828   0.897   1.003
 2919SOL    HW2 9657   6.904   1.004   0.906
 2920SOL     OW 9658   2.886   1.841   2.287
 2920SOL    HW1 9659   2.830   1.794   2.219
 2920SOL    HW2 9660   2.927   1.923   2.247
 2921SOL     OW 9661   0.993   0.518   3.005
 2921SOL    HW1 9662   0.908   0.511   2.952
 2921SOL    HW2 9663   1.070   0.486   2.950
 2922SOL     OW 9664   5.613   0.205   7.024
 2922SOL    HW1 9665   5.600   0.247   0.084
 2922SOL    HW2 9666   5.691   0.143   7.027
 2923SOL     OW 9667   0.221   4.703   1.839
 2923SOL    HW1 9668   0.203   4.634   1.908
 2923SOL    HW2 9669   0.284   4.667   1.770
 2924SOL     OW 9670   0.556   1.722   6.936
 2924SOL    HW1 9671   0.557   1.627   6.967
 2924SOL    HW2 9672   0.544   1.783   7.015
 2925SOL     OW 9673   4.891   1.092   3.638
 2925SOL    HW1 9674   4.802   1.057   3.668
 2925SOL    HW2 9675   4.891   1.192   3.644
 2926SOL     OW 9676   0.288   1.415   4.653
 2926SOL    HW1 9677   0.326   1.327   4.626
 2926SOL    HW2 9678   0.332   1.488   4.602
 2927SOL     OW 9679   1.428   1.525   2.342
 2927SOL    HW1 9680   1.506   1.572   2.384
 2927SOL    HW2 9681   1.350   1.527   2.405
 2928SOL     OW 9682   7.010   2.295   6.336
 2928SOL    HW1 9683   7.011   2.390   6.307
 2928SOL    HW2 9684   0.071   2.255   6.322
 2929SOL     OW 9685   0.379   0.542   6.398
 2929SOL    HW1 9686   0.370   0.611   6.326
 2929SOL    HW2 9687   0.293   0.536   6.449
 2930SOL     OW 9688   4.014   6.220   5.026
 2930SOL    HW1 9689   3.937   6.162   5.000
 2930SOL    HW2 9690   4.090   6.204   4.964
 2931SOL     OW 9691   5.764   5.533   0.236
 2931SOL    HW1 9692   5.770   5.513   0.138
 2931SOL    HW2 9693   5.853   5.519   0.279
 2932SOL     OW 9694   1.726   5.277   1.786
 2932SOL    HW1 9695   1.819   5.241   1.790
 2932SOL    HW2 9696   1.667   5.225   1.847
 2933SOL     OW 9697   5.918   3.836   3.386
 2933SOL    HW1 9698   5.979   3.914   3.381
 2933SOL    HW2 9699   5.897   3.817   3.482
 2934SOL     OW 9700   4.290   1.553   0.403
 2934SOL    HW1 9701   4.276   1.496   0.322
 2934SOL    HW2 9702   4.274   1.498   0.485
 2935SOL     OW 9703   6.354   3.540   1.807
 2935SOL    HW1 9704   6.332   3.633   1.837
 2935SOL    HW2 9705   6.450   3.521   1.825
 2936SOL     OW 9706   4.387   4.941   2.169
 2936SOL    HW1 9707   4.320   4.867   2.160
 2936SOL    HW2 9708   4.366   4.995   2.251
 2937SOL     OW 9709   3.971   4.971   0.315
 2937SOL    HW1 9710   3.915   5.034   0.368
 2937SOL    HW2 9711   4.052   5.018   0.282
 2938SOL     OW 9712   5.371   4.867   5.837
 2938SOL    HW1 9713   5.388   4.845   5.933
 2938SOL    HW2 9714   5.439   4.932   5.805
 2939SOL     OW 9715   0.538   0.215   4.552
 2939SOL    HW1 9716   0.440   0.233   4.562
 2939SOL    HW2 9717   0.555   0.172   4.463
 2940SOL     OW 9718   6.057   6.585   6.545
 2940SOL    HW1 9719   5.958   6.584   6.536
 2940SOL    HW2 9720   6.090   6.679   6.553
 2941SOL     OW 9721   2.419   2.599   4.198
 2941SOL    HW1 9722   2.435   2.571   4.104
 2941SOL    HW2 9723   2.422   2.519   4.258
 2942SOL     OW 9724   2.841   2.188   1.275
 2942SOL    HW1 9725   2.900   2.268   1.289
 2942SOL    HW2 9726   2.778   2.207   1.200
 2943SOL     OW 9727   5.822   4.065   2.762
 2943SOL    HW1 9728   5.893   4.032   2.698
 2943SOL    HW2 9729   5.866   4.101   2.844
 2944SOL     OW 9730   2.539   5.976   4.996
 2944SOL    HW1 9731   2.565   6.068   4.967
 2944SOL    HW2 9732   2.441   5.974   5.015
 2945SOL     OW 9733   3.665   4.130   3.769
 2945SOL    HW1 9734   3.752   4.085   3.788
 2945SOL    HW2 9735   3.660   4.155   3.672
 2946SOL     OW 9736   1.201   5.592   6.889
 2946SOL    HW1 9737   1.140   5.654   6.938
 2946SOL    HW2 9738   1.295   5.608   6.919
 2947SOL     OW 9739   0.970   4.022   6.361
 2947SOL    HW1 9740   0.979   3.983   6.453
 2947SOL    HW2 9741   1.015   4.112   6.359
 2948SOL     OW 9742   6.848   5.178   5.401
 2948SOL    HW1 9743   6.862   5.193   5.303
 2948SOL    HW2 9744   6.931   5.141   5.441
 2949SOL     OW 9745   2.514   6.083   1.276
 2949SOL    HW1 9746   2.508   6.038   1.365
 2949SOL    HW2 9747   2.604   6.070   1.236
 2950SOL     OW 9748   4.924   3.733   4.773
 2950SOL    HW1 9749   4.884   3.807   4.719
 2950SOL    HW2 9750   4.856   3.699   4.838
 2951SOL     OW 9751   6.516   2.370   1.309
 2951SOL    HW1 9752   6.456   2.319   1.370
 2951SOL    HW2 9753   6.484   2.360   1.215
 2952SOL     OW 9754   0.858   6.107   5.228
 2952SOL    HW1 9755   0.772   6.060   5.250
 2952SOL    HW2 9756   0.845   6.206   5.238
 2953SOL     OW 9757   4.821   3.120   3.167
 2953SOL    HW1 9758   4.917   3.094   3.154
 2953SOL    HW2 9759   4.796   3.107   3.263
 2954SOL     OW 9760   0.921   5.413   1.798
 2954SOL    HW1 9761   0.957   5.341   1.740
 2954SOL    HW2 9762   0.923   5.383   1.894
 2955SOL     OW 9763   1.147   3.721   1.571
 2955SOL    HW1 9764   1.171   3.782   1.495
 2955SOL    HW2 9765   1.182   3.629   1.552
 2956SOL     OW 9766   6.044   6.263   3.034
 2956SOL    HW1 9767   6.006   6.356   3.027
 2956SOL    HW2 9768   6.122   6.264   3.096
 2957SOL     OW 9769   6.581   3.371   2.015
 2957SOL    HW1 9770   6.484   3.394   2.006
 2957SOL    HW2 9771   6.593   3.303   2.087
 2958SOL     OW 9772   2.438   4.487   4.580
 2958SOL    HW1 9773   2.443   4.497   4.680
 2958SOL    HW2 9774   2.519   4.528   4.538
 2959SOL     OW 9775   4.412   4.544   0.575
 2959SOL    HW1 9776   4.493   4.575   0.526
 2959SOL    HW2 9777   4.336   4.533   0.511
 2960SOL     OW 9778   3.700   6.795   6.362
 2960SOL    HW1 9779   3.682   6.708   6.315
 2960SOL    HW2 9780   3.631   6.862   6.333
 2961SOL     OW 9781   5.094   2.915   4.454
 2961SOL    HW1 9782   5.149   2.989   4.494
 2961SOL    HW2 9783   5.044   2.869   4.526
 2962SOL     OW 9784   4.559   0.384   3.683
 2962SOL    HW1 9785   4.516   0.299   3.713
 2962SOL    HW2 9786   4.496   0.433   3.623
 2963SOL     OW 9787   2.298   1.318   5.887
 2963SOL    HW1 9788   2.308   1.220   5.868
 2963SOL    HW2 9789   2.224   1.331   5.953
 2964SOL     OW 9790   0.173   0.211   2.193
 2964SOL    HW1 9791   0.142   0.280   2.259
 2964SOL    HW2 9792   0.200   0.128   2.242
 2965SOL     OW 9793   0.050   1.147   4.847
 2965SOL    HW1 9794   0.048   1.191   4.757
 2965SOL    HW2 9795   0.118   1.192   4.905
 2966SOL     OW 9796   5.543   5.284   4.649
 2966SOL    HW1 9797   5.598   5.328   4.578
 2966SOL    HW2 9798   5.499   5.354   4.705
 2967SOL     OW 9799   6.115   2.233   4.531
 2967SOL    HW1 9800   6.091   2.155   4.474
 2967SOL    HW2 9801   6.200   2.274   4.498
 2968SOL     OW 9802   1.224   3.650   6.420
 2968SOL    HW1 9803   1.308   3.599   6.443
 2968SOL    HW2 9804   1.145   3.589   6.429
 2969SOL     OW 9805   6.165   1.556   4.408
 2969SOL    HW1 9806   6.140   1.466   4.372
 2969SOL    HW2 9807   6.109   1.626   4.365
 2970SOL     OW 9808   1.245   3.883   6.615
 2970SOL    HW1 9809   1.151   3.914   6.629
 2970SOL    HW2 9810   1.252   3.836   6.527
 2971SOL     OW 9811   6.178   3.380   6.110
 2971SOL    HW1 9812   6.250   3.334   6.161
 2971SOL    HW2 9813   6.159   3.469   6.151
 2972SOL     OW 9814   6.683   4.698   6.148
 2972SOL    HW1 9815   6.781   4.675   6.140
 2972SOL    HW2 9816   6.638   4.627   6.203
 2973SOL     OW 9817   5.699   1.189   4.231
 2973SOL    HW1 9818   5.612   1.169   4.186
 2973SOL    HW2 9819   5.686   1.263   4.296
 2974SOL     OW 9820   0.830   3.977   2.642
 2974SOL    HW1 9821   0.818   3.878   2.635
 2974SOL    HW2 9822   0.872   4.012   2.558
 2975SOL     OW 9823   0.549   2.504   4.788
 2975SOL    HW1 9824   0.529   2.418   4.739
 2975SOL    HW2 9825   0.556   2.578   4.721
 2976SOL     OW 9826   4.242   1.500   3.236
 2976SOL    HW1 9827   4.187   1.431   3.283
 2976SOL    HW2 9828   4.197   1.525   3.150
 2977SOL     OW 9829   1.575   6.430   4.061
 2977SOL    HW1 9830   1.585   6.434   3.962
 2977SOL    HW2 9831   1.581   6.523   4.099
 2978SOL     OW 9832   4.361   4.987   6.494
 2978SOL    HW1 9833   4.451   5.027   6.508
 2978SOL    HW2 9834   4.370   4.893   6.460
 2979SOL     OW 9835   5.086   6.758   4.501
 2979SOL    HW1 9836   5.176   6.739   4.462
 2979SOL    HW2 9837   5.052   6.676   4.547
 2980SOL     OW 9838   0.859   5.904   3.685
 2980SOL    HW1 9839   0.926   5.861   3.746
 2980SOL    HW2 9840   0.836   5.995   3.719
 2981SOL     OW 9841   1.359   1.320   5.777
 2981SOL    HW1 9842   1.279   1.356   5.825
 2981SOL    HW2 9843   1.419   1.396   5.751
 2982SOL     OW 9844   4.769   5.777   3.103
 2982SOL    HW1 9845   4.753   5.748   3.197
 2982SOL    HW2 9846   4.861   5.815   3.095
 2983SOL     OW 9847   0.843   1.658   4.081
 2983SOL    HW1 9848   0.883   1.611   4.003
 2983SOL    HW2 9849   0.750   1.687   4.059
 2984SOL     OW 9850   5.129   5.584   1.722
 2984SOL    HW1 9851   5.123   5.668   1.668
 2984SOL    HW2 9852   5.044   5.532   1.713
 2985SOL     OW 9853   1.262   2.807   5.346
 2985SOL    HW1 9854   1.332   2.879   5.351
 2985SOL    HW2 9855   1.190   2.837   5.284
 2986SOL     OW 9856   2.295   3.895   6.082
 2986SOL    HW1 9857   2.369   3.928   6.140
 2986SOL    HW2 9858   2.278   3.962   6.010
 2987SOL     OW 9859   5.634   0.911   3.819
 2987SOL    HW1 9860   5.700   0.836   3.830
 2987SOL    HW2 9861   5.669   0.993   3.864
 2988SOL     OW 9862   0.665   6.388   2.967
 2988SOL    HW1 9863   0.676   6.398   3.066
 2988SOL    HW2 9864   0.704   6.468   2.921
 2989SOL     OW 9865   6.394   6.400   0.491
 2989SOL    HW1 9866   6.421   6.490   0.526
 2989SOL    HW2 9867   6.439   6.328   0.543
 2990SOL     OW 9868   4.449   1.240   3.810
 2990SOL    HW1 9869   4.357   1.238   3.850
 2990SOL    HW2 9870   4.457   1.170   3.740
 2991SOL     OW 9871   6.952   3.840   6.608
 2991SOL    HW1 9872   0.014   3.869   6.633
 2991SOL    HW2 9873   6.948   3.824   6.509
 2992SOL     OW 9874   2.137   4.878   5.881
 2992SOL    HW1 9875   2.114   4.931   5.963
 2992SOL    HW2 9876   2.206   4.810   5.903
 2993SOL     OW 9877   0.937   5.022   1.643
 2993SOL    HW1 9878   0.849   5.068   1.656
 2993SOL    HW2 9879   0.967   5.034   1.548
 2994SOL     OW 9880   3.740   0.298   0.312
 2994SOL    HW1 9881   3.698   0.380   0.353
 2994SOL    HW2 9882   3.830   0.284   0.352
 2995SOL     OW 9883   1.667   3.583   6.732
 2995SOL    HW1 9884   1.653   3.680   6.711
 2995SOL    HW2 9885   1.753   3.552   6.691
 2996SOL     OW 9886   2.538   6.858   3.542
 2996SOL    HW1 9887   2.543   6.763   3.573
 2996SOL    HW2 9888   2.526   6.860   3.443
 2997SOL     OW 9889   5.077   0.223   2.258
 2997SOL    HW1 9890   5.176   0.207   2.253
 2997SOL    HW2 9891   5.057   0.280   2.338
 2998SOL     OW 9892   5.556   6.365   4.852
 2998SOL    HW1 9893   5.643   6.410   4.832
 2998SOL    HW2 9894   5.485   6.434   4.869
 2999SOL     OW 9895   3.188   5.055   4.262
 2999SOL    HW1 9896   3.186   5.140   4.314
 2999SOL    HW2 9897   3.261   5.060   4.193
 3000SOL     OW 9898   2.067   3.912   6.565
 3000SOL    HW1 9899   2.143   3.892   6.503
 3000SOL    HW2 9900   1.986   3.936   6.511
 3001SOL     OW 9901   5.826   5.794   6.875
 3001SOL    HW1 9902   5.891   5.839   6.813
 3001SOL    HW2 9903   5.877   5.744   6.945
 3002SOL     OW 9904   3.990   0.085   6.186
 3002SOL    HW1 9905   4.059   0.127   6.246
 3002SOL    HW2 9906   4.035   0.046   6.106
 3003SOL     OW 9907   2.312   6.975   6.638
 3003SOL    HW1 9908   2.386   6.962   6.704
 3003SOL    HW2 9909   2.349   6.969   6.545
 3004SOL     OW 9910   1.271   5.360   3.809
 3004SOL    HW1 9911   1.259   5.302   3.728
 3004SOL    HW2 9912   1.368   5.378   3.823
 3005SOL     OW 9913   3.015   2.604   0.505
 3005SOL    HW1 9914   2.922   2.631   0.482
 3005SOL    HW2 9915   3.038   2.519   0.458
 3006SOL     OW 9916   5.735   2.159   6.849
 3006SOL    HW1 9917   5.738   2.074   6.900
 3006SOL    HW2 9918   5.654   2.212   6.875
 3007SOL     OW 9919   5.904   5.053   1.773
 3007SOL    HW1 9920   5.878   4.957   1.761
 3007SOL    HW2 9921   5.927   5.069   1.869
 3008SOL     OW 9922   3.404   0.640   6.438
 3008SOL    HW1 9923   3.447   0.580   6.504
 3008SOL    HW2 9924   3.309   0.612   6.424
 3009SOL     OW 9925   0.340   6.832   2.942
 3009SOL    HW1 9926   0.438   6.843   2.927
 3009SOL    HW2 9927   0.296   6.805   2.856
 3010SOL     OW 9928   3.511   6.747   3.449
 3010SOL    HW1 9929   3.426   6.696   3.462
 3010SOL    HW2 9930   3.588   6.683   3.452
 3011SOL     OW 9931   5.662   1.497   0.436
 3011SOL    HW1 9932   5.566   1.520   0.423
 3011SOL    HW2 9933   5.702   1.557   0.506
 3012SOL     OW 9934   0.784   3.467   5.050
 3012SOL    HW1 9935   0.751   3.535   5.116
 3012SOL    HW2 9936   0.799   3.510   4.962
 3013SOL     OW 9937   5.139   5.618   4.786
 3013SOL    HW1 9938   5.076   5.541   4.794
 3013SOL    HW2 9939   5.158   5.654   4.877
 3014SOL     OW 9940   5.072   3.270   4.411
 3014SOL    HW1 9941   5.125   3.250   4.494
 3014SOL    HW2 9942   5.035   3.363   4.417
 3015SOL     OW 9943   2.774   2.493   0.496
 3015SOL    HW1 9944   2.749   2.493   0.593
 3015SOL    HW2 9945   2.821   2.408   0.474
 3016SOL     OW 9946   2.759   5.795   3.788
 3016SOL    HW1 9947   2.805   5.882   3.801
 3016SOL    HW2 9948   2.716   5.766   3.873
 3017SOL     OW 9949   0.994   5.143   1.951
 3017SOL    HW1 9950   1.052   5.065   1.930
 3017SOL    HW2 9951   0.899   5.113   1.959
 3018SOL     OW 9952   1.959   6.813   5.209
 3018SOL    HW1 9953   1.958   6.790   5.112
 3018SOL    HW2 9954   1.871   6.789   5.251
 3019SOL     OW 9955   2.342   6.722   0.126
 3019SOL    HW1 9956   2.265   6.766   0.172
 3019SOL    HW2 9957   2.378   6.649   0.183
 3020SOL     OW 9958   3.764   3.799   1.767
 3020SOL    HW1 9959   3.803   3.709   1.749
 3020SOL    HW2 9960   3.688   3.791   1.831
 3021SOL     OW 9961   3.420   0.581   6.806
 3021SOL    HW1 9962   3.408   0.526   6.889
 3021SOL    HW2 9963   3.426   0.520   6.727
 3022SOL     OW 9964   4.092   5.430   3.875
 3022SOL    HW1 9965   4.169   5.401   3.819
 3022SOL    HW2 9966   4.038   5.350   3.902
 3023SOL     OW 9967   4.818   0.241   2.207
 3023SOL    HW1 9968   4.762   0.167   2.244
 3023SOL    HW2 9969   4.914   0.222   2.226
 3024SOL     OW 9970   3.848   6.782   5.841
 3024SOL    HW1 9971   3.940   6.793   5.879
 3024SOL    HW2 9972   3.780   6.799   5.913
 3025SOL     OW 9973   3.991   1.789   0.512
 3025SOL    HW1 9974   3.991   1.690   0.520
 3025SOL    HW2 9975   3.915   1.818   0.453
 3026SOL     OW 9976   1.948   1.747   0.805
 3026SOL    HW1 9977   1.977   1.821   0.867
 3026SOL    HW2 9978   2.029   1.707   0.762
 3027SOL     OW 9979   4.118   0.326   2.000
 3027SOL    HW1 9980   4.185   0.333   1.926
 3027SOL    HW2 9981   4.126   0.236   2.042
 3028SOL     OW 9982   2.076   3.725   6.054
 3028SOL    HW1 9983   2.155   3.787   6.051
 3028SOL    HW2 9984   2.109   3.631   6.063
 3029SOL     OW 9985   0.375   4.634   4.762
 3029SOL    HW1 9986   0.275   4.642   4.764
 3029SOL    HW2 9987   0.402   4.563   4.697
 3030SOL     OW 9988   1.039   2.508   5.914
 3030SOL    HW1 9989   1.134   2.484   5.895
 3030SOL    HW2 9990   0.985   2.498   5.831
 3031SOL     OW 9991   0.030   3.128   0.806
 3031SOL    HW1 9992   0.036   3.107   0.708
 3031SOL    HW2 9993   0.120   3.117   0.848
 3032SOL     OW 9994   4.658   6.735   1.627
 3032SOL    HW1 9995   4.665   6.834   1.618
 3032SOL    HW2 9996   4.697   6.706   1.715
 3033SOL     OW 9997   0.049   2.385   1.504
 3033SOL    HW1 9998   0.008   2.406   1.416
 3033SOL    HW2 9999   0.064   2.286   1.511
 3034SOL     OW10000   1.848   5.715   3.466
 3034SOL    HW110001   1.933   5.687   3.420
 3034SOL    HW210002   1.849   5.814   3.481
 3035SOL     OW10003   0.065   3.005   0.275
 3035SOL    HW110004   7.020   3.036   0.217
 3035SOL    HW210005   0.070   2.905   0.272
 3036SOL     OW10006   1.878   2.917   6.109
 3036SOL    HW110007   1.939   2.995   6.093
 3036SOL    HW210008   1.923   2.833   6.081
 3037SOL     OW10009   0.315   5.846   4.271
 3037SOL    HW110010   0.287   5.888   4.185
 3037SOL    HW210011   0.303   5.911   4.346
 3038SOL     OW10012   5.880   6.017   6.455
 3038SOL    HW110013   5.926   5.934   6.489
 3038SOL    HW210014   5.914   6.097   6.505
 3039SOL     OW10015   0.063   3.562   1.762
 3039SOL    HW110016   0.025   3.625   1.694
 3039SOL    HW210017   0.095   3.479   1.716
 3040SOL     OW10018   4.826   3.408   6.480
 3040SOL    HW110019   4.805   3.424   6.383
 3040SOL    HW210020   4.824   3.495   6.529
 3041SOL     OW10021   2.270   2.944   4.821
 3041SOL    HW110022   2.318   2.900   4.745
 3041SOL    HW210023   2.325   2.933   4.904
 3042SOL     OW10024   5.291   0.013   1.432
 3042SOL    HW110025   5.204   6.996   1.422
 3042SOL    HW210026   5.366   6.978   1.416
 3043SOL     OW10027   0.708   5.714   1.323
 3043SOL    HW110028   0.726   5.643   1.255
 3043SOL    HW210029   0.795   5.750   1.357
 3044SOL     OW10030   2.946   4.649   6.302
 3044SOL    HW110031   2.905   4.568   6.259
 3044SOL    HW210032   2.910   4.731   6.259
 3045SOL     OW10033   5.027   1.189   3.066
 3045SOL    HW110034   5.011   1.093   3.041
 3045SOL    HW210035   4.966   1.214   3.141
 3046SOL     OW10036   2.567   1.895   6.841
 3046SOL    HW110037   2.609   1.967   6.896
 3046SOL    HW210038   2.527   1.936   6.758
 3047SOL     OW10039   5.460   6.624   2.275
 3047SOL    HW110040   5.444   6.588   2.366
 3047SOL    HW210041   5.401   6.704   2.260
 3048SOL     OW10042   3.902   2.684   1.521
 3048SOL    HW110043   3.923   2.671   1.424
 3048SOL    HW210044   3.873   2.779   1.536
 3049SOL     OW10045   0.985   6.484   2.010
 3049SOL    HW110046   0.898   6.531   2.024
 3049SOL    HW210047   0.969   6.386   1.998
 3050SOL     OW10048   3.587   0.950   2.538
 3050SOL    HW110049   3.517   0.941   2.610
 3050SOL    HW210050   3.544   0.938   2.448
 3051SOL     OW10051   2.395   3.732   6.602
 3051SOL    HW110052   2.384   3.801   6.673
 3051SOL    HW210053   2.348   3.762   6.519
 3052SOL     OW10054   4.724   0.481   2.241
 3052SOL    HW110055   4.753   0.386   2.249
 3052SOL    HW210056   4.625   0.486   2.234
 3053SOL     OW10057   0.161   1.506   6.455
 3053SOL    HW110058   0.246   1.458   6.434
 3053SOL    HW210059   0.109   1.520   6.371
 3054SOL     OW10060   6.710   2.537   1.403
 3054SOL    HW110061   6.801   2.522   1.365
 3054SOL    HW210062   6.644   2.477   1.358
 3055SOL     OW10063   4.981   6.431   3.959
 3055SOL    HW110064   5.060   6.411   4.016
 3055SOL    HW210065   4.993   6.520   3.915
 3056SOL     OW10066   6.645   1.697   5.668
 3056SOL    HW110067   6.690   1.768   5.722
 3056SOL    HW210068   6.634   1.615   5.724
 3057SOL     OW10069   4.070   5.955   3.806
 3057SOL    HW110070   4.075   5.877   3.868
 3057SOL    HW210071   4.153   6.011   3.816
 3058SOL     OW10072   6.813   5.816   1.089
 3058SOL    HW110073   6.836   5.897   1.142
 3058SOL    HW210074   6.756   5.754   1.144
 3059SOL     OW10075   2.202   2.372   4.154
 3059SOL    HW110076   2.272   2.346   4.220
 3059SOL    HW210077   2.214   2.468   4.128
 3060SOL     OW10078   1.061   6.099   0.554
 3060SOL    HW110079   1.069   6.180   0.495
 3060SOL    HW210080   0.970   6.097   0.595
 3061SOL     OW10081   5.806   0.699   5.286
 3061SOL    HW110082   5.797   0.760   5.208
 3061SOL    HW210083   5.896   0.711   5.328
 3062SOL     OW10084   1.697   6.795   6.903
 3062SOL    HW110085   1.776   6.736   6.885
 3062SOL    HW210086   1.620   6.739   6.931
 3063SOL     OW10087   2.664   5.460   1.949
 3063SOL    HW110088   2.714   5.397   2.009
 3063SOL    HW210089   2.591   5.410   1.902
 3064SOL     OW10090   5.433   3.652   4.110
 3064SOL    HW110091   5.366   3.578   4.110
 3064SOL    HW210092   5.400   3.727   4.053
 3065SOL     OW10093   2.064   0.649   6.957
 3065SOL    HW110094   2.163   0.637   6.958
 3065SOL    HW210095   2.041   0.726   6.898
 3066SOL     OW10096   4.904   5.185   0.567
 3066SOL    HW110097   4.820   5.130   0.570
 3066SOL    HW210098   4.982   5.127   0.591
 3067SOL     OW10099   3.825   2.120   4.602
 3067SOL    HW110100   3.746   2.151   4.549
 3067SOL    HW210101   3.822   2.162   4.693
 3068SOL     OW10102   5.420   6.128   1.097
 3068SOL    HW110103   5.404   6.078   1.183
 3068SOL    HW210104   5.514   6.161   1.095
 3069SOL     OW10105   6.586   6.353   2.002
 3069SOL    HW110106   6.571   6.451   2.020
 3069SOL    HW210107   6.506   6.301   2.032
 3070SOL     OW10108   1.047   0.994   2.430
 3070SOL    HW110109   1.106   0.995   2.511
 3070SOL    HW210110   1.037   1.087   2.395
 3071SOL     OW10111   5.703   5.923   3.579
 3071SOL    HW110112   5.649   6.007   3.568
 3071SOL    HW210113   5.797   5.947   3.602
 3072SOL     OW10114   1.471   6.435   0.747
 3072SOL    HW110115   1.490   6.457   0.652
 3072SOL    HW210116   1.497   6.512   0.805
 3073SOL     OW10117   7.007   3.617   5.341
 3073SOL    HW110118   6.943   3.627   5.417
 3073SOL    HW210119   0.023   3.704   5.324
 3074SOL     OW10120   5.050   3.017   0.561
 3074SOL    HW110121   4.971   2.974   0.605
 3074SOL    HW210122   5.019   3.082   0.493
 3075SOL     OW10123   2.180   6.079   1.764
 3075SOL    HW110124   2.132   6.130   1.835
 3075SOL    HW210125   2.211   5.991   1.801
 3076SOL     OW10126   0.045   1.255   4.586
 3076SOL    HW110127   0.145   1.260   4.580
 3076SOL    HW210128   0.004   1.335   4.543
 3077SOL     OW10129   4.892   5.677   2.716
 3077SOL    HW110130   4.945   5.710   2.637
 3077SOL    HW210131   4.795   5.698   2.702
 3078SOL     OW10132   1.263   3.256   1.234
 3078SOL    HW110133   1.347   3.281   1.282
 3078SOL    HW210134   1.184   3.281   1.290
 3079SOL     OW10135   2.531   1.961   4.730
 3079SOL    HW110136   2.509   2.009   4.814
 3079SOL    HW210137   2.447   1.935   4.683
 3080SOL     OW10138   4.752   4.433   3.632
 3080SOL    HW110139   4.843   4.393   3.621
 3080SOL    HW210140   4.715   4.407   3.721
 3081SOL     OW10141   0.270   2.422   6.114
 3081SOL    HW110142   0.191   2.483   6.118
 3081SOL    HW210143   0.354   2.476   6.112
 3082SOL     OW10144   3.652   6.971   3.746
 3082SOL    HW110145   3.659   0.032   3.787
 3082SOL    HW210146   3.599   6.976   3.662
 3083SOL     OW10147   4.488   5.975   3.633
 3083SOL    HW110148   4.494   5.875   3.632
 3083SOL    HW210149   4.420   6.003   3.701
 3084SOL     OW10150   4.874   4.153   4.636
 3084SOL    HW110151   4.853   4.131   4.541
 3084SOL    HW210152   4.842   4.245   4.658
 3085SOL     OW10153   0.626   4.715   1.849
 3085SOL    HW110154   0.584   4.784   1.789
 3085SOL    HW210155   0.706   4.677   1.804
 3086SOL     OW10156   3.886   1.886   1.892
 3086SOL    HW110157   3.969   1.942   1.888
 3086SOL    HW210158   3.816   1.927   1.834
 3087SOL     OW10159   1.248   5.001   3.812
 3087SOL    HW110160   1.323   4.985   3.749
 3087SOL    HW210161   1.274   5.070   3.879
 3088SOL     OW10162   2.454   5.212   5.842
 3088SOL    HW110163   2.528   5.271   5.872
 3088SOL    HW210164   2.403   5.179   5.921
 3089SOL     OW10165   1.069   3.161   0.550
 3089SOL    HW110166   1.104   3.237   0.496
 3089SOL    HW210167   1.130   3.082   0.538
 3090SOL     OW10168   1.977   2.406   2.082
 3090SOL    HW110169   1.881   2.433   2.091
 3090SOL    HW210170   1.984   2.332   2.015
 3091SOL     OW10171   1.476   6.975   0.112
 3091SOL    HW110172   1.563   6.949   0.154
 3091SOL    HW210173   1.464   0.044   0.121
 3092SOL     OW10174   4.952   6.611   0.235
 3092SOL    HW110175   4.920   6.549   0.163
 3092SOL    HW210176   5.043   6.644   0.212
 3093SOL     OW10177   5.442   5.693   5.925
 3093SOL    HW110178   5.383   5.756   5.874
 3093SOL    HW210179   5.495   5.745   5.993
 3094SOL     OW10180   2.945   6.858   4.364
 3094SOL    HW110181   2.850   6.886   4.352
 3094SOL    HW210182   2.984   6.905   4.443
 3095SOL     OW10183   2.211   6.088   4.228
 3095SOL    HW110184   2.244   6.174   4.188
 3095SOL    HW210185   2.231   6.087   4.326
 3096SOL     OW10186   0.980   0.258   4.618
 3096SOL    HW110187   0.894   0.244   4.667
 3096SOL    HW210188   0.973   0.339   4.560
 3097SOL     OW10189   0.436   2.060   0.998
 3097SOL    HW110190   0.442   1.988   1.067
 3097SOL    HW210191   0.465   2.024   0.909
 3098SOL     OW10192   2.309   3.256   0.801
 3098SOL    HW110193   2.334   3.352   0.812
 3098SOL    HW210194   2.371   3.213   0.737
 3099SOL     OW10195   0.224   6.030   4.482
 3099SOL    HW110196   0.258   6.028   4.576
 3099SOL    HW210197   0.136   5.982   4.477
 3100SOL     OW10198   6.747   6.969   4.558
 3100SOL    HW110199   6.765   7.005   4.650
 3100SOL    HW210200   6.694   6.884   4.565
 3101SOL     OW10201   5.440   6.187   5.873
 3101SOL    HW110202   5.530   6.192   5.830
 3101SOL    HW210203   5.437   6.249   5.952
 3102SOL     OW10204   0.524   5.082   2.994
 3102SOL    HW110205   0.445   5.022   2.981
 3102SOL    HW210206   0.531   5.145   2.917
 3103SOL     OW10207   3.481   0.898   1.678
 3103SOL    HW110208   3.404   0.924   1.736
 3103SOL    HW210209   3.455   0.909   1.582
 3104SOL     OW10210   5.081   6.682   5.450
 3104SOL    HW110211   5.167   6.732   5.467
 3104SOL    HW210212   5.040   6.714   5.365
 3105SOL     OW10213   6.190   4.685   2.224
 3105SOL    HW110214   6.133   4.628   2.283
 3105SOL    HW210215   6.153   4.685   2.131
 3106SOL     OW10216   6.088   0.856   2.905
 3106SOL    HW110217   6.009   0.824   2.958
 3106SOL    HW210218   6.120   0.943   2.941
 3107SOL     OW10219   4.193   0.777   4.139
 3107SOL    HW110220   4.163   0.872   4.153
 3107SOL    HW210221   4.131   0.732   4.076
 3108SOL     OW10222   1.546   0.283   4.374
 3108SOL    HW110223   1.466   0.241   4.417
 3108SOL    HW210224   1.552   0.379   4.401
 3109SOL     OW10225   5.677   5.892   2.481
 3109SOL    HW110226   5.756   5.845   2.444
 3109SOL    HW210227   5.699   5.987   2.499
 3110SOL     OW10228   1.427   1.960   3.478
 3110SOL    HW110229   1.366   2.035   3.451
 3110SOL    HW210230   1.509   1.998   3.520
 3111SOL     OW10231   6.374   5.990   4.181
 3111SOL    HW110232   6.446   5.953   4.240
 3111SOL    HW210233   6.285   5.977   4.225
 3112SOL     OW10234   5.095   2.455   6.209
 3112SOL    HW110235   5.187   2.434   6.177
 3112SOL    HW210236   5.088   2.439   6.307
 3113SOL     OW10237   1.830   6.314   3.955
 3113SOL    HW110238   1.773   6.373   4.012
 3113SOL    HW210239   1.800   6.219   3.964
 3114SOL     OW10240   4.097   2.220   6.815
 3114SOL    HW110241   4.022   2.185   6.758
 3114SOL    HW210242   4.125   2.309   6.782
 3115SOL     OW10243   4.649   3.494   6.931
 3115SOL    HW110244   4.724   3.513   6.867
 3115SOL    HW210245   4.566   3.475   6.879
 3116SOL     OW10246   6.982   3.608   0.004
 3116SOL    HW110247   6.957   3.703   0.024
 3116SOL    HW210248   6.977   3.554   0.088
 3117SOL     OW10249   4.663   3.843   5.360
 3117SOL    HW110250   4.658   3.886   5.269
 3117SOL    HW210251   4.691   3.748   5.351
 3118SOL     OW10252   0.211   4.629   0.342
 3118SOL    HW110253   0.204   4.581   0.429
 3118SOL    HW210254   0.303   4.668   0.333
 3119SOL     OW10255   2.109   3.297   5.571
 3119SOL    HW110256   2.148   3.234   5.503
 3119SOL    HW210257   2.031   3.345   5.531
 3120SOL     OW10258   3.038   6.903   4.106
 3120SOL    HW110259   3.016   6.881   4.201
 3120SOL    HW210260   3.115   6.967   4.103
 3121SOL     OW10261   0.239   1.574   2.633
 3121SOL    HW110262   0.256   1.672   2.641
 3121SOL    HW210263   0.280   1.527   2.712
 3122SOL     OW10264   2.879   6.188   5.758
 3122SOL    HW110265   2.791   6.190   5.710
 3122SOL    HW210266   2.949   6.229   5.700
 3123SOL     OW10267   3.177   0.572   4.140
 3123SOL    HW110268   3.171   0.550   4.043
 3123SOL    HW210269   3.187   0.488   4.193
 3124SOL     OW10270   4.195   6.618   4.810
 3124SOL    HW110271   4.119   6.647   4.751
 3124SOL    HW210272   4.262   6.568   4.755
 3125SOL     OW10273   6.395   1.924   5.315
 3125SOL    HW110274   6.407   1.844   5.374
 3125SOL    HW210275   6.473   1.933   5.253
 3126SOL     OW10276   4.942   4.993   6.250
 3126SOL    HW110277   4.899   5.004   6.160
 3126SOL    HW210278   4.925   4.900   6.283
 3127SOL     OW10279   0.724   2.301   3.084
 3127SOL    HW110280   0.796   2.320   3.150
 3127SOL    HW210281   0.635   2.324   3.124
 3128SOL     OW10282   2.060   6.932   6.740
 3128SOL    HW110283   2.015   7.007   6.788
 3128SOL    HW210284   2.153   6.959   6.717
 3129SOL     OW10285   1.107   4.235   6.431
 3129SOL    HW110286   1.186   4.220   6.491
 3129SOL    HW210287   1.131   4.301   6.360
 3130SOL     OW10288   1.979   4.482   2.080
 3130SOL    HW110289   1.941   4.459   2.170
 3130SOL    HW210290   1.906   4.515   2.021
 3131SOL     OW10291   0.539   2.584   1.903
 3131SOL    HW110292   0.620   2.642   1.909
 3131SOL    HW210293   0.545   2.511   1.972
 3132SOL     OW10294   4.837   4.787   5.923
 3132SOL    HW110295   4.921   4.801   5.975
 3132SOL    HW210296   4.849   4.713   5.858
 3133SOL     OW10297   3.228   2.172   2.970
 3133SOL    HW110298   3.287   2.108   2.922
 3133SOL    HW210299   3.189   2.237   2.904
 3134SOL     OW10300   4.626   5.055   1.489
 3134SOL    HW110301   4.624   4.990   1.564
 3134SOL    HW210302   4.669   5.013   1.409
 3135SOL     OW10303   5.179   1.012   5.175
 3135SOL    HW110304   5.210   0.939   5.114
 3135SOL    HW210305   5.152   1.092   5.120
 3136SOL     OW10306   5.409   0.396   6.609
 3136SOL    HW110307   5.429   0.379   6.705
 3136SOL    HW210308   5.329   0.457   6.602
 3137SOL     OW10309   6.158   0.708   3.434
 3137SOL    HW110310   6.232   0.684   3.371
 3137SOL    HW210311   6.089   0.635   3.433
 3138SOL     OW10312   6.505   2.155   3.801
 3138SOL    HW110313   6.420   2.207   3.795
 3138SOL    HW210314   6.582   2.218   3.807
 3139SOL     OW10315   4.732   6.838   0.590
 3139SOL    HW110316   4.635   6.832   0.568
 3139SOL    HW210317   4.785   6.852   0.507
 3140SOL     OW10318   5.926   6.942   6.664
 3140SOL    HW110319   5.996   6.906   6.602
 3140SOL    HW210320   5.882   6.867   6.713
 3141SOL     OW10321   0.665   6.428   6.130
 3141SOL    HW110322   0.660   6.333   6.100
 3141SOL    HW210323   0.720   6.480   6.065
 3142SOL     OW10324   4.544   6.339   1.566
 3142SOL    HW110325   4.508   6.432   1.568
 3142SOL    HW210326   4.644   6.342   1.562
 3143SOL     OW10327   0.469   2.364   6.788
 3143SOL    HW110328   0.457   2.445   6.845
 3143SOL    HW210329   0.506   2.289   6.843
 3144SOL     OW10330   2.886   3.961   0.787
 3144SOL    HW110331   2.927   3.870   0.795
 3144SOL    HW210332   2.942   4.019   0.728
 3145SOL     OW10333   1.486   4.880   2.796
 3145SOL    HW110334   1.507   4.920   2.707
 3145SOL    HW210335   1.482   4.781   2.787
 3146SOL     OW10336   1.258   6.988   3.065
 3146SOL    HW110337   1.348   6.988   3.022
 3146SOL    HW210338   1.245   0.043   3.116
 3147SOL     OW10339   3.961   5.213   7.003
 3147SOL    HW110340   4.028   5.197   0.045
 3147SOL    HW210341   3.894   5.139   7.002
 3148SOL     OW10342   5.214   5.672   4.543
 3148SOL    HW110343   5.197   5.664   4.641
 3148SOL    HW210344   5.310   5.693   4.528
 3149SOL     OW10345   3.129   0.611   5.452
 3149SOL    HW110346   3.198   0.566   5.509
 3149SOL    HW210347   3.169   0.638   5.364
 3150SOL     OW10348   6.328   5.676   3.980
 3150SOL    HW110349   6.389   5.631   4.045
 3150SOL    HW210350   6.361   5.769   3.962
 3151SOL     OW10351   3.732   0.659   6.533
 3151SOL    HW110352   3.768   0.628   6.445
 3151SOL    HW210353   3.687   0.584   6.579
 3152SOL     OW10354   1.480   4.989   1.585
 3152SOL    HW110355   1.579   4.974   1.588
 3152SOL    HW210356   1.433   4.906   1.615
 3153SOL     OW10357   6.687   4.472   1.541
 3153SOL    HW110358   6.773   4.486   1.590
 3153SOL    HW210359   6.706   4.426   1.454
 3154SOL     OW10360   6.008   1.584   0.245
 3154SOL    HW110361   6.012   1.566   0.147
 3154SOL    HW210362   6.085   1.642   0.271
 3155SOL     OW10363   6.669   5.354   1.174
 3155SOL    HW110364   6.636   5.276   1.122
 3155SOL    HW210365   6.668   5.332   1.272
 3156SOL     OW10366   3.468   2.983   3.739
 3156SOL    HW110367   3.549   2.969   3.682
 3156SOL    HW210368   3.396   2.920   3.710
 3157SOL     OW10369   1.832   3.112   4.710
 3157SOL    HW110370   1.924   3.109   4.750
 3157SOL    HW210371   1.792   3.020   4.714
 3158SOL     OW10372   4.283   0.350   1.779
 3158SOL    HW110373   4.377   0.324   1.801
 3158SOL    HW210374   4.274   0.450   1.784
 3159SOL     OW10375   5.538   0.994   0.063
 3159SOL    HW110376   5.584   1.003   0.151
 3159SOL    HW210377   5.599   0.947   7.029
 3160SOL     OW10378   6.613   5.872   5.617
 3160SOL    HW110379   6.694   5.872   5.677
 3160SOL    HW210380   6.530   5.867   5.673
 3161SOL     OW10381   1.249   1.158   2.984
 3161SOL    HW110382   1.173   1.222   2.971
 3161SOL    HW210383   1.247   1.121   3.077
 3162SOL     OW10384   0.982   5.959   0.877
 3162SOL    HW110385   0.918   5.909   0.819
 3162SOL    HW210386   0.960   5.943   0.973
 3163SOL     OW10387   3.705   2.474   0.104
 3163SOL    HW110388   3.768   2.489   0.028
 3163SOL    HW210389   3.632   2.543   0.101
 3164SOL     OW10390   4.333   4.547   1.500
 3164SOL    HW110391   4.261   4.616   1.507
 3164SOL    HW210392   4.328   4.484   1.578
 3165SOL     OW10393   1.300   6.049   1.866
 3165SOL    HW110394   1.391   6.092   1.860
 3165SOL    HW210395   1.303   5.961   1.820
 3166SOL     OW10396   5.053   1.897   6.472
 3166SOL    HW110397   4.953   1.894   6.471
 3166SOL    HW210398   5.085   1.957   6.399
 3167SOL     OW10399   0.147   4.424   1.537
 3167SOL    HW110400   0.233   4.472   1.554
 3167SOL    HW210401   0.137   4.349   1.601
 3168SOL     OW10402   5.338   3.133   0.400
 3168SOL    HW110403   5.286   3.217   0.415
 3168SOL    HW210404   5.327   3.072   0.479
 3169SOL     OW10405   1.052   3.191   5.809
 3169SOL    HW110406   1.058   3.281   5.766
 3169SOL    HW210407   1.020   3.124   5.743
 3170SOL     OW10408   4.269   0.813   0.800
 3170SOL    HW110409   4.194   0.861   0.754
 3170SOL    HW210410   4.232   0.732   0.847
 3171SOL     OW10411   6.868   6.754   1.183
 3171SOL    HW110412   6.941   6.691   1.155
 3171SOL    HW210413   6.811   6.776   1.104
 3172SOL     OW10414   0.615   5.743   5.620
 3172SOL    HW110415   0.556   5.813   5.660
 3172SOL    HW210416   0.705   5.783   5.599
 3173SOL     OW10417   2.779   1.823   1.236
 3173SOL    HW110418   2.801   1.858   1.327
 3173SOL    HW210419   2.840   1.865   1.169
 3174SOL     OW10420   2.390   2.766   6.998
 3174SOL    HW110421   2.290   2.774   6.996
 3174SOL    HW210422   2.417   2.699   0.037
 3175SOL     OW10423   6.908   6.489   0.669
 3175SOL    HW110424   6.884   6.490   0.572
 3175SOL    HW210425   6.918   6.583   0.701
 3176SOL     OW10426   2.104   5.146   4.879
 3176SOL    HW110427   2.162   5.214   4.923
 3176SOL    HW210428   2.152   5.107   4.800
 3177SOL     OW10429   4.804   5.493   5.653
 3177SOL    HW110430   4.799   5.505   5.752
 3177SOL    HW210431   4.769   5.575   5.608
 3178SOL     OW10432   6.594   3.047   1.477
 3178SOL    HW110433   6.585   3.115   1.549
 3178SOL    HW210434   6.634   2.963   1.515
 3179SOL     OW10435   1.920   2.918   1.772
 3179SOL    HW110436   1.950   3.014   1.768
 3179SOL    HW210437   1.842   2.905   1.710
 3180SOL     OW10438   4.579   0.428   6.696
 3180SOL    HW110439   4.568   0.370   6.777
 3180SOL    HW210440   4.521   0.509   6.705
 3181SOL     OW10441   0.678   0.190   2.973
 3181SOL    HW110442   0.664   0.268   2.913
 3181SOL    HW210443   0.698   0.109   2.918
 3182SOL     OW10444   1.423   1.079   5.970
 3182SOL    HW110445   1.369   0.995   5.966
 3182SOL    HW210446   1.375   1.152   5.922
 3183SOL     OW10447   4.889   3.872   1.456
 3183SOL    HW110448   4.950   3.898   1.531
 3183SOL    HW210449   4.830   3.797   1.487
 3184SOL     OW10450   2.690   1.906   2.783
 3184SOL    HW110451   2.711   1.877   2.689
 3184SOL    HW210452   2.614   1.970   2.782
 3185SOL     OW10453   6.102   0.394   6.356
 3185SOL    HW110454   6.028   0.333   6.327
 3185SOL    HW210455   6.096   0.409   6.455
 3186SOL     OW10456   3.134   0.777   2.748
 3186SOL    HW110457   3.229   0.808   2.739
 3186SOL    HW210458   3.122   0.728   2.834
 3187SOL     OW10459   4.717   4.265   0.103
 3187SOL    HW110460   4.707   4.192   0.171
 3187SOL    HW210461   4.670   4.348   0.136
 3188SOL     OW10462   3.523   5.851   3.060
 3188SOL    HW110463   3.486   5.812   3.145
 3188SOL    HW210464   3.575   5.933   3.082
 3189SOL     OW10465   2.204   1.061   2.891
 3189SOL    HW110466   2.168   1.035   2.801
 3189SOL    HW210467   2.194   0.984   2.954
 3190SOL     OW10468   1.049   6.602   1.489
 3190SOL    HW110469   1.112   6.675   1.464
 3190SOL    HW210470   1.099   6.516   1.499
 3191SOL     OW10471   3.664   6.794   0.965
 3191SOL    HW110472   3.651   6.835   0.875
 3191SOL    HW210473   3.613   6.709   0.971
 3192SOL     OW10474   0.681   2.240   1.207
 3192SOL    HW110475   0.678   2.309   1.134
 3192SOL    HW210476   0.754   2.174   1.188
 3193SOL     OW10477   4.362   1.999   6.338
 3193SOL    HW110478   4.361   1.954   6.428
 3193SOL    HW210479   4.272   2.036   6.318
 3194SOL     OW10480   0.906   2.912   6.444
 3194SOL    HW110481   0.835   2.878   6.382
 3194SOL    HW210482   0.994   2.872   6.420
 3195SOL     OW10483   1.601   2.132   2.638
 3195SOL    HW110484   1.505   2.154   2.651
 3195SOL    HW210485   1.642   2.199   2.575
 3196SOL     OW10486   6.463   0.301   4.909
 3196SOL    HW110487   6.479   0.330   5.003
 3196SOL    HW210488   6.493   0.206   4.898
 3197SOL     OW10489   1.582   5.725   3.795
 3197SOL    HW110490   1.585   5.686   3.703
 3197SOL    HW210491   1.521   5.670   3.852
 3198SOL     OW10492   6.418   2.212   0.013
 3198SOL    HW110493   6.350   2.227   0.085
 3198SOL    HW210494   6.402   2.124   7.000
 3199SOL     OW10495   4.572   2.467   2.029
 3199SOL    HW110496   4.516   2.488   1.949
 3199SOL    HW210497   4.665   2.442   2.000
 3200SOL     OW10498   0.024   1.824   1.601
 3200SOL    HW110499   0.087   1.748   1.615
 3200SOL    HW210500   6.987   1.799   1.532
 3201SOL     OW10501   5.325   4.208   4.245
 3201SOL    HW110502   5.245   4.155   4.218
 3201SOL    HW210503   5.297   4.285   4.301
 3202SOL     OW10504   1.525   4.567   1.656
 3202SOL    HW110505   1.447   4.584   1.716
 3202SOL    HW210506   1.522   4.472   1.623
 3203SOL     OW10507   5.949   1.065   1.219
 3203SOL    HW110508   5.954   0.986   1.280
 3203SOL    HW210509   6.035   1.075   1.169
 3204SOL     OW10510   5.459   6.230   1.413
 3204SOL    HW110511   5.467   6.148   1.357
 3204SOL    HW210512   5.550   6.264   1.435
 3205SOL     OW10513   0.072   4.277   6.620
 3205SOL    HW110514   0.012   4.273   6.700
 3205SOL    HW210515   0.151   4.335   6.640
 3206SOL     OW10516   6.838   0.036   6.087
 3206SOL    HW110517   6.854   0.027   6.185
 3206SOL    HW210518   6.756   7.015   6.062
 3207SOL     OW10519   0.631   1.295   6.711
 3207SOL    HW110520   0.713   1.352   6.710
 3207SOL    HW210521   0.636   1.228   6.637
 3208SOL     OW10522   4.453   6.008   5.534
 3208SOL    HW110523   4.551   6.011   5.516
 3208SOL    HW210524   4.407   6.078   5.479
 3209SOL     OW10525   2.821   6.165   3.551
 3209SOL    HW110526   2.812   6.066   3.550
 3209SOL    HW210527   2.878   6.193   3.628
 3210SOL     OW10528   0.891   3.223   1.911
 3210SOL    HW110529   0.864   3.149   1.972
 3210SOL    HW210530   0.875   3.196   1.817
 3211SOL     OW10531   2.230   4.550   0.486
 3211SOL    HW110532   2.326   4.556   0.513
 3211SOL    HW210533   2.223   4.557   0.387
 3212SOL     OW10534   4.120   1.340   6.722
 3212SOL    HW110535   4.182   1.262   6.725
 3212SOL    HW210536   4.030   1.313   6.755
 3213SOL     OW10537   5.537   4.595   2.547
 3213SOL    HW110538   5.482   4.621   2.626
 3213SOL    HW210539   5.610   4.533   2.577
 3214SOL     OW10540   4.566   6.362   0.304
 3214SOL    HW110541   4.570   6.421   0.384
 3214SOL    HW210542   4.530   6.272   0.330
 3215SOL     OW10543   6.570   3.564   0.935
 3215SOL    HW110544   6.489   3.616   0.906
 3215SOL    HW210545   6.652   3.606   0.897
 3216SOL     OW10546   5.760   5.371   2.335
 3216SOL    HW110547   5.768   5.280   2.374
 3216SOL    HW210548   5.821   5.434   2.382
 3217SOL     OW10549   1.157   4.429   3.194
 3217SOL    HW110550   1.179   4.475   3.108
 3217SOL    HW210551   1.098   4.488   3.249
 3218SOL     OW10552   4.357   6.045   3.356
 3218SOL    HW110553   4.435   6.089   3.311
 3218SOL    HW210554   4.353   6.072   3.452
 3219SOL     OW10555   0.222   0.458   3.566
 3219SOL    HW110556   0.317   0.452   3.535
 3219SOL    HW210557   0.199   0.375   3.618
 3220SOL     OW10558   6.524   5.095   5.834
 3220SOL    HW110559   6.526   5.058   5.926
 3220SOL    HW210560   6.519   5.020   5.768
 3221SOL     OW10561   3.055   6.032   2.232
 3221SOL    HW110562   2.972   5.986   2.201
 3221SOL    HW210563   3.105   5.971   2.294
 3222SOL     OW10564   4.692   1.699   3.353
 3222SOL    HW110565   4.592   1.704   3.344
 3222SOL    HW210566   4.730   1.791   3.361
 3223SOL     OW10567   1.935   5.351   6.889
 3223SOL    HW110568   1.923   5.362   6.791
 3223SOL    HW210569   2.004   5.280   6.907
 3224SOL     OW10570   4.549   5.061   6.206
 3224SOL    HW110571   4.458   5.099   6.225
 3224SOL    HW210572   4.618   5.113   6.256
 3225SOL     OW10573   4.299   2.160   5.958
 3225SOL    HW110574   4.206   2.129   5.937
 3225SOL    HW210575   4.303   2.259   5.957
 3226SOL     OW10576   2.232   1.661   4.362
 3226SOL    HW110577   2.196   1.567   4.362
 3226SOL    HW210578   2.156   1.725   4.351
 3227SOL     OW10579   3.395   2.236   6.609
 3227SOL    HW110580   3.321   2.266   6.548
 3227SOL    HW210581   3.480   2.282   6.583
 3228SOL     OW10582   5.412   3.223   4.228
 3228SOL    HW110583   5.470   3.170   4.166
 3228SOL    HW210584   5.346   3.162   4.272
 3229SOL     OW10585   3.188   1.604   5.577
 3229SOL    HW110586   3.170   1.701   5.593
 3229SOL    HW210587   3.230   1.592   5.487
 3230SOL     OW10588   0.473   2.323   3.595
 3230SOL    HW110589   0.423   2.247   3.555
 3230SOL    HW210590   0.571   2.301   3.596
 3231SOL     OW10591   4.354   5.606   1.956
 3231SOL    HW110592   4.262   5.601   1.917
 3231SOL    HW210593   4.405   5.523   1.932
 3232SOL     OW10594   4.437   5.177   4.418
 3232SOL    HW110595   4.445   5.154   4.515
 3232SOL    HW210596   4.358   5.238   4.404
 3233SOL     OW10597   0.897   4.010   0.793
 3233SOL    HW110598   0.839   3.929   0.787
 3233SOL    HW210599   0.932   4.019   0.886
 3234SOL     OW10600   6.750   2.324   0.615
 3234SOL    HW110601   6.672   2.282   0.570
 3234SOL    HW210602   6.723   2.413   0.652
 3235SOL     OW10603   5.797   5.852   2.095
 3235SOL    HW110604   5.877   5.879   2.148
 3235SOL    HW210605   5.786   5.753   2.098
 3236SOL     OW10606   1.900   3.583   1.400
 3236SOL    HW110607   1.818   3.626   1.438
 3236SOL    HW210608   1.888   3.484   1.396
 3237SOL     OW10609   4.860   0.325   3.921
 3237SOL    HW110610   4.929   0.281   3.863
 3237SOL    HW210611   4.873   0.424   3.919
 3238SOL     OW10612   0.327   5.534   6.723
 3238SOL    HW110613   0.263   5.457   6.731
 3238SOL    HW210614   0.335   5.560   6.627
 3239SOL     OW10615   6.012   1.305   0.333
 3239SOL    HW110616   6.055   1.388   0.296
 3239SOL    HW210617   5.917   1.302   0.304
 3240SOL     OW10618   0.200   6.874   5.059
 3240SOL    HW110619   0.209   6.782   5.021
 3240SOL    HW210620   0.204   6.942   4.986
 3241SOL     OW10621   5.056   1.425   4.135
 3241SOL    HW110622   4.966   1.438   4.177
 3241SOL    HW210623   5.059   1.474   4.047
 3242SOL     OW10624   3.491   4.861   0.990
 3242SOL    HW110625   3.459   4.872   0.896
 3242SOL    HW210626   3.451   4.778   1.029
 3243SOL     OW10627   5.910   5.099   0.185
 3243SOL    HW110628   5.884   5.122   0.279
 3243SOL    HW210629   5.867   5.013   0.159
 3244SOL     OW10630   4.922   5.482   6.240
 3244SOL    HW110631   4.869   5.500   6.158
 3244SOL    HW210632   4.861   5.478   6.320
 3245SOL     OW10633   4.348   2.486   6.250
 3245SOL    HW110634   4.412   2.561   6.269
 3245SOL    HW210635   4.400   2.405   6.222
 3246SOL     OW10636   5.990   0.551   2.919
 3246SOL    HW110637   5.932   0.620   2.961
 3246SOL    HW210638   5.934   0.472   2.892
 3247SOL     OW10639   0.171   4.557   2.645
 3247SOL    HW110640   0.193   4.461   2.664
 3247SOL    HW210641   0.071   4.568   2.645
 3248SOL     OW10642   5.832   3.476   2.208
 3248SOL    HW110643   5.825   3.545   2.136
 3248SOL    HW210644   5.741   3.450   2.239
 3249SOL     OW10645   3.871   4.739   5.812
 3249SOL    HW110646   3.840   4.812   5.752
 3249SOL    HW210647   3.871   4.652   5.762
 3250SOL     OW10648   5.455   7.019   3.290
 3250SOL    HW110649   5.550   6.991   3.303
 3250SOL    HW210650   5.398   6.973   3.359
 3251SOL     OW10651   3.688   1.447   2.705
 3251SOL    HW110652   3.654   1.359   2.671
 3251SOL    HW210653   3.644   1.467   2.793
 3252SOL     OW10654   3.547   0.956   2.096
 3252SOL    HW110655   3.566   0.983   2.002
 3252SOL    HW210656   3.532   0.857   2.099
 3253SOL     OW10657   5.195   2.493   2.482
 3253SOL    HW110658   5.122   2.528   2.541
 3253SOL    HW210659   5.182   2.530   2.390
 3254SOL     OW10660   3.758   5.232   4.160
 3254SOL    HW110661   3.663   5.230   4.127
 3254SOL    HW210662   3.774   5.317   4.210
 3255SOL     OW10663   4.313   5.174   0.966
 3255SOL    HW110664   4.320   5.242   0.893
 3255SOL    HW210665   4.386   5.107   0.956
 3256SOL     OW10666   5.678   0.221   6.393
 3256SOL    HW110667   5.632   0.236   6.305
 3256SOL    HW210668   5.616   0.175   6.456
 3257SOL     OW10669   1.374   2.340   1.029
 3257SOL    HW110670   1.453   2.293   1.069
 3257SOL    HW210671   1.290   2.302   1.067
 3258SOL     OW10672   4.576   6.409   2.052
 3258SOL    HW110673   4.603   6.491   2.002
 3258SOL    HW210674   4.528   6.346   1.990
 3259SOL     OW10675   4.281   5.946   4.345
 3259SOL    HW110676   4.189   5.965   4.380
 3259SOL    HW210677   4.293   5.847   4.335
 3260SOL     OW10678   1.944   2.198   1.034
 3260SOL    HW110679   1.894   2.284   1.048
 3260SOL    HW210680   1.993   2.202   0.946
 3261SOL     OW10681   4.038   6.254   0.693
 3261SOL    HW110682   4.111   6.273   0.627
 3261SOL    HW210683   3.961   6.211   0.646
 3262SOL     OW10684   3.678   1.641   3.116
 3262SOL    HW110685   3.656   1.677   3.207
 3262SOL    HW210686   3.766   1.678   3.086
 3263SOL     OW10687   5.076   0.065   3.214
 3263SOL    HW110688   5.086   0.131   3.139
 3263SOL    HW210689   5.136   7.017   3.198
 3264SOL     OW10690   0.688   5.368   6.775
 3264SOL    HW110691   0.700   5.310   6.856
 3264SOL    HW210692   0.740   5.453   6.787
 3265SOL     OW10693   4.111   2.105   6.244
 3265SOL    HW110694   4.026   2.052   6.248
 3265SOL    HW210695   4.089   2.202   6.233
 3266SOL     OW10696   0.081   2.501   0.454
 3266SOL    HW110697   0.016   2.449   0.399
 3266SOL    HW210698   0.065   2.481   0.551
 3267SOL     OW10699   3.344   2.532   1.295
 3267SOL    HW110700   3.258   2.554   1.248
 3267SOL    HW210701   3.395   2.616   1.312
 3268SOL     OW10702   1.368   3.714   6.811
 3268SOL    HW110703   1.444   3.699   6.749
 3268SOL    HW210704   1.311   3.789   6.777
 3269SOL     OW10705   4.226   4.625   1.870
 3269SOL    HW110706   4.248   4.720   1.849
 3269SOL    HW210707   4.248   4.606   1.966
 3270SOL     OW10708   0.585   5.515   4.409
 3270SOL    HW110709   0.666   5.556   4.450
 3270SOL    HW210710   0.550   5.574   4.337
 3271SOL     OW10711   5.602   1.913   2.946
 3271SOL    HW110712   5.530   1.930   3.014
 3271SOL    HW210713   5.567   1.851   2.875
 3272SOL     OW10714   3.673   5.797   0.723
 3272SOL    HW110715   3.646   5.809   0.818
 3272SOL    HW210716   3.599   5.752   0.673
 3273SOL     OW10717   0.791   6.620   1.611
 3273SOL    HW110718   0.715   6.562   1.580
 3273SOL    HW210719   0.875   6.567   1.615
 3274SOL     OW10720   3.875   2.201   7.005
 3274SOL    HW110721   3.792   2.254   6.988
 3274SOL    HW210722   3.942   2.221   6.933
 3275SOL     OW10723   1.533   0.224   0.106
 3275SOL    HW110724   1.605   0.236   0.175
 3275SOL    HW210725   1.560   0.272   0.022
 3276SOL     OW10726   3.181   4.734   6.695
 3276SOL    HW110727   3.213   4.652   6.647
 3276SOL    HW210728   3.241   4.811   6.673
 3277SOL     OW10729   6.166   0.101   6.502
 3277SOL    HW110730   6.074   0.140   6.501
 3277SOL    HW210731   6.219   0.139   6.426
 3278SOL     OW10732   6.894   1.215   5.278
 3278SOL    HW110733   6.955   1.274   5.332
 3278SOL    HW210734   6.869   1.134   5.331
 3279SOL     OW10735   0.138   0.564   0.686
 3279SOL    HW110736   0.053   0.571   0.633
 3279SOL    HW210737   0.179   0.474   0.671
 3280SOL     OW10738   2.435   5.400   6.654
 3280SOL    HW110739   2.506   5.409   6.584
 3280SOL    HW210740   2.478   5.398   6.744
 3281SOL     OW10741   2.070   6.089   1.192
 3281SOL    HW110742   2.154   6.059   1.236
 3281SOL    HW210743   2.043   6.178   1.227
 3282SOL     OW10744   2.938   6.352   4.305
 3282SOL    HW110745   3.036   6.372   4.303
 3282SOL    HW210746   2.889   6.426   4.259
 3283SOL     OW10747   3.277   1.493   2.678
 3283SOL    HW110748   3.282   1.435   2.759
 3283SOL    HW210749   3.355   1.555   2.676
 3284SOL     OW10750   6.750   6.732   0.154
 3284SOL    HW110751   6.833   6.713   0.101
 3284SOL    HW210752   6.677   6.758   0.092
 3285SOL     OW10753   6.929   2.533   3.085
 3285SOL    HW110754   6.898   2.438   3.087
 3285SOL    HW210755   7.007   2.541   3.024
 3286SOL     OW10756   4.093   3.335   3.694
 3286SOL    HW110757   4.027   3.338   3.769
 3286SOL    HW210758   4.143   3.422   3.690
 3287SOL     OW10759   0.811   5.732   0.071
 3287SOL    HW110760   0.716   5.751   0.045
 3287SOL    HW210761   0.812   5.661   0.141
 3288SOL     OW10762   0.295   6.153   6.903
 3288SOL    HW110763   0.293   6.253   6.911
 3288SOL    HW210764   0.295   6.127   6.807
 3289SOL     OW10765   1.157   6.784   5.368
 3289SOL    HW110766   1.089   6.725   5.411
 3289SOL    HW210767   1.197   6.845   5.436
 3290SOL     OW10768   0.695   6.327   1.890
 3290SOL    HW110769   0.608   6.375   1.900
 3290SOL    HW210770   0.694   6.273   1.806
 3291SOL     OW10771   1.439   6.428   6.686
 3291SOL    HW110772   1.446   6.475   6.599
 3291SOL    HW210773   1.520   6.446   6.741
 3292SOL     OW10774   0.520   1.231   6.941
 3292SOL    HW110775   0.569   1.255   6.858
 3292SOL    HW210776   0.431   1.278   6.942
 3293SOL     OW10777   6.990   1.860   3.117
 3293SOL    HW110778   6.976   1.823   3.026
 3293SOL    HW210779   0.055   1.848   3.143
 3294SOL     OW10780   6.683   0.363   6.519
 3294SOL    HW110781   6.630   0.308   6.454
 3294SOL    HW210782   6.777   0.372   6.487
 3295SOL     OW10783   2.511   2.018   1.058
 3295SOL    HW110784   2.506   1.956   0.979
 3295SOL    HW210785   2.517   1.964   1.142
 3296SOL     OW10786   2.657   6.683   1.334
 3296SOL    HW110787   2.664   6.729   1.423
 3296SOL    HW210788   2.624   6.590   1.347
 3297SOL     OW10789   2.925   1.987   5.139
 3297SOL    HW110790   2.851   2.048   5.110
 3297SOL    HW210791   2.953   1.930   5.062
 3298SOL     OW10792   6.375   3.056   2.627
 3298SOL    HW110793   6.329   3.063   2.538
 3298SOL    HW210794   6.459   3.109   2.625
 3299SOL     OW10795   1.997   0.340   3.563
 3299SOL    HW110796   1.989   0.440   3.568
 3299SOL    HW210797   2.087   0.315   3.527
 3300SOL     OW10798   0.001   0.531   6.097
 3300SOL    HW110799   6.969   0.457   6.071
 3300SOL    HW210800   0.027   0.583   6.015
 3301SOL     OW10801   1.441   3.835   3.941
 3301SOL    HW110802   1.506   3.774   3.986
 3301SOL    HW210803   1.473   3.930   3.948
 3302SOL     OW10804   1.141   4.984   4.642
 3302SOL    HW110805   1.101   4.892   4.653
 3302SOL    HW210806   1.220   4.993   4.703
 3303SOL     OW10807   3.496   3.054   2.465
 3303SOL    HW110808   3.593   3.029   2.461
 3303SOL    HW210809   3.475   3.120   2.393
 3304SOL     OW10810   0.846   5.181   3.614
 3304SOL    HW110811   0.854   5.269   3.661
 3304SOL    HW210812   0.752   5.168   3.582
 3305SOL     OW10813   2.166   1.698   2.372
 3305SOL    HW110814   2.157   1.612   2.422
 3305SOL    HW210815   2.195   1.679   2.279
 3306SOL     OW10816   2.174   3.973   2.858
 3306SOL    HW110817   2.188   3.901   2.790
 3306SOL    HW210818   2.123   3.935   2.936
 3307SOL     OW10819   0.225   5.797   0.137
 3307SOL    HW110820   0.297   5.736   0.169
 3307SOL    HW210821   0.254   5.842   0.052
 3308SOL     OW10822   4.488   5.464   0.287
 3308SOL    HW110823   4.392   5.477   0.312
 3308SOL    HW210824   4.512   5.526   0.212
 3309SOL     OW10825   0.716   5.204   2.538
 3309SOL    HW110826   0.795   5.195   2.478
 3309SOL    HW210827   0.656   5.125   2.525
 3310SOL     OW10828   0.401   3.488   2.819
 3310SOL    HW110829   0.389   3.550   2.742
 3310SOL    HW210830   0.498   3.464   2.828
 3311SOL     OW10831   2.399   5.430   0.659
 3311SOL    HW110832   2.472   5.464   0.719
 3311SOL    HW210833   2.417   5.460   0.565
 3312SOL     OW10834   3.056   4.216   6.190
 3312SOL    HW110835   3.070   4.281   6.115
 3312SOL    HW210836   3.104   4.131   6.169
 3313SOL     OW10837   1.167   5.321   3.368
 3313SOL    HW110838   1.121   5.257   3.306
 3313SOL    HW210839   1.099   5.382   3.409
 3314SOL     OW10840   1.853   2.849   4.697
 3314SOL    HW110841   1.948   2.824   4.682
 3314SOL    HW210842   1.794   2.788   4.643
 3315SOL     OW10843   0.020   2.855   4.246
 3315SOL    HW110844   7.015   2.902   4.166
 3315SOL    HW210845   6.988   2.781   4.271
 3316SOL     OW10846   3.976   1.706   5.976
 3316SOL    HW110847   4.041   1.735   6.046
 3316SOL    HW210848   4.020   1.706   5.886
 3317SOL     OW10849   4.434   2.643   1.657
 3317SOL    HW110850   4.468   2.717   1.715
 3317SOL    HW210851   4.508   2.579   1.638
 3318SOL     OW10852   2.832   6.569   6.654
 3318SOL    HW110853   2.926   6.551   6.683
 3318SOL    HW210854   2.829   6.575   6.554
 3319SOL     OW10855   6.891   6.733   3.499
 3319SOL    HW110856   6.794   6.747   3.520
 3319SOL    HW210857   6.947   6.758   3.578
 3320SOL     OW10858   5.705   1.285   5.225
 3320SOL    HW110859   5.777   1.341   5.184
 3320SOL    HW210860   5.728   1.263   5.319
 3321SOL     OW10861   3.326   2.839   2.520
 3321SOL    HW110862   3.383   2.765   2.485
 3321SOL    HW210863   3.383   2.920   2.535
 3322SOL     OW10864   5.102   2.153   1.499
 3322SOL    HW110865   5.101   2.076   1.562
 3322SOL    HW210866   5.071   2.235   1.548
 3323SOL     OW10867   2.094   4.116   0.015
 3323SOL    HW110868   2.178   4.090   0.062
 3323SOL    HW210869   2.058   4.037   6.996
 3324SOL     OW10870   1.221   4.218   0.322
 3324SOL    HW110871   1.318   4.239   0.321
 3324SOL    HW210872   1.207   4.122   0.344
 3325SOL     OW10873   2.548   3.015   0.250
 3325SOL    HW110874   2.458   3.025   0.293
 3325SOL    HW210875   2.568   2.918   0.236
 3326SOL     OW10876   5.691   1.801   1.439
 3326SOL    HW110877   5.647   1.794   1.349
 3326SOL    HW210878   5.627   1.768   1.509
 3327SOL     OW10879   2.350   6.399   1.515
 3327SOL    HW110880   2.439   6.392   1.469
 3327SOL    HW210881   2.323   6.495   1.519
 3328SOL     OW10882   4.410   1.645   1.891
 3328SOL    HW110883   4.372   1.736   1.906
 3328SOL    HW210884   4.425   1.630   1.794
 3329SOL     OW10885   3.992   0.341   5.044
 3329SOL    HW110886   3.965   0.374   5.135
 3329SOL    HW210887   4.069   0.395   5.011
 3330SOL     OW10888   5.968   6.427   2.193
 3330SOL    HW110889   6.056   6.433   2.147
 3330SOL    HW210890   5.924   6.517   2.194
 3331SOL     OW10891   1.364   3.510   3.249
 3331SOL    HW110892   1.435   3.553   3.195
 3331SOL    HW210893   1.403   3.433   3.300
 3332SOL     OW10894   5.462   4.389   0.418
 3332SOL    HW110895   5.539   4.390   0.354
 3332SOL    HW210896   5.412   4.303   0.409
 3333SOL     OW10897   3.509   3.947   0.671
 3333SOL    HW110898   3.475   3.863   0.712
 3333SOL    HW210899   3.595   3.973   0.716
 3334SOL     OW10900   1.584   2.647   2.143
 3334SOL    HW110901   1.634   2.586   2.082
 3334SOL    HW210902   1.539   2.594   2.215
 3335SOL     OW10903   3.469   4.810   5.749
 3335SOL    HW110904   3.556   4.770   5.777
 3335SOL    HW210905   3.412   4.826   5.830
 3336SOL     OW10906   2.386   0.040   3.944
 3336SOL    HW110907   2.387   6.971   3.929
 3336SOL    HW210908   2.474   0.069   3.981
 3337SOL     OW10909   3.968   2.986   2.503
 3337SOL    HW110910   4.034   2.942   2.444
 3337SOL    HW210911   3.998   3.080   2.523
 3338SOL     OW10912   0.969   2.248   1.781
 3338SOL    HW110913   1.025   2.274   1.859
 3338SOL    HW210914   0.875   2.232   1.811
 3339SOL     OW10915   1.747   6.977   5.656
 3339SOL    HW110916   1.758   0.001   5.572
 3339SOL    HW210917   1.694   6.894   5.635
 3340SOL     OW10918   4.925   0.787   4.204
 3340SOL    HW110919   5.024   0.798   4.212
 3340SOL    HW210920   4.904   0.691   4.187
 3341SOL     OW10921   2.426   4.441   3.117
 3341SOL    HW110922   2.393   4.347   3.104
 3341SOL    HW210923   2.374   4.503   3.057
 3342SOL     OW10924   6.483   0.334   2.998
 3342SOL    HW110925   6.429   0.418   3.001
 3342SOL    HW210926   6.506   0.313   2.903
 3343SOL     OW10927   5.029   5.760   6.356
 3343SOL    HW110928   5.027   5.690   6.285
 3343SOL    HW210929   5.124   5.787   6.374
 3344SOL     OW10930   6.322   2.831   2.778
 3344SOL    HW110931   6.338   2.924   2.744
 3344SOL    HW210932   6.354   2.823   2.872
 3345SOL     OW10933   0.703   3.659   6.814
 3345SOL    HW110934   0.633   3.730   6.808
 3345SOL    HW210935   0.743   3.659   6.906
 3346SOL     OW10936   2.106   0.892   0.182
 3346SOL    HW110937   2.206   0.891   0.195
 3346SOL    HW210938   2.082   0.962   0.115
 3347SOL     OW10939   1.297   2.821   6.054
 3347SOL    HW110940   1.377   2.819   6.114
 3347SOL    HW210941   1.271   2.916   6.038
 3348SOL     OW10942   3.845   4.256   6.530
 3348SOL    HW110943   3.924   4.199   6.553
 3348SOL    HW210944   3.802   4.223   6.446
 3349SOL     OW10945   2.252   4.187   3.667
 3349SOL    HW110946   2.240   4.193   3.766
 3349SOL    HW210947   2.228   4.274   3.624
 3350SOL     OW10948   0.971   4.186   5.688
 3350SOL    HW110949   1.053   4.231   5.654
 3350SOL    HW210950   0.946   4.111   5.626
 3351SOL     OW10951   5.696   0.800   1.289
 3351SOL    HW110952   5.667   0.763   1.378
 3351SOL    HW210953   5.648   0.886   1.271
 3352SOL     OW10954   5.706   2.883   1.001
 3352SOL    HW110955   5.681   2.969   0.956
 3352SOL    HW210956   5.740   2.818   0.933
 3353SOL     OW10957   1.820   7.020   0.910
 3353SOL    HW110958   1.890   7.017   0.839
 3353SOL    HW210959   1.838   0.068   0.970
 3354SOL     OW10960   4.113   3.117   5.471
 3354SOL    HW110961   4.052   3.138   5.395
 3354SOL    HW210962   4.156   3.202   5.503
 3355SOL     OW10963   2.168   1.519   5.680
 3355SOL    HW110964   2.203   1.451   5.744
 3355SOL    HW210965   2.071   1.535   5.699
 3356SOL     OW10966   1.013   6.901   6.185
 3356SOL    HW110967   0.956   6.976   6.219
 3356SOL    HW210968   1.083   6.938   6.125
 3357SOL     OW10969   3.031   3.828   1.648
 3357SOL    HW110970   2.976   3.765   1.702
 3357SOL    HW210971   3.126   3.795   1.645
 3358SOL     OW10972   5.859   1.218   3.569
 3358SOL    HW110973   5.833   1.123   3.550
 3358SOL    HW210974   5.800   1.279   3.517
 3359SOL     OW10975   0.713   5.048   4.203
 3359SOL    HW110976   0.702   5.140   4.241
 3359SOL    HW210977   0.713   5.054   4.103
 3360SOL     OW10978   0.932   2.102   6.753
 3360SOL    HW110979   1.029   2.126   6.752
 3360SOL    HW210980   0.897   2.099   6.660
 3361SOL     OW10981   1.004   0.367   4.173
 3361SOL    HW110982   1.072   0.296   4.159
 3361SOL    HW210983   0.996   0.387   4.271
 3362SOL     OW10984   3.874   1.788   3.789
 3362SOL    HW110985   3.890   1.858   3.858
 3362SOL    HW210986   3.929   1.707   3.810
 3363SOL     OW10987   6.723   2.881   1.755
 3363SOL    HW110988   6.702   2.836   1.669
 3363SOL    HW210989   6.734   2.811   1.827
 3364SOL     OW10990   1.077   4.273   2.090
 3364SOL    HW110991   1.155   4.239   2.141
 3364SOL    HW210992   0.998   4.213   2.103
 3365SOL     OW10993   1.899   2.904   4.307
 3365SOL    HW110994   1.896   2.805   4.293
 3365SOL    HW210995   1.993   2.932   4.322
 3366SOL     OW10996   6.749   4.100   4.213
 3366SOL    HW110997   6.771   4.195   4.192
 3366SOL    HW210998   6.716   4.054   4.131
 3367SOL     OW10999   3.154   3.677   4.069
 3367SOL    HW111000   3.059   3.698   4.090
 3367SOL    HW211001   3.208   3.761   4.067
 3368SOL     OW11002   1.309   6.443   6.913
 3368SOL    HW111003   1.353   6.455   6.823
 3368SOL    HW211004   1.343   6.513   6.976
 3369SOL     OW11005   4.670   1.838   1.802
 3369SOL    HW111006   4.609   1.788   1.741
 3369SOL    HW211007   4.631   1.839   1.895
 3370SOL     OW11008   6.216   6.604   1.889
 3370SOL    HW111009   6.300   6.602   1.835
 3370SOL    HW211010   6.140   6.630   1.829
 3371SOL     OW11011   2.037   3.475   2.177
 3371SOL    HW111012   2.100   3.471   2.255
 3371SOL    HW211013   2.090   3.484   2.093
 3372SOL     OW11014   6.687   2.367   0.973
 3372SOL    HW111015   6.758   2.334   1.035
 3372SOL    HW211016   6.710   2.459   0.942
 3373SOL     OW11017   0.880   1.537   2.150
 3373SOL    HW111018   0.807   1.564   2.212
 3373SOL    HW211019   0.916   1.618   2.103
 3374SOL     OW11020   0.747   0.442   3.871
 3374SOL    HW111021   0.742   0.348   3.904
 3374SOL    HW211022   0.828   0.453   3.813
 3375SOL     OW11023   6.925   4.669   0.307
 3375SOL    HW111024   6.947   4.619   0.391
 3375SOL    HW211025   6.837   4.715   0.317
 3376SOL     OW11026   2.883   3.611   5.290
 3376SOL    HW111027   2.830   3.539   5.335
 3376SOL    HW211028   2.977   3.607   5.324
 3377SOL     OW11029   6.442   5.544   4.230
 3377SOL    HW111030   6.534   5.523   4.198
 3377SOL    HW211031   6.444   5.628   4.285
 3378SOL     OW11032   0.724   6.683   6.680
 3378SOL    HW111033   0.793   6.660   6.748
 3378SOL    HW211034   0.638   6.638   6.703
 3379SOL     OW11035   0.913   2.996   4.900
 3379SOL    HW111036   0.904   3.005   4.999
 3379SOL    HW211037   0.880   2.905   4.872
 3380SOL     OW11038   3.830   4.929   5.627
 3380SOL    HW111039   3.773   5.004   5.593
 3380SOL    HW211040   3.922   4.964   5.645
 3381SOL     OW11041   0.345   2.615   1.729
 3381SOL    HW111042   0.389   2.598   1.641
 3381SOL    HW211043   0.412   2.605   1.802
 3382SOL     OW11044   6.879   3.097   1.000
 3382SOL    HW111045   6.781   3.077   0.994
 3382SOL    HW211046   6.920   3.091   0.909
 3383SOL     OW11047   3.524   4.861   0.431
 3383SOL    HW111048   3.572   4.947   0.416
 3383SOL    HW211049   3.513   4.845   0.529
 3384SOL     OW11050   2.710   4.693   0.942
 3384SOL    HW111051   2.644   4.671   1.014
 3384SOL    HW211052   2.670   4.673   0.853
 3385SOL     OW11053   6.926   2.787   3.577
 3385SOL    HW111054   7.015   2.813   3.614
 3385SOL    HW211055   6.900   2.850   3.504
 3386SOL     OW11056   6.657   4.752   0.289
 3386SOL    HW111057   6.575   4.737   0.234
 3386SOL    HW211058   6.643   4.714   0.381
 3387SOL     OW11059   5.110   0.751   3.287
 3387SOL    HW111060   5.061   0.836   3.306
 3387SOL    HW211061   5.153   0.718   3.371
 3388SOL     OW11062   5.102   4.574   1.284
 3388SOL    HW111063   5.194   4.589   1.319
 3388SOL    HW211064   5.038   4.567   1.360
 3389SOL     OW11065   6.103   6.021   0.135
 3389SOL    HW111066   6.163   6.099   0.120
 3389SOL    HW211067   6.008   6.049   0.127
 3390SOL     OW11068   4.094   6.439   6.106
 3390SOL    HW111069   4.021   6.506   6.118
 3390SOL    HW211070   4.056   6.347   6.109
 3391SOL     OW11071   5.592   2.362   3.570
 3391SOL    HW111072   5.532   2.283   3.555
 3391SOL    HW211073   5.538   2.447   3.560
 3392SOL     OW11074   3.550   6.974   4.758
 3392SOL    HW111075   3.485   6.900   4.740
 3392SOL    HW211076   3.519   0.026   4.711
 3393SOL     OW11077   5.481   6.793   0.392
 3393SOL    HW111078   5.566   6.771   0.345
 3393SOL    HW211079   5.418   6.716   0.384
 3394SOL     OW11080   3.448   5.344   1.406
 3394SOL    HW111081   3.499   5.259   1.416
 3394SOL    HW211082   3.401   5.345   1.318
 3395SOL     OW11083   4.157   1.249   3.395
 3395SOL    HW111084   4.159   1.159   3.352
 3395SOL    HW211085   4.085   1.304   3.354
 3396SOL     OW11086   5.274   0.588   3.991
 3396SOL    HW111087   5.345   0.640   4.040
 3396SOL    HW211088   5.273   0.494   4.024
 3397SOL     OW11089   2.058   6.121   6.166
 3397SOL    HW111090   2.152   6.115   6.198
 3397SOL    HW211091   2.057   6.129   6.067
 3398SOL     OW11092   0.712   1.535   5.454
 3398SOL    HW111093   0.641   1.464   5.459
 3398SOL    HW211094   0.763   1.526   5.368
 3399SOL     OW11095   6.925   4.994   3.066
 3399SOL    HW111096   6.838   5.007   3.019
 3399SOL    HW211097   6.976   4.919   3.024
 3400SOL     OW11098   5.883   3.367   6.121
 3400SOL    HW111099   5.819   3.316   6.179
 3400SOL    HW211100   5.977   3.341   6.145
 3401SOL     OW11101   6.754   3.914   6.136
 3401SOL    HW111102   6.751   3.851   6.058
 3401SOL    HW211103   6.673   3.972   6.135
 3402SOL     OW11104   6.680   5.583   0.865
 3402SOL    HW111105   6.639   5.494   0.841
 3402SOL    HW211106   6.779   5.575   0.864
 3403SOL     OW11107   4.594   5.930   6.187
 3403SOL    HW111108   4.639   5.983   6.115
 3403SOL    HW211109   4.535   5.990   6.242
 3404SOL     OW11110   5.188   3.051   6.381
 3404SOL    HW111111   5.145   2.996   6.454
 3404SOL    HW211112   5.118   3.106   6.335
 3405SOL     OW11113   5.574   5.438   6.115
 3405SOL    HW111114   5.663   5.481   6.101
 3405SOL    HW211115   5.541   5.399   6.029
 3406SOL     OW11116   2.050   3.398   2.506
 3406SOL    HW111117   2.068   3.315   2.559
 3406SOL    HW211118   2.094   3.476   2.549
 3407SOL     OW11119   2.725   4.267   0.976
 3407SOL    HW111120   2.713   4.217   0.890
 3407SOL    HW211121   2.820   4.296   0.985
 3408SOL     OW11122   4.434   2.454   3.950
 3408SOL    HW111123   4.377   2.400   4.013
 3408SOL    HW211124   4.524   2.468   3.991
 3409SOL     OW11125   3.929   6.558   0.501
 3409SOL    HW111126   4.021   6.592   0.520
 3409SOL    HW211127   3.876   6.557   0.585
 3410SOL     OW11128   5.598   6.768   3.083
 3410SOL    HW111129   5.588   6.753   2.984
 3410SOL    HW211130   5.684   6.816   3.101
 3411SOL     OW11131   0.352   2.877   0.712
 3411SOL    HW111132   0.269   2.926   0.684
 3411SOL    HW211133   0.424   2.891   0.645
 3412SOL     OW11134   5.254   3.648   1.683
 3412SOL    HW111135   5.265   3.657   1.782
 3412SOL    HW211136   5.157   3.658   1.659
 3413SOL     OW11137   6.277   1.665   6.716
 3413SOL    HW111138   6.216   1.675   6.637
 3413SOL    HW211139   6.224   1.670   6.800
 3414SOL     OW11140   3.555   2.479   6.236
 3414SOL    HW111141   3.628   2.503   6.173
 3414SOL    HW211142   3.538   2.555   6.298
 3415SOL     OW11143   1.809   2.253   4.427
 3415SOL    HW111144   1.779   2.159   4.444
 3415SOL    HW211145   1.909   2.257   4.434
 3416SOL     OW11146   6.100   0.061   0.296
 3416SOL    HW111147   6.062   0.153   0.312
 3416SOL    HW211148   6.105   0.012   0.382
 3417SOL     OW11149   0.156   7.017   2.331
 3417SOL    HW111150   0.070   7.000   2.283
 3417SOL    HW211151   0.166   6.951   2.406
 3418SOL     OW11152   3.972   5.649   3.206
 3418SOL    HW111153   3.910   5.700   3.265
 3418SOL    HW211154   3.919   5.593   3.142
 3419SOL     OW11155   3.825   5.522   5.684
 3419SOL    HW111156   3.784   5.526   5.775
 3419SOL    HW211157   3.803   5.607   5.634
 3420SOL     OW11158   4.852   2.961   3.641
 3420SOL    HW111159   4.792   2.887   3.670
 3420SOL    HW211160   4.875   3.019   3.720
 3421SOL     OW11161   5.442   1.792   3.328
 3421SOL    HW111162   5.495   1.876   3.314
 3421SOL    HW211163   5.431   1.744   3.241
 3422SOL     OW11164   2.285   0.258   6.842
 3422SOL    HW111165   2.379   0.231   6.821
 3422SOL    HW211166   2.239   0.184   6.891
 3423SOL     OW11167   0.769   4.311   5.795
 3423SOL    HW111168   0.850   4.262   5.764
 3423SOL    HW211169   0.740   4.377   5.725
 3424SOL     OW11170   3.738   0.002   1.744
 3424SOL    HW111171   3.831   0.016   1.710
 3424SOL    HW211172   3.694   6.960   1.691
 3425SOL     OW11173   4.792   4.820   1.572
 3425SOL    HW111174   4.705   4.775   1.594
 3425SOL    HW211175   4.846   4.761   1.513
 3426SOL     OW11176   4.943   3.709   0.821
 3426SOL    HW111177   4.920   3.805   0.802
 3426SOL    HW211178   5.033   3.704   0.862
 3427SOL     OW11179   1.285   2.173   1.855
 3427SOL    HW111180   1.252   2.240   1.788
 3427SOL    HW211181   1.281   2.081   1.816
 3428SOL     OW11182   5.068   4.752   6.031
 3428SOL    HW111183   5.115   4.840   6.033
 3428SOL    HW211184   5.120   4.687   5.975
 3429SOL     OW11185   0.626   1.014   1.203
 3429SOL    HW111186   0.704   1.046   1.258
 3429SOL    HW211187   0.659   0.952   1.132
 3430SOL     OW11188   2.236   4.457   5.732
 3430SOL    HW111189   2.268   4.367   5.702
 3430SOL    HW211190   2.304   4.497   5.794
 3431SOL     OW11191   2.134   6.643   2.231
 3431SOL    HW111192   2.094   6.734   2.232
 3431SOL    HW211193   2.061   6.575   2.241
 3432SOL     OW11194   2.342   4.489   6.748
 3432SOL    HW111195   2.389   4.545   6.817
 3432SOL    HW211196   2.249   4.469   6.780
 3433SOL     OW11197   2.116   0.952   6.264
 3433SOL    HW111198   2.134   1.041   6.223
 3433SOL    HW211199   2.046   0.962   6.335
 3434SOL     OW11200   2.828   2.177   1.803
 3434SOL    HW111201   2.773   2.234   1.743
 3434SOL    HW211202   2.903   2.231   1.841
 3435SOL     OW11203   2.380   0.730   0.397
 3435SOL    HW111204   2.454   0.700   0.337
 3435SOL    HW211205   2.378   0.830   0.400
 3436SOL     OW11206   4.084   5.260   6.747
 3436SOL    HW111207   4.133   5.346   6.762
 3436SOL    HW211208   4.037   5.234   6.831
 3437SOL     OW11209   1.698   6.606   5.728
 3437SOL    HW111210   1.709   6.593   5.826
 3437SOL    HW211211   1.604   6.632   5.707
 3438SOL     OW11212   0.527   3.555   1.635
 3438SOL    HW111213   0.487   3.465   1.652
 3438SOL    HW211214   0.564   3.592   1.720
 3439SOL     OW11215   2.620   6.199   3.168
 3439SOL    HW111216   2.625   6.232   3.262
 3439SOL    HW211217   2.664   6.266   3.107
 3440SOL     OW11218   3.822   3.091   4.763
 3440SOL    HW111219   3.897   3.128   4.817
 3440SOL    HW211220   3.793   3.004   4.801
 3441SOL     OW11221   0.020   6.284   6.452
 3441SOL    HW111222   0.027   6.337   6.368
 3441SOL    HW211223   0.004   6.345   6.530
 3442SOL     OW11224   3.293   3.888   1.169
 3442SOL    HW111225   3.211   3.905   1.115
 3442SOL    HW211226   3.277   3.812   1.232
 3443SOL     OW11227   3.465   5.772   2.631
 3443SOL    HW111228   3.381   5.826   2.637
 3443SOL    HW211229   3.485   5.730   2.720
 3444SOL     OW11230   5.369   4.642   1.347
 3444SOL    HW111231   5.415   4.599   1.270
 3444SOL    HW211232   5.394   4.595   1.431
 3445SOL     OW11233   6.711   4.905   4.054
 3445SOL    HW111234   6.687   4.965   4.130
 3445SOL    HW211235   6.780   4.839   4.084
 3446SOL     OW11236   5.718   0.356   1.618
 3446SOL    HW111237   5.803   0.395   1.582
 3446SOL    HW211238   5.708   0.262   1.585
 3447SOL     OW11239   5.232   0.431   0.076
 3447SOL    HW111240   5.275   0.516   0.046
 3447SOL    HW211241   5.138   0.451   0.106
 3448SOL     OW11242   1.910   6.532   5.347
 3448SOL    HW111243   2.006   6.523   5.322
 3448SOL    HW211244   1.895   6.493   5.438
 3449SOL     OW11245   5.689   5.200   5.304
 3449SOL    HW111246   5.620   5.127   5.301
 3449SOL    HW211247   5.644   5.288   5.318
 3450SOL     OW11248   1.472   0.622   6.452
 3450SOL    HW111249   1.425   0.711   6.453
 3450SOL    HW211250   1.500   0.600   6.358
 3451SOL     OW11251   1.472   5.813   0.622
 3451SOL    HW111252   1.473   5.713   0.613
 3451SOL    HW211253   1.562   5.844   0.653
 3452SOL     OW11254   5.679   0.685   5.963
 3452SOL    HW111255   5.615   0.624   5.917
 3452SOL    HW211256   5.703   0.648   6.052
 3453SOL     OW11257   5.023   6.480   6.119
 3453SOL    HW111258   5.081   6.533   6.057
 3453SOL    HW211259   5.060   6.388   6.128
 3454SOL     OW11260   1.758   2.877   3.203
 3454SOL    HW111261   1.834   2.816   3.179
 3454SOL    HW211262   1.765   2.903   3.299
 3455SOL     OW11263   1.996   2.301   4.726
 3455SOL    HW111264   2.040   2.296   4.816
 3455SOL    HW211265   2.049   2.359   4.665
 3456SOL     OW11266   4.352   4.552   2.109
 3456SOL    HW111267   4.398   4.583   2.192
 3456SOL    HW211268   4.395   4.468   2.076
 3457SOL     OW11269   3.645   5.214   5.074
 3457SOL    HW111270   3.682   5.263   5.154
 3457SOL    HW211271   3.719   5.197   5.009
 3458SOL     OW11272   4.307   2.187   2.345
 3458SOL    HW111273   4.374   2.255   2.317
 3458SOL    HW211274   4.285   2.128   2.267
 3459SOL     OW11275   4.748   1.444   3.273
 3459SOL    HW111276   4.715   1.415   3.184
 3459SOL    HW211277   4.709   1.534   3.296
 3460SOL     OW11278   3.763   1.711   5.681
 3460SOL    HW111279   3.673   1.714   5.637
 3460SOL    HW211280   3.834   1.707   5.612
 3461SOL     OW11281   5.310   4.904   7.029
 3461SOL    HW111282   5.248   4.982   0.002
 3461SOL    HW211283   5.403   4.935   7.008
 3462SOL     OW11284   1.820   3.630   6.137
 3462SOL    HW111285   1.832   3.644   6.039
 3462SOL    HW211286   1.892   3.679   6.187
 3463SOL     OW11287   0.220   3.947   1.017
 3463SOL    HW111288   0.294   3.894   1.057
 3463SOL    HW211289   0.244   3.972   0.923
 3464SOL     OW11290   0.208   4.836   6.566
 3464SOL    HW111291   0.280   4.798   6.508
 3464SOL    HW211292   0.139   4.880   6.509
 3465SOL     OW11293   2.088   1.877   1.429
 3465SOL    HW111294   2.095   1.782   1.397
 3465SOL    HW211295   2.128   1.939   1.362
 3466SOL     OW11296   6.756   5.398   5.978
 3466SOL    HW111297   6.788   5.320   5.923
 3466SOL    HW211298   6.823   5.418   6.049
 3467SOL     OW11299   2.521   1.965   6.565
 3467SOL    HW111300   2.436   2.010   6.539
 3467SOL    HW211301   2.514   1.867   6.547
 3468SOL     OW11302   2.896   5.706   3.326
 3468SOL    HW111303   2.873   5.795   3.286
 3468SOL    HW211304   2.942   5.650   3.257
 3469SOL     OW11305   6.640   2.556   4.363
 3469SOL    HW111306   6.601   2.500   4.290
 3469SOL    HW211307   6.694   2.498   4.425
 3470SOL     OW11308   0.662   5.281   1.391
 3470SOL    HW111309   0.644   5.193   1.347
 3470SOL    HW211310   0.743   5.323   1.350
 3471SOL     OW11311   4.132   5.396   5.353
 3471SOL    HW111312   4.056   5.431   5.298
 3471SOL    HW211313   4.118   5.423   5.449
 3472SOL     OW11314   2.028   0.957   4.283
 3472SOL    HW111315   2.117   0.936   4.323
 3472SOL    HW211316   2.039   1.023   4.209
 3473SOL     OW11317   5.436   1.809   5.728
 3473SOL    HW111318   5.408   1.730   5.783
 3473SOL    HW211319   5.496   1.868   5.782
 3474SOL     OW11320   2.944   5.047   1.998
 3474SOL    HW111321   3.014   5.059   2.069
 3474SOL    HW211322   2.951   4.956   1.959
 3475SOL     OW11323   0.851   6.691   3.753
 3475SOL    HW111324   0.755   6.689   3.781
 3475SOL    HW211325   0.892   6.601   3.766
 3476SOL     OW11326   3.898   0.531   5.253
 3476SOL    HW111327   3.940   0.616   5.222
 3476SOL    HW211328   3.803   0.549   5.280
 3477SOL     OW11329   3.296   5.401   1.148
 3477SOL    HW111330   3.338   5.449   1.071
 3477SOL    HW211331   3.201   5.427   1.156
 3478SOL     OW11332   2.400   6.131   5.799
 3478SOL    HW111333   2.311   6.086   5.813
 3478SOL    HW211334   2.418   6.193   5.876
 3479SOL     OW11335   0.823   0.315   2.714
 3479SOL    HW111336   0.816   0.376   2.792
 3479SOL    HW211337   0.756   0.342   2.645
 3480SOL     OW11338   6.988   1.503   4.208
 3480SOL    HW111339   6.942   1.446   4.276
 3480SOL    HW211340   6.922   1.566   4.168
 3481SOL     OW11341   3.938   6.871   6.435
 3481SOL    HW111342   3.992   6.846   6.355
 3481SOL    HW211343   3.842   6.845   6.420
 3482SOL     OW11344   6.077   1.424   1.264
 3482SOL    HW111345   6.162   1.430   1.211
 3482SOL    HW211346   6.099   1.399   1.359
 3483SOL     OW11347   2.659   0.395   1.028
 3483SOL    HW111348   2.613   0.307   1.019
 3483SOL    HW211349   2.592   0.469   1.028
 3484SOL     OW11350   3.154   3.050   3.012
 3484SOL    HW111351   3.241   3.036   3.059
 3484SOL    HW211352   3.156   3.005   2.923
 3485SOL     OW11353   2.017   1.216   5.136
 3485SOL    HW111354   2.062   1.297   5.175
 3485SOL    HW211355   1.922   1.238   5.114
 3486SOL     OW11356   4.016   1.439   1.617
 3486SOL    HW111357   3.978   1.514   1.670
 3486SOL    HW211358   4.115   1.435   1.631
 3487SOL     OW11359   5.832   1.927   6.458
 3487SOL    HW111360   5.894   1.955   6.385
 3487SOL    HW211361   5.775   2.005   6.484
 3488SOL     OW11362   6.760   3.438   3.748
 3488SOL    HW111363   6.715   3.359   3.707
 3488SOL    HW211364   6.762   3.514   3.683
 3489SOL     OW11365   3.386   6.758   0.448
 3489SOL    HW111366   3.324   6.716   0.515
 3489SOL    HW211367   3.399   6.696   0.371
 3490SOL     OW11368   4.881   4.193   0.552
 3490SOL    HW111369   4.842   4.181   0.644
 3490SOL    HW211370   4.875   4.106   0.502
 3491SOL     OW11371   6.855   3.014   5.464
 3491SOL    HW111372   6.842   2.931   5.519
 3491SOL    HW211373   6.769   3.036   5.417
 3492SOL     OW11374   0.993   5.865   6.863
 3492SOL    HW111375   1.075   5.888   6.917
 3492SOL    HW211376   0.922   5.934   6.879
 3493SOL     OW11377   5.934   4.858   0.846
 3493SOL    HW111378   6.027   4.892   0.857
 3493SOL    HW211379   5.934   4.758   0.851
 3494SOL     OW11380   3.954   0.116   0.992
 3494SOL    HW111381   4.018   0.048   0.958
 3494SOL    HW211382   4.005   0.195   1.028
 3495SOL     OW11383   3.919   4.863   1.937
 3495SOL    HW111384   3.847   4.915   1.890
 3495SOL    HW211385   4.005   4.914   1.932
 3496SOL     OW11386   1.308   2.921   1.584
 3496SOL    HW111387   1.351   2.839   1.622
 3496SOL    HW211388   1.346   3.002   1.628
 3497SOL     OW11389   4.533   0.787   3.448
 3497SOL    HW111390   4.632   0.797   3.443
 3497SOL    HW211391   4.500   0.825   3.535
 3498SOL     OW11392   2.852   1.565   1.169
 3498SOL    HW111393   2.929   1.601   1.116
 3498SOL    HW211394   2.812   1.637   1.225
 3499SOL     OW11395   6.854   3.615   4.386
 3499SOL    HW111396   6.769   3.582   4.345
 3499SOL    HW211397   6.855   3.715   4.385
 3500SOL     OW11398   6.337   4.297   5.950
 3500SOL    HW111399   6.389   4.278   6.033
 3500SOL    HW211400   6.241   4.314   5.973
 3501SOL     OW11401   0.979   4.583   5.215
 3501SOL    HW111402   0.881   4.567   5.220
 3501SOL    HW211403   1.012   4.619   5.303
 3502SOL     OW11404   0.327   2.323   1.749
 3502SOL    HW111405   0.293   2.413   1.723
 3502SOL    HW211406   0.276   2.290   1.828
 3503SOL     OW11407   4.697   5.922   5.746
 3503SOL    HW111408   4.770   5.864   5.708
 3503SOL    HW211409   4.728   5.961   5.833
 3504SOL     OW11410   2.898   3.664   1.177
 3504SOL    HW111411   2.860   3.741   1.125
 3504SOL    HW211412   2.871   3.671   1.273
 3505SOL     OW11413   4.915   5.981   5.135
 3505SOL    HW111414   4.850   6.045   5.094
 3505SOL    HW211415   4.991   5.967   5.072
 3506SOL     OW11416   4.265   5.688   4.320
 3506SOL    HW111417   4.272   5.606   4.264
 3506SOL    HW211418   4.168   5.709   4.336
 3507SOL     OW11419   1.029   0.811   6.424
 3507SOL    HW111420   1.021   0.809   6.524
 3507SOL    HW211421   1.065   0.899   6.395
 3508SOL     OW11422   5.122   2.421   0.103
 3508SOL    HW111423   5.139   2.332   0.145
 3508SOL    HW211424   5.169   2.426   0.014
 3509SOL     OW11425   6.062   6.379   6.743
 3509SOL    HW111426   6.066   6.446   6.669
 3509SOL    HW211427   6.154   6.363   6.778
 3510SOL     OW11428   1.593   2.138   1.536
 3510SOL    HW111429   1.663   2.086   1.488
 3510SOL    HW211430   1.508   2.136   1.483
 3511SOL     OW11431   1.747   3.297   6.895
 3511SOL    HW111432   1.648   3.298   6.881
 3511SOL    HW211433   1.768   3.242   6.975
 3512SOL     OW11434   1.158   3.610   0.433
 3512SOL    HW111435   1.111   3.660   0.506
 3512SOL    HW211436   1.182   3.519   0.466
 3513SOL     OW11437   6.679   4.047   0.993
 3513SOL    HW111438   6.617   4.003   0.927
 3513SOL    HW211439   6.769   4.004   0.987
 3514SOL     OW11440   0.567   6.660   1.244
 3514SOL    HW111441   0.546   6.745   1.197
 3514SOL    HW211442   0.641   6.613   1.197
 3515SOL     OW11443   3.206   5.884   2.581
 3515SOL    HW111444   3.112   5.895   2.611
 3515SOL    HW211445   3.210   5.874   2.482
 3516SOL     OW11446   3.540   0.458   0.671
 3516SOL    HW111447   3.561   0.470   0.768
 3516SOL    HW211448   3.444   0.435   0.660
 3517SOL     OW11449   0.714   1.614   0.309
 3517SOL    HW111450   0.669   1.571   0.230
 3517SOL    HW211451   0.810   1.587   0.311
 3518SOL     OW11452   4.778   3.702   6.460
 3518SOL    HW111453   4.871   3.708   6.424
 3518SOL    HW211454   4.713   3.725   6.387
 3519SOL     OW11455   0.879   6.419   6.846
 3519SOL    HW111456   0.946   6.440   6.917
 3519SOL    HW211457   0.801   6.372   6.886
 3520SOL     OW11458   4.165   4.686   1.031
 3520SOL    HW111459   4.193   4.691   0.936
 3520SOL    HW211460   4.129   4.595   1.051
 3521SOL     OW11461   5.457   2.833   1.909
 3521SOL    HW111462   5.369   2.791   1.931
 3521SOL    HW211463   5.508   2.772   1.847
 3522SOL     OW11464   2.454   5.109   1.981
 3522SOL    HW111465   2.449   5.179   2.051
 3522SOL    HW211466   2.520   5.039   2.008
 3523SOL     OW11467   3.078   4.774   5.154
 3523SOL    HW111468   3.038   4.682   5.150
 3523SOL    HW211469   3.054   4.824   5.072
 3524SOL     OW11470   2.935   0.502   0.955
 3524SOL    HW111471   2.920   0.413   0.997
 3524SOL    HW211472   3.015   0.545   0.997
 3525SOL     OW11473   0.348   2.729   2.027
 3525SOL    HW111474   0.423   2.681   1.982
 3525SOL    HW211475   0.371   2.825   2.039
 3526SOL     OW11476   0.755   0.823   2.881
 3526SOL    HW111477   0.815   0.895   2.845
 3526SOL    HW211478   0.797   0.734   2.864
 3527SOL     OW11479   5.198   2.690   6.556
 3527SOL    HW111480   5.232   2.747   6.481
 3527SOL    HW211481   5.121   2.736   6.601
 3528SOL     OW11482   0.572   5.951   2.923
 3528SOL    HW111483   0.586   5.942   3.021
 3528SOL    HW211484   0.559   5.861   2.882
 3529SOL     OW11485   4.540   6.993   5.732
 3529SOL    HW111486   4.540   6.931   5.653
 3529SOL    HW211487   4.510   0.054   5.703
 3530SOL     OW11488   2.781   5.760   2.564
 3530SOL    HW111489   2.835   5.840   2.539
 3530SOL    HW211490   2.828   5.677   2.533
 3531SOL     OW11491   5.204   4.004   0.278
 3531SOL    HW111492   5.154   3.918   0.287
 3531SOL    HW211493   5.245   4.009   0.187
 3532SOL     OW11494   2.332   0.585   6.998
 3532SOL    HW111495   2.408   0.530   0.003
 3532SOL    HW211496   2.329   0.579   6.899
 3533SOL     OW11497   0.849   1.880   3.031
 3533SOL    HW111498   0.880   1.918   2.944
 3533SOL    HW211499   0.874   1.783   3.036
 3534SOL     OW11500   5.954   1.479   5.208
 3534SOL    HW111501   5.911   1.559   5.250
 3534SOL    HW211502   6.043   1.505   5.172
 3535SOL     OW11503   6.561   5.347   6.311
 3535SOL    HW111504   6.564   5.268   6.250
 3535SOL    HW211505   6.536   5.317   6.403
 3536SOL     OW11506   1.821   3.125   3.108
 3536SOL    HW111507   1.816   3.201   3.173
 3536SOL    HW211508   1.790   3.041   3.152
 3537SOL     OW11509   2.139   5.723   0.817
 3537SOL    HW111510   2.153   5.624   0.825
 3537SOL    HW211511   2.074   5.753   0.887
 3538SOL     OW11512   3.111   6.840   3.184
 3538SOL    HW111513   3.208   6.849   3.207
 3538SOL    HW211514   3.070   6.768   3.240
 3539SOL     OW11515   5.646   4.262   5.777
 3539SOL    HW111516   5.581   4.256   5.853
 3539SOL    HW211517   5.613   4.329   5.711
 3540SOL     OW11518   2.082   3.115   7.019
 3540SOL    HW111519   2.178   3.094   7.001
 3540SOL    HW211520   2.024   3.045   6.977
 3541SOL     OW11521   2.771   3.405   0.660
 3541SOL    HW111522   2.763   3.462   0.741
 3541SOL    HW211523   2.683   3.403   0.612
 3542SOL     OW11524   5.893   2.832   6.909
 3542SOL    HW111525   5.982   2.835   6.955
 3542SOL    HW211526   5.902   2.783   6.822
 3543SOL     OW11527   1.766   3.640   3.306
 3543SOL    HW111528   1.754   3.725   3.358
 3543SOL    HW211529   1.693   3.632   3.238
 3544SOL     OW11530   3.152   4.091   6.674
 3544SOL    HW111531   3.088   4.163   6.701
 3544SOL    HW211532   3.133   4.009   6.728
 3545SOL     OW11533   3.625   5.443   0.507
 3545SOL    HW111534   3.556   5.514   0.524
 3545SOL    HW211535   3.647   5.398   0.594
 3546SOL     OW11536   6.531   3.761   3.292
 3546SOL    HW111537   6.535   3.828   3.218
 3546SOL    HW211538   6.595   3.687   3.274
 3547SOL     OW11539   6.788   3.557   5.161
 3547SOL    HW111540   6.789   3.468   5.115
 3547SOL    HW211541   6.868   3.564   5.221
 3548SOL     OW11542   4.798   2.006   6.219
 3548SOL    HW111543   4.844   1.963   6.141
 3548SOL    HW211544   4.700   1.986   6.215
 3549SOL     OW11545   2.011   5.794   6.441
 3549SOL    HW111546   2.067   5.801   6.359
 3549SOL    HW211547   1.919   5.829   6.422
 3550SOL     OW11548   4.748   2.092   4.859
 3550SOL    HW111549   4.813   2.116   4.787
 3550SOL    HW211550   4.778   2.008   4.903
 3551SOL     OW11551   3.747   2.133   5.513
 3551SOL    HW111552   3.830   2.180   5.543
 3551SOL    HW211553   3.771   2.068   5.441
 3552SOL     OW11554   6.626   5.618   1.212
 3552SOL    HW111555   6.534   5.612   1.251
 3552SOL    HW211556   6.648   5.531   1.168
 3553SOL     OW11557   3.560   6.389   5.910
 3553SOL    HW111558   3.660   6.381   5.916
 3553SOL    HW211559   3.519   6.361   5.996
 3554SOL     OW11560   4.024   3.737   1.297
 3554SOL    HW111561   4.048   3.777   1.209
 3554SOL    HW211562   3.973   3.805   1.351
 3555SOL     OW11563   1.517   2.221   4.323
 3555SOL    HW111564   1.423   2.217   4.356
 3555SOL    HW211565   1.541   2.317   4.303
 3556SOL     OW11566   3.736   1.238   4.979
 3556SOL    HW111567   3.728   1.139   4.972
 3556SOL    HW211568   3.646   1.280   4.965
 3557SOL     OW11569   0.339   0.551   2.777
 3557SOL    HW111570   0.243   0.548   2.804
 3557SOL    HW211571   0.349   0.509   2.687
 3558SOL     OW11572   2.844   6.242   0.570
 3558SOL    HW111573   2.778   6.198   0.509
 3558SOL    HW211574   2.884   6.322   0.524
 3559SOL     OW11575   3.423   6.490   4.510
 3559SOL    HW111576   3.393   6.487   4.606
 3559SOL    HW211577   3.376   6.418   4.459
 3560SOL     OW11578   1.800   4.907   4.821
 3560SOL    HW111579   1.827   4.950   4.908
 3560SOL    HW211580   1.841   4.816   4.814
 3561SOL     OW11581   5.742   4.423   4.809
 3561SOL    HW111582   5.803   4.408   4.732
 3561SOL    HW211583   5.713   4.334   4.846
 3562SOL     OW11584   2.560   1.568   4.618
 3562SOL    HW111585   2.637   1.505   4.628
 3562SOL    HW211586   2.474   1.519   4.638
 3563SOL     OW11587   6.154   2.406   5.825
 3563SOL    HW111588   6.120   2.393   5.732
 3563SOL    HW211589   6.202   2.324   5.855
 3564SOL     OW11590   0.394   4.647   2.894
 3564SOL    HW111591   0.414   4.699   2.978
 3564SOL    HW211592   0.306   4.602   2.904
 3565SOL     OW11593   3.212   4.878   3.246
 3565SOL    HW111594   3.136   4.816   3.225
 3565SOL    HW211595   3.289   4.857   3.186
 3566SOL     OW11596   6.775   1.303   5.067
 3566SOL    HW111597   6.811   1.254   5.147
 3566SOL    HW211598   6.726   1.239   5.008
 3567SOL     OW11599   0.607   3.822   6.440
 3567SOL    HW111600   0.543   3.863   6.506
 3567SOL    HW211601   0.612   3.880   6.359
 3568SOL     OW11602   6.717   4.314   5.653
 3568SOL    HW111603   6.702   4.247   5.581
 3568SOL    HW211604   6.629   4.346   5.689
 3569SOL     OW11605   2.537   1.786   6.054
 3569SOL    HW111606   2.519   1.865   5.996
 3569SOL    HW211607   2.627   1.748   6.033
 3570SOL     OW11608   5.551   0.352   5.038
 3570SOL    HW111609   5.482   0.287   5.070
 3570SOL    HW211610   5.620   0.366   5.109
 3571SOL     OW11611   6.874   6.014   0.104
 3571SOL    HW111612   6.811   6.090   0.095
 3571SOL    HW211613   6.930   6.006   0.021
 3572SOL     OW11614   5.501   3.822   3.689
 3572SOL    HW111615   5.491   3.905   3.634
 3572SOL    HW211616   5.418   3.767   3.680
 3573SOL     OW11617   0.890   4.182   4.462
 3573SOL    HW111618   0.981   4.158   4.429
 3573SOL    HW211619   0.837   4.224   4.388
 3574SOL     OW11620   0.434   4.747   0.233
 3574SOL    HW111621   0.447   4.828   0.290
 3574SOL    HW211622   0.452   4.770   0.138
 3575SOL     OW11623   6.302   5.141   3.268
 3575SOL    HW111624   6.394   5.105   3.250
 3575SOL    HW211625   6.245   5.129   3.187
 3576SOL     OW11626   1.604   1.746   5.871
 3576SOL    HW111627   1.674   1.785   5.811
 3576SOL    HW211628   1.513   1.771   5.837
 3577SOL     OW11629   1.390   2.678   6.661
 3577SOL    HW111630   1.299   2.696   6.624
 3577SOL    HW211631   1.452   2.752   6.634
 3578SOL     OW11632   4.428   3.548   6.798
 3578SOL    HW111633   4.468   3.595   6.719
 3578SOL    HW211634   4.368   3.611   6.848
 3579SOL     OW11635   6.669   3.955   5.238
 3579SOL    HW111636   6.618   3.972   5.154
 3579SOL    HW211637   6.660   3.859   5.263
 3580SOL     OW11638   5.859   2.172   1.426
 3580SOL    HW111639   5.882   2.087   1.379
 3580SOL    HW211640   5.941   2.229   1.435
 3581SOL     OW11641   6.835   0.311   3.237
 3581SOL    HW111642   6.736   0.325   3.228
 3581SOL    HW211643   6.857   0.291   3.332
 3582SOL     OW11644   0.596   1.996   6.045
 3582SOL    HW111645   0.622   2.091   6.061
 3582SOL    HW211646   0.507   1.993   6.001
 3583SOL     OW11647   0.864   4.289   7.026
 3583SOL    HW111648   0.951   4.260   0.036
 3583SOL    HW211649   0.837   4.224   6.955
 3584SOL     OW11650   6.256   6.424   6.477
 3584SOL    HW111651   6.224   6.344   6.426
 3584SOL    HW211652   6.181   6.490   6.487
 3585SOL     OW11653   3.351   5.236   4.994
 3585SOL    HW111654   3.322   5.331   5.004
 3585SOL    HW211655   3.436   5.222   5.046
 3586SOL     OW11656   6.258   2.965   5.489
 3586SOL    HW111657   6.274   3.007   5.579
 3586SOL    HW211658   6.168   2.992   5.455
 3587SOL     OW11659   2.968   6.028   0.972
 3587SOL    HW111660   2.972   6.042   0.873
 3587SOL    HW211661   3.042   6.080   1.016
 3588SOL     OW11662   1.654   2.335   5.662
 3588SOL    HW111663   1.598   2.261   5.700
 3588SOL    HW211664   1.617   2.361   5.572
 3589SOL     OW11665   3.012   0.813   4.511
 3589SOL    HW111666   3.005   0.717   4.539
 3589SOL    HW211667   3.095   0.826   4.457
 3590SOL     OW11668   0.440   4.603   6.497
 3590SOL    HW111669   0.513   4.541   6.470
 3590SOL    HW211670   0.401   4.646   6.415
 3591SOL     OW11671   5.644   2.957   6.849
 3591SOL    HW111672   5.740   2.929   6.858
 3591SOL    HW211673   5.640   3.052   6.819
 3592SOL     OW11674   5.269   3.306   3.392
 3592SOL    HW111675   5.214   3.270   3.316
 3592SOL    HW211676   5.335   3.237   3.421
 3593SOL     OW11677   2.772   6.587   4.307
 3593SOL    HW111678   2.713   6.593   4.226
 3593SOL    HW211679   2.835   6.665   4.307
 3594SOL     OW11680   3.740   0.974   3.198
 3594SOL    HW111681   3.644   0.948   3.204
 3594SOL    HW211682   3.791   0.903   3.148
 3595SOL     OW11683   2.537   6.168   5.401
 3595SOL    HW111684   2.452   6.115   5.405
 3595SOL    HW211685   2.546   6.208   5.310
 3596SOL     OW11686   6.322   1.152   2.507
 3596SOL    HW111687   6.246   1.197   2.553
 3596SOL    HW211688   6.295   1.061   2.477
 3597SOL     OW11689   3.157   6.212   4.468
 3597SOL    HW111690   3.070   6.260   4.476
 3597SOL    HW211691   3.199   6.204   4.559
 3598SOL     OW11692   0.902   0.739   5.582
 3598SOL    HW111693   0.898   0.687   5.667
 3598SOL    HW211694   0.864   0.685   5.507
 3599SOL     OW11695   1.180   2.179   5.684
 3599SOL    HW111696   1.126   2.096   5.699
 3599SOL    HW211697   1.229   2.202   5.768
 3600SOL     OW11698   0.085   3.270   0.411
 3600SOL    HW111699   0.106   3.284   0.315
 3600SOL    HW211700   0.006   3.208   0.419
 3601SOL     OW11701   6.943   4.101   0.439
 3601SOL    HW111702   6.978   4.195   0.441
 3601SOL    HW211703   6.865   4.096   0.377
 3602SOL     OW11704   2.155   1.158   0.704
 3602SOL    HW111705   2.182   1.231   0.767
 3602SOL    HW211706   2.056   1.147   0.707
 3603SOL     OW11707   3.837   5.855   4.018
 3603SOL    HW111708   3.837   5.792   4.096
 3603SOL    HW211709   3.848   5.803   3.933
 3604SOL     OW11710   6.882   3.689   3.553
 3604SOL    HW111711   6.940   3.757   3.597
 3604SOL    HW211712   6.932   3.647   3.478
 3605SOL     OW11713   6.122   4.476   5.683
 3605SOL    HW111714   6.034   4.472   5.731
 3605SOL    HW211715   6.157   4.384   5.669
 3606SOL     OW11716   6.951   4.874   5.987
 3606SOL    HW111717   6.936   4.815   5.908
 3606SOL    HW211718   6.977   4.818   6.066
 3607SOL     OW11719   5.081   0.125   0.527
 3607SOL    HW111720   5.131   0.212   0.527
 3607SOL    HW211721   5.112   0.069   0.450
 3608SOL     OW11722   6.657   2.017   2.103
 3608SOL    HW111723   6.709   2.096   2.072
 3608SOL    HW211724   6.598   2.043   2.179
 3609SOL     OW11725   6.821   0.930   4.223
 3609SOL    HW111726   6.731   0.972   4.235
 3609SOL    HW211727   6.880   0.956   4.300
 3610SOL     OW11728   1.005   0.708   5.010
 3610SOL    HW111729   1.033   0.776   5.078
 3610SOL    HW211730   0.915   0.733   4.974
 3611SOL     OW11731   3.825   4.943   5.140
 3611SOL    HW111732   3.881   4.976   5.216
 3611SOL    HW211733   3.729   4.947   5.166
 3612SOL     OW11734   0.514   6.620   6.238
 3612SOL    HW111735   0.420   6.609   6.204
 3612SOL    HW211736   0.573   6.550   6.198
 3613SOL     OW11737   5.461   4.807   0.787
 3613SOL    HW111738   5.517   4.725   0.776
 3613SOL    HW211739   5.372   4.781   0.824
 3614SOL     OW11740   3.916   3.289   3.902
 3614SOL    HW111741   3.912   3.193   3.876
 3614SOL    HW211742   3.823   3.323   3.921
 3615SOL     OW11743   5.789   6.469   6.119
 3615SOL    HW111744   5.859   6.534   6.150
 3615SOL    HW211745   5.723   6.517   6.062
 3616SOL     OW11746   6.262   2.169   6.704
 3616SOL    HW111747   6.173   2.132   6.680
 3616SOL    HW211748   6.292   2.130   6.792
 3617SOL     OW11749   5.680   1.929   6.184
 3617SOL    HW111750   5.604   1.969   6.235
 3617SOL    HW211751   5.766   1.967   6.218
 3618SOL     OW11752   1.813   1.922   5.179
 3618SOL    HW111753   1.812   1.882   5.271
 3618SOL    HW211754   1.907   1.934   5.148
 3619SOL     OW11755   6.466   1.951   3.581
 3619SOL    HW111756   6.489   2.038   3.625
 3619SOL    HW211757   6.495   1.954   3.486
 3620SOL     OW11758   6.090   6.182   6.090
 3620SOL    HW111759   5.993   6.177   6.063
 3620SOL    HW211760   6.127   6.272   6.067
 3621SOL     OW11761   2.700   2.388   6.624
 3621SOL    HW111762   2.762   2.435   6.561
 3621SOL    HW211763   2.715   2.290   6.619
 3622SOL     OW11764   2.215   2.194   3.221
 3622SOL    HW111765   2.140   2.149   3.173
 3622SOL    HW211766   2.293   2.131   3.227
 3623SOL     OW11767   5.966   5.548   4.101
 3623SOL    HW111768   6.004   5.633   4.063
 3623SOL    HW211769   6.027   5.472   4.079
 3624SOL     OW11770   2.412   6.068   2.547
 3624SOL    HW111771   2.315   6.043   2.539
 3624SOL    HW211772   2.443   6.111   2.463
 3625SOL     OW11773   6.094   3.080   6.848
 3625SOL    HW111774   6.044   3.069   6.762
 3625SOL    HW211775   6.030   3.091   6.924
 3626SOL     OW11776   1.729   4.199   5.660
 3626SOL    HW111777   1.690   4.169   5.573
 3626SOL    HW211778   1.704   4.134   5.731
 3627SOL     OW11779   4.138   3.597   3.323
 3627SOL    HW111780   4.183   3.510   3.345
 3627SOL    HW211781   4.087   3.629   3.403
 3628SOL     OW11782   2.141   6.632   1.757
 3628SOL    HW111783   2.079   6.707   1.736
 3628SOL    HW211784   2.207   6.621   1.682
 3629SOL     OW11785   6.325   2.202   4.987
 3629SOL    HW111786   6.234   2.161   4.989
 3629SOL    HW211787   6.326   2.279   4.924
 3630SOL     OW11788   5.535   2.868   3.856
 3630SOL    HW111789   5.537   2.948   3.916
 3630SOL    HW211790   5.588   2.887   3.773
 3631SOL     OW11791   1.994   0.245   3.862
 3631SOL    HW111792   1.897   0.260   3.840
 3631SOL    HW211793   2.048   0.252   3.778
 3632SOL     OW11794   5.373   0.766   0.814
 3632SOL    HW111795   5.405   0.749   0.907
 3632SOL    HW211796   5.415   0.850   0.779
 3633SOL     OW11797   2.895   2.303   6.113
 3633SOL    HW111798   2.923   2.207   6.109
 3633SOL    HW211799   2.802   2.308   6.150
 3634SOL     OW11800   0.648   5.574   5.017
 3634SOL    HW111801   0.663   5.548   5.112
 3634SOL    HW211802   0.733   5.608   4.978
 3635SOL     OW11803   2.855   0.537   5.456
 3635SOL    HW111804   2.951   0.554   5.479
 3635SOL    HW211805   2.815   0.619   5.415
 3636SOL     OW11806   0.992   6.338   6.102
 3636SOL    HW111807   0.974   6.240   6.108
 3636SOL    HW211808   0.952   6.385   6.181
 3637SOL     OW11809   6.352   2.022   1.230
 3637SOL    HW111810   6.361   1.976   1.318
 3637SOL    HW211811   6.308   1.961   1.164
 3638SOL     OW11812   7.003   4.965   4.654
 3638SOL    HW111813   6.947   4.887   4.684
 3638SOL    HW211814   0.058   4.931   4.614
 3639SOL     OW11815   4.089   3.844   1.054
 3639SOL    HW111816   4.168   3.796   1.017
 3639SOL    HW211817   4.032   3.879   0.980
 3640SOL     OW11818   3.383   6.800   6.646
 3640SOL    HW111819   3.448   6.871   6.677
 3640SOL    HW211820   3.345   6.754   6.726
 3641SOL     OW11821   4.655   2.385   4.696
 3641SOL    HW111822   4.712   2.309   4.665
 3641SOL    HW211823   4.593   2.353   4.768
 3642SOL     OW11824   4.954   1.553   6.098
 3642SOL    HW111825   4.876   1.510   6.144
 3642SOL    HW211826   4.940   1.652   6.096
 3643SOL     OW11827   2.528   5.741   4.876
 3643SOL    HW111828   2.531   5.831   4.921
 3643SOL    HW211829   2.599   5.683   4.914
 3644SOL     OW11830   0.167   1.341   1.716
 3644SOL    HW111831   0.155   1.367   1.620
 3644SOL    HW211832   0.146   1.419   1.775
 3645SOL     OW11833   5.767   1.125   3.936
 3645SOL    HW111834   5.854   1.105   3.891
 3645SOL    HW211835   5.781   1.132   4.035
 3646SOL     OW11836   6.645   5.077   6.310
 3646SOL    HW111837   6.647   5.007   6.381
 3646SOL    HW211838   6.590   5.045   6.233
 3647SOL     OW11839   2.162   4.066   0.629
 3647SOL    HW111840   2.144   4.063   0.531
 3647SOL    HW211841   2.196   3.977   0.660
 3648SOL     OW11842   3.540   5.645   2.850
 3648SOL    HW111843   3.542   5.572   2.919
 3648SOL    HW211844   3.544   5.734   2.896
 3649SOL     OW11845   4.747   2.922   1.266
 3649SOL    HW111846   4.746   2.932   1.366
 3649SOL    HW211847   4.834   2.957   1.231
 3650SOL     OW11848   0.053   5.650   0.426
 3650SOL    HW111849   0.015   5.692   0.344
 3650SOL    HW211850   7.018   5.658   0.501
 3651SOL     OW11851   0.521   5.465   2.975
 3651SOL    HW111852   0.549   5.394   2.910
 3651SOL    HW211853   0.457   5.427   3.042
 3652SOL     OW11854   5.515   5.983   3.033
 3652SOL    HW111855   5.461   6.047   3.088
 3652SOL    HW211856   5.461   5.901   3.015
 3653SOL     OW11857   6.738   0.762   3.926
 3653SOL    HW111858   6.788   0.730   4.006
 3653SOL    HW211859   6.689   0.685   3.884
 3654SOL     OW11860   2.148   0.084   0.243
 3654SOL    HW111861   2.115   7.024   0.272
 3654SOL    HW211862   2.217   0.116   0.308
 3655SOL     OW11863   1.136   6.830   3.676
 3655SOL    HW111864   1.204   6.849   3.747
 3655SOL    HW211865   1.091   6.743   3.696
 3656SOL     OW11866   1.488   3.031   2.206
 3656SOL    HW111867   1.559   2.998   2.144
 3656SOL    HW211868   1.527   3.040   2.298
 3657SOL     OW11869   4.925   5.860   5.944
 3657SOL    HW111870   5.018   5.871   5.978
 3657SOL    HW211871   4.868   5.936   5.976
 3658SOL     OW11872   0.975   6.029   3.439
 3658SOL    HW111873   0.948   5.948   3.387
 3658SOL    HW211874   0.912   6.042   3.516
 3659SOL     OW11875   3.289   3.546   5.867
 3659SOL    HW111876   3.195   3.547   5.834
 3659SOL    HW211877   3.347   3.500   5.801
 3660SOL     OW11878   4.874   6.606   2.106
 3660SOL    HW111879   4.850   6.576   2.199
 3660SOL    HW211880   4.946   6.548   2.069
 3661SOL     OW11881   4.773   1.877   6.456
 3661SOL    HW111882   4.692   1.900   6.510
 3661SOL    HW211883   4.774   1.931   6.372
 3662SOL     OW11884   3.882   0.944   3.894
 3662SOL    HW111885   3.795   0.962   3.938
 3662SOL    HW211886   3.873   0.955   3.795
 3663SOL     OW11887   1.866   1.189   0.390
 3663SOL    HW111888   1.769   1.168   0.389
 3663SOL    HW211889   1.888   1.246   0.470
 3664SOL     OW11890   4.986   2.597   1.346
 3664SOL    HW111891   5.012   2.682   1.299
 3664SOL    HW211892   5.067   2.540   1.357
 3665SOL     OW11893   0.335   5.709   5.344
 3665SOL    HW111894   0.292   5.733   5.432
 3665SOL    HW211895   0.373   5.617   5.350
 3666SOL     OW11896   1.855   4.201   2.758
 3666SOL    HW111897   1.925   4.218   2.827
 3666SOL    HW211898   1.896   4.151   2.682
 3667SOL     OW11899   6.161   0.273   0.617
 3667SOL    HW111900   6.127   0.203   0.680
 3667SOL    HW211901   6.229   0.330   0.664
 3668SOL     OW11902   1.717   0.517   1.873
 3668SOL    HW111903   1.760   0.490   1.787
 3668SOL    HW211904   1.632   0.465   1.885
 3669SOL     OW11905   6.489   0.883   4.769
 3669SOL    HW111906   6.421   0.950   4.798
 3669SOL    HW211907   6.444   0.800   4.739
 3670SOL     OW11908   1.987   4.485   0.563
 3670SOL    HW111909   2.079   4.514   0.534
 3670SOL    HW211910   1.995   4.407   0.625
 3671SOL     OW11911   6.672   0.425   4.205
 3671SOL    HW111912   6.632   0.454   4.292
 3671SOL    HW211913   6.721   0.339   4.218
 3672SOL     OW11914   5.853   1.465   1.115
 3672SOL    HW111915   5.783   1.438   1.181
 3672SOL    HW211916   5.941   1.471   1.161
 3673SOL     OW11917   3.254   0.558   5.786
 3673SOL    HW111918   3.330   0.532   5.726
 3673SOL    HW211919   3.235   0.655   5.775
 3674SOL     OW11920   0.579   0.434   5.465
 3674SOL    HW111921   0.513   0.509   5.469
 3674SOL    HW211922   0.530   0.347   5.461
 3675SOL     OW11923   2.122   3.132   5.270
 3675SOL    HW111924   2.210   3.172   5.294
 3675SOL    HW211925   2.136   3.047   5.220
 3676SOL     OW11926   4.333   4.968   4.608
 3676SOL    HW111927   4.393   4.912   4.552
 3676SOL    HW211928   4.261   4.911   4.648
 3677SOL     OW11929   1.064   6.331   2.915
 3677SOL    HW111930   1.000   6.395   2.957
 3677SOL    HW211931   1.100   6.370   2.830
 3678SOL     OW11932   0.746   3.234   3.725
 3678SOL    HW111933   0.757   3.158   3.788
 3678SOL    HW211934   0.833   3.283   3.717
 3679SOL     OW11935   1.189   0.548   3.293
 3679SOL    HW111936   1.121   0.476   3.275
 3679SOL    HW211937   1.180   0.620   3.224
 3680SOL     OW11938   5.582   2.787   3.337
 3680SOL    HW111939   5.583   2.864   3.272
 3680SOL    HW211940   5.583   2.701   3.286
 3681SOL     OW11941   0.636   0.635   5.117
 3681SOL    HW111942   0.614   0.707   5.052
 3681SOL    HW211943   0.592   0.550   5.089
 3682SOL     OW11944   6.152   2.528   6.521
 3682SOL    HW111945   6.086   2.454   6.517
 3682SOL    HW211946   6.188   2.536   6.614
 3683SOL     OW11947   0.156   7.030   4.462
 3683SOL    HW111948   0.241   6.986   4.432
 3683SOL    HW211949   0.078   6.981   4.422
 3684SOL     OW11950   1.751   3.587   7.013
 3684SOL    HW111951   1.712   3.573   6.922
 3684SOL    HW211952   1.830   3.528   7.025
 3685SOL     OW11953   6.484   6.505   6.330
 3685SOL    HW111954   6.503   6.602   6.350
 3685SOL    HW211955   6.410   6.473   6.388
 3686SOL     OW11956   6.310   5.530   3.591
 3686SOL    HW111957   6.340   5.460   3.526
 3686SOL    HW211958   6.325   5.620   3.552
 3687SOL     OW11959   3.434   6.094   5.435
 3687SOL    HW111960   3.492   6.072   5.513
 3687SOL    HW211961   3.365   6.161   5.462
 3688SOL     OW11962   1.495   3.714   0.054
 3688SOL    HW111963   1.436   3.705   7.004
 3688SOL    HW211964   1.578   3.659   0.040
 3689SOL     OW11965   1.257   0.416   6.473
 3689SOL    HW111966   1.323   0.492   6.471
 3689SOL    HW211967   1.165   0.451   6.454
 3690SOL     OW11968   4.329   0.341   6.562
 3690SOL    HW111969   4.358   0.382   6.648
 3690SOL    HW211970   4.309   0.244   6.576
 3691SOL     OW11971   2.431   2.552   0.161
 3691SOL    HW111972   2.477   2.572   0.248
 3691SOL    HW211973   2.345   2.506   0.179
 3692SOL     OW11974   0.990   6.355   5.083
 3692SOL    HW111975   0.921   6.371   5.154
 3692SOL    HW211976   1.081   6.367   5.122
 3693SOL     OW11977   2.198   2.520   2.533
 3693SOL    HW111978   2.201   2.606   2.482
 3693SOL    HW211979   2.271   2.521   2.603
 3694SOL     OW11980   0.883   5.776   2.969
 3694SOL    HW111981   0.864   5.706   2.900
 3694SOL    HW211982   0.800   5.795   3.021
 3695SOL     OW11983   6.837   2.864   2.464
 3695SOL    HW111984   6.795   2.923   2.395
 3695SOL    HW211985   6.907   2.807   2.421
 3696SOL     OW11986   3.522   5.595   5.137
 3696SOL    HW111987   3.435   5.643   5.150
 3696SOL    HW211988   3.524   5.552   5.047
 3697SOL     OW11989   0.318   5.836   3.589
 3697SOL    HW111990   0.399   5.818   3.645
 3697SOL    HW211991   0.238   5.849   3.649
 3698SOL     OW11992   3.074   6.326   4.762
 3698SOL    HW111993   3.030   6.329   4.852
 3698SOL    HW211994   3.004   6.333   4.691
 3699SOL     OW11995   6.622   3.552   2.824
 3699SOL    HW111996   6.616   3.576   2.727
 3699SOL    HW211997   6.548   3.490   2.849
 3700SOL     OW11998   0.217   0.528   4.424
 3700SOL    HW111999   0.136   0.584   4.438
 3700SOL    HW212000   0.289   0.583   4.382
 3701SOL     OW12001   0.744   0.950   3.670
 3701SOL    HW112002   0.729   0.902   3.583
 3701SOL    HW212003   0.826   0.913   3.715
 3702SOL     OW12004   4.247   0.298   2.342
 3702SOL    HW112005   4.177   0.367   2.322
 3702SOL    HW212006   4.204   0.208   2.349
 3703SOL     OW12007   4.556   2.796   6.525
 3703SOL    HW112008   4.637   2.739   6.537
 3703SOL    HW212009   4.501   2.760   6.449
 3704SOL     OW12010   2.936   0.252   1.184
 3704SOL    HW112011   2.958   0.178   1.248
 3704SOL    HW212012   2.839   0.275   1.191
 3705SOL     OW12013   5.131   6.148   3.644
 3705SOL    HW112014   5.082   6.062   3.657
 3705SOL    HW212015   5.124   6.175   3.548
 3706SOL     OW12016   0.638   3.400   4.549
 3706SOL    HW112017   0.637   3.500   4.548
 3706SOL    HW212018   0.709   3.366   4.488
 3707SOL     OW12019   5.978   3.842   5.328
 3707SOL    HW112020   6.076   3.826   5.339
 3707SOL    HW212021   5.936   3.764   5.281
 3708SOL     OW12022   6.387   0.839   6.467
 3708SOL    HW112023   6.371   0.767   6.533
 3708SOL    HW212024   6.301   0.886   6.447
 3709SOL     OW12025   3.984   0.850   0.423
 3709SOL    HW112026   4.030   0.822   0.338
 3709SOL    HW212027   3.974   0.771   0.483
 3710SOL     OW12028   6.615   6.082   0.322
 3710SOL    HW112029   6.705   6.045   0.346
 3710SOL    HW212030   6.566   6.016   0.265
 3711SOL     OW12031   6.958   6.434   1.882
 3711SOL    HW112032   6.910   6.347   1.887
 3711SOL    HW212033   0.026   6.418   1.870
 3712SOL     OW12034   6.742   6.247   0.066
 3712SOL    HW112035   6.671   6.290   0.121
 3712SOL    HW212036   6.763   6.306   7.018
 3713SOL     OW12037   1.570   5.983   4.485
 3713SOL    HW112038   1.634   6.057   4.504
 3713SOL    HW212039   1.480   6.007   4.520
 3714SOL     OW12040   4.735   5.437   5.248
 3714SOL    HW112041   4.723   5.396   5.339
 3714SOL    HW212042   4.753   5.535   5.258
 3715SOL     OW12043   5.980   4.020   3.811
 3715SOL    HW112044   5.973   4.080   3.890
 3715SOL    HW212045   5.893   4.021   3.761
 3716SOL     OW12046   6.299   0.029   5.356
 3716SOL    HW112047   6.290   7.011   5.443
 3716SOL    HW212048   6.357   7.007   5.294
 3717SOL     OW12049   6.069   5.327   6.392
 3717SOL    HW112050   6.089   5.233   6.421
 3717SOL    HW212051   6.138   5.357   6.327
 3718SOL     OW12052   2.455   0.201   5.512
 3718SOL    HW112053   2.487   0.241   5.427
 3718SOL    HW212054   2.356   0.210   5.519
 3719SOL     OW12055   5.379   4.387   0.675
 3719SOL    HW112056   5.404   4.400   0.579
 3719SOL    HW212057   5.279   4.383   0.682
 3720SOL     OW12058   5.735   2.423   5.684
 3720SOL    HW112059   5.717   2.516   5.716
 3720SOL    HW212060   5.674   2.402   5.607
 3721SOL     OW12061   5.138   4.294   0.586
 3721SOL    HW112062   5.172   4.201   0.596
 3721SOL    HW212063   5.039   4.292   0.570
 3722SOL     OW12064   6.845   0.080   2.873
 3722SOL    HW112065   6.770   0.050   2.932
 3722SOL    HW212066   6.900   0.000   2.847
 3723SOL     OW12067   6.144   6.112   1.571
 3723SOL    HW112068   6.173   6.037   1.631
 3723SOL    HW212069   6.207   6.120   1.494
 3724SOL     OW12070   2.311   5.096   6.798
 3724SOL    HW112071   2.249   5.135   6.730
 3724SOL    HW212072   2.387   5.160   6.814
 3725SOL     OW12073   5.078   6.216   7.012
 3725SOL    HW112074   5.088   6.124   6.975
 3725SOL    HW212075   5.163   6.243   0.027
 3726SOL     OW12076   6.392   5.075   0.528
 3726SOL    HW112077   6.372   5.019   0.608
 3726SOL    HW212078   6.417   5.168   0.557
 3727SOL     OW12079   6.735   2.725   5.940
 3727SOL    HW112080   6.676   2.654   5.979
 3727SOL    HW212081   6.732   2.806   5.999
 3728SOL     OW12082   1.832   4.047   0.126
 3728SOL    HW112083   1.834   3.947   0.124
 3728SOL    HW212084   1.840   4.082   0.033
 3729SOL     OW12085   1.570   2.223   3.627
 3729SOL    HW112086   1.663   2.234   3.591
 3729SOL    HW212087   1.569   2.151   3.696
 3730SOL     OW12088   2.689   5.549   6.690
 3730SOL    HW112089   2.694   5.480   6.618
 3730SOL    HW212090   2.722   5.511   6.776
 3731SOL     OW12091   4.629   6.981   0.811
 3731SOL    HW112092   4.667   6.915   0.746
 3731SOL    HW212093   4.691   6.990   0.890
 3732SOL     OW12094   1.564   2.559   6.940
 3732SOL    HW112095   1.469   2.582   6.960
 3732SOL    HW212096   1.596   2.489   7.004
 3733SOL     OW12097   1.233   3.482   1.520
 3733SOL    HW112098   1.180   3.398   1.511
 3733SOL    HW212099   1.323   3.461   1.559
 3734SOL     OW12100   4.160   1.702   1.728
 3734SOL    HW112101   4.101   1.720   1.650
 3734SOL    HW212102   4.228   1.633   1.703
 3735SOL     OW12103   1.561   1.691   3.868
 3735SOL    HW112104   1.525   1.610   3.915
 3735SOL    HW212105   1.512   1.703   3.781
 3736SOL     OW12106   0.006   3.083   1.242
 3736SOL    HW112107   7.007   3.113   1.151
 3736SOL    HW212108   7.016   2.986   1.254
 3737SOL     OW12109   5.447   0.264   3.214
 3737SOL    HW112110   5.370   0.315   3.251
 3737SOL    HW212111   5.445   0.171   3.250
 3738SOL     OW12112   6.687   6.372   2.798
 3738SOL    HW112113   6.670   6.422   2.883
 3738SOL    HW212114   6.601   6.356   2.751
 3739SOL     OW12115   2.222   4.983   1.666
 3739SOL    HW112116   2.212   4.974   1.765
 3739SOL    HW212117   2.309   4.943   1.637
 3740SOL     OW12118   4.448   0.311   0.276
 3740SOL    HW112119   4.531   0.257   0.258
 3740SOL    HW212120   4.449   0.342   0.371
 3741SOL     OW12121   4.667   3.042   1.538
 3741SOL    HW112122   4.586   3.078   1.492
 3741SOL    HW212123   4.653   3.046   1.637
 3742SOL     OW12124   2.515   2.024   5.952
 3742SOL    HW112125   2.611   2.009   5.979
 3742SOL    HW212126   2.489   2.118   5.974
 3743SOL     OW12127   5.548   4.522   1.106
 3743SOL    HW112128   5.543   4.432   1.148
 3743SOL    HW212129   5.533   4.514   1.008
 3744SOL     OW12130   0.598   5.695   2.841
 3744SOL    HW112131   0.674   5.670   2.782
 3744SOL    HW212132   0.550   5.612   2.871
 3745SOL     OW12133   3.388   5.569   1.959
 3745SOL    HW112134   3.382   5.657   2.006
 3745SOL    HW212135   3.411   5.584   1.863
 3746SOL     OW12136   4.356   1.532   2.437
 3746SOL    HW112137   4.415   1.612   2.423
 3746SOL    HW212138   4.296   1.520   2.357
 3747SOL     OW12139   3.608   0.344   5.894
 3747SOL    HW112140   3.537   0.359   5.825
 3747SOL    HW212141   3.665   0.426   5.900
 3748SOL     OW12142   4.800   0.729   1.883
 3748SOL    HW112143   4.839   0.751   1.794
 3748SOL    HW212144   4.710   0.687   1.871
 3749SOL     OW12145   1.489   6.684   3.956
 3749SOL    HW112146   1.579   6.711   3.989
 3749SOL    HW212147   1.498   6.643   3.865
 3750SOL     OW12148   2.013   4.403   0.271
 3750SOL    HW112149   1.942   4.472   0.286
 3750SOL    HW212150   2.074   4.433   0.199
 3751SOL     OW12151   6.445   3.652   2.264
 3751SOL    HW112152   6.454   3.730   2.202
 3751SOL    HW212153   6.349   3.624   2.269
 3752SOL     OW12154   5.058   0.629   5.680
 3752SOL    HW112155   5.074   0.635   5.778
 3752SOL    HW212156   5.127   0.681   5.631
 3753SOL     OW12157   6.558   7.008   4.805
 3753SOL    HW112158   6.540   6.982   4.710
 3753SOL    HW212159   6.507   6.949   4.866
 3754SOL     OW12160   2.450   0.747   2.092
 3754SOL    HW112161   2.470   0.826   2.033
 3754SOL    HW212162   2.377   0.693   2.050
 3755SOL     OW12163   3.492   5.631   4.841
 3755SOL    HW112164   3.487   5.725   4.805
 3755SOL    HW212165   3.587   5.603   4.846
 3756SOL     OW12166   3.185   5.568   6.365
 3756SOL    HW112167   3.144   5.481   6.394
 3756SOL    HW212168   3.260   5.591   6.427
 3757SOL     OW12169   6.365   5.392   1.866
 3757SOL    HW112170   6.356   5.296   1.839
 3757SOL    HW212171   6.430   5.399   1.942
 3758SOL     OW12172   1.713   1.085   4.897
 3758SOL    HW112173   1.768   1.047   4.971
 3758SOL    HW212174   1.748   1.176   4.873
 3759SOL     OW12175   4.524   0.895   5.060
 3759SOL    HW112176   4.589   0.824   5.087
 3759SOL    HW212177   4.513   0.960   5.135
 3760SOL     OW12178   0.375   0.636   3.317
 3760SOL    HW112179   0.388   0.699   3.394
 3760SOL    HW212180   0.278   0.633   3.293
 3761SOL     OW12181   6.809   1.191   4.591
 3761SOL    HW112182   6.745   1.239   4.651
 3761SOL    HW212183   6.896   1.240   4.587
 3762SOL     OW12184   1.628   4.185   2.174
 3762SOL    HW112185   1.619   4.189   2.075
 3762SOL    HW212186   1.539   4.200   2.217
 3763SOL     OW12187   6.270   3.744   0.587
 3763SOL    HW112188   6.262   3.837   0.551
 3763SOL    HW212189   6.366   3.724   0.607
 3764SOL     OW12190   2.001   0.347   2.693
 3764SOL    HW112191   2.076   0.361   2.758
 3764SOL    HW212192   1.933   0.285   2.734
 3765SOL     OW12193   6.087   1.790   1.273
 3765SOL    HW112194   6.053   1.697   1.256
 3765SOL    HW212195   6.133   1.793   1.362
 3766SOL     OW12196   1.973   2.043   4.685
 3766SOL    HW112197   2.064   2.014   4.656
 3766SOL    HW212198   1.971   2.142   4.696
 3767SOL     OW12199   3.383   4.286   6.332
 3767SOL    HW112200   3.370   4.191   6.360
 3767SOL    HW212201   3.295   4.334   6.335
 3768SOL     OW12202   0.946   0.835   4.560
 3768SOL    HW112203   0.876   0.783   4.610
 3768SOL    HW212204   1.000   0.889   4.625
 3769SOL     OW12205   5.641   5.943   5.236
 3769SOL    HW112206   5.587   6.025   5.216
 3769SOL    HW212207   5.630   5.878   5.161
 3770SOL     OW12208   1.250   0.964   6.795
 3770SOL    HW112209   1.262   1.052   6.841
 3770SOL    HW212210   1.266   0.976   6.697
 3771SOL     OW12211   5.790   4.466   6.615
 3771SOL    HW112212   5.696   4.491   6.591
 3771SOL    HW212213   5.854   4.524   6.565
 3772SOL     OW12214   0.725   6.823   0.613
 3772SOL    HW112215   0.763   6.748   0.667
 3772SOL    HW212216   0.769   6.909   0.639
 3773SOL     OW12217   6.129   3.543   5.547
 3773SOL    HW112218   6.184   3.496   5.478
 3773SOL    HW212219   6.095   3.477   5.613
 3774SOL     OW12220   5.668   5.118   1.654
 3774SOL    HW112221   5.764   5.096   1.674
 3774SOL    HW212222   5.610   5.041   1.679
 3775SOL     OW12223   3.769   4.996   3.807
 3775SOL    HW112224   3.733   4.969   3.718
 3775SOL    HW212225   3.788   5.094   3.807
 3776SOL     OW12226   3.620   2.988   6.266
 3776SOL    HW112227   3.632   2.898   6.226
 3776SOL    HW212228   3.671   3.056   6.212
 3777SOL     OW12229   2.482   5.914   3.722
 3777SOL    HW112230   2.444   5.856   3.650
 3777SOL    HW212231   2.578   5.888   3.738
 3778SOL     OW12232   1.988   6.250   3.387
 3778SOL    HW112233   1.958   6.267   3.481
 3778SOL    HW212234   2.078   6.207   3.389
 3779SOL     OW12235   0.317   4.802   0.941
 3779SOL    HW112236   0.274   4.712   0.948
 3779SOL    HW212237   0.282   4.850   0.862
 3780SOL     OW12238   0.201   2.963   3.760
 3780SOL    HW112239   0.273   2.944   3.827
 3780SOL    HW212240   0.214   3.054   3.722
 3781SOL     OW12241   0.779   6.891   4.414
 3781SOL    HW112242   0.714   6.815   4.419
 3781SOL    HW212243   0.866   6.859   4.377
 3782SOL     OW12244   3.712   6.405   2.363
 3782SOL    HW112245   3.779   6.479   2.354
 3782SOL    HW212246   3.684   6.398   2.459
 3783SOL     OW12247   6.273   5.293   4.712
 3783SOL    HW112248   6.303   5.284   4.807
 3783SOL    HW212249   6.352   5.302   4.652
 3784SOL     OW12250   5.596   2.481   2.439
 3784SOL    HW112251   5.538   2.465   2.518
 3784SOL    HW212252   5.631   2.575   2.440
 3785SOL     OW12253   0.653   3.190   5.269
 3785SOL    HW112254   0.748   3.215   5.250
 3785SOL    HW212255   0.617   3.248   5.342
 3786SOL     OW12256   2.129   3.299   2.856
 3786SOL    HW112257   2.124   3.394   2.823
 3786SOL    HW212258   2.114   3.298   2.955
 3787SOL     OW12259   5.386   0.179   2.946
 3787SOL    HW112260   5.330   0.236   2.885
 3787SOL    HW212261   5.404   0.230   3.031
 3788SOL     OW12262   5.927   4.807   4.965
 3788SOL    HW112263   6.014   4.759   4.957
 3788SOL    HW212264   5.928   4.865   5.047
 3789SOL     OW12265   6.958   3.592   2.642
 3789SOL    HW112266   6.945   3.618   2.546
 3789SOL    HW212267   6.962   3.492   2.649
 3790SOL     OW12268   1.401   5.505   6.445
 3790SOL    HW112269   1.372   5.471   6.355
 3790SOL    HW212270   1.326   5.492   6.510
 3791SOL     OW12271   5.162   2.052   6.951
 3791SOL    HW112272   5.146   1.987   6.877
 3791SOL    HW212273   5.081   2.057   7.009
 3792SOL     OW12274   1.240   1.519   4.408
 3792SOL    HW112275   1.153   1.530   4.361
 3792SOL    HW212276   1.293   1.603   4.402
 3793SOL     OW12277   5.701   6.721   1.626
 3793SOL    HW112278   5.622   6.706   1.684
 3793SOL    HW212279   5.777   6.755   1.682
 3794SOL     OW12280   2.094   3.171   1.775
 3794SOL    HW112281   2.093   3.144   1.871
 3794SOL    HW212282   2.077   3.270   1.768
 3795SOL     OW12283   3.031   5.441   1.147
 3795SOL    HW112284   2.984   5.519   1.106
 3795SOL    HW212285   2.964   5.384   1.195
 3796SOL     OW12286   4.130   1.988   1.044
 3796SOL    HW112287   4.191   1.958   1.117
 3796SOL    HW212288   4.184   2.025   0.968
 3797SOL     OW12289   0.786   4.079   3.374
 3797SOL    HW112290   0.866   4.125   3.334
 3797SOL    HW212291   0.722   4.054   3.301
 3798SOL     OW12292   3.085   6.323   2.258
 3798SOL    HW112293   3.061   6.390   2.329
 3798SOL    HW212294   3.051   6.233   2.285
 3799SOL     OW12295   6.946   2.355   3.786
 3799SOL    HW112296   7.028   2.302   3.764
 3799SOL    HW212297   6.884   2.354   3.708
 3800SOL     OW12298   5.248   2.147   3.864
 3800SOL    HW112299   5.218   2.120   3.956
 3800SOL    HW212300   5.261   2.247   3.862
 3801SOL     OW12301   5.291   0.086   1.698
 3801SOL    HW112302   5.266   0.082   1.602
 3801SOL    HW212303   5.233   0.024   1.751
 3802SOL     OW12304   6.925   1.581   2.562
 3802SOL    HW112305   6.932   1.515   2.487
 3802SOL    HW212306   6.966   1.668   2.534
 3803SOL     OW12307   4.139   3.592   3.822
 3803SOL    HW112308   4.081   3.554   3.894
 3803SOL    HW212309   4.206   3.654   3.862
 3804SOL     OW12310   3.291   1.839   4.296
 3804SOL    HW112311   3.377   1.789   4.285
 3804SOL    HW212312   3.307   1.937   4.286
 3805SOL     OW12313   1.780   2.539   1.700
 3805SOL    HW112314   1.764   2.636   1.677
 3805SOL    HW212315   1.878   2.521   1.699
 3806SOL     OW12316   3.737   3.624   6.465
 3806SOL    HW112317   3.790   3.690   6.412
 3806SOL    HW212318   3.662   3.672   6.512
 3807SOL     OW12319   1.798   4.213   3.929
 3807SOL    HW112320   1.860   4.273   3.980
 3807SOL    HW212321   1.851   4.155   3.868
 3808SOL     OW12322   4.644   0.624   6.407
 3808SOL    HW112323   4.713   0.692   6.381
 3808SOL    HW212324   4.555   0.653   6.370
 3809SOL     OW12325   5.783   2.182   2.184
 3809SOL    HW112326   5.833   2.218   2.105
 3809SOL    HW212327   5.704   2.240   2.202
 3810SOL     OW12328   0.163   2.528   3.377
 3810SOL    HW112329   0.204   2.612   3.342
 3810SOL    HW212330   0.129   2.543   3.470
 3811SOL     OW12331   0.094   5.871   4.062
 3811SOL    HW112332   0.100   5.941   4.133
 3811SOL    HW212333   0.007   5.822   4.071
 3812SOL     OW12334   3.095   4.912   5.898
 3812SOL    HW112335   3.084   4.934   5.801
 3812SOL    HW212336   3.045   4.827   5.918
 3813SOL     OW12337   5.796   4.123   1.230
 3813SOL    HW112338   5.780   4.068   1.149
 3813SOL    HW212339   5.714   4.177   1.251
 3814SOL     OW12340   0.359   0.274   3.862
 3814SOL    HW112341   0.390   0.363   3.828
 3814SOL    HW212342   0.312   0.225   3.789
 3815SOL     OW12343   4.326   2.466   0.923
 3815SOL    HW112344   4.258   2.406   0.965
 3815SOL    HW212345   4.397   2.489   0.990
 3816SOL     OW12346   0.953   5.627   5.245
 3816SOL    HW112347   1.024   5.557   5.250
 3816SOL    HW212348   0.870   5.595   5.290
 3817SOL     OW12349   4.964   3.351   1.918
 3817SOL    HW112350   4.961   3.254   1.895
 3817SOL    HW212351   4.882   3.396   1.884
 3818SOL     OW12352   6.957   0.671   0.890
 3818SOL    HW112353   7.006   0.585   0.873
 3818SOL    HW212354   6.928   0.710   0.802
 3819SOL     OW12355   6.256   4.443   2.633
 3819SOL    HW112356   6.176   4.386   2.610
 3819SOL    HW212357   6.331   4.420   2.572
 3820SOL     OW12358   6.349   6.326   3.485
 3820SOL    HW112359   6.333   6.232   3.454
 3820SOL    HW212360   6.262   6.367   3.513
 3821SOL     OW12361   0.976   1.331   1.622
 3821SOL    HW112362   0.952   1.396   1.550
 3821SOL    HW212363   1.058   1.364   1.670
 3822SOL     OW12364   2.317   6.915   6.231
 3822SOL    HW112365   2.293   6.836   6.174
 3822SOL    HW212366   2.381   6.887   6.302
 3823SOL     OW12367   4.353   4.108   6.548
 3823SOL    HW112368   4.393   4.032   6.496
 3823SOL    HW212369   4.254   4.092   6.557
 3824SOL     OW12370   0.453   2.333   0.896
 3824SOL    HW112371   0.436   2.303   0.802
 3824SOL    HW212372   0.411   2.268   0.959
 3825SOL     OW12373   0.751   3.792   0.824
 3825SOL    HW112374   0.746   3.742   0.737
 3825SOL    HW212375   0.717   3.734   0.898
 3826SOL     OW12376   0.222   3.347   1.611
 3826SOL    HW112377   0.160   3.269   1.624
 3826SOL    HW212378   0.316   3.314   1.610
 3827SOL     OW12379   0.965   0.220   1.479
 3827SOL    HW112380   0.982   0.298   1.420
 3827SOL    HW212381   0.937   0.142   1.423
 3828SOL     OW12382   3.745   3.551   4.581
 3828SOL    HW112383   3.762   3.618   4.509
 3828SOL    HW212384   3.833   3.522   4.620
 3829SOL     OW12385   0.734   5.138   1.960
 3829SOL    HW112386   0.652   5.086   1.982
 3829SOL    HW212387   0.726   5.177   1.868
 3830SOL     OW12388   0.484   1.182   5.720
 3830SOL    HW112389   0.407   1.147   5.668
 3830SOL    HW212390   0.537   1.106   5.757
 3831SOL     OW12391   4.532   2.373   2.663
 3831SOL    HW112392   4.514   2.368   2.761
 3831SOL    HW212393   4.449   2.350   2.612
 3832SOL     OW12394   6.814   0.616   2.692
 3832SOL    HW112395   6.801   0.662   2.779
 3832SOL    HW212396   6.826   0.684   2.619
 3833SOL     OW12397   0.883   6.385   6.564
 3833SOL    HW112398   0.914   6.400   6.658
 3833SOL    HW212399   0.785   6.365   6.564
 3834SOL     OW12400   3.825   4.459   1.154
 3834SOL    HW112401   3.853   4.539   1.101
 3834SOL    HW212402   3.786   4.390   1.093
 3835SOL     OW12403   3.957   6.087   5.416
 3835SOL    HW112404   4.044   6.043   5.394
 3835SOL    HW212405   3.963   6.185   5.396
 3836SOL     OW12406   0.080   5.070   5.839
 3836SOL    HW112407   0.034   4.996   5.889
 3836SOL    HW212408   0.031   5.156   5.855
 3837SOL     OW12409   4.579   5.279   5.645
 3837SOL    HW112410   4.574   5.341   5.567
 3837SOL    HW212411   4.490   5.237   5.660
 3838SOL     OW12412   1.082   2.451   3.494
 3838SOL    HW112413   1.174   2.416   3.476
 3838SOL    HW212414   1.059   2.437   3.590
 3839SOL     OW12415   4.895   1.351   2.681
 3839SOL    HW112416   4.824   1.421   2.681
 3839SOL    HW212417   4.938   1.346   2.591
 3840SOL     OW12418   3.363   2.029   6.773
 3840SOL    HW112419   3.394   1.941   6.736
 3840SOL    HW212420   3.370   2.099   6.702
 3841SOL     OW12421   1.227   3.808   4.344
 3841SOL    HW112422   1.166   3.849   4.276
 3841SOL    HW212423   1.296   3.752   4.297
 3842SOL     OW12424   2.739   2.403   3.586
 3842SOL    HW112425   2.693   2.486   3.553
 3842SOL    HW212426   2.706   2.380   3.677
 3843SOL     OW12427   5.303   3.084   2.173
 3843SOL    HW112428   5.389   3.036   2.190
 3843SOL    HW212429   5.269   3.060   2.082
 3844SOL     OW12430   1.423   3.473   6.496
 3844SOL    HW112431   1.395   3.402   6.431
 3844SOL    HW212432   1.515   3.505   6.473
 3845SOL     OW12433   2.429   5.547   5.896
 3845SOL    HW112434   2.507   5.493   5.864
 3845SOL    HW212435   2.429   5.550   5.996
 3846SOL     OW12436   1.090   4.010   3.739
 3846SOL    HW112437   1.118   4.063   3.819
 3846SOL    HW212438   1.051   3.923   3.770
 3847SOL     OW12439   5.180   3.073   4.244
 3847SOL    HW112440   5.187   2.993   4.304
 3847SOL    HW212441   5.122   3.142   4.287
 3848SOL     OW12442   4.967   3.746   2.499
 3848SOL    HW112443   5.014   3.724   2.584
 3848SOL    HW212444   5.009   3.696   2.424
 3849SOL     OW12445   1.575   0.927   6.149
 3849SOL    HW112446   1.536   1.000   6.093
 3849SOL    HW212447   1.534   0.929   6.240
 3850SOL     OW12448   2.881   3.074   1.780
 3850SOL    HW112449   2.784   3.058   1.760
 3850SOL    HW212450   2.918   2.995   1.829
 3851SOL     OW12451   6.887   4.693   3.410
 3851SOL    HW112452   6.845   4.783   3.423
 3851SOL    HW212453   6.977   4.691   3.454
 3852SOL     OW12454   3.672   5.917   3.556
 3852SOL    HW112455   3.707   5.928   3.463
 3852SOL    HW212456   3.735   5.960   3.621
 3853SOL     OW12457   1.183   3.049   3.377
 3853SOL    HW112458   1.183   3.117   3.451
 3853SOL    HW212459   1.136   2.967   3.407
 3854SOL     OW12460   1.158   2.440   2.763
 3854SOL    HW112461   1.125   2.431   2.669
 3854SOL    HW212462   1.184   2.350   2.798
 3855SOL     OW12463   4.383   6.182   6.750
 3855SOL    HW112464   4.323   6.112   6.712
 3855SOL    HW212465   4.330   6.244   6.807
 3856SOL     OW12466   0.435   0.478   6.068
 3856SOL    HW112467   0.364   0.423   6.112
 3856SOL    HW212468   0.425   0.472   5.969
 3857SOL     OW12469   0.689   6.017   6.700
 3857SOL    HW112470   0.787   6.036   6.710
 3857SOL    HW212471   0.637   6.102   6.705
 3858SOL     OW12472   3.399   1.339   5.984
 3858SOL    HW112473   3.307   1.361   5.952
 3858SOL    HW212474   3.394   1.311   6.080
 3859SOL     OW12475   6.639   1.201   1.735
 3859SOL    HW112476   6.664   1.274   1.672
 3859SOL    HW212477   6.714   1.185   1.800
 3860SOL     OW12478   1.743   1.470   4.500
 3860SOL    HW112479   1.699   1.534   4.562
 3860SOL    HW212480   1.676   1.437   4.433
 3861SOL     OW12481   4.470   5.106   3.806
 3861SOL    HW112482   4.382   5.060   3.792
 3861SOL    HW212483   4.543   5.038   3.803
 3862SOL     OW12484   0.401   1.137   4.643
 3862SOL    HW112485   0.451   1.145   4.729
 3862SOL    HW212486   0.461   1.103   4.572
 3863SOL     OW12487   6.042   2.051   6.988
 3863SOL    HW112488   6.016   2.079   0.050
 3863SOL    HW212489   5.975   1.985   6.953
 3864SOL     OW12490   1.855   0.412   5.804
 3864SOL    HW112491   1.951   0.391   5.824
 3864SOL    HW212492   1.801   0.328   5.805
 3865SOL     OW12493   4.145   1.027   1.144
 3865SOL    HW112494   4.166   1.092   1.217
 3865SOL    HW212495   4.104   0.945   1.183
 3866SOL     OW12496   3.950   0.612   0.545
 3866SOL    HW112497   3.930   0.670   0.625
 3866SOL    HW212498   3.990   0.526   0.576
 3867SOL     OW12499   0.611   5.244   3.247
 3867SOL    HW112500   0.634   5.309   3.320
 3867SOL    HW212501   0.657   5.272   3.163
 3868SOL     OW12502   3.093   0.620   0.314
 3868SOL    HW112503   3.181   0.584   0.285
 3868SOL    HW212504   3.075   0.592   0.409
 3869SOL     OW12505   6.223   2.759   4.655
 3869SOL    HW112506   6.315   2.793   4.675
 3869SOL    HW212507   6.195   2.696   4.727
 3870SOL     OW12508   6.843   6.797   0.728
 3870SOL    HW112509   6.796   6.865   0.672
 3870SOL    HW212510   6.941   6.801   0.710
 3871SOL     OW12511   3.832   0.861   3.449
 3871SOL    HW112512   3.795   0.906   3.368
 3871SOL    HW212513   3.874   0.929   3.508
 3872SOL     OW12514   3.078   3.167   4.444
 3872SOL    HW112515   3.143   3.096   4.472
 3872SOL    HW212516   3.001   3.168   4.507
 3873SOL     OW12517   5.935   4.360   1.156
 3873SOL    HW112518   5.968   4.385   1.247
 3873SOL    HW212519   5.863   4.291   1.165
 3874SOL     OW12520   4.330   5.859   0.531
 3874SOL    HW112521   4.342   5.954   0.501
 3874SOL    HW212522   4.389   5.841   0.610
 3875SOL     OW12523   2.162   3.111   2.638
 3875SOL    HW112524   2.181   3.164   2.720
 3875SOL    HW212525   2.072   3.068   2.646
 3876SOL     OW12526   3.683   5.203   1.129
 3876SOL    HW112527   3.589   5.175   1.144
 3876SOL    HW212528   3.685   5.297   1.094
 3877SOL     OW12529   5.875   2.471   1.535
 3877SOL    HW112530   5.820   2.448   1.455
 3877SOL    HW212531   5.857   2.566   1.562
 3878SOL     OW12532   4.044   6.526   5.035
 3878SOL    HW112533   4.105   6.560   4.963
 3878SOL    HW212534   4.018   6.432   5.014
 3879SOL     OW12535   5.799   5.211   0.883
 3879SOL    HW112536   5.750   5.136   0.928
 3879SOL    HW212537   5.828   5.182   0.792
 3880SOL     OW12538   5.275   4.431   4.375
 3880SOL    HW112539   5.311   4.520   4.403
 3880SOL    HW212540   5.183   4.444   4.338
 3881SOL     OW12541   1.342   3.107   1.799
 3881SOL    HW112542   1.258   3.119   1.745
 3881SOL    HW212543   1.340   3.169   1.877
 3882SOL     OW12544   1.081   1.884   6.053
 3882SOL    HW112545   1.181   1.888   6.061
 3882SOL    HW212546   1.056   1.803   6.000
 3883SOL     OW12547   4.168   1.058   2.437
 3883SOL    HW112548   4.097   1.127   2.452
 3883SOL    HW212549   4.248   1.078   2.493
 3884SOL     OW12550   1.360   5.806   2.359
 3884SOL    HW112551   1.269   5.768   2.343
 3884SOL    HW212552   1.355   5.876   2.430
 3885SOL     OW12553   5.914   5.783   2.412
 3885SOL    HW112554   5.988   5.850   2.409
 3885SOL    HW212555   5.952   5.691   2.396
 3886SOL     OW12556   5.450   5.411   5.031
 3886SOL    HW112557   5.490   5.322   5.012
 3886SOL    HW212558   5.354   5.401   5.057
 3887SOL     OW12559   0.839   0.507   0.140
 3887SOL    HW112560   0.836   0.428   0.077
 3887SOL    HW212561   0.894   0.579   0.099
 3888SOL     OW12562   6.896   0.765   4.593
 3888SOL    HW112563   6.914   0.845   4.537
 3888SOL    HW212564   6.936   0.684   4.549
 3889SOL     OW12565   0.246   4.191   0.117
 3889SOL    HW112566   0.171   4.126   0.105
 3889SOL    HW212567   0.316   4.151   0.177
 3890SOL     OW12568   6.528   4.854   3.415
 3890SOL    HW112569   6.591   4.906   3.473
 3890SOL    HW212570   6.557   4.759   3.411
 3891SOL     OW12571   5.256   3.881   4.022
 3891SOL    HW112572   5.281   3.975   4.043
 3891SOL    HW212573   5.217   3.876   3.930
 3892SOL     OW12574   0.489   1.906   1.220
 3892SOL    HW112575   0.435   1.858   1.290
 3892SOL    HW212576   0.584   1.912   1.250
 3893SOL     OW12577   4.335   4.006   0.430
 3893SOL    HW112578   4.359   4.102   0.440
 3893SOL    HW212579   4.414   3.956   0.394
 3894SOL     OW12580   4.559   0.869   0.885
 3894SOL    HW112581   4.465   0.835   0.888
 3894SOL    HW212582   4.611   0.816   0.818
 3895SOL     OW12583   1.554   0.917   5.141
 3895SOL    HW112584   1.559   0.926   5.042
 3895SOL    HW212585   1.601   0.834   5.170
 3896SOL     OW12586   0.516   1.297   5.461
 3896SOL    HW112587   0.433   1.291   5.405
 3896SOL    HW212588   0.496   1.262   5.552
 3897SOL     OW12589   3.667   5.497   2.601
 3897SOL    HW112590   3.627   5.529   2.514
 3897SOL    HW212591   3.618   5.539   2.677
 3898SOL     OW12592   2.698   3.625   5.656
 3898SOL    HW112593   2.665   3.549   5.712
 3898SOL    HW212594   2.792   3.647   5.680
 3899SOL     OW12595   4.887   6.732   5.267
 3899SOL    HW112596   4.836   6.717   5.182
 3899SOL    HW212597   4.829   6.777   5.334
 3900SOL     OW12598   5.226   2.685   3.742
 3900SOL    HW112599   5.326   2.684   3.743
 3900SOL    HW212600   5.191   2.661   3.832
 3901SOL     OW12601   2.507   0.312   5.268
 3901SOL    HW112602   2.603   0.298   5.244
 3901SOL    HW212603   2.479   0.404   5.243
 3902SOL     OW12604   5.662   3.510   1.776
 3902SOL    HW112605   5.578   3.471   1.812
 3902SOL    HW212606   5.740   3.455   1.806
 3903SOL     OW12607   3.646   5.891   6.226
 3903SOL    HW112608   3.674   5.915   6.133
 3903SOL    HW212609   3.555   5.929   6.243
 3904SOL     OW12610   2.951   1.492   5.459
 3904SOL    HW112611   2.932   1.515   5.555
 3904SOL    HW212612   2.972   1.575   5.409
 3905SOL     OW12613   0.456   6.926   6.418
 3905SOL    HW112614   0.370   6.954   6.376
 3905SOL    HW212615   0.503   7.007   6.454
 3906SOL     OW12616   5.056   5.244   6.107
 3906SOL    HW112617   5.049   5.333   6.153
 3906SOL    HW212618   4.987   5.239   6.036
 3907SOL     OW12619   6.162   0.524   4.303
 3907SOL    HW112620   6.212   0.446   4.266
 3907SOL    HW212621   6.100   0.561   4.233
 3908SOL     OW12622   1.707   2.271   0.503
 3908SOL    HW112623   1.696   2.233   0.595
 3908SOL    HW212624   1.795   2.242   0.465
 3909SOL     OW12625   0.033   5.461   5.217
 3909SOL    HW112626   0.001   5.468   5.122
 3909SOL    HW212627   0.086   5.378   5.228
 3910SOL     OW12628   3.026   3.277   1.898
 3910SOL    HW112629   2.966   3.201   1.873
 3910SOL    HW212630   3.096   3.245   1.961
 3911SOL     OW12631   5.128   1.323   6.680
 3911SOL    HW112632   5.098   1.299   6.587
 3911SOL    HW212633   5.052   1.366   6.729
 3912SOL     OW12634   4.181   0.637   5.564
 3912SOL    HW112635   4.243   0.607   5.491
 3912SOL    HW212636   4.154   0.732   5.548
 3913SOL     OW12637   1.698   0.112   6.119
 3913SOL    HW112638   1.661   0.108   6.211
 3913SOL    HW212639   1.736   0.023   6.093
 3914SOL     OW12640   3.460   1.167   0.958
 3914SOL    HW112641   3.558   1.157   0.972
 3914SOL    HW212642   3.440   1.261   0.930
 3915SOL     OW12643   3.560   5.000   2.311
 3915SOL    HW112644   3.573   5.094   2.278
 3915SOL    HW212645   3.641   4.946   2.289
 3916SOL     OW12646   1.900   6.258   3.641
 3916SOL    HW112647   1.948   6.331   3.690
 3916SOL    HW212648   1.815   6.237   3.689
 3917SOL     OW12649   6.655   5.476   0.480
 3917SOL    HW112650   6.585   5.521   0.425
 3917SOL    HW212651   6.732   5.539   0.493
 3918SOL     OW12652   5.005   6.493   1.714
 3918SOL    HW112653   4.937   6.552   1.758
 3918SOL    HW212654   4.970   6.464   1.625
 3919SOL     OW12655   2.212   6.676   6.478
 3919SOL    HW112656   2.136   6.741   6.468
 3919SOL    HW212657   2.227   6.628   6.392
 3920SOL     OW12658   3.159   2.893   0.789
 3920SOL    HW112659   3.167   2.967   0.722
 3920SOL    HW212660   3.237   2.831   0.779
 3921SOL     OW12661   6.993   3.205   1.541
 3921SOL    HW112662   6.919   3.249   1.490
 3921SOL    HW212663   0.014   3.144   1.480
 3922SOL     OW12664   5.716   4.122   1.934
 3922SOL    HW112665   5.662   4.046   1.899
 3922SOL    HW212666   5.746   4.101   2.027
 3923SOL     OW12667   0.128   2.127   6.565
 3923SOL    HW112668   0.165   2.179   6.488
 3923SOL    HW212669   0.123   2.186   6.645
 3924SOL     OW12670   0.356   5.141   3.328
 3924SOL    HW112671   0.371   5.044   3.345
 3924SOL    HW212672   0.435   5.180   3.282
 3925SOL     OW12673   3.173   5.116   0.340
 3925SOL    HW112674   3.237   5.098   0.264
 3925SOL    HW212675   3.187   5.048   0.412
 3926SOL     OW12676   6.748   6.130   3.116
 3926SOL    HW112677   6.699   6.200   3.169
 3926SOL    HW212678   6.824   6.095   3.170
 3927SOL     OW12679   6.611   2.869   3.281
 3927SOL    HW112680   6.583   2.794   3.221
 3927SOL    HW212681   6.696   2.910   3.246
 3928SOL     OW12682   3.317   6.259   5.615
 3928SOL    HW112683   3.234   6.238   5.667
 3928SOL    HW212684   3.397   6.244   5.673
 3929SOL     OW12685   6.683   1.453   5.777
 3929SOL    HW112686   6.761   1.413   5.729
 3929SOL    HW212687   6.603   1.395   5.767
 3930SOL     OW12688   2.208   1.825   3.749
 3930SOL    HW112689   2.227   1.829   3.650
 3930SOL    HW212690   2.288   1.792   3.797
 3931SOL     OW12691   1.622   1.509   1.885
 3931SOL    HW112692   1.536   1.539   1.927
 3931SOL    HW212693   1.679   1.465   1.954
 3932SOL     OW12694   1.453   4.382   2.575
 3932SOL    HW112695   1.421   4.291   2.600
 3932SOL    HW212696   1.553   4.384   2.574
 3933SOL     OW12697   1.641   6.624   0.117
 3933SOL    HW112698   1.680   6.541   0.077
 3933SOL    HW212699   1.556   6.647   0.070
 3934SOL     OW12700   0.034   0.965   0.666
 3934SOL    HW112701   0.042   0.987   0.764
 3934SOL    HW212702   0.124   0.936   0.632
 3935SOL     OW12703   2.748   0.106   6.453
 3935SOL    HW112704   2.815   0.173   6.485
 3935SOL    HW212705   2.656   0.141   6.473
 3936SOL     OW12706   6.572   5.115   5.448
 3936SOL    HW112707   6.666   5.144   5.435
 3936SOL    HW212708   6.570   5.027   5.496
 3937SOL     OW12709   6.752   0.825   2.500
 3937SOL    HW112710   6.736   0.872   2.587
 3937SOL    HW212711   6.825   0.872   2.450
 3938SOL     OW12712   0.513   1.385   3.906
 3938SOL    HW112713   0.524   1.304   3.849
 3938SOL    HW212714   0.513   1.467   3.849
 3939SOL     OW12715   2.760   1.774   2.072
 3939SOL    HW112716   2.796   1.806   1.985
 3939SOL    HW212717   2.660   1.777   2.069
 3940SOL     OW12718   4.380   5.208   2.072
 3940SOL    HW112719   4.403   5.114   2.096
 3940SOL    HW212720   4.410   5.270   2.144
 3941SOL     OW12721   4.924   2.366   6.568
 3941SOL    HW112722   4.900   2.328   6.479
 3941SOL    HW212723   4.889   2.306   6.640
 3942SOL     OW12724   0.178   0.290   6.735
 3942SOL    HW112725   0.249   0.221   6.719
 3942SOL    HW212726   0.168   0.305   6.833
 3943SOL     OW12727   0.531   3.794   2.798
 3943SOL    HW112728   0.497   3.849   2.875
 3943SOL    HW212729   0.583   3.716   2.834
 3944SOL     OW12730   5.302   3.369   4.682
 3944SOL    HW112731   5.346   3.376   4.592
 3944SOL    HW212732   5.220   3.426   4.683
 3945SOL     OW12733   0.841   1.853   1.578
 3945SOL    HW112734   0.885   1.764   1.566
 3945SOL    HW212735   0.910   1.923   1.599
 3946SOL     OW12736   5.582   6.098   6.383
 3946SOL    HW112737   5.677   6.075   6.403
 3946SOL    HW212738   5.529   6.102   6.468
 3947SOL     OW12739   5.980   5.484   0.393
 3947SOL    HW112740   5.980   5.569   0.445
 3947SOL    HW212741   6.070   5.442   0.397
 3948SOL     OW12742   0.868   5.696   1.732
 3948SOL    HW112743   0.888   5.611   1.781
 3948SOL    HW212744   0.863   5.771   1.797
 3949SOL     OW12745   5.742   0.450   2.813
 3949SOL    HW112746   5.700   0.443   2.903
 3949SOL    HW212747   5.678   0.493   2.750
 3950SOL     OW12748   1.849   4.116   1.795
 3950SOL    HW112749   1.907   4.195   1.773
 3950SOL    HW212750   1.776   4.144   1.856
 3951SOL     OW12751   6.323   6.677   0.282
 3951SOL    HW112752   6.255   6.620   0.328
 3951SOL    HW212753   6.371   6.622   0.213
 3952SOL     OW12754   6.190   3.505   2.792
 3952SOL    HW112755   6.145   3.511   2.881
 3952SOL    HW212756   6.254   3.581   2.782
 3953SOL     OW12757   3.939   4.513   1.390
 3953SOL    HW112758   4.038   4.526   1.392
 3953SOL    HW212759   3.910   4.490   1.297
 3954SOL     OW12760   5.167   5.180   4.980
 3954SOL    HW112761   5.178   5.129   5.065
 3954SOL    HW212762   5.114   5.126   4.915
 3955SOL     OW12763   2.724   5.397   6.462
 3955SOL    HW112764   2.746   5.302   6.440
 3955SOL    HW212765   2.728   5.452   6.379
 3956SOL     OW12766   6.969   0.892   3.192
 3956SOL    HW112767   7.021   0.879   3.276
 3956SOL    HW212768   6.873   0.866   3.207
 3957SOL     OW12769   4.679   6.203   3.592
 3957SOL    HW112770   4.639   6.111   3.601
 3957SOL    HW212771   4.746   6.217   3.665
 3958SOL     OW12772   5.721   0.412   5.605
 3958SOL    HW112773   5.679   0.404   5.695
 3958SOL    HW212774   5.731   0.509   5.582
 3959SOL     OW12775   3.988   6.395   1.057
 3959SOL    HW112776   3.918   6.378   0.987
 3959SOL    HW212777   4.078   6.370   1.021
 3960SOL     OW12778   4.454   1.459   6.977
 3960SOL    HW112779   4.376   1.440   0.006
 3960SOL    HW212780   4.506   1.374   6.963
 3961SOL     OW12781   5.265   2.104   2.513
 3961SOL    HW112782   5.354   2.074   2.546
 3961SOL    HW212783   5.215   2.149   2.588
 3962SOL     OW12784   2.568   4.804   0.117
 3962SOL    HW112785   2.632   4.757   0.056
 3962SOL    HW212786   2.492   4.743   0.140
 3963SOL     OW12787   4.595   4.796   3.997
 3963SOL    HW112788   4.677   4.789   4.055
 3963SOL    HW212789   4.524   4.845   4.047
 3964SOL     OW12790   3.830   5.202   3.520
 3964SOL    HW112791   3.842   5.121   3.463
 3964SOL    HW212792   3.739   5.240   3.505
 3965SOL     OW12793   5.023   3.236   6.273
 3965SOL    HW112794   4.933   3.195   6.286
 3965SOL    HW212795   5.013   3.326   6.231
 3966SOL     OW12796   5.284   5.708   0.682
 3966SOL    HW112797   5.235   5.753   0.607
 3966SOL    HW212798   5.223   5.698   0.761
 3967SOL     OW12799   1.728   3.886   2.111
 3967SOL    HW112800   1.804   3.951   2.115
 3967SOL    HW212801   1.668   3.900   2.189
 3968SOL     OW12802   5.175   0.668   1.435
 3968SOL    HW112803   5.214   0.656   1.526
 3968SOL    HW212804   5.204   0.756   1.398
 3969SOL     OW12805   1.573   3.909   2.331
 3969SOL    HW112806   1.563   3.858   2.416
 3969SOL    HW212807   1.562   4.007   2.349
 3970SOL     OW12808   6.153   6.119   4.030
 3970SOL    HW112809   6.098   6.129   3.947
 3970SOL    HW212810   6.181   6.023   4.040
 3971SOL     OW12811   2.455   4.801   1.868
 3971SOL    HW112812   2.422   4.877   1.924
 3971SOL    HW212813   2.410   4.717   1.895
 3972SOL     OW12814   0.933   5.125   0.716
 3972SOL    HW112815   0.917   5.062   0.792
 3972SOL    HW212816   1.024   5.111   0.679
 3973SOL     OW12817   1.074   5.177   6.330
 3973SOL    HW112818   1.061   5.105   6.398
 3973SOL    HW212819   1.160   5.162   6.282
 3974SOL     OW12820   1.786   0.934   4.451
 3974SOL    HW112821   1.722   0.896   4.384
 3974SOL    HW212822   1.869   0.965   4.404
 3975SOL     OW12823   6.030   0.689   4.894
 3975SOL    HW112824   6.047   0.599   4.933
 3975SOL    HW212825   6.076   0.759   4.949
 3976SOL     OW12826   1.329   6.529   1.691
 3976SOL    HW112827   1.282   6.492   1.771
 3976SOL    HW212828   1.322   6.629   1.692
 3977SOL     OW12829   2.646   4.466   5.563
 3977SOL    HW112830   2.550   4.492   5.562
 3977SOL    HW212831   2.703   4.548   5.561
 3978SOL     OW12832   5.543   5.796   5.036
 3978SOL    HW112833   5.454   5.788   5.082
 3978SOL    HW212834   5.561   5.714   4.983
 3979SOL     OW12835   3.134   5.973   0.481
 3979SOL    HW112836   3.084   5.889   0.462
 3979SOL    HW212837   3.113   6.041   0.411
 3980SOL     OW12838   0.278   5.825   0.448
 3980SOL    HW112839   0.342   5.789   0.516
 3980SOL    HW212840   0.199   5.764   0.441
 3981SOL     OW12841   2.134   0.610   0.424
 3981SOL    HW112842   2.231   0.632   0.414
 3981SOL    HW212843   2.089   0.616   0.334
 3982SOL     OW12844   2.067   0.113   4.172
 3982SOL    HW112845   2.004   0.139   4.246
 3982SOL    HW212846   2.095   0.018   4.185
 3983SOL     OW12847   5.286   5.186   4.431
 3983SOL    HW112848   5.254   5.171   4.525
 3983SOL    HW212849   5.290   5.284   4.412
 3984SOL     OW12850   6.617   1.215   2.756
 3984SOL    HW112851   6.668   1.301   2.762
 3984SOL    HW212852   6.611   1.187   2.660
 3985SOL     OW12853   3.511   4.442   6.672
 3985SOL    HW112854   3.604   4.412   6.650
 3985SOL    HW212855   3.476   4.389   6.750
 3986SOL     OW12856   6.255   1.921   3.301
 3986SOL    HW112857   6.249   2.014   3.337
 3986SOL    HW212858   6.169   1.874   3.318
 3987SOL     OW12859   3.075   5.483   3.651
 3987SOL    HW112860   3.028   5.518   3.732
 3987SOL    HW212861   3.130   5.403   3.676
 3988SOL     OW12862   4.472   4.168   0.023
 3988SOL    HW112863   4.446   4.251   7.004
 3988SOL    HW212864   4.572   4.164   0.031
 3989SOL     OW12865   6.730   2.950   6.924
 3989SOL    HW112866   6.750   2.859   6.960
 3989SOL    HW212867   6.716   2.944   6.825
 3990SOL     OW12868   5.061   2.360   3.231
 3990SOL    HW112869   5.135   2.422   3.208
 3990SOL    HW212870   5.037   2.304   3.151
 3991SOL     OW12871   5.805   0.766   2.204
 3991SOL    HW112872   5.706   0.761   2.188
 3991SOL    HW212873   5.822   0.807   2.294
 3992SOL     OW12874   3.842   2.537   6.904
 3992SOL    HW112875   3.775   2.560   6.834
 3992SOL    HW212876   3.929   2.514   6.861
 3993SOL     OW12877   1.199   1.601   2.892
 3993SOL    HW112878   1.261   1.526   2.870
 3993SOL    HW212879   1.211   1.627   2.988
 3994SOL     OW12880   0.858   0.604   5.823
 3994SOL    HW112881   0.778   0.614   5.882
 3994SOL    HW212882   0.941   0.613   5.878
 3995SOL     OW12883   1.942   3.564   5.348
 3995SOL    HW112884   1.880   3.586   5.273
 3995SOL    HW212885   1.918   3.475   5.386
 3996SOL     OW12886   1.140   0.699   3.678
 3996SOL    HW112887   1.227   0.686   3.726
 3996SOL    HW212888   1.112   0.613   3.635
 3997SOL     OW12889   5.069   0.960   3.850
 3997SOL    HW112890   5.139   1.030   3.864
 3997SOL    HW212891   5.012   0.985   3.773
 3998SOL     OW12892   4.055   1.028   4.117
 3998SOL    HW112893   4.047   0.991   4.024
 3998SOL    HW212894   3.966   1.021   4.162
 3999SOL     OW12895   5.911   3.178   3.941
 3999SOL    HW112896   5.938   3.240   4.015
 3999SOL    HW212897   5.814   3.191   3.921
 4000SOL     OW12898   3.343   6.053   2.944
 4000SOL    HW112899   3.388   6.139   2.968
 4000SOL    HW212900   3.399   5.976   2.974
 4001SOL     OW12901   2.530   2.170   4.063
 4001SOL    HW112902   2.436   2.154   4.033
 4001SOL    HW212903   2.577   2.082   4.075
 4002SOL     OW12904   3.069   3.570   0.634
 4002SOL    HW112905   3.169   3.562   0.627
 4002SOL    HW212906   3.026   3.498   0.579
 4003SOL     OW12907   3.208   6.324   3.997
 4003SOL    HW112908   3.268   6.400   4.021
 4003SOL    HW212909   3.209   6.256   4.071
 4004SOL     OW12910   4.974   1.730   4.575
 4004SOL    HW112911   5.036   1.760   4.647
 4004SOL    HW212912   5.020   1.660   4.519
 4005SOL     OW12913   4.680   5.491   0.484
 4005SOL    HW112914   4.598   5.457   0.438
 4005SOL    HW212915   4.691   5.443   0.571
 4006SOL     OW12916   3.637   5.261   2.972
 4006SOL    HW112917   3.693   5.339   2.996
 4006SOL    HW212918   3.557   5.258   3.032
 4007SOL     OW12919   0.540   2.607   0.605
 4007SOL    HW112920   0.501   2.664   0.677
 4007SOL    HW212921   0.468   2.580   0.541
 4008SOL     OW12922   3.114   2.213   3.966
 4008SOL    HW112923   3.112   2.307   3.932
 4008SOL    HW212924   3.208   2.186   3.983
 4009SOL     OW12925   5.696   3.482   1.350
 4009SOL    HW112926   5.660   3.404   1.400
 4009SOL    HW212927   5.711   3.558   1.412
 4010SOL     OW12928   2.752   3.375   1.492
 4010SOL    HW112929   2.687   3.442   1.456
 4010SOL    HW212930   2.704   3.291   1.514
 4011SOL     OW12931   0.380   0.873   2.491
 4011SOL    HW112932   0.392   0.808   2.415
 4011SOL    HW212933   0.291   0.858   2.534
 4012SOL     OW12934   4.541   5.802   1.396
 4012SOL    HW112935   4.576   5.784   1.488
 4012SOL    HW212936   4.615   5.836   1.338
 4013SOL     OW12937   2.583   0.553   5.557
 4013SOL    HW112938   2.665   0.547   5.501
 4013SOL    HW212939   2.502   0.549   5.498
 4014SOL     OW12940   4.538   6.367   2.602
 4014SOL    HW112941   4.479   6.371   2.522
 4014SOL    HW212942   4.620   6.423   2.587
 4015SOL     OW12943   5.197   4.996   6.064
 4015SOL    HW112944   5.284   5.042   6.045
 4015SOL    HW212945   5.130   5.062   6.098
 4016SOL     OW12946   2.379   6.090   6.518
 4016SOL    HW112947   2.364   6.036   6.601
 4016SOL    HW212948   2.317   6.169   6.519
 4017SOL     OW12949   0.505   5.752   0.595
 4017SOL    HW112950   0.492   5.745   0.694
 4017SOL    HW212951   0.565   5.830   0.575
 4018SOL     OW12952   4.774   6.268   3.002
 4018SOL    HW112953   4.712   6.340   3.034
 4018SOL    HW212954   4.744   6.235   2.913
 4019SOL     OW12955   5.718   3.505   2.727
 4019SOL    HW112956   5.738   3.459   2.641
 4019SOL    HW212957   5.803   3.539   2.768
 4020SOL     OW12958   4.638   2.143   5.475
 4020SOL    HW112959   4.654   2.219   5.412
 4020SOL    HW212960   4.708   2.073   5.461
 4021SOL     OW12961   3.636   4.404   6.304
 4021SOL    HW112962   3.699   4.328   6.290
 4021SOL    HW212963   3.548   4.369   6.335
 4022SOL     OW12964   4.238   0.658   6.971
 4022SOL    HW112965   4.301   0.687   0.013
 4022SOL    HW212966   4.172   0.593   7.009
 4023SOL     OW12967   6.250   1.882   4.767
 4023SOL    HW112968   6.174   1.947   4.778
 4023SOL    HW212969   6.281   1.851   4.856
 4024SOL     OW12970   3.744   6.237   3.018
 4024SOL    HW112971   3.646   6.222   3.027
 4024SOL    HW212972   3.790   6.150   2.999
 4025SOL     OW12973   0.847   6.103   4.132
 4025SOL    HW112974   0.874   6.008   4.114
 4025SOL    HW212975   0.747   6.110   4.129
 4026SOL     OW12976   5.918   5.178   4.391
 4026SOL    HW112977   5.927   5.277   4.397
 4026SOL    HW212978   5.860   5.145   4.465
 4027SOL     OW12979   3.651   4.247   1.668
 4027SOL    HW112980   3.749   4.257   1.678
 4027SOL    HW212981   3.608   4.338   1.664
 4028SOL     OW12982   1.204   2.326   3.983
 4028SOL    HW112983   1.254   2.267   3.919
 4028SOL    HW212984   1.110   2.293   3.991
 4029SOL     OW12985   2.137   4.536   6.510
 4029SOL    HW112986   2.200   4.585   6.569
 4029SOL    HW212987   2.185   4.459   6.467
 4030SOL     OW12988   1.446   2.405   6.033
 4030SOL    HW112989   1.415   2.476   5.969
 4030SOL    HW212990   1.439   2.439   6.127
 4031SOL     OW12991   5.221   5.683   3.423
 4031SOL    HW112992   5.310   5.644   3.401
 4031SOL    HW212993   5.174   5.625   3.489
 4032SOL     OW12994   6.432   0.020   3.270
 4032SOL    HW112995   6.447   6.952   3.284
 4032SOL    HW212996   6.502   0.056   3.209
 4033SOL     OW12997   3.410   3.268   3.590
 4033SOL    HW112998   3.343   3.226   3.528
 4033SOL    HW212999   3.443   3.198   3.654
 4034SOL     OW13000   5.526   1.076   5.222
 4034SOL    HW113001   5.440   1.111   5.259
 4034SOL    HW213002   5.590   1.152   5.208
 4035SOL     OW13003   6.817   3.766   1.107
 4035SOL    HW113004   6.876   3.729   1.179
 4035SOL    HW213005   6.731   3.714   1.104
 4036SOL     OW13006   5.719   6.575   2.209
 4036SOL    HW113007   5.627   6.615   2.211
 4036SOL    HW213008   5.712   6.476   2.201
 4037SOL     OW13009   2.159   2.436   0.218
 4037SOL    HW113010   2.206   2.356   0.254
 4037SOL    HW213011   2.109   2.482   0.291
 4038SOL     OW13012   4.786   4.922   2.245
 4038SOL    HW113013   4.872   4.944   2.201
 4038SOL    HW213014   4.720   4.891   2.177
 4039SOL     OW13015   4.961   5.418   0.914
 4039SOL    HW113016   4.971   5.413   1.013
 4039SOL    HW213017   5.052   5.424   0.872
 4040SOL     OW13018   2.917   6.604   0.272
 4040SOL    HW113019   2.838   6.659   0.298
 4040SOL    HW213020   2.980   6.660   0.217
 4041SOL     OW13021   1.674   5.946   2.795
 4041SOL    HW113022   1.580   5.914   2.785
 4041SOL    HW213023   1.677   6.046   2.785
 4042SOL     OW13024   6.269   4.743   2.569
 4042SOL    HW113025   6.269   4.643   2.569
 4042SOL    HW213026   6.356   4.776   2.531
 4043SOL     OW13027   5.563   1.967   3.694
 4043SOL    HW113028   5.520   2.016   3.619
 4043SOL    HW213029   5.546   2.016   3.780
 4044SOL     OW13030   6.387   0.316   4.661
 4044SOL    HW113031   6.321   0.241   4.650
 4044SOL    HW213032   6.397   0.338   4.757
 4045SOL     OW13033   2.636   4.549   6.006
 4045SOL    HW113034   2.540   4.523   6.015
 4045SOL    HW213035   2.649   4.600   5.921
 4046SOL     OW13036   0.837   1.576   2.956
 4046SOL    HW113037   0.891   1.593   2.874
 4046SOL    HW213038   0.740   1.568   2.931
 4047SOL     OW13039   2.596   3.955   0.657
 4047SOL    HW113040   2.694   3.955   0.679
 4047SOL    HW213041   2.543   3.977   0.739
 4048SOL     OW13042   5.571   0.749   1.535
 4048SOL    HW113043   5.536   0.655   1.535
 4048SOL    HW213044   5.514   0.805   1.596
 4049SOL     OW13045   6.618   6.359   6.851
 4049SOL    HW113046   6.602   6.282   6.790
 4049SOL    HW213047   6.703   6.406   6.825
 4050SOL     OW13048   1.704   6.477   6.755
 4050SOL    HW113049   1.791   6.521   6.733
 4050SOL    HW213050   1.694   6.395   6.698
 4051SOL     OW13051   2.660   4.058   0.029
 4051SOL    HW113052   2.701   4.042   0.119
 4051SOL    HW213053   2.561   4.047   0.036
 4052SOL     OW13054   1.472   0.054   1.281
 4052SOL    HW113055   1.445   0.131   1.223
 4052SOL    HW213056   1.407   0.044   1.356
 4053SOL     OW13057   2.999   4.910   3.901
 4053SOL    HW113058   3.071   4.950   3.843
 4053SOL    HW213059   2.911   4.952   3.878
 4054SOL     OW13060   2.798   2.952   0.708
 4054SOL    HW113061   2.716   2.958   0.764
 4054SOL    HW213062   2.871   2.909   0.762
 4055SOL     OW13063   2.600   3.119   6.046
 4055SOL    HW113064   2.578   3.188   6.116
 4055SOL    HW213065   2.699   3.108   6.041
 4056SOL     OW13066   4.292   2.935   6.901
 4056SOL    HW113067   4.278   2.992   6.982
 4056SOL    HW213068   4.277   2.989   6.818
 4057SOL     OW13069   5.514   3.526   0.961
 4057SOL    HW113070   5.604   3.493   0.990
 4057SOL    HW213071   5.526   3.607   0.902
 4058SOL     OW13072   2.363   1.240   4.430
 4058SOL    HW113073   2.336   1.167   4.366
 4058SOL    HW213074   2.292   1.311   4.430
 4059SOL     OW13075   1.985   1.691   3.494
 4059SOL    HW113076   1.955   1.671   3.587
 4059SOL    HW213077   2.055   1.763   3.496
 4060SOL     OW13078   3.723   5.260   4.563
 4060SOL    HW113079   3.634   5.277   4.606
 4060SOL    HW213080   3.713   5.188   4.494
 4061SOL     OW13081   3.287   4.622   1.719
 4061SOL    HW113082   3.283   4.522   1.710
 4061SOL    HW213083   3.369   4.647   1.771
 4062SOL     OW13084   4.666   1.406   3.018
 4062SOL    HW113085   4.598   1.377   2.951
 4062SOL    HW213086   4.755   1.416   2.974
 4063SOL     OW13087   4.299   6.380   6.277
 4063SOL    HW113088   4.224   6.411   6.218
 4063SOL    HW213089   4.381   6.435   6.258
 4064SOL     OW13090   2.259   6.991   2.502
 4064SOL    HW113091   2.208   0.033   2.457
 4064SOL    HW213092   2.208   6.958   2.582
 4065SOL     OW13093   0.342   0.117   0.789
 4065SOL    HW113094   0.265   0.166   0.832
 4065SOL    HW213095   0.425   0.133   0.843
 4066SOL     OW13096   5.558   4.621   1.847
 4066SOL    HW113097   5.601   4.620   1.937
 4066SOL    HW213098   5.461   4.598   1.857
 4067SOL     OW13099   5.071   1.629   3.443
 4067SOL    HW113100   5.058   1.726   3.422
 4067SOL    HW213101   5.082   1.578   3.358
 4068SOL     OW13102   4.488   0.581   5.115
 4068SOL    HW113103   4.575   0.625   5.136
 4068SOL    HW213104   4.496   0.482   5.128
 4069SOL     OW13105   4.416   4.322   0.737
 4069SOL    HW113106   4.410   4.405   0.682
 4069SOL    HW213107   4.488   4.262   0.701
 4070SOL     OW13108   1.736   3.241   2.579
 4070SOL    HW113109   1.814   3.274   2.526
 4070SOL    HW213110   1.653   3.247   2.524
 4071SOL     OW13111   1.284   0.793   5.122
 4071SOL    HW113112   1.374   0.829   5.101
 4071SOL    HW213113   1.289   0.736   5.205
 4072SOL     OW13114   1.991   6.641   4.439
 4072SOL    HW113115   1.985   6.558   4.495
 4072SOL    HW213116   1.953   6.718   4.490
 4073SOL     OW13117   1.912   5.416   5.989
 4073SOL    HW113118   1.997   5.422   5.936
 4073SOL    HW213119   1.841   5.373   5.933
 4074SOL     OW13120   0.079   2.621   1.654
 4074SOL    HW113121   0.179   2.631   1.662
 4074SOL    HW213122   0.058   2.549   1.588
 4075SOL     OW13123   4.474   1.777   2.377
 4075SOL    HW113124   4.474   1.844   2.450
 4075SOL    HW213125   4.565   1.771   2.336
 4076SOL     OW13126   2.160   4.119   5.251
 4076SOL    HW113127   2.110   4.049   5.301
 4076SOL    HW213128   2.234   4.076   5.198
 4077SOL     OW13129   2.997   6.752   0.649
 4077SOL    HW113130   2.917   6.770   0.592
 4077SOL    HW213131   2.967   6.734   0.743
 4078SOL     OW13132   6.418   4.748   2.085
 4078SOL    HW113133   6.364   4.704   2.157
 4078SOL    HW213134   6.439   4.842   2.112
 4079SOL     OW13135   0.941   0.782   3.264
 4079SOL    HW113136   1.028   0.760   3.219
 4079SOL    HW213137   0.865   0.754   3.205
 4080SOL     OW13138   2.755   4.013   0.288
 4080SOL    HW113139   2.745   4.084   0.357
 4080SOL    HW213140   2.697   3.935   0.311
 4081SOL     OW13141   2.388   0.882   5.450
 4081SOL    HW113142   2.361   0.947   5.521
 4081SOL    HW213143   2.346   0.909   5.363
 4082SOL     OW13144   1.039   2.152   6.016
 4082SOL    HW113145   1.059   2.055   6.017
 4082SOL    HW213146   0.976   2.172   5.940
 4083SOL     OW13147   6.076   4.742   3.174
 4083SOL    HW113148   6.140   4.727   3.250
 4083SOL    HW213149   5.985   4.710   3.200
 4084SOL     OW13150   4.774   2.813   3.097
 4084SOL    HW113151   4.818   2.769   3.174
 4084SOL    HW213152   4.746   2.906   3.123
 4085SOL     OW13153   2.350   5.664   1.195
 4085SOL    HW113154   2.376   5.625   1.284
 4085SOL    HW213155   2.333   5.590   1.130
 4086SOL     OW13156   0.114   5.437   0.188
 4086SOL    HW113157   0.209   5.423   0.215
 4086SOL    HW213158   0.077   5.517   0.236
 4087SOL     OW13159   3.266   0.310   2.619
 4087SOL    HW113160   3.273   0.258   2.534
 4087SOL    HW213161   3.334   0.383   2.619
 4088SOL     OW13162   6.501   0.880   5.431
 4088SOL    HW113163   6.459   0.961   5.472
 4088SOL    HW213164   6.540   0.905   5.342
 4089SOL     OW13165   7.014   5.911   4.417
 4089SOL    HW113166   6.945   5.982   4.404
 4089SOL    HW213167   6.970   5.821   4.420
 4090SOL     OW13168   2.219   6.885   4.919
 4090SOL    HW113169   2.241   6.981   4.897
 4090SOL    HW213170   2.121   6.878   4.941
 4091SOL     OW13171   1.010   5.005   0.958
 4091SOL    HW113172   1.055   4.929   1.003
 4091SOL    HW213173   1.055   5.091   0.983
 4092SOL     OW13174   4.815   2.976   4.600
 4092SOL    HW113175   4.766   2.982   4.513
 4092SOL    HW213176   4.859   2.887   4.607
 4093SOL     OW13177   6.196   5.662   2.058
 4093SOL    HW113178   6.161   5.681   1.966
 4093SOL    HW213179   6.296   5.659   2.056
 4094SOL     OW13180   0.380   5.192   6.944
 4094SOL    HW113181   0.340   5.148   6.864
 4094SOL    HW213182   0.468   5.233   6.920
 4095SOL     OW13183   0.366   3.672   6.830
 4095SOL    HW113184   0.302   3.635   6.763
 4095SOL    HW213185   0.421   3.598   6.868
 4096SOL     OW13186   2.213   1.197   6.561
 4096SOL    HW113187   2.252   1.105   6.565
 4096SOL    HW213188   2.124   1.197   6.606
 4097SOL     OW13189   6.740   4.374   5.311
 4097SOL    HW113190   6.707   4.307   5.378
 4097SOL    HW213191   6.832   4.349   5.281
 4098SOL     OW13192   1.868   3.293   1.527
 4098SOL    HW113193   1.895   3.312   1.622
 4098SOL    HW213194   1.949   3.297   1.468
 4099SOL     OW13195   4.317   5.150   6.821
 4099SOL    HW113196   4.253   5.197   6.760
 4099SOL    HW213197   4.351   5.067   6.776
 4100SOL     OW13198   0.972   0.844   3.529
 4100SOL    HW113199   1.053   0.811   3.578
 4100SOL    HW213200   0.973   0.810   3.435
 4101SOL     OW13201   6.439   0.603   6.312
 4101SOL    HW113202   6.452   0.647   6.401
 4101SOL    HW213203   6.507   0.637   6.248
 4102SOL     OW13204   1.563   0.516   0.371
 4102SOL    HW113205   1.625   0.474   0.304
 4102SOL    HW213206   1.587   0.612   0.382
 4103SOL     OW13207   6.878   6.604   2.167
 4103SOL    HW113208   6.817   6.595   2.246
 4103SOL    HW213209   6.892   6.514   2.126
 4104SOL     OW13210   0.218   5.762   3.035
 4104SOL    HW113211   0.243   5.858   3.024
 4104SOL    HW213212   0.226   5.736   3.132
 4105SOL     OW13213   4.958   1.444   1.538
 4105SOL    HW113214   4.901   1.445   1.620
 4105SOL    HW213215   5.048   1.406   1.559
 4106SOL     OW13216   0.017   2.030   3.962
 4106SOL    HW113217   7.027   2.015   3.866
 4106SOL    HW213218   6.971   1.998   4.018
 4107SOL     OW13219   0.447   6.031   6.257
 4107SOL    HW113220   0.381   6.106   6.263
 4107SOL    HW213221   0.493   6.020   6.345
 4108SOL     OW13222   0.339   5.467   4.028
 4108SOL    HW113223   0.275   5.429   4.095
 4108SOL    HW213224   0.387   5.545   4.069
 4109SOL     OW13225   6.048   5.625   3.712
 4109SOL    HW113226   6.124   5.617   3.777
 4109SOL    HW213227   6.083   5.615   3.619
 4110SOL     OW13228   4.596   2.816   6.830
 4110SOL    HW113229   4.589   2.809   6.731
 4110SOL    HW213230   4.583   2.726   6.871
 4111SOL     OW13231   6.440   5.685   6.691
 4111SOL    HW113232   6.378   5.613   6.657
 4111SOL    HW213233   6.489   5.651   6.771
 4112SOL     OW13234   4.632   6.440   4.923
 4112SOL    HW113235   4.632   6.418   5.021
 4112SOL    HW213236   4.653   6.537   4.911
 4113SOL     OW13237   3.802   5.032   4.880
 4113SOL    HW113238   3.710   5.030   4.840
 4113SOL    HW213239   3.804   4.973   4.961
 4114SOL     OW13240   6.317   1.574   3.539
 4114SOL    HW113241   6.396   1.547   3.593
 4114SOL    HW213242   6.259   1.636   3.593
 4115SOL     OW13243   2.645   4.751   3.362
 4115SOL    HW113244   2.664   4.757   3.460
 4115SOL    HW213245   2.568   4.690   3.346
 4116SOL     OW13246   5.475   2.099   3.440
 4116SOL    HW113247   5.556   2.063   3.394
 4116SOL    HW213248   5.406   2.123   3.371
 4117SOL     OW13249   1.464   1.864   2.656
 4117SOL    HW113250   1.492   1.957   2.679
 4117SOL    HW213251   1.500   1.801   2.725
 4118SOL     OW13252   6.491   6.593   6.924
 4118SOL    HW113253   6.553   6.671   6.933
 4118SOL    HW213254   6.542   6.512   6.898
 4119SOL     OW13255   2.594   0.741   3.396
 4119SOL    HW113256   2.677   0.773   3.442
 4119SOL    HW213257   2.561   0.659   3.441
 4120SOL     OW13258   3.563   1.523   6.509
 4120SOL    HW113259   3.648   1.514   6.456
 4120SOL    HW213260   3.490   1.557   6.449
 4121SOL     OW13261   6.793   6.351   2.495
 4121SOL    HW113262   6.725   6.323   2.563
 4121SOL    HW213263   6.756   6.425   2.440
 4122SOL     OW13264   0.511   5.769   4.678
 4122SOL    HW113265   0.421   5.797   4.712
 4122SOL    HW213266   0.536   5.681   4.719
 4123SOL     OW13267   3.834   5.450   4.406
 4123SOL    HW113268   3.931   5.432   4.421
 4123SOL    HW213269   3.780   5.394   4.467
 4124SOL     OW13270   6.438   6.158   1.024
 4124SOL    HW113271   6.475   6.251   1.025
 4124SOL    HW213272   6.357   6.154   1.084
 4125SOL     OW13273   5.064   2.593   2.694
 4125SOL    HW113274   4.993   2.533   2.729
 4125SOL    HW213275   5.029   2.687   2.690
 4126SOL     OW13276   1.683   2.902   2.372
 4126SOL    HW113277   1.651   2.827   2.314
 4126SOL    HW213278   1.615   2.920   2.444
 4127SOL     OW13279   3.903   1.829   4.133
 4127SOL    HW113280   3.964   1.750   4.125
 4127SOL    HW213281   3.879   1.843   4.229
 4128SOL     OW13282   0.777   3.017   2.087
 4128SOL    HW113283   0.771   2.932   2.034
 4128SOL    HW213284   0.828   2.999   2.171
 4129SOL     OW13285   3.366   2.743   0.742
 4129SOL    HW113286   3.404   2.655   0.768
 4129SOL    HW213287   3.407   2.773   0.656
 4130SOL     OW13288   6.040   2.854   0.788
 4130SOL    HW113289   5.961   2.870   0.729
 4130SOL    HW213290   6.033   2.764   0.831
 4131SOL     OW13291   6.090   0.694   2.401
 4131SOL    HW113292   6.004   0.741   2.420
 4131SOL    HW213293   6.105   0.622   2.469
 4132SOL     OW13294   5.895   4.250   4.017
 4132SOL    HW113295   5.877   4.297   4.104
 4132SOL    HW213296   5.829   4.280   3.949
 4133SOL     OW13297   5.565   6.472   1.118
 4133SOL    HW113298   5.578   6.373   1.120
 4133SOL    HW213299   5.616   6.514   1.193
 4134SOL     OW13300   2.203   3.862   1.111
 4134SOL    HW113301   2.159   3.785   1.156
 4134SOL    HW213302   2.147   3.891   1.033
 4135SOL     OW13303   0.866   2.081   2.527
 4135SOL    HW113304   0.825   2.172   2.521
 4135SOL    HW213305   0.800   2.013   2.496
 4136SOL     OW13306   0.767   3.627   1.528
 4136SOL    HW113307   0.690   3.568   1.552
 4136SOL    HW213308   0.733   3.714   1.493
 4137SOL     OW13309   1.502   2.826   0.234
 4137SOL    HW113310   1.473   2.745   0.283
 4137SOL    HW213311   1.436   2.900   0.248
 4138SOL     OW13312   4.015   5.260   1.062
 4138SOL    HW113313   3.992   5.266   1.159
 4138SOL    HW213314   4.109   5.292   1.049
 4139SOL     OW13315   1.316   2.411   3.624
 4139SOL    HW113316   1.391   2.454   3.574
 4139SOL    HW213317   1.281   2.474   3.693
 4140SOL     OW13318   2.969   1.993   3.861
 4140SOL    HW113319   2.892   1.988   3.797
 4140SOL    HW213320   3.025   2.073   3.841
 4141SOL     OW13321   4.601   6.831   6.788
 4141SOL    HW113322   4.533   6.887   6.835
 4141SOL    HW213323   4.678   6.889   6.760
 4142SOL     OW13324   6.837   3.717   1.869
 4142SOL    HW113325   6.867   3.726   1.964
 4142SOL    HW213326   6.848   3.623   1.839
 4143SOL     OW13327   5.929   3.324   0.582
 4143SOL    HW113328   5.952   3.235   0.621
 4143SOL    HW213329   5.969   3.397   0.637
 4144SOL     OW13330   5.414   1.545   0.763
 4144SOL    HW113331   5.365   1.460   0.744
 4144SOL    HW213332   5.413   1.603   0.682
 4145SOL     OW13333   1.288   6.032   0.679
 4145SOL    HW113334   1.319   5.946   0.638
 4145SOL    HW213335   1.204   6.062   0.634
 4146SOL     OW13336   6.236   6.764   3.794
 4146SOL    HW113337   6.183   6.815   3.862
 4146SOL    HW213338   6.211   6.667   3.799
 4147SOL     OW13339   5.917   4.448   6.110
 4147SOL    HW113340   5.889   4.380   6.178
 4147SOL    HW213341   5.883   4.538   6.136
 4148SOL     OW13342   3.157   6.912   5.685
 4148SOL    HW113343   3.093   6.856   5.631
 4148SOL    HW213344   3.244   6.863   5.694
 4149SOL     OW13345   1.277   2.995   1.182
 4149SOL    HW113346   1.221   2.959   1.108
 4149SOL    HW213347   1.268   3.094   1.186
 4150SOL     OW13348   6.512   2.792   5.605
 4150SOL    HW113349   6.481   2.834   5.690
 4150SOL    HW213350   6.522   2.693   5.618
 4151SOL     OW13351   2.259   0.136   4.903
 4151SOL    HW113352   2.354   0.145   4.873
 4151SOL    HW213353   2.256   0.126   5.002
 4152SOL     OW13354   3.848   5.623   1.795
 4152SOL    HW113355   3.918   5.665   1.737
 4152SOL    HW213356   3.850   5.524   1.785
 4153SOL     OW13357   6.502   4.959   1.240
 4153SOL    HW113358   6.507   4.960   1.340
 4153SOL    HW213359   6.420   4.909   1.212
 4154SOL     OW13360   6.990   5.728   3.611
 4154SOL    HW113361   0.001   5.675   3.684
 4154SOL    HW213362   6.893   5.705   3.603
 4155SOL     OW13363   6.852   2.114   1.436
 4155SOL    HW113364   6.940   2.108   1.482
 4155SOL    HW213365   6.778   2.105   1.502
 4156SOL     OW13366   6.613   5.101   4.983
 4156SOL    HW113367   6.633   5.052   4.897
 4156SOL    HW213368   6.515   5.100   4.999
 4157SOL     OW13369   6.303   5.981   2.175
 4157SOL    HW113370   6.334   5.887   2.191
 4157SOL    HW213371   6.343   6.042   2.243
 4158SOL     OW13372   1.870   2.595   1.283
 4158SOL    HW113373   1.777   2.561   1.295
 4158SOL    HW213374   1.930   2.554   1.352
 4159SOL     OW13375   2.936   1.971   2.921
 4159SOL    HW113376   2.841   1.952   2.898
 4159SOL    HW213377   2.942   1.998   3.017
 4160SOL     OW13378   6.221   0.109   6.791
 4160SOL    HW113379   6.186   0.111   6.697
 4160SOL    HW213380   6.147   0.082   6.853
 4161SOL     OW13381   1.922   2.148   1.396
 4161SOL    HW113382   2.003   2.122   1.345
 4161SOL    HW213383   1.913   2.248   1.396
 4162SOL     OW13384   6.257   5.395   0.994
 4162SOL    HW113385   6.285   5.468   0.932
 4162SOL    HW213386   6.288   5.416   1.087
 4163SOL     OW13387   5.598   0.883   2.944
 4163SOL    HW113388   5.538   0.953   2.983
 4163SOL    HW213389   5.553   0.794   2.949
 4164SOL     OW13390   0.256   6.680   5.664
 4164SOL    HW113391   0.288   6.741   5.735
 4164SOL    HW213392   0.187   6.617   5.702
 4165SOL     OW13393   4.428   0.227   5.598
 4165SOL    HW113394   4.397   0.254   5.689
 4165SOL    HW213395   4.351   0.187   5.547
 4166SOL     OW13396   6.629   0.793   1.467
 4166SOL    HW113397   6.617   0.888   1.438
 4166SOL    HW213398   6.597   0.732   1.395
 4167SOL     OW13399   2.330   5.116   6.081
 4167SOL    HW113400   2.358   5.157   6.169
 4167SOL    HW213401   2.386   5.035   6.064
 4168SOL     OW13402   0.271   4.271   0.591
 4168SOL    HW113403   0.351   4.312   0.635
 4168SOL    HW213404   0.297   4.240   0.499
 4169SOL     OW13405   6.151   4.160   4.818
 4169SOL    HW113406   6.205   4.237   4.785
 4169SOL    HW213407   6.158   4.153   4.917
 4170SOL     OW13408   4.806   3.048   4.879
 4170SOL    HW113409   4.788   3.015   4.786
 4170SOL    HW213410   4.769   3.140   4.890
 4171SOL     OW13411   1.189   4.945   1.262
 4171SOL    HW113412   1.188   4.846   1.243
 4171SOL    HW213413   1.279   4.972   1.294
 4172SOL     OW13414   2.566   3.080   0.839
 4172SOL    HW113415   2.590   3.123   0.753
 4172SOL    HW213416   2.585   3.143   0.915
 4173SOL     OW13417   4.574   2.755   5.694
 4173SOL    HW113418   4.654   2.695   5.702
 4173SOL    HW213419   4.604   2.845   5.661
 4174SOL     OW13420   4.745   1.101   2.740
 4174SOL    HW113421   4.700   1.070   2.824
 4174SOL    HW213422   4.773   1.197   2.750
 4175SOL     OW13423   1.517   4.637   5.525
 4175SOL    HW113424   1.500   4.561   5.463
 4175SOL    HW213425   1.484   4.614   5.617
 4176SOL     OW13426   4.714   6.349   0.933
 4176SOL    HW113427   4.756   6.421   0.877
 4176SOL    HW213428   4.678   6.389   1.017
 4177SOL     OW13429   5.508   4.800   4.672
 4177SOL    HW113430   5.471   4.892   4.680
 4177SOL    HW213431   5.604   4.800   4.700
 4178SOL     OW13432   4.323   0.028   2.687
 4178SOL    HW113433   4.367   0.083   2.757
 4178SOL    HW213434   4.296   6.970   2.727
 4179SOL     OW13435   5.755   4.064   3.641
 4179SOL    HW113436   5.834   4.056   3.580
 4179SOL    HW213437   5.671   4.063   3.587
 4180SOL     OW13438   5.280   3.341   1.381
 4180SOL    HW113439   5.346   3.411   1.353
 4180SOL    HW213440   5.194   3.355   1.332
 4181SOL     OW13441   5.539   0.968   6.451
 4181SOL    HW113442   5.488   0.945   6.534
 4181SOL    HW213443   5.602   0.893   6.428
 4182SOL     OW13444   0.228   5.404   3.795
 4182SOL    HW113445   0.289   5.445   3.727
 4182SOL    HW213446   0.264   5.421   3.887
 4183SOL     OW13447   2.785   0.459   0.707
 4183SOL    HW113448   2.813   0.478   0.801
 4183SOL    HW213449   2.701   0.511   0.687
 4184SOL     OW13450   3.738   0.311   2.307
 4184SOL    HW113451   3.710   0.384   2.369
 4184SOL    HW213452   3.732   0.343   2.212
 4185SOL     OW13453   0.685   4.109   2.826
 4185SOL    HW113454   0.748   4.183   2.850
 4185SOL    HW213455   0.724   4.056   2.750
 4186SOL     OW13456   2.405   5.817   5.817
 4186SOL    HW113457   2.351   5.839   5.898
 4186SOL    HW213458   2.424   5.719   5.815
 4187SOL     OW13459   2.695   3.535   0.093
 4187SOL    HW113460   2.695   3.439   0.123
 4187SOL    HW213461   2.787   3.573   0.104
 4188SOL     OW13462   5.344   0.223   5.377
 4188SOL    HW113463   5.285   0.160   5.426
 4188SOL    HW213464   5.335   0.315   5.416
 4189SOL     OW13465   3.390   5.019   3.813
 4189SOL    HW113466   3.316   4.972   3.764
 4189SOL    HW213467   3.390   4.991   3.909
 4190SOL     OW13468   0.186   6.539   0.917
 4190SOL    HW113469   0.116   6.510   0.852
 4190SOL    HW213470   0.198   6.638   0.911
 4191SOL     OW13471   5.447   3.754   5.628
 4191SOL    HW113472   5.511   3.782   5.556
 4191SOL    HW213473   5.465   3.807   5.711
 4192SOL     OW13474   1.678   1.404   1.617
 4192SOL    HW113475   1.605   1.345   1.585
 4192SOL    HW213476   1.668   1.418   1.716
 4193SOL     OW13477   5.434   0.705   0.288
 4193SOL    HW113478   5.533   0.697   0.294
 4193SOL    HW213479   5.399   0.750   0.370
 4194SOL     OW13480   5.262   0.338   4.375
 4194SOL    HW113481   5.268   0.247   4.416
 4194SOL    HW213482   5.176   0.382   4.401
 4195SOL     OW13483   4.179   5.499   1.762
 4195SOL    HW113484   4.143   5.583   1.720
 4195SOL    HW213485   4.266   5.475   1.719
 4196SOL     OW13486   6.851   2.261   2.796
 4196SOL    HW113487   6.760   2.278   2.834
 4196SOL    HW213488   6.911   2.227   2.868
 4197SOL     OW13489   4.417   4.916   5.437
 4197SOL    HW113490   4.512   4.947   5.444
 4197SOL    HW213491   4.364   4.954   5.513
 4198SOL     OW13492   0.152   1.637   1.793
 4198SOL    HW113493   0.215   1.582   1.847
 4198SOL    HW213494   0.131   1.722   1.841
 4199SOL     OW13495   1.480   2.439   5.481
 4199SOL    HW113496   1.469   2.494   5.398
 4199SOL    HW213497   1.438   2.486   5.558
 4200SOL     OW13498   2.895   0.517   5.842
 4200SOL    HW113499   2.799   0.509   5.815
 4200SOL    HW213500   2.941   0.429   5.827
 4201SOL     OW13501   6.166   0.034   3.065
 4201SOL    HW113502   6.256   0.024   3.110
 4201SOL    HW213503   6.103   0.079   3.129
 4202SOL     OW13504   2.899   5.365   6.900
 4202SOL    HW113505   2.855   5.385   6.988
 4202SOL    HW213506   2.985   5.318   6.916
 4203SOL     OW13507   5.149   4.280   0.321
 4203SOL    HW113508   5.162   4.318   0.413
 4203SOL    HW213509   5.125   4.183   0.328
 4204SOL     OW13510   4.116   3.593   5.409
 4204SOL    HW113511   4.193   3.624   5.353
 4204SOL    HW213512   4.068   3.519   5.361
 4205SOL     OW13513   3.995   5.723   4.780
 4205SOL    HW113514   3.923   5.667   4.821
 4205SOL    HW213515   4.081   5.711   4.831
 4206SOL     OW13516   6.381   1.798   4.987
 4206SOL    HW113517   6.306   1.786   5.052
 4206SOL    HW213518   6.467   1.766   5.028
 4207SOL     OW13519   2.144   2.813   1.659
 4207SOL    HW113520   2.146   2.833   1.561
 4207SOL    HW213521   2.079   2.875   1.704
 4208SOL     OW13522   0.533   3.809   5.889
 4208SOL    HW113523   0.604   3.860   5.938
 4208SOL    HW213524   0.459   3.871   5.864
 4209SOL     OW13525   0.263   6.219   3.175
 4209SOL    HW113526   0.181   6.275   3.182
 4209SOL    HW213527   0.264   6.152   3.249
 4210SOL     OW13528   4.165   3.546   2.929
 4210SOL    HW113529   4.148   3.619   2.996
 4210SOL    HW213530   4.158   3.457   2.975
 4211SOL     OW13531   3.451   1.357   5.563
 4211SOL    HW113532   3.504   1.430   5.605
 4211SOL    HW213533   3.470   1.354   5.465
 4212SOL     OW13534   6.763   1.895   3.313
 4212SOL    HW113535   6.844   1.894   3.255
 4212SOL    HW213536   6.775   1.832   3.390
 4213SOL     OW13537   2.976   0.195   2.500
 4213SOL    HW113538   2.913   0.146   2.561
 4213SOL    HW213539   2.982   0.146   2.413
 4214SOL     OW13540   0.442   6.001   4.954
 4214SOL    HW113541   0.524   6.016   4.898
 4214SOL    HW213542   0.467   5.946   5.034
 4215SOL     OW13543   4.915   0.106   5.045
 4215SOL    HW113544   4.906   0.192   4.995
 4215SOL    HW213545   4.836   0.047   5.023
 4216SOL     OW13546   1.332   0.860   2.198
 4216SOL    HW113547   1.257   0.906   2.150
 4216SOL    HW213548   1.393   0.818   2.131
 4217SOL     OW13549   1.569   0.715   2.337
 4217SOL    HW113550   1.559   0.629   2.289
 4217SOL    HW213551   1.483   0.738   2.382
 4218SOL     OW13552   3.594   0.288   1.263
 4218SOL    HW113553   3.587   0.313   1.359
 4218SOL    HW213554   3.659   0.213   1.252
 4219SOL     OW13555   4.652   6.126   4.379
 4219SOL    HW113556   4.672   6.066   4.302
 4219SOL    HW213557   4.695   6.215   4.364
 4220SOL     OW13558   6.047   3.334   2.302
 4220SOL    HW113559   5.981   3.391   2.253
 4220SOL    HW213560   6.035   3.347   2.400
 4221SOL     OW13561   6.108   4.789   5.640
 4221SOL    HW113562   6.190   4.825   5.595
 4221SOL    HW213563   6.119   4.691   5.656
 4222SOL     OW13564   6.489   1.188   3.187
 4222SOL    HW113565   6.506   1.189   3.286
 4222SOL    HW213566   6.576   1.187   3.139
 4223SOL     OW13567   4.055   3.552   0.854
 4223SOL    HW113568   4.020   3.645   0.861
 4223SOL    HW213569   4.154   3.551   0.865
 4224SOL     OW13570   5.432   5.063   4.746
 4224SOL    HW113571   5.342   5.069   4.703
 4224SOL    HW213572   5.487   5.142   4.720
 4225SOL     OW13573   1.858   2.652   5.117
 4225SOL    HW113574   1.917   2.677   5.040
 4225SOL    HW213575   1.913   2.643   5.200
 4226SOL     OW13576   0.716   5.790   3.366
 4226SOL    HW113577   0.802   5.742   3.348
 4226SOL    HW213578   0.693   5.847   3.287
 4227SOL     OW13579   4.371   5.979   1.784
 4227SOL    HW113580   4.334   5.954   1.874
 4227SOL    HW213581   4.310   5.946   1.712
 4228SOL     OW13582   0.043   6.464   5.746
 4228SOL    HW113583   0.055   6.379   5.693
 4228SOL    HW213584   7.021   6.530   5.691
 4229SOL     OW13585   4.436   5.911   5.787
 4229SOL    HW113586   4.530   5.883   5.807
 4229SOL    HW213587   4.434   5.965   5.703
 4230SOL     OW13588   1.952   6.363   3.154
 4230SOL    HW113589   1.968   6.313   3.068
 4230SOL    HW213590   1.946   6.298   3.230
 4231SOL     OW13591   5.463   0.027   6.086
 4231SOL    HW113592   5.415   0.015   5.999
 4231SOL    HW213593   5.477   0.124   6.104
 4232SOL     OW13594   1.688   4.396   3.756
 4232SOL    HW113595   1.714   4.319   3.814
 4232SOL    HW213596   1.620   4.451   3.803
 4233SOL     OW13597   0.109   1.069   5.421
 4233SOL    HW113598   0.061   1.150   5.388
 4233SOL    HW213599   0.134   1.011   5.344
 4234SOL     OW13600   2.067   5.212   5.431
 4234SOL    HW113601   2.123   5.228   5.513
 4234SOL    HW213602   2.112   5.143   5.374
 4235SOL     OW13603   6.654   4.381   6.041
 4235SOL    HW113604   6.617   4.337   5.960
 4235SOL    HW213605   6.586   4.380   6.114
 4236SOL     OW13606   6.490   4.434   2.121
 4236SOL    HW113607   6.426   4.510   2.122
 4236SOL    HW213608   6.460   4.365   2.055
 4237SOL     OW13609   6.688   4.923   3.738
 4237SOL    HW113610   6.630   4.849   3.705
 4237SOL    HW213611   6.723   4.901   3.829
 4238SOL     OW13612   1.497   6.893   2.640
 4238SOL    HW113613   1.504   6.992   2.632
 4238SOL    HW213614   1.568   6.849   2.585
 4239SOL     OW13615   4.537   1.670   3.065
 4239SOL    HW113616   4.496   1.681   3.156
 4239SOL    HW213617   4.548   1.573   3.045
 4240SOL     OW13618   1.827   5.719   0.479
 4240SOL    HW113619   1.854   5.731   0.384
 4240SOL    HW213620   1.863   5.632   0.513
 4241SOL     OW13621   5.711   1.013   0.294
 4241SOL    HW113622   5.786   1.070   0.260
 4241SOL    HW213623   5.650   1.068   0.351
 4242SOL     OW13624   2.838   2.257   4.063
 4242SOL    HW113625   2.791   2.169   4.070
 4242SOL    HW213626   2.937   2.241   4.059
 4243SOL     OW13627   5.814   2.038   3.097
 4243SOL    HW113628   5.758   2.005   3.021
 4243SOL    HW213629   5.891   2.091   3.062
 4244SOL     OW13630   4.184   4.437   1.152
 4244SOL    HW113631   4.260   4.474   1.206
 4244SOL    HW213632   4.150   4.354   1.195
 4245SOL     OW13633   6.365   2.131   6.318
 4245SOL    HW113634   6.312   2.048   6.296
 4245SOL    HW213635   6.409   2.119   6.407
 4246SOL     OW13636   6.330   4.136   3.099
 4246SOL    HW113637   6.262   4.073   3.137
 4246SOL    HW213638   6.286   4.221   3.071
 4247SOL     OW13639   2.292   6.371   3.670
 4247SOL    HW113640   2.266   6.280   3.702
 4247SOL    HW213641   2.299   6.371   3.570
 4248SOL     OW13642   3.033   1.527   4.436
 4248SOL    HW113643   3.008   1.623   4.432
 4248SOL    HW213644   3.012   1.483   4.349
 4249SOL     OW13645   6.507   2.713   5.207
 4249SOL    HW113646   6.416   2.727   5.169
 4249SOL    HW213647   6.571   2.692   5.134
 4250SOL     OW13648   0.134   4.571   2.984
 4250SOL    HW113649   0.081   4.500   2.939
 4250SOL    HW213650   0.202   4.529   3.044
 4251SOL     OW13651   5.572   4.551   0.805
 4251SOL    HW113652   5.499   4.492   0.769
 4251SOL    HW213653   5.628   4.584   0.729
 4252SOL     OW13654   5.873   6.956   5.133
 4252SOL    HW113655   5.851   6.968   5.230
 4252SOL    HW213656   5.964   6.993   5.114
 4253SOL     OW13657   2.972   6.475   0.989
 4253SOL    HW113658   3.007   6.447   1.078
 4253SOL    HW213659   3.031   6.438   0.917
 4254SOL     OW13660   1.292   2.867   2.364
 4254SOL    HW113661   1.338   2.911   2.287
 4254SOL    HW213662   1.256   2.778   2.334
 4255SOL     OW13663   5.440   3.093   3.508
 4255SOL    HW113664   5.370   3.037   3.552
 4255SOL    HW213665   5.529   3.048   3.516
 4256SOL     OW13666   1.508   6.677   0.940
 4256SOL    HW113667   1.551   6.735   1.009
 4256SOL    HW213668   1.418   6.648   0.973
 4257SOL     OW13669   3.253   0.597   4.524
 4257SOL    HW113670   3.318   0.674   4.524
 4257SOL    HW213671   3.267   0.543   4.441
 4258SOL     OW13672   5.991   6.633   1.493
 4258SOL    HW113673   6.058   6.598   1.558
 4258SOL    HW213674   5.899   6.626   1.533
 4259SOL     OW13675   2.632   0.860   0.088
 4259SOL    HW113676   2.653   0.813   0.173
 4259SOL    HW213677   2.695   0.828   0.016
 4260SOL     OW13678   5.064   6.920   5.881
 4260SOL    HW113679   5.052   7.001   5.939
 4260SOL    HW213680   4.977   6.899   5.835
 4261SOL     OW13681   2.023   0.575   1.888
 4261SOL    HW113682   2.004   0.499   1.825
 4261SOL    HW213683   1.936   0.618   1.915
 4262SOL     OW13684   0.131   4.574   6.098
 4262SOL    HW113685   0.091   4.483   6.086
 4262SOL    HW213686   0.164   4.607   6.009
 4263SOL     OW13687   3.271   6.601   3.459
 4263SOL    HW113688   3.203   6.673   3.468
 4263SOL    HW213689   3.237   6.531   3.395
 4264SOL     OW13690   0.116   2.069   2.580
 4264SOL    HW113691   0.205   2.092   2.539
 4264SOL    HW213692   0.050   2.141   2.560
 4265SOL     OW13693   5.559   1.171   0.464
 4265SOL    HW113694   5.470   1.209   0.440
 4265SOL    HW213695   5.589   1.211   0.551
 4266SOL     OW13696   1.875   5.424   0.547
 4266SOL    HW113697   1.906   5.359   0.616
 4266SOL    HW213698   1.782   5.400   0.518
 4267SOL     OW13699   1.686   3.390   5.163
 4267SOL    HW113700   1.696   3.358   5.069
 4267SOL    HW213701   1.725   3.482   5.170
 4268SOL     OW13702   1.339   6.670   6.095
 4268SOL    HW113703   1.305   6.610   6.023
 4268SOL    HW213704   1.270   6.680   6.166
 4269SOL     OW13705   2.162   0.879   1.622
 4269SOL    HW113706   2.119   0.812   1.682
 4269SOL    HW213707   2.148   0.971   1.660
 4270SOL     OW13708   3.083   3.023   4.892
 4270SOL    HW113709   2.986   3.002   4.904
 4270SOL    HW213710   3.138   2.956   4.943
 4271SOL     OW13711   0.532   0.558   6.647
 4271SOL    HW113712   0.461   0.551   6.577
 4271SOL    HW213713   0.499   0.615   6.723
 4272SOL     OW13714   0.909   3.839   5.151
 4272SOL    HW113715   0.921   3.785   5.067
 4272SOL    HW213716   0.811   3.852   5.168
 4273SOL     OW13717   4.736   6.115   5.005
 4273SOL    HW113718   4.775   6.204   5.029
 4273SOL    HW213719   4.641   6.127   4.975
 4274SOL     OW13720   1.893   6.899   2.336
 4274SOL    HW113721   1.904   6.983   2.283
 4274SOL    HW213722   1.930   6.912   2.428
 4275SOL     OW13723   6.634   1.681   5.124
 4275SOL    HW113724   6.661   1.614   5.193
 4275SOL    HW213725   6.714   1.731   5.092
 4276SOL     OW13726   1.491   4.478   3.912
 4276SOL    HW113727   1.561   4.493   3.982
 4276SOL    HW213728   1.430   4.557   3.907
 4277SOL     OW13729   5.900   4.595   4.080
 4277SOL    HW113730   5.954   4.672   4.047
 4277SOL    HW213731   5.812   4.592   4.033
 4278SOL     OW13732   0.586   0.498   4.602
 4278SOL    HW113733   0.654   0.492   4.675
 4278SOL    HW213734   0.539   0.410   4.593
 4279SOL     OW13735   3.625   6.896   5.481
 4279SOL    HW113736   3.724   6.895   5.469
 4279SOL    HW213737   3.603   6.929   5.573
 4280SOL     OW13738   5.444   0.751   5.242
 4280SOL    HW113739   5.507   0.713   5.174
 4280SOL    HW213740   5.359   0.778   5.196
 4281SOL     OW13741   1.826   4.957   4.352
 4281SOL    HW113742   1.760   4.914   4.290
 4281SOL    HW213743   1.792   4.953   4.446
 4282SOL     OW13744   3.688   2.669   0.397
 4282SOL    HW113745   3.782   2.643   0.420
 4282SOL    HW213746   3.631   2.587   0.397
 4283SOL     OW13747   1.987   1.170   4.072
 4283SOL    HW113748   1.970   1.223   4.155
 4283SOL    HW213749   2.075   1.195   4.032
 4284SOL     OW13750   4.762   5.941   1.860
 4284SOL    HW113751   4.685   5.989   1.903
 4284SOL    HW213752   4.797   5.872   1.923
 4285SOL     OW13753   0.756   0.372   5.682
 4285SOL    HW113754   0.697   0.391   5.604
 4285SOL    HW213755   0.781   0.458   5.726
 4286SOL     OW13756   5.052   5.510   6.867
 4286SOL    HW113757   5.051   5.482   6.963
 4286SOL    HW213758   5.022   5.434   6.810
 4287SOL     OW13759   5.811   1.211   6.708
 4287SOL    HW113760   5.796   1.112   6.698
 4287SOL    HW213761   5.830   1.250   6.618
 4288SOL     OW13762   0.857   6.116   3.106
 4288SOL    HW113763   0.953   6.104   3.131
 4288SOL    HW213764   0.851   6.159   3.016
 4289SOL     OW13765   6.073   3.247   1.288
 4289SOL    HW113766   6.134   3.173   1.260
 4289SOL    HW213767   5.982   3.209   1.307
 4290SOL     OW13768   2.747   6.996   2.293
 4290SOL    HW113769   2.659   6.954   2.315
 4290SOL    HW213770   2.808   6.989   2.372
 4291SOL     OW13771   4.456   3.798   1.564
 4291SOL    HW113772   4.385   3.839   1.621
 4291SOL    HW213773   4.420   3.717   1.518
 4292SOL     OW13774   6.207   4.341   6.321
 4292SOL    HW113775   6.161   4.400   6.255
 4292SOL    HW213776   6.141   4.313   6.392
 4293SOL     OW13777   0.440   2.767   0.233
 4293SOL    HW113778   0.525   2.788   0.282
 4293SOL    HW213779   0.445   2.675   0.195
 4294SOL     OW13780   3.421   2.638   6.791
 4294SOL    HW113781   3.491   2.648   6.721
 4294SOL    HW213782   3.460   2.657   6.881
 4295SOL     OW13783   3.766   6.197   4.693
 4295SOL    HW113784   3.746   6.107   4.732
 4295SOL    HW213785   3.723   6.205   4.604
 4296SOL     OW13786   3.664   1.074   0.585
 4296SOL    HW113787   3.687   1.145   0.519
 4296SOL    HW213788   3.681   0.984   0.544
 4297SOL     OW13789   5.550   0.577   6.194
 4297SOL    HW113790   5.476   0.645   6.196
 4297SOL    HW213791   5.579   0.557   6.288
 4298SOL     OW13792   2.707   5.765   6.510
 4298SOL    HW113793   2.800   5.747   6.477
 4298SOL    HW213794   2.696   5.729   6.602
 4299SOL     OW13795   0.390   3.091   7.021
 4299SOL    HW113796   0.382   3.179   0.037
 4299SOL    HW213797   0.301   3.066   6.981
 4300SOL     OW13798   3.795   1.022   0.291
 4300SOL    HW113799   3.720   0.959   0.269
 4300SOL    HW213800   3.879   0.970   0.308
 4301SOL     OW13801   3.088   1.659   1.019
 4301SOL    HW113802   3.174   1.612   0.999
 4301SOL    HW213803   3.082   1.743   0.964
 4302SOL     OW13804   0.916   6.756   5.143
 4302SOL    HW113805   0.960   6.778   5.230
 4302SOL    HW213806   0.845   6.687   5.158
 4303SOL     OW13807   5.724   4.755   3.909
 4303SOL    HW113808   5.765   4.832   3.959
 4303SOL    HW213809   5.632   4.737   3.944
 4304SOL     OW13810   2.934   3.687   3.810
 4304SOL    HW113811   3.006   3.753   3.787
 4304SOL    HW213812   2.853   3.736   3.842
 4305SOL     OW13813   6.284   0.960   4.159
 4305SOL    HW113814   6.255   0.913   4.243
 4305SOL    HW213815   6.237   1.048   4.152
 4306SOL     OW13816   6.479   3.826   6.735
 4306SOL    HW113817   6.528   3.776   6.806
 4306SOL    HW213818   6.386   3.847   6.765
 4307SOL     OW13819   5.154   3.515   6.464
 4307SOL    HW113820   5.202   3.435   6.428
 4307SOL    HW213821   5.091   3.486   6.537
 4308SOL     OW13822   5.695   5.686   6.527
 4308SOL    HW113823   5.758   5.609   6.512
 4308SOL    HW213824   5.745   5.772   6.518
 4309SOL     OW13825   1.170   1.218   0.359
 4309SOL    HW113826   1.119   1.204   0.444
 4309SOL    HW213827   1.194   1.129   0.319
 4310SOL     OW13828   2.159   2.557   2.879
 4310SOL    HW113829   2.149   2.656   2.868
 4310SOL    HW213830   2.250   2.536   2.916
 4311SOL     OW13831   1.533   5.548   3.082
 4311SOL    HW113832   1.597   5.614   3.122
 4311SOL    HW213833   1.524   5.469   3.144
 4312SOL     OW13834   1.264   5.285   0.825
 4312SOL    HW113835   1.205   5.274   0.745
 4312SOL    HW213836   1.359   5.285   0.796
 4313SOL     OW13837   5.184   1.312   1.599
 4313SOL    HW113838   5.226   1.252   1.531
 4313SOL    HW213839   5.257   1.360   1.650
 4314SOL     OW13840   5.869   1.649   4.371
 4314SOL    HW113841   5.844   1.579   4.438
 4314SOL    HW213842   5.820   1.734   4.390
 4315SOL     OW13843   2.811   0.232   1.637
 4315SOL    HW113844   2.723   0.271   1.663
 4315SOL    HW213845   2.885   0.291   1.670
 4316SOL     OW13846   5.202   0.398   1.120
 4316SOL    HW113847   5.211   0.363   1.213
 4316SOL    HW213848   5.131   0.469   1.117
 4317SOL     OW13849   3.748   1.512   4.846
 4317SOL    HW113850   3.793   1.548   4.928
 4317SOL    HW213851   3.709   1.422   4.866
 4318SOL     OW13852   1.366   2.842   3.633
 4318SOL    HW113853   1.277   2.838   3.678
 4318SOL    HW213854   1.430   2.893   3.690
 4319SOL     OW13855   2.320   2.990   0.406
 4319SOL    HW113856   2.273   2.917   0.356
 4319SOL    HW213857   2.269   3.075   0.397
 4320SOL     OW13858   0.407   6.024   2.089
 4320SOL    HW113859   0.367   5.995   2.002
 4320SOL    HW213860   0.371   5.967   2.163
 4321SOL     OW13861   0.137   0.336   4.248
 4321SOL    HW113862   0.196   0.349   4.168
 4321SOL    HW213863   0.162   0.402   4.318
 4322SOL     OW13864   6.003   2.070   6.621
 4322SOL    HW113865   5.951   2.107   6.698
 4322SOL    HW213866   5.957   1.989   6.585
 4323SOL     OW13867   4.803   4.132   1.384
 4323SOL    HW113868   4.838   4.038   1.385
 4323SOL    HW213869   4.714   4.134   1.339
 4324SOL     OW13870   5.850   3.967   6.605
 4324SOL    HW113871   5.789   3.963   6.526
 4324SOL    HW213872   5.865   4.063   6.630
 4325SOL     OW13873   1.827   0.537   0.488
 4325SOL    HW113874   1.922   0.565   0.481
 4325SOL    HW213875   1.796   0.501   0.400
 4326SOL     OW13876   5.559   2.927   4.735
 4326SOL    HW113877   5.589   3.020   4.714
 4326SOL    HW213878   5.636   2.865   4.728
 4327SOL     OW13879   6.195   5.348   2.207
 4327SOL    HW113880   6.179   5.314   2.114
 4327SOL    HW213881   6.158   5.283   2.273
 4328SOL     OW13882   4.103   3.783   6.081
 4328SOL    HW113883   4.063   3.755   5.993
 4328SOL    HW213884   4.032   3.823   6.138
 4329SOL     OW13885   4.093   1.760   6.401
 4329SOL    HW113886   4.042   1.845   6.384
 4329SOL    HW213887   4.148   1.770   6.484
 4330SOL     OW13888   2.910   0.423   4.889
 4330SOL    HW113889   2.895   0.437   4.987
 4330SOL    HW213890   2.866   0.495   4.837
 4331SOL     OW13891   4.926   2.915   0.879
 4331SOL    HW113892   5.012   2.911   0.929
 4331SOL    HW213893   4.907   2.826   0.838
 4332SOL     OW13894   5.327   4.697   2.143
 4332SOL    HW113895   5.327   4.646   2.229
 4332SOL    HW213896   5.234   4.729   2.123
 4333SOL     OW13897   4.196   0.884   5.442
 4333SOL    HW113898   4.294   0.867   5.451
 4333SOL    HW213899   4.175   0.977   5.471
 4334SOL     OW13900   1.775   1.946   2.431
 4334SOL    HW113901   1.736   1.988   2.513
 4334SOL    HW213902   1.867   1.981   2.416
 4335SOL     OW13903   3.167   3.740   3.497
 4335SOL    HW113904   3.165   3.715   3.401
 4335SOL    HW213905   3.223   3.674   3.548
 4336SOL     OW13906   1.424   6.729   5.811
 4336SOL    HW113907   1.424   6.829   5.803
 4336SOL    HW213908   1.382   6.702   5.897
 4337SOL     OW13909   0.960   4.325   0.402
 4337SOL    HW113910   1.055   4.307   0.379
 4337SOL    HW213911   0.955   4.407   0.459
 4338SOL     OW13912   4.997   5.614   4.044
 4338SOL    HW113913   5.016   5.614   3.946
 4338SOL    HW213914   5.068   5.666   4.092
 4339SOL     OW13915   6.427   3.787   5.027
 4339SOL    HW113916   6.439   3.884   5.005
 4339SOL    HW213917   6.509   3.754   5.075
 4340SOL     OW13918   6.035   4.304   2.124
 4340SOL    HW113919   5.989   4.387   2.090
 4340SOL    HW213920   6.063   4.318   2.219
 4341SOL     OW13921   0.736   5.679   2.154
 4341SOL    HW113922   0.677   5.598   2.145
 4341SOL    HW213923   0.831   5.654   2.134
 4342SOL     OW13924   6.647   4.052   3.941
 4342SOL    HW113925   6.581   4.000   3.995
 4342SOL    HW213926   6.641   4.024   3.845
 4343SOL     OW13927   2.273   6.448   6.222
 4343SOL    HW113928   2.343   6.444   6.151
 4343SOL    HW213929   2.247   6.355   6.250
 4344SOL     OW13930   1.798   5.239   3.118
 4344SOL    HW113931   1.709   5.244   3.071
 4344SOL    HW213932   1.813   5.322   3.171
 4345SOL     OW13933   1.993   2.937   5.517
 4345SOL    HW113934   1.989   2.991   5.602
 4345SOL    HW213935   1.922   2.866   5.520
 4346SOL     OW13936   1.903   3.192   2.318
 4346SOL    HW113937   1.833   3.257   2.290
 4346SOL    HW213938   1.975   3.240   2.368
 4347SOL     OW13939   5.810   6.718   2.537
 4347SOL    HW113940   5.750   6.797   2.550
 4347SOL    HW213941   5.905   6.749   2.528
 4348SOL     OW13942   0.025   3.658   2.939
 4348SOL    HW113943   7.015   3.625   2.854
 4348SOL    HW213944   0.083   3.737   2.920
 4349SOL     OW13945   6.493   2.034   2.616
 4349SOL    HW113946   6.467   1.977   2.693
 4349SOL    HW213947   6.588   2.063   2.627
 4350SOL     OW13948   5.008   2.268   3.682
 4350SOL    HW113949   5.074   2.270   3.607
 4350SOL    HW213950   4.943   2.343   3.670
 4351SOL     OW13951   2.009   6.873   1.128
 4351SOL    HW113952   1.939   6.841   1.192
 4351SOL    HW213953   1.966   6.897   1.041
 4352SOL     OW13954   1.047   2.410   2.485
 4352SOL    HW113955   1.072   2.319   2.452
 4352SOL    HW213956   0.947   2.416   2.494
 4353SOL     OW13957   3.466   4.080   0.103
 4353SOL    HW113958   3.527   4.034   0.039
 4353SOL    HW213959   3.510   4.087   0.193
 4354SOL     OW13960   2.522   6.709   5.361
 4354SOL    HW113961   2.485   6.621   5.392
 4354SOL    HW213962   2.454   6.781   5.374
 4355SOL     OW13963   3.254   0.752   2.107
 4355SOL    HW113964   3.250   0.778   2.204
 4355SOL    HW213965   3.170   0.705   2.082
 4356SOL     OW13966   4.798   4.335   1.604
 4356SOL    HW113967   4.856   4.267   1.648
 4356SOL    HW213968   4.765   4.300   1.516
 4357SOL     OW13969   5.992   0.744   6.902
 4357SOL    HW113970   5.938   0.699   6.831
 4357SOL    HW213971   6.086   0.756   6.870
 4358SOL     OW13972   7.005   5.775   0.196
 4358SOL    HW113973   0.065   5.775   0.155
 4358SOL    HW213974   6.956   5.858   0.169
 4359SOL     OW13975   1.787   2.183   6.260
 4359SOL    HW113976   1.762   2.092   6.294
 4359SOL    HW213977   1.880   2.180   6.223
 4360SOL     OW13978   1.609   2.439   3.029
 4360SOL    HW113979   1.536   2.374   3.012
 4360SOL    HW213980   1.571   2.528   3.053
 4361SOL     OW13981   2.939   3.090   1.509
 4361SOL    HW113982   2.914   3.055   1.600
 4361SOL    HW213983   3.032   3.061   1.487
 4362SOL     OW13984   6.198   4.059   3.660
 4362SOL    HW113985   6.267   4.110   3.710
 4362SOL    HW213986   6.111   4.063   3.708
 4363SOL     OW13987   5.616   2.603   6.754
 4363SOL    HW113988   5.679   2.587   6.829
 4363SOL    HW213989   5.619   2.525   6.691
 4364SOL     OW13990   3.518   3.784   5.509
 4364SOL    HW113991   3.576   3.823   5.580
 4364SOL    HW213992   3.466   3.857   5.465
 4365SOL     OW13993   2.116   2.673   2.121
 4365SOL    HW113994   2.068   2.605   2.065
 4365SOL    HW213995   2.148   2.748   2.064
 4366SOL     OW13996   5.692   6.208   0.600
 4366SOL    HW113997   5.739   6.219   0.512
 4366SOL    HW213998   5.629   6.130   0.595
 4367SOL     OW13999   1.992   4.952   5.031
 4367SOL    HW114000   2.057   4.954   5.107
 4367SOL    HW214001   2.024   5.013   4.958
 4368SOL     OW14002   4.011   5.208   1.469
 4368SOL    HW114003   4.090   5.230   1.411
 4368SOL    HW214004   3.960   5.132   1.429
 4369SOL     OW14005   3.737   5.541   3.542
 4369SOL    HW114006   3.776   5.597   3.615
 4369SOL    HW214007   3.736   5.594   3.457
 4370SOL     OW14008   4.695   4.789   3.017
 4370SOL    HW114009   4.714   4.749   3.106
 4370SOL    HW214010   4.727   4.727   2.945
 4371SOL     OW14011   0.190   0.984   1.236
 4371SOL    HW114012   0.192   1.045   1.157
 4371SOL    HW214013   0.279   0.940   1.247
 4372SOL     OW14014   4.188   0.946   3.475
 4372SOL    HW114015   4.216   0.882   3.547
 4372SOL    HW214016   4.213   0.910   3.386
 4373SOL     OW14017   0.429   2.027   6.405
 4373SOL    HW114018   0.387   1.987   6.323
 4373SOL    HW214019   0.400   2.122   6.415
 4374SOL     OW14020   1.012   1.728   1.895
 4374SOL    HW114021   1.075   1.798   1.863
 4374SOL    HW214022   0.918   1.753   1.870
 4375SOL     OW14023   3.608   0.999   3.661
 4375SOL    HW114024   3.541   1.053   3.609
 4375SOL    HW214025   3.670   0.953   3.598
 4376SOL     OW14026   6.493   6.755   3.303
 4376SOL    HW114027   6.458   6.667   3.274
 4376SOL    HW214028   6.528   6.805   3.223
 4377SOL     OW14029   5.273   4.051   0.019
 4377SOL    HW114030   5.366   4.053   7.014
 4377SOL    HW214031   5.253   4.136   0.067
 4378SOL     OW14032   1.805   1.590   2.554
 4378SOL    HW114033   1.717   1.632   2.532
 4378SOL    HW214034   1.879   1.645   2.514
 4379SOL     OW14035   1.960   0.910   2.481
 4379SOL    HW114036   1.952   0.912   2.382
 4379SOL    HW214037   2.050   0.875   2.507
 4380SOL     OW14038   1.618   0.432   2.324
 4380SOL    HW114039   1.703   0.442   2.272
 4380SOL    HW214040   1.636   0.452   2.420
 4381SOL     OW14041   0.382   6.253   5.283
 4381SOL    HW114042   0.358   6.338   5.329
 4381SOL    HW214043   0.305   6.221   5.228
 4382SOL     OW14044   0.680   3.524   5.473
 4382SOL    HW114045   0.780   3.535   5.465
 4382SOL    HW214046   0.635   3.574   5.399
 4383SOL     OW14047   0.444   3.498   6.441
 4383SOL    HW114048   0.521   3.434   6.446
 4383SOL    HW214049   0.478   3.592   6.445
 4384SOL     OW14050   6.495   0.425   4.426
 4384SOL    HW114051   6.456   0.398   4.514
 4384SOL    HW214052   6.490   0.525   4.416
 4385SOL     OW14053   4.693   2.845   5.356
 4385SOL    HW114054   4.694   2.795   5.269
 4385SOL    HW214055   4.599   2.857   5.387
 4386SOL     OW14056   1.760   3.638   5.155
 4386SOL    HW114057   1.803   3.679   5.075
 4386SOL    HW214058   1.665   3.671   5.162
 4387SOL     OW14059   6.796   1.963   1.801
 4387SOL    HW114060   6.768   1.954   1.896
 4387SOL    HW214061   6.882   2.014   1.796
 4388SOL     OW14062   3.632   2.088   5.954
 4388SOL    HW114063   3.545   2.054   5.919
 4388SOL    HW214064   3.701   2.016   5.950
 4389SOL     OW14065   6.949   4.018   0.955
 4389SOL    HW114066   0.018   4.016   0.966
 4389SOL    HW214067   6.908   3.938   0.999
 4390SOL     OW14068   3.946   6.998   1.522
 4390SOL    HW114069   4.040   7.019   1.496
 4390SOL    HW214070   3.945   6.920   1.584
 4391SOL     OW14071   2.924   5.036   0.060
 4391SOL    HW114072   2.983   5.079   7.022
 4391SOL    HW214073   2.978   4.973   0.115
 4392SOL     OW14074   1.347   2.277   5.201
 4392SOL    HW114075   1.354   2.222   5.284
 4392SOL    HW214076   1.351   2.374   5.225
 4393SOL     OW14077   6.405   0.547   1.421
 4393SOL    HW114078   6.366   0.455   1.414
 4393SOL    HW214079   6.395   0.580   1.515
 4394SOL     OW14080   6.764   6.078   2.646
 4394SOL    HW114081   6.739   6.112   2.737
 4394SOL    HW214082   6.864   6.070   2.641
 4395SOL     OW14083   1.999   0.981   1.934
 4395SOL    HW114084   1.964   0.898   1.977
 4395SOL    HW214085   2.026   1.046   2.005
 4396SOL     OW14086   1.734   1.898   3.936
 4396SOL    HW114087   1.753   1.933   3.844
 4396SOL    HW214088   1.661   1.830   3.931
 4397SOL     OW14089   1.675   2.670   4.567
 4397SOL    HW114090   1.603   2.674   4.498
 4397SOL    HW214091   1.670   2.583   4.615
 4398SOL     OW14092   1.654   3.484   6.302
 4398SOL    HW114093   1.580   3.504   6.238
 4398SOL    HW214094   1.731   3.545   6.282
 4399SOL     OW14095   3.654   6.139   2.325
 4399SOL    HW114096   3.656   6.079   2.404
 4399SOL    HW214097   3.699   6.226   2.347
 4400SOL     OW14098   2.312   6.798   3.925
 4400SOL    HW114099   2.301   6.702   3.899
 4400SOL    HW214100   2.323   6.805   4.024
 4401SOL     OW14101   3.430   6.730   5.393
 4401SOL    HW114102   3.354   6.784   5.357
 4401SOL    HW214103   3.503   6.791   5.423
 4402SOL     OW14104   1.146   6.766   2.928
 4402SOL    HW114105   1.201   6.831   2.981
 4402SOL    HW214106   1.091   6.711   2.991
 4403SOL     OW14107   1.463   6.418   0.230
 4403SOL    HW114108   1.397   6.488   0.206
 4403SOL    HW214109   1.555   6.449   0.206
 4404SOL     OW14110   0.766   6.368   5.236
 4404SOL    HW114111   0.682   6.316   5.218
 4404SOL    HW214112   0.751   6.430   5.313
 4405SOL     OW14113   1.633   4.576   2.106
 4405SOL    HW114114   1.558   4.523   2.146
 4405SOL    HW214115   1.674   4.524   2.031
 4406SOL     OW14116   6.805   2.863   0.721
 4406SOL    HW114117   6.844   2.808   0.647
 4406SOL    HW214118   6.743   2.931   0.683
 4407SOL     OW14119   0.420   5.089   1.726
 4407SOL    HW114120   0.335   5.049   1.760
 4407SOL    HW214121   0.419   5.188   1.743
 4408SOL     OW14122   2.234   0.068   7.009
 4408SOL    HW114123   2.314   0.011   7.023
 4408SOL    HW214124   2.175   0.064   0.060
 4409SOL     OW14125   4.270   1.480   1.573
 4409SOL    HW114126   4.349   1.422   1.594
 4409SOL    HW214127   4.270   1.502   1.476
 4410SOL     OW14128   0.519   5.745   0.076
 4410SOL    HW114129   0.527   5.783   0.168
 4410SOL    HW214130   0.518   5.820   0.010
 4411SOL     OW14131   3.796   4.563   5.471
 4411SOL    HW114132   3.798   4.467   5.444
 4411SOL    HW214133   3.838   4.618   5.400
 4412SOL     OW14134   4.423   6.353   4.402
 4412SOL    HW114135   4.457   6.262   4.429
 4412SOL    HW214136   4.471   6.382   4.319
 4413SOL     OW14137   5.586   5.380   3.859
 4413SOL    HW114138   5.560   5.469   3.897
 4413SOL    HW214139   5.678   5.387   3.819
 4414SOL     OW14140   3.436   5.960   1.150
 4414SOL    HW114141   3.424   5.899   1.229
 4414SOL    HW214142   3.508   5.924   1.091
 4415SOL     OW14143   4.399   3.244   0.291
 4415SOL    HW114144   4.426   3.335   0.258
 4415SOL    HW214145   4.308   3.250   0.333
 4416SOL     OW14146   4.369   1.726   3.660
 4416SOL    HW114147   4.408   1.818   3.666
 4416SOL    HW214148   4.439   1.658   3.684
 4417SOL     OW14149   5.779   3.751   3.631
 4417SOL    HW114150   5.686   3.785   3.648
 4417SOL    HW214151   5.810   3.699   3.709
 4418SOL     OW14152   6.188   1.878   3.034
 4418SOL    HW114153   6.089   1.889   3.034
 4418SOL    HW214154   6.224   1.896   3.126
 4419SOL     OW14155   6.563   7.015   5.704
 4419SOL    HW114156   6.473   6.989   5.668
 4419SOL    HW214157   6.619   0.020   5.629
 4420SOL     OW14158   3.825   1.590   1.431
 4420SOL    HW114159   3.870   1.512   1.476
 4420SOL    HW214160   3.854   1.675   1.475
 4421SOL     OW14161   1.915   1.516   5.351
 4421SOL    HW114162   1.852   1.514   5.273
 4421SOL    HW214163   2.007   1.492   5.320
 4422SOL     OW14164   1.112   4.596   6.766
 4422SOL    HW114165   1.037   4.659   6.787
 4422SOL    HW214166   1.155   4.624   6.680
 4423SOL     OW14167   0.357   4.008   5.853
 4423SOL    HW114168   0.306   3.982   5.935
 4423SOL    HW214169   0.436   4.063   5.878
 4424SOL     OW14170   5.383   6.695   4.415
 4424SOL    HW114171   5.456   6.628   4.428
 4424SOL    HW214172   5.389   6.732   4.322
 4425SOL     OW14173   1.878   5.002   0.616
 4425SOL    HW114174   1.822   5.029   0.538
 4425SOL    HW214175   1.897   4.904   0.611
 4426SOL     OW14176   0.737   1.601   4.359
 4426SOL    HW114177   0.799   1.624   4.284
 4426SOL    HW214178   0.682   1.681   4.382
 4427SOL     OW14179   5.191   6.683   2.916
 4427SOL    HW114180   5.271   6.676   2.976
 4427SOL    HW214181   5.132   6.603   2.931
 4428SOL     OW14182   4.465   0.880   4.162
 4428SOL    HW114183   4.370   0.849   4.162
 4428SOL    HW214184   4.470   0.974   4.129
 4429SOL     OW14185   2.859   6.969   2.559
 4429SOL    HW114186   2.775   6.947   2.610
 4429SOL    HW214187   2.934   6.912   2.591
 4430SOL     OW14188   4.818   4.771   4.919
 4430SOL    HW114189   4.863   4.681   4.910
 4430SOL    HW214190   4.882   4.835   4.960
 4431SOL     OW14191   2.910   0.933   3.272
 4431SOL    HW114192   2.969   0.920   3.193
 4431SOL    HW214193   2.839   1.000   3.250
 4432SOL     OW14194   2.747   3.616   6.345
 4432SOL    HW114195   2.701   3.617   6.434
 4432SOL    HW214196   2.679   3.631   6.273
 4433SOL     OW14197   6.993   2.532   4.412
 4433SOL    HW114198   0.010   2.462   4.359
 4433SOL    HW214199   7.026   2.622   4.385
 4434SOL     OW14200   5.466   1.648   3.077
 4434SOL    HW114201   5.564   1.661   3.065
 4434SOL    HW214202   5.430   1.593   3.002
 4435SOL     OW14203   4.302   3.629   1.212
 4435SOL    HW114204   4.368   3.574   1.160
 4435SOL    HW214205   4.220   3.574   1.231
 4436SOL     OW14206   4.185   1.256   1.306
 4436SOL    HW114207   4.238   1.333   1.271
 4436SOL    HW214208   4.102   1.290   1.349
 4437SOL     OW14209   1.040   3.020   2.936
 4437SOL    HW114210   1.085   3.076   3.005
 4437SOL    HW214211   0.990   2.945   2.980
 4438SOL     OW14212   4.792   6.847   6.093
 4438SOL    HW114213   4.776   6.878   5.999
 4438SOL    HW214214   4.874   6.891   6.129
 4439SOL     OW14215   0.311   5.080   2.377
 4439SOL    HW114216   0.228   5.073   2.432
 4439SOL    HW214217   0.352   4.989   2.366
 4440SOL     OW14218   2.609   5.245   0.669
 4440SOL    HW114219   2.629   5.181   0.743
 4440SOL    HW214220   2.517   5.282   0.680
 4441SOL     OW14221   0.135   1.228   1.081
 4441SOL    HW114222   0.040   1.242   1.109
 4441SOL    HW214223   0.187   1.312   1.095
 4442SOL     OW14224   1.523   5.554   4.764
 4442SOL    HW114225   1.560   5.465   4.736
 4442SOL    HW214226   1.423   5.552   4.759
 4443SOL     OW14227   1.161   3.493   5.875
 4443SOL    HW114228   1.204   3.447   5.953
 4443SOL    HW214229   1.062   3.484   5.882
 4444SOL     OW14230   4.476   3.476   0.205
 4444SOL    HW114231   4.512   3.453   0.115
 4444SOL    HW214232   4.393   3.530   0.196
 4445SOL     OW14233   1.475   6.216   6.999
 4445SOL    HW114234   1.395   6.271   6.973
 4445SOL    HW214235   1.450   6.120   7.000
 4446SOL     OW14236   5.788   1.959   0.217
 4446SOL    HW114237   5.793   1.880   0.279
 4446SOL    HW214238   5.745   1.930   0.132
 4447SOL     OW14239   6.018   3.910   4.823
 4447SOL    HW114240   6.076   3.853   4.881
 4447SOL    HW214241   6.053   4.003   4.821
 4448SOL     OW14242   3.032   6.077   0.718
 4448SOL    HW114243   2.952   6.121   0.677
 4448SOL    HW214244   3.088   6.036   0.645
 4449SOL     OW14245   5.075   0.655   5.970
 4449SOL    HW114246   5.166   0.615   5.979
 4449SOL    HW214247   5.007   0.582   5.963
 4450SOL     OW14248   3.077   1.810   6.853
 4450SOL    HW114249   2.988   1.850   6.830
 4450SOL    HW214250   3.136   1.881   6.890
 4451SOL     OW14251   4.506   4.937   4.848
 4451SOL    HW114252   4.484   5.007   4.781
 4451SOL    HW214253   4.605   4.926   4.854
 4452SOL     OW14254   5.916   5.483   4.378
 4452SOL    HW114255   5.908   5.530   4.291
 4452SOL    HW214256   6.009   5.492   4.413
 4453SOL     OW14257   1.210   2.762   1.975
 4453SOL    HW114258   1.204   2.836   2.042
 4453SOL    HW214259   1.150   2.783   1.897
 4454SOL     OW14260   1.657   1.624   0.098
 4454SOL    HW114261   1.666   1.641   7.030
 4454SOL    HW214262   1.588   1.553   0.113
 4455SOL     OW14263   5.436   6.190   5.503
 4455SOL    HW114264   5.337   6.190   5.493
 4455SOL    HW214265   5.463   6.136   5.582
 4456SOL     OW14266   2.355   5.836   2.928
 4456SOL    HW114267   2.411   5.772   2.981
 4456SOL    HW214268   2.408   5.918   2.907
 4457SOL     OW14269   3.070   1.729   3.860
 4457SOL    HW114270   3.130   1.741   3.781
 4457SOL    HW214271   3.046   1.818   3.898
 4458SOL     OW14272   2.543   3.858   1.464
 4458SOL    HW114273   2.477   3.806   1.519
 4458SOL    HW214274   2.607   3.906   1.525
 4459SOL     OW14275   3.756   1.884   4.346
 4459SOL    HW114276   3.734   1.980   4.364
 4459SOL    HW214277   3.792   1.843   4.430
 4460SOL     OW14278   0.619   2.839   6.590
 4460SOL    HW114279   0.697   2.901   6.583
 4460SOL    HW214280   0.577   2.848   6.680
 4461SOL     OW14281   2.108   0.573   0.933
 4461SOL    HW114282   2.172   0.633   0.980
 4461SOL    HW214283   2.088   0.610   0.843
 4462SOL     OW14284   5.823   4.356   1.826
 4462SOL    HW114285   5.773   4.277   1.860
 4462SOL    HW214286   5.858   4.337   1.734
 4463SOL     OW14287   5.031   1.320   1.209
 4463SOL    HW114288   5.037   1.235   1.260
 4463SOL    HW214289   5.105   1.381   1.237
 4464SOL     OW14290   0.275   6.390   0.564
 4464SOL    HW114291   0.311   6.348   0.481
 4464SOL    HW214292   0.334   6.465   0.593
 4465SOL     OW14293   2.335   5.048   0.373
 4465SOL    HW114294   2.292   5.087   0.454
 4465SOL    HW214295   2.317   4.950   0.370
 4466SOL     OW14296   1.035   1.732   2.699
 4466SOL    HW114297   1.003   1.680   2.619
 4466SOL    HW214298   1.107   1.680   2.745
 4467SOL     OW14299   2.459   5.098   3.635
 4467SOL    HW114300   2.384   5.054   3.683
 4467SOL    HW214301   2.441   5.099   3.537
 4468SOL     OW14302   1.516   4.347   1.102
 4468SOL    HW114303   1.418   4.334   1.088
 4468SOL    HW214304   1.536   4.444   1.112
 4469SOL     OW14305   3.212   0.747   0.849
 4469SOL    HW114306   3.195   0.782   0.756
 4469SOL    HW214307   3.227   0.824   0.911
 4470SOL     OW14308   0.786   1.807   2.392
 4470SOL    HW114309   0.877   1.816   2.351
 4470SOL    HW214310   0.739   1.729   2.351
 4471SOL     OW14311   1.455   3.042   6.768
 4471SOL    HW114312   1.365   3.060   6.808
 4471SOL    HW214313   1.514   3.000   6.836
 4472SOL     OW14314   0.737   2.063   0.997
 4472SOL    HW114315   0.662   2.122   1.026
 4472SOL    HW214316   0.720   1.969   1.028
 4473SOL     OW14317   5.429   2.514   4.186
 4473SOL    HW114318   5.341   2.561   4.181
 4473SOL    HW214319   5.493   2.554   4.121
 4474SOL     OW14320   3.215   6.767   1.495
 4474SOL    HW114321   3.235   6.850   1.547
 4474SOL    HW214322   3.119   6.742   1.507
 4475SOL     OW14323   1.372   3.728   1.793
 4475SOL    HW114324   1.367   3.659   1.865
 4475SOL    HW214325   1.349   3.686   1.705
 4476SOL     OW14326   6.817   0.658   4.182
 4476SOL    HW114327   6.787   0.748   4.214
 4476SOL    HW214328   6.741   0.594   4.186
 4477SOL     OW14329   1.712   0.617   5.503
 4477SOL    HW114330   1.747   0.526   5.525
 4477SOL    HW214331   1.650   0.648   5.576
 4478SOL     OW14332   2.191   0.143   1.996
 4478SOL    HW114333   2.110   0.088   1.978
 4478SOL    HW214334   2.266   0.084   2.026
 4479SOL     OW14335   1.052   2.054   1.603
 4479SOL    HW114336   1.050   2.137   1.659
 4479SOL    HW214337   1.051   2.079   1.506
 4480SOL     OW14338   0.493   4.503   4.974
 4480SOL    HW114339   0.486   4.411   4.937
 4480SOL    HW214340   0.456   4.568   4.907
 4481SOL     OW14341   2.423   5.269   4.943
 4481SOL    HW114342   2.456   5.347   4.996
 4481SOL    HW214343   2.384   5.302   4.857
 4482SOL     OW14344   2.313   2.677   5.519
 4482SOL    HW114345   2.371   2.693   5.439
 4482SOL    HW214346   2.369   2.672   5.601
 4483SOL     OW14347   0.111   2.581   2.120
 4483SOL    HW114348   0.058   2.558   2.039
 4483SOL    HW214349   0.193   2.632   2.094
 4484SOL     OW14350   2.586   2.447   6.981
 4484SOL    HW114351   2.538   2.498   0.021
 4484SOL    HW214352   2.552   2.473   6.891
 4485SOL     OW14353   5.119   2.682   5.294
 4485SOL    HW114354   5.173   2.766   5.284
 4485SOL    HW214355   5.116   2.634   5.206
 4486SOL     OW14356   6.310   5.115   5.012
 4486SOL    HW114357   6.250   5.145   5.087
 4486SOL    HW214358   6.254   5.095   4.931
 4487SOL     OW14359   2.943   3.460   0.256
 4487SOL    HW114360   2.905   3.532   0.313
 4487SOL    HW214361   2.872   3.392   0.238
 4488SOL     OW14362   0.956   3.467   4.631
 4488SOL    HW114363   0.979   3.436   4.538
 4488SOL    HW214364   0.976   3.393   4.695
 4489SOL     OW14365   4.758   5.627   4.983
 4489SOL    HW114366   4.760   5.711   4.929
 4489SOL    HW214367   4.749   5.650   5.080
 4490SOL     OW14368   5.397   1.446   1.742
 4490SOL    HW114369   5.358   1.537   1.758
 4490SOL    HW214370   5.497   1.450   1.750
 4491SOL     OW14371   0.475   3.697   3.442
 4491SOL    HW114372   0.410   3.632   3.481
 4491SOL    HW214373   0.558   3.699   3.498
 4492SOL     OW14374   6.110   3.411   1.712
 4492SOL    HW114375   6.129   3.338   1.647
 4492SOL    HW214376   6.197   3.448   1.746
 4493SOL     OW14377   4.914   6.357   5.108
 4493SOL    HW114378   4.997   6.324   5.062
 4493SOL    HW214379   4.898   6.453   5.084
 4494SOL     OW14380   0.990   0.935   6.026
 4494SOL    HW114381   0.977   1.027   5.989
 4494SOL    HW214382   1.083   0.904   6.005
 4495SOL     OW14383   4.434   6.725   3.343
 4495SOL    HW114384   4.523   6.769   3.335
 4495SOL    HW214385   4.416   6.672   3.260
 4496SOL     OW14386   5.344   6.203   0.831
 4496SOL    HW114387   5.251   6.238   0.821
 4496SOL    HW214388   5.363   6.186   0.928
 4497SOL     OW14389   4.242   2.230   6.517
 4497SOL    HW114390   4.315   2.171   6.549
 4497SOL    HW214391   4.261   2.259   6.423
 4498SOL     OW14392   6.526   4.542   6.344
 4498SOL    HW114393   6.572   4.455   6.360
 4498SOL    HW214394   6.454   4.555   6.412
 4499SOL     OW14395   6.268   2.804   3.628
 4499SOL    HW114396   6.279   2.784   3.725
 4499SOL    HW214397   6.256   2.903   3.616
 4500SOL     OW14398   4.121   4.171   6.890
 4500SOL    HW114399   4.118   4.268   6.863
 4500SOL    HW214400   4.094   4.115   6.812
 4501SOL     OW14401   6.571   3.312   3.053
 4501SOL    HW114402   6.515   3.301   2.971
 4501SOL    HW214403   6.619   3.227   3.072
 4502SOL     OW14404   1.407   3.816   0.310
 4502SOL    HW114405   1.378   3.776   0.223
 4502SOL    HW214406   1.451   3.903   0.292
 4503SOL     OW14407   3.424   6.943   1.881
 4503SOL    HW114408   3.397   6.870   1.943
 4503SOL    HW214409   3.518   6.970   1.901
 4504SOL     OW14410   6.313   1.890   4.443
 4504SOL    HW114411   6.301   1.941   4.528
 4504SOL    HW214412   6.395   1.923   4.396
 4505SOL     OW14413   6.601   4.839   1.778
 4505SOL    HW114414   6.593   4.859   1.876
 4505SOL    HW214415   6.693   4.808   1.757
 4506SOL     OW14416   4.942   2.572   3.643
 4506SOL    HW114417   4.974   2.644   3.581
 4506SOL    HW214418   4.855   2.598   3.683
 4507SOL     OW14419   0.231   3.458   3.808
 4507SOL    HW114420   0.240   3.557   3.811
 4507SOL    HW214421   0.266   3.419   3.894
 4508SOL     OW14422   1.096   4.665   0.256
 4508SOL    HW114423   0.999   4.684   0.270
 4508SOL    HW214424   1.143   4.748   0.226
 4509SOL     OW14425   4.960   1.871   3.105
 4509SOL    HW114426   4.892   1.878   3.033
 4509SOL    HW214427   4.964   1.777   3.139
 4510SOL     OW14428   4.636   0.966   4.729
 4510SOL    HW114429   4.717   0.987   4.784
 4510SOL    HW214430   4.558   1.019   4.764
 4511SOL     OW14431   6.353   3.550   0.353
 4511SOL    HW114432   6.285   3.478   0.364
 4511SOL    HW214433   6.307   3.639   0.347
 4512SOL     OW14434   3.472   1.594   6.091
 4512SOL    HW114435   3.492   1.499   6.068
 4512SOL    HW214436   3.390   1.624   6.041
 4513SOL     OW14437   1.034   5.828   6.366
 4513SOL    HW114438   0.996   5.878   6.289
 4513SOL    HW214439   1.086   5.891   6.424
 4514SOL     OW14440   3.812   2.550   6.007
 4514SOL    HW114441   3.855   2.624   5.955
 4514SOL    HW214442   3.796   2.472   5.948
 4515SOL     OW14443   5.765   1.889   5.627
 4515SOL    HW114444   5.750   1.982   5.658
 4515SOL    HW214445   5.681   1.852   5.586
 4516SOL     OW14446   2.326   0.095   5.887
 4516SOL    HW114447   2.367   0.005   5.869
 4516SOL    HW214448   2.232   0.084   5.918
 4517SOL     OW14449   4.830   0.236   6.640
 4517SOL    HW114450   4.789   0.157   6.687
 4517SOL    HW214451   4.765   0.312   6.642
 4518SOL     OW14452   0.573   6.833   1.644
 4518SOL    HW114453   0.561   6.910   1.707
 4518SOL    HW214454   0.671   6.821   1.626
 4519SOL     OW14455   4.709   6.752   7.016
 4519SOL    HW114456   4.793   6.806   7.028
 4519SOL    HW214457   4.692   6.737   6.919
 4520SOL     OW14458   3.997   5.750   6.068
 4520SOL    HW114459   3.934   5.705   6.131
 4520SOL    HW214460   4.059   5.809   6.120
 4521SOL     OW14461   4.939   2.147   4.686
 4521SOL    HW114462   4.970   2.126   4.593
 4521SOL    HW214463   5.006   2.205   4.731
 4522SOL     OW14464   5.557   4.185   2.584
 4522SOL    HW114465   5.482   4.232   2.630
 4522SOL    HW214466   5.560   4.089   2.614
 4523SOL     OW14467   1.622   3.933   6.908
 4523SOL    HW114468   1.548   3.996   6.885
 4523SOL    HW214469   1.594   3.876   6.986
 4524SOL     OW14470   5.866   3.224   2.559
 4524SOL    HW114471   5.923   3.149   2.526
 4524SOL    HW214472   5.770   3.196   2.558
 4525SOL     OW14473   3.195   2.027   5.984
 4525SOL    HW114474   3.219   2.074   6.069
 4525SOL    HW214475   3.278   1.990   5.942
 4526SOL     OW14476   6.703   0.533   6.756
 4526SOL    HW114477   6.684   0.499   6.664
 4526SOL    HW214478   6.718   0.456   6.817
 4527SOL     OW14479   6.509   6.766   2.858
 4527SOL    HW114480   6.425   6.818   2.844
 4527SOL    HW214481   6.538   6.776   2.953
 4528SOL     OW14482   4.179   0.757   6.543
 4528SOL    HW114483   4.122   0.752   6.461
 4528SOL    HW214484   4.152   0.837   6.597
 4529SOL     OW14485   2.733   1.222   5.702
 4529SOL    HW114486   2.654   1.255   5.651
 4529SOL    HW214487   2.728   1.123   5.711
 4530SOL     OW14488   2.174   5.899   3.578
 4530SOL    HW114489   2.206   5.845   3.501
 4530SOL    HW214490   2.074   5.895   3.582
 4531SOL     OW14491   1.414   3.584   6.105
 4531SOL    HW114492   1.335   3.527   6.129
 4531SOL    HW214493   1.386   3.655   6.041
 4532SOL     OW14494   5.802   0.192   2.726
 4532SOL    HW114495   5.793   0.287   2.754
 4532SOL    HW214496   5.891   0.177   2.683
 4533SOL     OW14497   1.654   1.311   3.342
 4533SOL    HW114498   1.585   1.374   3.306
 4533SOL    HW214499   1.611   1.223   3.363
 4534SOL     OW14500   4.653   2.363   5.309
 4534SOL    HW114501   4.708   2.321   5.236
 4534SOL    HW214502   4.581   2.419   5.267
 4535SOL     OW14503   3.910   1.256   1.426
 4535SOL    HW114504   3.911   1.329   1.494
 4535SOL    HW214505   3.837   1.272   1.360
 4536SOL     OW14506   3.190   1.915   4.829
 4536SOL    HW114507   3.277   1.880   4.793
 4536SOL    HW214508   3.133   1.839   4.858
 4537SOL     OW14509   4.134   3.368   2.184
 4537SOL    HW114510   4.149   3.277   2.223
 4537SOL    HW214511   4.159   3.367   2.087
 4538SOL     OW14512   2.423   0.914   2.712
 4538SOL    HW114513   2.520   0.917   2.687
 4538SOL    HW214514   2.415   0.908   2.812
 4539SOL     OW14515   2.191   6.033   4.503
 4539SOL    HW114516   2.197   6.125   4.542
 4539SOL    HW214517   2.264   5.975   4.541
 4540SOL     OW14518   2.312   1.338   0.849
 4540SOL    HW114519   2.374   1.262   0.866
 4540SOL    HW214520   2.355   1.423   0.877
 4541SOL     OW14521   5.496   1.202   6.921
 4541SOL    HW114522   5.440   1.172   6.844
 4541SOL    HW214523   5.514   1.126   6.983
 4542SOL     OW14524   6.855   1.847   1.377
 4542SOL    HW114525   6.861   1.846   1.278
 4542SOL    HW214526   6.846   1.941   1.410
 4543SOL     OW14527   4.990   2.085   0.982
 4543SOL    HW114528   4.991   2.163   1.046
 4543SOL    HW214529   5.021   2.116   0.892
 4544SOL     OW14530   3.820   5.135   0.481
 4544SOL    HW114531   3.840   5.062   0.546
 4544SOL    HW214532   3.768   5.207   0.527
 4545SOL     OW14533   0.432   3.794   5.243
 4545SOL    HW114534   0.398   3.719   5.186
 4545SOL    HW214535   0.371   3.807   5.321
 4546SOL     OW14536   2.749   0.259   5.175
 4546SOL    HW114537   2.818   0.331   5.186
 4546SOL    HW214538   2.791   0.177   5.136
 4547SOL     OW14539   6.324   1.316   0.300
 4547SOL    HW114540   6.400   1.283   0.245
 4547SOL    HW214541   6.241   1.265   0.276
 4548SOL     OW14542   2.678   2.220   3.360
 4548SOL    HW114543   2.584   2.220   3.325
 4548SOL    HW214544   2.688   2.292   3.429
 4549SOL     OW14545   5.073   3.990   2.333
 4549SOL    HW114546   5.053   3.957   2.425
 4549SOL    HW214547   5.107   3.914   2.278
 4550SOL     OW14548   1.286   4.327   3.399
 4550SOL    HW114549   1.226   4.353   3.323
 4550SOL    HW214550   1.320   4.410   3.444
 4551SOL     OW14551   1.005   4.115   5.148
 4551SOL    HW114552   0.981   4.187   5.082
 4551SOL    HW214553   0.950   4.033   5.129
 4552SOL     OW14554   5.567   2.467   0.827
 4552SOL    HW114555   5.471   2.483   0.803
 4552SOL    HW214556   5.598   2.380   0.787
 4553SOL     OW14557   5.531   4.542   6.614
 4553SOL    HW114558   5.498   4.456   6.574
 4553SOL    HW214559   5.490   4.555   6.704
 4554SOL     OW14560   0.253   6.922   1.921
 4554SOL    HW114561   0.166   6.931   1.970
 4554SOL    HW214562   0.249   6.841   1.863
 4555SOL     OW14563   1.592   1.255   6.299
 4555SOL    HW114564   1.518   1.206   6.345
 4555SOL    HW214565   1.648   1.303   6.367
 4556SOL     OW14566   6.195   2.972   4.919
 4556SOL    HW114567   6.202   2.987   4.821
 4556SOL    HW214568   6.157   3.054   4.963
 4557SOL     OW14569   5.836   4.894   4.311
 4557SOL    HW114570   5.863   4.989   4.320
 4557SOL    HW214571   5.737   4.886   4.327
 4558SOL     OW14572   6.615   3.357   4.850
 4558SOL    HW114573   6.640   3.264   4.824
 4558SOL    HW214574   6.678   3.423   4.809
 4559SOL     OW14575   6.893   3.434   2.887
 4559SOL    HW114576   6.920   3.490   2.965
 4559SOL    HW214577   6.801   3.458   2.858
 4560SOL     OW14578   6.057   4.409   2.395
 4560SOL    HW114579   6.049   4.329   2.454
 4560SOL    HW214580   6.000   4.483   2.430
 4561SOL     OW14581   3.702   1.686   3.604
 4561SOL    HW114582   3.772   1.734   3.657
 4561SOL    HW214583   3.672   1.744   3.529
 4562SOL     OW14584   1.236   0.217   0.146
 4562SOL    HW114585   1.323   0.266   0.141
 4562SOL    HW214586   1.217   0.192   0.241
 4563SOL     OW14587   6.547   3.715   0.646
 4563SOL    HW114588   6.624   3.658   0.674
 4563SOL    HW214589   6.557   3.739   0.549
 4564SOL     OW14590   6.996   5.415   2.272
 4564SOL    HW114591   0.047   5.430   2.216
 4564SOL    HW214592   6.956   5.504   2.297
 4565SOL     OW14593   1.417   1.272   4.723
 4565SOL    HW114594   1.427   1.224   4.636
 4565SOL    HW214595   1.347   1.342   4.715
 4566SOL     OW14596   0.380   3.473   1.156
 4566SOL    HW114597   0.308   3.424   1.205
 4566SOL    HW214598   0.414   3.548   1.213
 4567SOL     OW14599   6.853   1.063   6.444
 4567SOL    HW114600   6.878   1.015   6.360
 4567SOL    HW214601   6.769   1.025   6.481
 4568SOL     OW14602   1.168   3.798   5.211
 4568SOL    HW114603   1.190   3.707   5.246
 4568SOL    HW214604   1.069   3.808   5.202
 4569SOL     OW14605   3.107   0.568   2.952
 4569SOL    HW114606   3.107   0.529   3.044
 4569SOL    HW214607   3.046   0.514   2.893
 4570SOL     OW14608   6.189   6.375   2.044
 4570SOL    HW114609   6.241   6.302   1.999
 4570SOL    HW214610   6.196   6.459   1.990
 4571SOL     OW14611   4.319   2.742   6.690
 4571SOL    HW114612   4.393   2.774   6.631
 4571SOL    HW214613   4.330   2.781   6.781
 4572SOL     OW14614   2.078   1.321   6.833
 4572SOL    HW114615   2.010   1.284   6.770
 4572SOL    HW214616   2.088   1.259   6.912
 4573SOL     OW14617   0.378   0.018   0.219
 4573SOL    HW114618   0.408   0.053   0.130
 4573SOL    HW214619   0.456   7.009   0.267
 4574SOL     OW14620   5.468   4.527   0.111
 4574SOL    HW114621   5.455   4.613   0.161
 4574SOL    HW214622   5.565   4.513   0.093
 4575SOL     OW14623   6.066   0.259   4.826
 4575SOL    HW114624   6.131   0.242   4.753
 4575SOL    HW214625   5.975   0.228   4.798
 4576SOL     OW14626   2.536   4.752   5.351
 4576SOL    HW114627   2.544   4.696   5.268
 4576SOL    HW214628   2.626   4.760   5.395
 4577SOL     OW14629   1.974   2.431   3.079
 4577SOL    HW114630   1.946   2.346   3.124
 4577SOL    HW214631   1.931   2.436   2.989
 4578SOL     OW14632   1.057   1.444   4.211
 4578SOL    HW114633   1.089   1.517   4.151
 4578SOL    HW214634   0.957   1.437   4.205
 4579SOL     OW14635   4.458   1.263   2.122
 4579SOL    HW114636   4.398   1.321   2.177
 4579SOL    HW214637   4.460   1.171   2.160
 4580SOL     OW14638   5.585   3.882   1.112
 4580SOL    HW114639   5.601   3.878   1.211
 4580SOL    HW214640   5.526   3.960   1.091
 4581SOL     OW14641   2.836   6.302   2.502
 4581SOL    HW114642   2.783   6.291   2.586
 4581SOL    HW214643   2.791   6.368   2.442
 4582SOL     OW14644   4.955   0.962   3.362
 4582SOL    HW114645   4.886   1.004   3.303
 4582SOL    HW214646   4.971   1.020   3.442
 4583SOL     OW14647   2.876   1.250   6.733
 4583SOL    HW114648   2.961   1.221   6.777
 4583SOL    HW214649   2.894   1.269   6.636
 4584SOL     OW14650   1.671   6.058   5.484
 4584SOL    HW114651   1.674   6.157   5.488
 4584SOL    HW214652   1.760   6.021   5.513
 4585SOL     OW14653   2.018   4.352   3.245
 4585SOL    HW114654   1.932   4.332   3.293
 4585SOL    HW214655   2.003   4.351   3.146
 4586SOL     OW14656   4.701   4.051   0.300
 4586SOL    HW114657   4.782   4.005   0.338
 4586SOL    HW214658   4.621   3.993   0.313
 4587SOL     OW14659   3.591   3.361   4.280
 4587SOL    HW114660   3.647   3.280   4.295
 4587SOL    HW214661   3.532   3.347   4.201
 4588SOL     OW14662   3.386   3.256   5.722
 4588SOL    HW114663   3.304   3.221   5.767
 4588SOL    HW214664   3.424   3.186   5.662
 4589SOL     OW14665   5.193   6.950   1.896
 4589SOL    HW114666   5.177   6.856   1.925
 4589SOL    HW214667   5.238   7.001   1.970
 4590SOL     OW14668   3.835   5.456   1.466
 4590SOL    HW114669   3.795   5.421   1.551
 4590SOL    HW214670   3.907   5.394   1.435
 4591SOL     OW14671   1.589   0.624   5.155
 4591SOL    HW114672   1.516   0.613   5.223
 4591SOL    HW214673   1.563   0.577   5.070
 4592SOL     OW14674   3.379   1.304   3.263
 4592SOL    HW114675   3.311   1.299   3.335
 4592SOL    HW214676   3.349   1.367   3.192
 4593SOL     OW14677   5.997   6.112   1.921
 4593SOL    HW114678   6.001   6.028   1.866
 4593SOL    HW214679   6.069   6.175   1.891
 4594SOL     OW14680   3.845   0.780   3.063
 4594SOL    HW114681   3.846   0.784   2.963
 4594SOL    HW214682   3.798   0.697   3.093
 4595SOL     OW14683   4.663   3.012   5.686
 4595SOL    HW114684   4.669   3.075   5.609
 4595SOL    HW214685   4.616   3.056   5.762
 4596SOL     OW14686   6.312   0.444   2.795
 4596SOL    HW114687   6.300   0.540   2.822
 4596SOL    HW214688   6.318   0.438   2.695
 4597SOL     OW14689   2.496   5.849   6.307
 4597SOL    HW114690   2.538   5.844   6.398
 4597SOL    HW214691   2.568   5.852   6.237
 4598SOL     OW14692   1.700   5.685   1.586
 4598SOL    HW114693   1.732   5.668   1.492
 4598SOL    HW214694   1.687   5.784   1.599
 4599SOL     OW14695   1.355   4.487   1.345
 4599SOL    HW114696   1.360   4.462   1.442
 4599SOL    HW214697   1.278   4.439   1.303
 4600SOL     OW14698   0.400   6.930   5.449
 4600SOL    HW114699   0.306   6.894   5.448
 4600SOL    HW214700   0.432   6.941   5.355
 4601SOL     OW14701   0.537   1.715   5.248
 4601SOL    HW114702   0.540   1.781   5.323
 4601SOL    HW214703   0.628   1.677   5.234
 4602SOL     OW14704   3.195   6.752   6.842
 4602SOL    HW114705   3.133   6.794   6.775
 4602SOL    HW214706   3.142   6.721   6.921
 4603SOL     OW14707   3.298   5.648   0.730
 4603SOL    HW114708   3.322   5.622   0.824
 4603SOL    HW214709   3.199   5.658   0.723
 4604SOL     OW14710   4.943   0.015   6.236
 4604SOL    HW114711   5.031   0.028   6.281
 4604SOL    HW214712   4.883   0.093   6.256
 4605SOL     OW14713   2.610   0.022   1.632
 4605SOL    HW114714   2.554   0.068   1.563
 4605SOL    HW214715   2.698   0.068   1.640
 4606SOL     OW14716   6.793   0.194   2.579
 4606SOL    HW114717   6.870   0.165   2.522
 4606SOL    HW214718   6.772   0.123   2.646
 4607SOL     OW14719   2.006   3.827   3.026
 4607SOL    HW114720   1.962   3.905   3.071
 4607SOL    HW214721   1.962   3.811   2.937
 4608SOL     OW14722   6.990   4.015   3.165
 4608SOL    HW114723   0.031   3.945   3.171
 4608SOL    HW214724   6.955   4.019   3.072
 4609SOL     OW14725   5.042   4.960   0.236
 4609SOL    HW114726   4.987   4.922   0.311
 4609SOL    HW214727   5.132   4.985   0.270
 4610SOL     OW14728   4.470   2.071   0.093
 4610SOL    HW114729   4.409   2.139   0.053
 4610SOL    HW214730   4.557   2.114   0.118
 4611SOL     OW14731   0.628   0.657   6.005
 4611SOL    HW114732   0.570   0.585   6.041
 4611SOL    HW214733   0.694   0.684   6.075
 4612SOL     OW14734   2.976   6.561   1.737
 4612SOL    HW114735   2.996   6.656   1.713
 4612SOL    HW214736   2.942   6.557   1.831
 4613SOL     OW14737   1.429   5.532   2.685
 4613SOL    HW114738   1.527   5.522   2.666
 4613SOL    HW214739   1.377   5.504   2.605
 4614SOL     OW14740   6.286   3.126   3.626
 4614SOL    HW114741   6.319   3.207   3.674
 4614SOL    HW214742   6.356   3.093   3.563
 4615SOL     OW14743   1.626   0.722   0.914
 4615SOL    HW114744   1.591   0.634   0.946
 4615SOL    HW214745   1.633   0.721   0.814
 4616SOL     OW14746   5.963   1.961   4.376
 4616SOL    HW114747   5.960   2.043   4.319
 4616SOL    HW214748   6.005   1.886   4.325
 4617SOL     OW14749   1.532   2.290   1.988
 4617SOL    HW114750   1.453   2.277   1.927
 4617SOL    HW214751   1.561   2.202   2.024
 4618SOL     OW14752   2.262   2.855   5.773
 4618SOL    HW114753   2.285   2.928   5.837
 4618SOL    HW214754   2.264   2.890   5.679
 4619SOL     OW14755   3.395   6.537   4.138
 4619SOL    HW114756   3.417   6.621   4.188
 4619SOL    HW214757   3.342   6.561   4.056
 4620SOL     OW14758   0.726   4.102   1.301
 4620SOL    HW114759   0.654   4.169   1.320
 4620SOL    HW214760   0.708   4.059   1.213
 4621SOL     OW14761   5.117   0.917   2.731
 4621SOL    HW114762   5.170   0.955   2.656
 4621SOL    HW214763   5.037   0.869   2.695
 4622SOL     OW14764   3.742   4.942   1.116
 4622SOL    HW114765   3.651   4.907   1.094
 4622SOL    HW214766   3.745   5.041   1.099
 4623SOL     OW14767   3.901   5.125   0.837
 4623SOL    HW114768   3.816   5.071   0.840
 4623SOL    HW214769   3.942   5.129   0.928
 4624SOL     OW14770   3.353   1.055   3.168
 4624SOL    HW114771   3.266   1.059   3.119
 4624SOL    HW214772   3.364   1.137   3.224
 4625SOL     OW14773   2.105   5.574   2.156
 4625SOL    HW114774   2.149   5.552   2.243
 4625SOL    HW214775   2.091   5.673   2.149
 4626SOL     OW14776   3.910   4.350   1.603
 4626SOL    HW114777   3.960   4.392   1.678
 4626SOL    HW214778   3.915   4.409   1.522
 4627SOL     OW14779   1.104   6.081   5.001
 4627SOL    HW114780   1.109   6.015   5.077
 4627SOL    HW214781   1.035   6.150   5.021
 4628SOL     OW14782   4.381   4.642   4.643
 4628SOL    HW114783   4.318   4.717   4.665
 4628SOL    HW214784   4.380   4.575   4.718
 4629SOL     OW14785   2.477   5.066   6.332
 4629SOL    HW114786   2.440   4.974   6.343
 4629SOL    HW214787   2.568   5.070   6.373
 4630SOL     OW14788   2.259   5.029   2.579
 4630SOL    HW114789   2.202   4.954   2.612
 4630SOL    HW214790   2.207   5.115   2.584
 4631SOL     OW14791   0.904   6.427   3.716
 4631SOL    HW114792   0.966   6.425   3.638
 4631SOL    HW214793   0.941   6.372   3.791
 4632SOL     OW14794   2.351   5.055   3.380
 4632SOL    HW114795   2.312   5.104   3.302
 4632SOL    HW214796   2.345   4.957   3.364
 4633SOL     OW14797   5.737   1.096   4.578
 4633SOL    HW114798   5.654   1.149   4.561
 4633SOL    HW214799   5.713   0.999   4.591
 4634SOL     OW14800   2.364   3.766   5.335
 4634SOL    HW114801   2.464   3.759   5.338
 4634SOL    HW214802   2.338   3.838   5.270
 4635SOL     OW14803   4.315   4.406   1.725
 4635SOL    HW114804   4.374   4.344   1.777
 4635SOL    HW214805   4.298   4.489   1.779
 4636SOL     OW14806   1.955   4.708   0.308
 4636SOL    HW114807   1.954   4.743   0.401
 4636SOL    HW214808   2.034   4.744   0.258
 4637SOL     OW14809   0.849   6.578   0.702
 4637SOL    HW114810   0.907   6.527   0.764
 4637SOL    HW214811   0.805   6.516   0.638
 4638SOL     OW14812   3.799   5.989   6.830
 4638SOL    HW114813   3.792   6.037   6.917
 4638SOL    HW214814   3.890   5.950   6.820
 4639SOL     OW14815   2.755   2.567   6.360
 4639SOL    HW114816   2.812   2.602   6.285
 4639SOL    HW214817   2.813   2.545   6.438
 4640SOL     OW14818   6.115   2.993   4.459
 4640SOL    HW114819   6.065   2.909   4.481
 4640SOL    HW214820   6.142   3.039   4.544
 4641SOL     OW14821   2.350   0.332   3.926
 4641SOL    HW114822   2.410   0.263   3.884
 4641SOL    HW214823   2.350   0.414   3.869
 4642SOL     OW14824   1.490   7.000   2.918
 4642SOL    HW114825   1.532   0.057   2.943
 4642SOL    HW214826   1.511   6.980   2.822
 4643SOL     OW14827   6.677   2.548   0.744
 4643SOL    HW114828   6.749   2.617   0.753
 4643SOL    HW214829   6.592   2.582   0.784
 4644SOL     OW14830   0.439   0.601   5.805
 4644SOL    HW114831   0.438   0.612   5.705
 4644SOL    HW214832   0.528   0.630   5.840
 4645SOL     OW14833   1.466   1.112   4.493
 4645SOL    HW114834   1.500   1.026   4.454
 4645SOL    HW214835   1.492   1.188   4.433
 4646SOL     OW14836   2.497   5.074   3.955
 4646SOL    HW114837   2.463   5.010   3.886
 4646SOL    HW214838   2.420   5.107   4.009
 4647SOL     OW14839   1.343   0.332   2.818
 4647SOL    HW114840   1.245   0.312   2.820
 4647SOL    HW214841   1.365   0.398   2.890
 4648SOL     OW14842   2.431   0.823   4.481
 4648SOL    HW114843   2.451   0.742   4.535
 4648SOL    HW214844   2.363   0.800   4.411
 4649SOL     OW14845   6.129   0.926   0.639
 4649SOL    HW114846   6.151   0.954   0.546
 4649SOL    HW214847   6.041   0.967   0.666
 4650SOL     OW14848   4.508   5.387   1.885
 4650SOL    HW114849   4.543   5.309   1.938
 4650SOL    HW214850   4.574   5.461   1.887
 4651SOL     OW14851   5.652   3.566   6.622
 4651SOL    HW114852   5.575   3.629   6.629
 4651SOL    HW214853   5.725   3.595   6.684
 4652SOL     OW14854   5.997   6.693   5.142
 4652SOL    HW114855   6.044   6.745   5.212
 4652SOL    HW214856   5.948   6.755   5.081
 4653SOL     OW14857   5.002   5.773   0.500
 4653SOL    HW114858   4.970   5.679   0.512
 4653SOL    HW214859   4.952   5.834   0.561
 4654SOL     OW14860   0.824   6.224   5.826
 4654SOL    HW114861   0.853   6.134   5.797
 4654SOL    HW214862   0.737   6.247   5.782
 4655SOL     OW14863   5.166   4.226   1.859
 4655SOL    HW114864   5.140   4.204   1.953
 4655SOL    HW214865   5.086   4.218   1.799
 4656SOL     OW14866   0.906   0.697   1.603
 4656SOL    HW114867   0.932   0.624   1.666
 4656SOL    HW214868   0.988   0.746   1.573
 4657SOL     OW14869   4.805   5.467   2.010
 4657SOL    HW114870   4.754   5.525   1.946
 4657SOL    HW214871   4.797   5.505   2.102
 4658SOL     OW14872   2.883   2.144   5.336
 4658SOL    HW114873   2.915   2.239   5.339
 4658SOL    HW214874   2.914   2.101   5.251
 4659SOL     OW14875   2.363   4.622   0.185
 4659SOL    HW114876   2.426   4.562   0.234
 4659SOL    HW214877   2.290   4.567   0.143
 4660SOL     OW14878   1.230   6.609   4.138
 4660SOL    HW114879   1.325   6.627   4.114
 4660SOL    HW214880   1.208   6.656   4.224
 4661SOL     OW14881   2.402   4.559   5.486
 4661SOL    HW114882   2.407   4.653   5.454
 4661SOL    HW214883   2.311   4.542   5.525
 4662SOL     OW14884   3.158   0.159   5.685
 4662SOL    HW114885   3.083   0.202   5.634
 4662SOL    HW214886   3.151   0.060   5.678
 4663SOL     OW14887   0.470   0.428   0.702
 4663SOL    HW114888   0.534   0.478   0.643
 4663SOL    HW214889   0.396   0.391   0.646
 4664SOL     OW14890   0.245   0.767   0.445
 4664SOL    HW114891   0.275   0.671   0.451
 4664SOL    HW214892   0.308   0.824   0.497
 4665SOL     OW14893   2.655   6.811   5.737
 4665SOL    HW114894   2.679   6.723   5.696
 4665SOL    HW214895   2.680   6.884   5.674
 4666SOL     OW14896   2.293   2.139   6.733
 4666SOL    HW114897   2.252   2.162   6.644
 4666SOL    HW214898   2.274   2.213   6.798
 4667SOL     OW14899   6.733   4.121   1.825
 4667SOL    HW114900   6.669   4.195   1.807
 4667SOL    HW214901   6.804   4.121   1.755
 4668SOL     OW14902   5.027   1.306   4.717
 4668SOL    HW114903   5.115   1.351   4.731
 4668SOL    HW214904   4.954   1.374   4.714
 4669SOL     OW14905   5.498   0.289   6.140
 4669SOL    HW114906   5.402   0.319   6.147
 4669SOL    HW214907   5.558   0.368   6.153
 4670SOL     OW14908   0.986   3.110   6.831
 4670SOL    HW114909   0.994   3.183   6.900
 4670SOL    HW214910   0.906   3.054   6.852
 4671SOL     OW14911   1.051   3.315   7.006
 4671SOL    HW114912   1.022   3.405   6.973
 4671SOL    HW214913   1.052   3.315   0.076
 4672SOL     OW14914   3.819   4.861   6.211
 4672SOL    HW114915   3.884   4.832   6.141
 4672SOL    HW214916   3.787   4.782   6.262
 4673SOL     OW14917   4.861   6.858   0.352
 4673SOL    HW114918   4.874   6.938   0.294
 4673SOL    HW214919   4.874   6.775   0.298
 4674SOL     OW14920   5.423   1.697   0.547
 4674SOL    HW114921   5.332   1.738   0.557
 4674SOL    HW214922   5.434   1.663   0.454
 4675SOL     OW14923   3.520   0.432   6.616
 4675SOL    HW114924   3.467   0.354   6.649
 4675SOL    HW214925   3.595   0.450   6.678
 4676SOL     OW14926   0.437   6.951   5.148
 4676SOL    HW114927   0.344   6.923   5.122
 4676SOL    HW214928   0.482   6.992   5.070
 4677SOL     OW14929   2.841   0.320   0.014
 4677SOL    HW114930   2.871   0.401   0.063
 4677SOL    HW214931   2.808   0.346   6.954
 4678SOL     OW14932   2.025   5.118   2.181
 4678SOL    HW114933   2.117   5.139   2.215
 4678SOL    HW214934   2.003   5.023   2.200
 4679SOL     OW14935   3.851   1.304   6.769
 4679SOL    HW114936   3.799   1.388   6.756
 4679SOL    HW214937   3.825   1.261   6.856
 4680SOL     OW14938   2.281   6.657   1.998
 4680SOL    HW114939   2.219   6.665   2.076
 4680SOL    HW214940   2.228   6.635   1.916
 4681SOL     OW14941   6.034   6.172   4.780
 4681SOL    HW114942   6.092   6.178   4.699
 4681SOL    HW214943   6.021   6.076   4.806
 4682SOL     OW14944   4.444   4.898   6.766
 4682SOL    HW114945   4.514   4.935   6.706
 4682SOL    HW214946   4.488   4.845   6.839
 4683SOL     OW14947   4.921   4.365   2.358
 4683SOL    HW114948   4.967   4.400   2.276
 4683SOL    HW214949   4.874   4.440   2.404
 4684SOL     OW14950   0.055   2.322   4.276
 4684SOL    HW114951   0.003   2.238   4.296
 4684SOL    HW214952   0.123   2.303   4.205
 4685SOL     OW14953   0.251   5.518   4.482
 4685SOL    HW114954   0.349   5.532   4.497
 4685SOL    HW214955   0.233   5.508   4.384
 4686SOL     OW14956   5.022   5.887   0.230
 4686SOL    HW114957   5.011   5.849   0.322
 4686SOL    HW214958   5.117   5.874   0.200
 4687SOL     OW14959   6.411   4.886   5.070
 4687SOL    HW114960   6.511   4.894   5.079
 4687SOL    HW214961   6.373   4.973   5.040
 4688SOL     OW14962   0.033   2.593   6.246
 4688SOL    HW114963   0.021   2.637   6.157
 4688SOL    HW214964   7.008   2.641   6.314
 4689SOL     OW14965   5.613   0.480   6.440
 4689SOL    HW114966   5.526   0.459   6.485
 4689SOL    HW214967   5.663   0.395   6.423
 4690SOL     OW14968   0.974   1.771   7.015
 4690SOL    HW114969   0.925   1.839   0.039
 4690SOL    HW214970   0.958   1.786   6.918
 4691SOL     OW14971   3.314   4.091   2.055
 4691SOL    HW114972   3.219   4.105   2.027
 4691SOL    HW214973   3.374   4.097   1.974
 4692SOL     OW14974   6.676   5.140   2.473
 4692SOL    HW114975   6.649   5.218   2.529
 4692SOL    HW214976   6.711   5.172   2.386
 4693SOL     OW14977   0.811   0.977   4.117
 4693SOL    HW114978   0.852   0.951   4.204
 4693SOL    HW214979   0.881   0.975   4.045
 4694SOL     OW14980   2.615   0.656   0.261
 4694SOL    HW114981   2.572   0.585   0.204
 4694SOL    HW214982   2.698   0.619   0.303
 4695SOL     OW14983   3.588   3.404   1.706
 4695SOL    HW114984   3.542   3.315   1.714
 4695SOL    HW214985   3.590   3.449   1.795
 4696SOL     OW14986   0.901   4.680   6.175
 4696SOL    HW114987   0.834   4.719   6.238
 4696SOL    HW214988   0.987   4.731   6.182
 4697SOL     OW14989   1.700   3.275   0.735
 4697SOL    HW114990   1.787   3.324   0.741
 4697SOL    HW214991   1.625   3.337   0.757
 4698SOL     OW14992   4.890   5.318   3.127
 4698SOL    HW114993   4.884   5.226   3.088
 4698SOL    HW214994   4.834   5.380   3.072
 4699SOL     OW14995   1.249   7.023   2.301
 4699SOL    HW114996   1.267   6.925   2.288
 4699SOL    HW214997   1.187   0.005   2.378
 4700SOL     OW14998   5.688   1.127   1.832
 4700SOL    HW114999   5.673   1.224   1.852
 4700SOL    HW215000   5.610   1.092   1.780
 4701SOL     OW15001   1.248   1.787   0.294
 4701SOL    HW115002   1.224   1.699   0.253
 4701SOL    HW215003   1.325   1.774   0.357
 4702SOL     OW15004   5.224   4.676   6.502
 4702SOL    HW115005   5.141   4.724   6.473
 4702SOL    HW215006   5.220   4.660   6.601
 4703SOL     OW15007   0.499   2.404   2.467
 4703SOL    HW115008   0.485   2.441   2.559
 4703SOL    HW215009   0.474   2.473   2.399
 4704SOL     OW15010   6.689   6.300   0.607
 4704SOL    HW115011   6.713   6.363   0.681
 4704SOL    HW215012   6.757   6.308   0.534
 4705SOL     OW15013   3.551   3.506   2.833
 4705SOL    HW115014   3.642   3.482   2.799
 4705SOL    HW215015   3.496   3.543   2.759
 4706SOL     OW15016   4.127   6.453   6.552
 4706SOL    HW115017   4.207   6.461   6.493
 4706SOL    HW215018   4.048   6.422   6.499
 4707SOL     OW15019   2.102   6.179   0.506
 4707SOL    HW115020   2.047   6.255   0.542
 4707SOL    HW215021   2.108   6.107   0.575
 4708SOL     OW15022   1.691   2.717   0.552
 4708SOL    HW115023   1.617   2.651   0.568
 4708SOL    HW215024   1.653   2.801   0.512
 4709SOL     OW15025   4.011   5.004   5.350
 4709SOL    HW115026   4.066   5.067   5.295
 4709SOL    HW215027   3.944   5.056   5.403
 4710SOL     OW15028   4.188   1.477   5.983
 4710SOL    HW115029   4.130   1.511   5.909
 4710SOL    HW215030   4.179   1.536   6.063
 4711SOL     OW15031   4.876   0.749   2.734
 4711SOL    HW115032   4.943   0.705   2.794
 4711SOL    HW215033   4.791   0.766   2.784
 4712SOL     OW15034   2.537   4.827   0.703
 4712SOL    HW115035   2.594   4.888   0.648
 4712SOL    HW215036   2.446   4.868   0.715
 4713SOL     OW15037   2.597   4.087   1.128
 4713SOL    HW115038   2.650   4.161   1.088
 4713SOL    HW215039   2.577   4.108   1.224
 4714SOL     OW15040   2.562   1.772   0.078
 4714SOL    HW115041   2.601   1.737   0.163
 4714SOL    HW215042   2.634   1.814   0.023
 4715SOL     OW15043   6.830   3.698   1.585
 4715SOL    HW115044   6.793   3.709   1.677
 4715SOL    HW215045   6.768   3.641   1.530
 4716SOL     OW15046   3.555   5.402   6.064
 4716SOL    HW115047   3.612   5.446   5.995
 4716SOL    HW215048   3.508   5.473   6.118
 4717SOL     OW15049   1.310   5.914   3.045
 4717SOL    HW115050   1.234   5.979   3.042
 4717SOL    HW215051   1.390   5.957   3.085
 4718SOL     OW15052   5.430   1.416   6.341
 4718SOL    HW115053   5.521   1.377   6.357
 4718SOL    HW215054   5.372   1.400   6.421
 4719SOL     OW15055   4.854   3.071   2.536
 4719SOL    HW115056   4.837   3.133   2.613
 4719SOL    HW215057   4.810   3.107   2.454
 4720SOL     OW15058   3.041   6.334   5.569
 4720SOL    HW115059   3.050   6.399   5.645
 4720SOL    HW215060   3.061   6.380   5.483
 4721SOL     OW15061   6.264   2.119   2.177
 4721SOL    HW115062   6.311   2.202   2.146
 4721SOL    HW215063   6.234   2.066   2.098
 4722SOL     OW15064   1.424   5.951   0.045
 4722SOL    HW115065   1.445   5.854   0.037
 4722SOL    HW215066   1.441   5.982   0.139
 4723SOL     OW15067   1.726   5.368   5.637
 4723SOL    HW115068   1.786   5.298   5.675
 4723SOL    HW215069   1.781   5.441   5.596
 4724SOL     OW15070   4.733   6.148   2.756
 4724SOL    HW115071   4.686   6.177   2.674
 4724SOL    HW215072   4.818   6.101   2.731
 4725SOL     OW15073   5.434   6.360   2.917
 4725SOL    HW115074   5.520   6.311   2.903
 4725SOL    HW215075   5.410   6.412   2.835
 4726SOL     OW15076   1.973   3.696   6.374
 4726SOL    HW115077   1.968   3.637   6.454
 4726SOL    HW215078   2.069   3.716   6.352
 4727SOL     OW15079   7.020   6.027   6.888
 4727SOL    HW115080   7.019   6.065   6.795
 4727SOL    HW215081   0.077   5.981   6.904
 4728SOL     OW15082   4.738   1.868   1.401
 4728SOL    HW115083   4.796   1.888   1.480
 4728SOL    HW215084   4.793   1.868   1.318
 4729SOL     OW15085   2.581   1.205   2.662
 4729SOL    HW115086   2.645   1.188   2.587
 4729SOL    HW215087   2.492   1.165   2.639
 4730SOL     OW15088   2.074   5.922   5.259
 4730SOL    HW115089   1.996   5.866   5.233
 4730SOL    HW215090   2.122   5.953   5.178
 4731SOL     OW15091   5.002   0.145   5.981
 4731SOL    HW115092   5.066   0.193   6.042
 4731SOL    HW215093   4.914   0.135   6.027
 4732SOL     OW15094   6.941   3.314   6.452
 4732SOL    HW115095   7.019   3.258   6.481
 4732SOL    HW215096   6.861   3.289   6.505
 4733SOL     OW15097   0.872   4.310   2.861
 4733SOL    HW115098   0.866   4.351   2.952
 4733SOL    HW215099   0.963   4.273   2.847
 4734SOL     OW15100   5.248   3.364   6.810
 4734SOL    HW115101   5.176   3.335   6.748
 4734SOL    HW215102   5.278   3.287   6.866
 4735SOL     OW15103   0.526   5.310   3.928
 4735SOL    HW115104   0.441   5.362   3.938
 4735SOL    HW215105   0.521   5.255   3.845
 4736SOL     OW15106   0.398   1.459   6.676
 4736SOL    HW115107   0.486   1.413   6.691
 4736SOL    HW215108   0.380   1.465   6.578
 4737SOL     OW15109   1.374   5.511   2.130
 4737SOL    HW115110   1.470   5.491   2.110
 4737SOL    HW215111   1.318   5.432   2.103
 4738SOL     OW15112   0.025   5.942   2.873
 4738SOL    HW115113   0.121   5.967   2.862
 4738SOL    HW215114   7.000   6.025   2.883
 4739SOL     OW15115   4.215   6.633   2.591
 4739SOL    HW115116   4.297   6.661   2.640
 4739SOL    HW215117   4.204   6.534   2.599
 4740SOL     OW15118   0.038   1.403   1.982
 4740SOL    HW115119   0.009   1.309   1.961
 4740SOL    HW215120   0.138   1.407   1.982
 4741SOL     OW15121   3.339   2.481   1.652
 4741SOL    HW115122   3.350   2.451   1.558
 4741SOL    HW215123   3.428   2.497   1.693
 4742SOL     OW15124   2.019   6.856   6.458
 4742SOL    HW115125   1.960   6.882   6.534
 4742SOL    HW215126   2.058   6.938   6.416
 4743SOL     OW15127   2.118   3.574   2.827
 4743SOL    HW115128   2.197   3.635   2.840
 4743SOL    HW215129   2.036   3.629   2.815
 4744SOL     OW15130   2.229   4.883   0.963
 4744SOL    HW115131   2.131   4.905   0.965
 4744SOL    HW215132   2.249   4.816   1.034
 4745SOL     OW15133   3.222   4.000   0.012
 4745SOL    HW115134   3.301   4.034   0.062
 4745SOL    HW215135   3.141   4.053   0.039
 4746SOL     OW15136   4.521   6.274   3.926
 4746SOL    HW115137   4.505   6.352   3.986
 4746SOL    HW215138   4.587   6.300   3.856
 4747SOL     OW15139   1.470   3.446   0.723
 4747SOL    HW115140   1.411   3.458   0.802
 4747SOL    HW215141   1.435   3.500   0.647
 4748SOL     OW15142   1.364   6.787   1.747
 4748SOL    HW115143   1.430   6.846   1.793
 4748SOL    HW215144   1.272   6.807   1.781
 4749SOL     OW15145   1.898   6.722   6.212
 4749SOL    HW115146   1.958   6.666   6.155
 4749SOL    HW215147   1.914   6.702   6.308
 4750SOL     OW15148   6.494   4.059   5.037
 4750SOL    HW115149   6.562   4.109   4.984
 4750SOL    HW215150   6.435   4.123   5.086
 4751SOL     OW15151   4.720   2.543   3.034
 4751SOL    HW115152   4.749   2.638   3.048
 4751SOL    HW215153   4.695   2.503   3.122
 4752SOL     OW15154   4.742   0.770   0.353
 4752SOL    HW115155   4.770   0.860   0.321
 4752SOL    HW215156   4.823   0.719   0.382
 4753SOL     OW15157   1.118   0.104   4.190
 4753SOL    HW115158   1.124   0.103   4.290
 4753SOL    HW215159   1.081   0.017   4.158
 4754SOL     OW15160   4.968   3.773   5.153
 4754SOL    HW115161   4.894   3.711   5.125
 4754SOL    HW215162   5.038   3.721   5.202
 4755SOL     OW15163   2.415   0.564   1.025
 4755SOL    HW115164   2.375   0.656   1.022
 4755SOL    HW215165   2.387   0.513   0.943
 4756SOL     OW15166   6.994   3.986   5.844
 4756SOL    HW115167   7.021   3.990   5.941
 4756SOL    HW215168   6.968   4.077   5.813
 4757SOL     OW15169   1.438   2.739   1.325
 4757SOL    HW115170   1.510   2.791   1.371
 4757SOL    HW215171   1.352   2.788   1.332
 4758SOL     OW15172   1.029   6.632   3.152
 4758SOL    HW115173   1.107   6.691   3.173
 4758SOL    HW215174   0.988   6.600   3.238
 4759SOL     OW15175   0.512   5.977   6.939
 4759SOL    HW115176   0.426   6.026   6.921
 4759SOL    HW215177   0.570   5.982   6.857
 4760SOL     OW15178   0.848   0.358   0.692
 4760SOL    HW115179   0.938   0.374   0.651
 4760SOL    HW215180   0.852   0.278   0.752
 4761SOL     OW15181   1.094   0.455   0.589
 4761SOL    HW115182   1.137   0.545   0.598
 4761SOL    HW215183   1.056   0.446   0.497
 4762SOL     OW15184   1.634   5.700   2.402
 4762SOL    HW115185   1.696   5.772   2.371
 4762SOL    HW215186   1.539   5.731   2.393
 4763SOL     OW15187   4.950   7.021   2.305
 4763SOL    HW115188   4.897   0.038   2.375
 4763SOL    HW215189   5.011   0.057   2.260
 4764SOL     OW15190   4.530   3.406   5.400
 4764SOL    HW115191   4.533   3.454   5.312
 4764SOL    HW215192   4.435   3.387   5.425
 4765SOL     OW15193   3.802   0.585   6.241
 4765SOL    HW115194   3.720   0.642   6.242
 4765SOL    HW215195   3.811   0.541   6.152
 4766SOL     OW15196   5.956   6.090   4.493
 4766SOL    HW115197   6.026   6.161   4.504
 4766SOL    HW215198   5.873   6.131   4.456
 4767SOL     OW15199   2.671   5.325   5.160
 4767SOL    HW115200   2.635   5.414   5.188
 4767SOL    HW215201   2.634   5.254   5.220
 4768SOL     OW15202   4.452   3.538   6.231
 4768SOL    HW115203   4.493   3.625   6.260
 4768SOL    HW215204   4.477   3.467   6.297
 4769SOL     OW15205   3.311   5.856   0.093
 4769SOL    HW115206   3.358   5.890   0.011
 4769SOL    HW215207   3.213   5.855   0.077
 4770SOL     OW15208   6.937   1.977   4.609
 4770SOL    HW115209   6.984   2.054   4.654
 4770SOL    HW215210   6.842   1.973   4.642
 4771SOL     OW15211   2.436   6.448   5.447
 4771SOL    HW115212   2.530   6.413   5.453
 4771SOL    HW215213   2.373   6.379   5.482
 4772SOL     OW15214   2.715   5.070   0.847
 4772SOL    HW115215   2.659   4.989   0.835
 4772SOL    HW215216   2.811   5.043   0.860
 4773SOL     OW15217   1.265   5.962   4.466
 4773SOL    HW115218   1.170   5.953   4.436
 4773SOL    HW215219   1.269   5.960   4.565
 4774SOL     OW15220   1.535   3.830   1.057
 4774SOL    HW115221   1.581   3.915   1.032
 4774SOL    HW215222   1.587   3.752   1.022
 4775SOL     OW15223   4.658   6.998   4.380
 4775SOL    HW115224   4.718   6.973   4.456
 4775SOL    HW215225   4.601   6.919   4.355
 4776SOL     OW15226   1.069   0.952   4.782
 4776SOL    HW115227   1.145   0.889   4.800
 4776SOL    HW215228   1.023   0.975   4.868
 4777SOL     OW15229   1.647   5.632   0.866
 4777SOL    HW115230   1.597   5.648   0.951
 4777SOL    HW215231   1.692   5.716   0.837
 4778SOL     OW15232   0.619   2.744   4.667
 4778SOL    HW115233   0.630   2.840   4.646
 4778SOL    HW215234   0.645   2.688   4.588
 4779SOL     OW15235   5.954   6.335   4.018
 4779SOL    HW115236   5.864   6.312   3.983
 4779SOL    HW215237   5.964   6.301   4.111
 4780SOL     OW15238   5.968   2.748   6.088
 4780SOL    HW115239   6.061   2.712   6.076
 4780SOL    HW215240   5.904   2.691   6.037
 4781SOL     OW15241   2.839   5.528   2.896
 4781SOL    HW115242   2.847   5.451   2.959
 4781SOL    HW215243   2.785   5.600   2.939
 4782SOL     OW15244   6.154   5.917   6.034
 4782SOL    HW115245   6.129   6.011   6.055
 4782SOL    HW215246   6.191   5.873   6.116
 4783SOL     OW15247   6.061   3.788   0.235
 4783SOL    HW115248   6.115   3.866   0.268
 4783SOL    HW215249   6.037   3.802   0.139
 4784SOL     OW15250   6.042   2.118   5.885
 4784SOL    HW115251   6.072   2.035   5.932
 4784SOL    HW215252   6.029   2.098   5.788
 4785SOL     OW15253   0.256   6.589   2.539
 4785SOL    HW115254   0.292   6.580   2.446
 4785SOL    HW215255   0.314   6.536   2.602
 4786SOL     OW15256   2.714   0.079   0.395
 4786SOL    HW115257   2.645   0.015   0.361
 4786SOL    HW215258   2.805   0.042   0.380
 4787SOL     OW15259   3.906   2.027   3.956
 4787SOL    HW115260   3.979   2.095   3.944
 4787SOL    HW215261   3.927   1.970   4.036
 4788SOL     OW15262   6.107   6.087   0.470
 4788SOL    HW115263   6.196   6.044   0.462
 4788SOL    HW215264   6.115   6.171   0.525
 4789SOL     OW15265   5.317   1.312   1.951
 4789SOL    HW115266   5.299   1.389   2.011
 4789SOL    HW215267   5.336   1.345   1.858
 4790SOL     OW15268   5.063   1.770   5.804
 4790SOL    HW115269   5.093   1.731   5.717
 4790SOL    HW215270   5.136   1.761   5.872
 4791SOL     OW15271   0.249   2.685   1.365
 4791SOL    HW115272   0.335   2.733   1.348
 4791SOL    HW215273   0.265   2.587   1.369
 4792SOL     OW15274   1.968   4.323   4.354
 4792SOL    HW115275   1.923   4.247   4.401
 4792SOL    HW215276   2.065   4.324   4.376
 4793SOL     OW15277   1.471   3.550   5.545
 4793SOL    HW115278   1.467   3.470   5.485
 4793SOL    HW215279   1.378   3.577   5.571
 4794SOL     OW15280   4.505   6.766   3.796
 4794SOL    HW115281   4.458   6.703   3.734
 4794SOL    HW215282   4.601   6.775   3.770
 4795SOL     OW15283   0.262   1.846   4.776
 4795SOL    HW115284   0.262   1.774   4.845
 4795SOL    HW215285   0.177   1.899   4.782
 4796SOL     OW15286   3.804   0.542   5.869
 4796SOL    HW115287   3.791   0.622   5.927
 4796SOL    HW215288   3.895   0.544   5.828
 4797SOL     OW15289   0.472   5.190   4.830
 4797SOL    HW115290   0.395   5.183   4.767
 4797SOL    HW215291   0.538   5.117   4.811
 4798SOL     OW15292   5.772   4.921   6.067
 4798SOL    HW115293   5.862   4.913   6.110
 4798SOL    HW215294   5.733   5.011   6.087
 4799SOL     OW15295   4.087   1.390   7.000
 4799SOL    HW115296   4.101   1.370   6.904
 4799SOL    HW215297   4.032   1.474   7.009
 4800SOL     OW15298   1.733   4.422   6.883
 4800SOL    HW115299   1.741   4.516   6.916
 4800SOL    HW215300   1.786   4.413   6.799
 4801SOL     OW15301   3.952   2.555   0.400
 4801SOL    HW115302   4.009   2.620   0.451
 4801SOL    HW215303   3.974   2.561   0.303
 4802SOL     OW15304   6.763   6.554   1.745
 4802SOL    HW115305   6.809   6.616   1.681
 4802SOL    HW215306   6.831   6.517   1.809
 4803SOL     OW15307   5.810   4.943   1.080
 4803SOL    HW115308   5.858   4.915   0.997
 4803SOL    HW215309   5.730   4.997   1.056
 4804SOL     OW15310   5.731   1.129   1.032
 4804SOL    HW115311   5.722   1.037   0.993
 4804SOL    HW215312   5.817   1.136   1.082
 4805SOL     OW15313   6.769   1.105   1.959
 4805SOL    HW115314   6.756   1.145   2.050
 4805SOL    HW215315   6.863   1.119   1.930
 4806SOL     OW15316   1.264   3.790   2.951
 4806SOL    HW115317   1.189   3.846   2.984
 4806SOL    HW215318   1.272   3.708   3.009
 4807SOL     OW15319   1.901   3.504   6.589
 4807SOL    HW115320   1.936   3.459   6.671
 4807SOL    HW215321   1.917   3.446   6.510
 4808SOL     OW15322   3.723   5.356   0.731
 4808SOL    HW115323   3.733   5.386   0.826
 4808SOL    HW215324   3.709   5.257   0.728
 4809SOL     OW15325   3.545   4.499   1.643
 4809SOL    HW115326   3.609   4.549   1.585
 4809SOL    HW215327   3.511   4.561   1.715
 4810SOL     OW15328   1.280   4.269   3.964
 4810SOL    HW115329   1.251   4.297   3.872
 4810SOL    HW215330   1.270   4.345   4.027
 4811SOL     OW15331   3.637   3.877   4.680
 4811SOL    HW115332   3.646   3.892   4.778
 4811SOL    HW215333   3.670   3.785   4.657
 4812SOL     OW15334   0.686   6.982   1.923
 4812SOL    HW115335   0.756   6.928   1.878
 4812SOL    HW215336   0.622   6.921   1.971
 4813SOL     OW15337   5.772   2.142   5.789
 4813SOL    HW115338   5.863   2.140   5.831
 4813SOL    HW215339   5.751   2.234   5.758
 4814SOL     OW15340   0.216   3.422   2.223
 4814SOL    HW115341   0.212   3.469   2.311
 4814SOL    HW215342   0.175   3.479   2.152
 4815SOL     OW15343   5.154   4.783   2.438
 4815SOL    HW115344   5.123   4.853   2.501
 4815SOL    HW215345   5.229   4.731   2.480
 4816SOL     OW15346   2.169   6.852   1.359
 4816SOL    HW115347   2.166   6.937   1.410
 4816SOL    HW215348   2.137   6.869   1.265
 4817SOL     OW15349   3.576   1.149   1.909
 4817SOL    HW115350   3.583   1.233   1.964
 4817SOL    HW215351   3.667   1.122   1.878
 4818SOL     OW15352   1.574   0.928   4.270
 4818SOL    HW115353   1.637   0.912   4.194
 4818SOL    HW215354   1.488   0.964   4.234
 4819SOL     OW15355   3.119   1.964   1.723
 4819SOL    HW115356   3.137   2.061   1.739
 4819SOL    HW215357   3.150   1.939   1.631
 4820SOL     OW15358   6.406   2.658   1.351
 4820SOL    HW115359   6.310   2.651   1.378
 4820SOL    HW215360   6.449   2.568   1.358
 4821SOL     OW15361   6.378   5.695   1.385
 4821SOL    HW115362   6.395   5.679   1.482
 4821SOL    HW215363   6.421   5.781   1.357
 4822SOL     OW15364   1.859   3.284   3.514
 4822SOL    HW115365   1.810   3.350   3.572
 4822SOL    HW215366   1.881   3.203   3.568
 4823SOL     OW15367   0.203   0.738   3.562
 4823SOL    HW115368   0.187   0.641   3.577
 4823SOL    HW215369   0.301   0.756   3.565
 4824SOL     OW15370   5.546   1.775   3.999
 4824SOL    HW115371   5.453   1.776   3.961
 4824SOL    HW215372   5.559   1.855   4.058
 4825SOL     OW15373   2.119   2.619   4.042
 4825SOL    HW115374   2.065   2.563   3.979
 4825SOL    HW215375   2.181   2.678   3.990
 4826SOL     OW15376   0.258   6.840   1.211
 4826SOL    HW115377   0.232   6.783   1.289
 4826SOL    HW215378   0.318   6.788   1.151
 4827SOL     OW15379   5.960   0.730   1.896
 4827SOL    HW115380   5.989   0.821   1.865
 4827SOL    HW215381   6.033   0.690   1.952
 4828SOL     OW15382   6.201   3.773   1.633
 4828SOL    HW115383   6.238   3.804   1.721
 4828SOL    HW215384   6.141   3.843   1.595
 4829SOL     OW15385   3.381   6.707   6.204
 4829SOL    HW115386   3.346   6.719   6.296
 4829SOL    HW215387   3.352   6.784   6.147
 4830SOL     OW15388   5.144   5.238   3.742
 4830SOL    HW115389   5.182   5.297   3.813
 4830SOL    HW215390   5.052   5.208   3.769
 4831SOL     OW15391   6.736   5.650   5.869
 4831SOL    HW115392   6.779   5.647   5.779
 4831SOL    HW215393   6.734   5.558   5.908
 4832SOL     OW15394   2.950   2.522   6.571
 4832SOL    HW115395   2.971   2.526   6.669
 4832SOL    HW215396   3.016   2.577   6.520
 4833SOL     OW15397   4.748   1.831   2.942
 4833SOL    HW115398   4.691   1.912   2.924
 4833SOL    HW215399   4.694   1.764   2.994
 4834SOL     OW15400   3.405   0.706   0.068
 4834SOL    HW115401   3.412   0.745   0.160
 4834SOL    HW215402   3.315   0.664   0.056
 4835SOL     OW15403   1.890   0.146   6.829
 4835SOL    HW115404   1.942   0.228   6.853
 4835SOL    HW215405   1.821   0.170   6.760
 4836SOL     OW15406   4.561   2.674   3.468
 4836SOL    HW115407   4.509   2.759   3.459
 4836SOL    HW215408   4.544   2.634   3.558
 4837SOL     OW15409   3.665   2.836   1.777
 4837SOL    HW115410   3.726   2.871   1.848
 4837SOL    HW215411   3.680   2.888   1.693
 4838SOL     OW15412   2.513   4.928   2.486
 4838SOL    HW115413   2.589   4.958   2.544
 4838SOL    HW215414   2.427   4.961   2.525
 4839SOL     OW15415   0.932   3.444   5.618
 4839SOL    HW115416   0.844   3.411   5.654
 4839SOL    HW215417   0.975   3.371   5.565
 4840SOL     OW15418   6.866   0.313   6.063
 4840SOL    HW115419   6.854   0.214   6.054
 4840SOL    HW215420   6.780   0.359   6.043
 4841SOL     OW15421   3.373   5.607   1.694
 4841SOL    HW115422   3.435   5.622   1.617
 4841SOL    HW215423   3.325   5.521   1.682
 4842SOL     OW15424   3.250   4.825   1.889
 4842SOL    HW115425   3.184   4.812   1.963
 4842SOL    HW215426   3.231   4.759   1.815
 4843SOL     OW15427   6.325   4.000   0.487
 4843SOL    HW115428   6.250   4.041   0.538
 4843SOL    HW215429   6.412   4.040   0.517
 4844SOL     OW15430   0.199   3.832   6.284
 4844SOL    HW115431   0.243   3.909   6.329
 4844SOL    HW215432   0.101   3.832   6.304
 4845SOL     OW15433   6.472   5.776   4.377
 4845SOL    HW115434   6.551   5.765   4.438
 4845SOL    HW215435   6.388   5.777   4.432
 4846SOL     OW15436   6.790   3.453   1.864
 4846SOL    HW115437   6.727   3.437   1.940
 4846SOL    HW215438   6.827   3.365   1.833
 4847SOL     OW15439   3.438   1.637   5.819
 4847SOL    HW115440   3.510   1.574   5.846
 4847SOL    HW215441   3.396   1.605   5.734
 4848SOL     OW15442   1.467   1.010   4.806
 4848SOL    HW115443   1.430   1.093   4.765
 4848SOL    HW215444   1.566   1.020   4.818
 4849SOL     OW15445   0.905   0.119   0.273
 4849SOL    HW115446   0.814   0.157   0.288
 4849SOL    HW215447   0.936   0.143   0.181
 4850SOL     OW15448   4.126   0.825   2.043
 4850SOL    HW115449   4.154   0.907   1.995
 4850SOL    HW215450   4.183   0.814   2.125
 4851SOL     OW15451   3.777   5.347   5.298
 4851SOL    HW115452   3.801   5.256   5.332
 4851SOL    HW215453   3.686   5.373   5.330
 4852SOL     OW15454   0.888   0.116   6.347
 4852SOL    HW115455   0.987   0.126   6.359
 4852SOL    HW215456   0.856   0.038   6.402
 4853SOL     OW15457   3.126   1.065   2.501
 4853SOL    HW115458   3.205   1.125   2.487
 4853SOL    HW215459   3.111   1.052   2.599
 4854SOL     OW15460   5.360   6.236   2.598
 4854SOL    HW115461   5.454   6.223   2.630
 4854SOL    HW215462   5.342   6.333   2.582
 4855SOL     OW15463   5.997   2.755   2.378
 4855SOL    HW115464   6.010   2.677   2.440
 4855SOL    HW215465   6.046   2.738   2.292
 4856SOL     OW15466   1.730   4.393   2.610
 4856SOL    HW115467   1.773   4.483   2.615
 4856SOL    HW215468   1.797   4.323   2.635
 4857SOL     OW15469   1.878   2.250   5.529
 4857SOL    HW115470   1.782   2.251   5.558
 4857SOL    HW215471   1.887   2.299   5.442
 4858SOL     OW15472   1.751   1.183   4.596
 4858SOL    HW115473   1.655   1.201   4.612
 4858SOL    HW215474   1.762   1.088   4.565
 4859SOL     OW15475   0.898   0.801   3.843
 4859SOL    HW115476   0.838   0.736   3.890
 4859SOL    HW215477   0.958   0.751   3.781
 4860SOL     OW15478   3.362   4.863   2.185
 4860SOL    HW115479   3.401   4.792   2.125
 4860SOL    HW215480   3.436   4.913   2.229
 4861SOL     OW15481   5.011   5.395   0.116
 4861SOL    HW115482   4.954   5.476   0.128
 4861SOL    HW215483   4.976   5.320   0.171
 4862SOL     OW15484   2.453   4.880   4.260
 4862SOL    HW115485   2.449   4.781   4.254
 4862SOL    HW215486   2.533   4.914   4.211
 4863SOL     OW15487   5.643   4.706   0.563
 4863SOL    HW115488   5.690   4.790   0.537
 4863SOL    HW215489   5.547   4.711   0.535
 4864SOL     OW15490   3.265   1.368   4.110
 4864SOL    HW115491   3.189   1.431   4.096
 4864SOL    HW215492   3.350   1.410   4.080
 4865SOL     OW15493   1.628   0.827   5.747
 4865SOL    HW115494   1.697   0.873   5.691
 4865SOL    HW215495   1.672   0.752   5.798
 4866SOL     OW15496   6.293   3.649   0.938
 4866SOL    HW115497   6.279   3.732   0.883
 4866SOL    HW215498   6.330   3.674   1.027
 4867SOL     OW15499   4.228   5.596   2.875
 4867SOL    HW115500   4.325   5.619   2.882
 4867SOL    HW215501   4.200   5.548   2.958
 4868SOL     OW15502   6.451   4.861   2.908
 4868SOL    HW115503   6.484   4.772   2.879
 4868SOL    HW215504   6.356   4.853   2.938
 4869SOL     OW15505   1.549   1.611   1.068
 4869SOL    HW115506   1.621   1.580   1.005
 4869SOL    HW215507   1.551   1.555   1.151
 4870SOL     OW15508   0.937   6.094   1.317
 4870SOL    HW115509   0.969   6.064   1.407
 4870SOL    HW215510   0.932   6.015   1.255
 4871SOL     OW15511   0.548   0.927   3.843
 4871SOL    HW115512   0.632   0.932   3.789
 4871SOL    HW215513   0.560   0.859   3.916
 4872SOL     OW15514   6.361   0.253   3.470
 4872SOL    HW115515   6.367   0.312   3.551
 4872SOL    HW215516   6.401   0.164   3.490
 4873SOL     OW15517   6.310   5.762   4.585
 4873SOL    HW115518   6.338   5.698   4.657
 4873SOL    HW215519   6.211   5.768   4.583
 4874SOL     OW15520   4.988   3.331   2.264
 4874SOL    HW115521   4.947   3.243   2.240
 4874SOL    HW215522   4.981   3.394   2.187
 4875SOL     OW15523   6.233   1.174   0.046
 4875SOL    HW115524   6.281   1.257   0.018
 4875SOL    HW215525   6.299   1.100   0.059
 4876SOL     OW15526   6.968   1.539   3.610
 4876SOL    HW115527   6.910   1.458   3.610
 4876SOL    HW215528   0.022   1.519   3.661
 4877SOL     OW15529   0.715   2.131   5.464
 4877SOL    HW115530   0.637   2.181   5.502
 4877SOL    HW215531   0.761   2.188   5.396
 4878SOL     OW15532   6.415   1.193   1.954
 4878SOL    HW115533   6.480   1.195   2.030
 4878SOL    HW215534   6.465   1.188   1.867
 4879SOL     OW15535   4.232   1.865   1.979
 4879SOL    HW115536   4.143   1.854   1.934
 4879SOL    HW215537   4.222   1.923   2.059
 4880SOL     OW15538   6.116   3.586   6.975
 4880SOL    HW115539   6.099   3.683   6.959
 4880SOL    HW215540   6.042   3.549   0.002
 4881SOL     OW15541   1.991   0.949   0.466
 4881SOL    HW115542   2.078   0.944   0.417
 4881SOL    HW215543   1.936   1.023   0.428
 4882SOL     OW15544   4.374   1.302   5.651
 4882SOL    HW115545   4.315   1.297   5.732
 4882SOL    HW215546   4.468   1.319   5.680
 4883SOL     OW15547   4.605   4.412   1.131
 4883SOL    HW115548   4.671   4.381   1.200
 4883SOL    HW215549   4.549   4.335   1.102
 4884SOL     OW15550   2.962   5.391   1.545
 4884SOL    HW115551   2.959   5.463   1.614
 4884SOL    HW215552   3.013   5.424   1.465
 4885SOL     OW15553   1.996   5.181   1.338
 4885SOL    HW115554   2.044   5.266   1.314
 4885SOL    HW215555   2.026   5.151   1.429
 4886SOL     OW15556   2.787   6.199   1.336
 4886SOL    HW115557   2.812   6.171   1.429
 4886SOL    HW215558   2.796   6.121   1.275
 4887SOL     OW15559   7.015   6.515   1.535
 4887SOL    HW115560   0.019   6.421   1.532
 4887SOL    HW215561   6.939   6.525   1.471
 4888SOL     OW15562   2.918   0.215   3.181
 4888SOL    HW115563   2.924   0.129   3.131
 4888SOL    HW215564   2.982   0.212   3.259
 4889SOL     OW15565   6.823   2.382   5.074
 4889SOL    HW115566   6.806   2.420   4.983
 4889SOL    HW215567   6.799   2.450   5.144
 4890SOL     OW15568   6.873   1.929   5.342
 4890SOL    HW115569   6.966   1.946   5.376
 4890SOL    HW215570   6.842   1.839   5.373
 4891SOL     OW15571   2.160   5.576   0.217
 4891SOL    HW115572   2.243   5.632   0.212
 4891SOL    HW215573   2.080   5.636   0.228
 4892SOL     OW15574   4.572   5.715   2.366
 4892SOL    HW115575   4.474   5.715   2.351
 4892SOL    HW215576   4.618   5.762   2.291
 4893SOL     OW15577   6.493   3.381   2.362
 4893SOL    HW115578   6.419   3.325   2.327
 4893SOL    HW215579   6.481   3.476   2.332
 4894SOL     OW15580   3.429   0.832   2.756
 4894SOL    HW115581   3.450   0.871   2.845
 4894SOL    HW215582   3.492   0.756   2.737
 4895SOL     OW15583   0.637   4.581   3.777
 4895SOL    HW115584   0.591   4.661   3.813
 4895SOL    HW215585   0.731   4.604   3.753
 4896SOL     OW15586   2.411   4.608   2.631
 4896SOL    HW115587   2.496   4.648   2.596
 4896SOL    HW215588   2.335   4.671   2.612
 4897SOL     OW15589   1.867   5.774   5.150
 4897SOL    HW115590   1.846   5.706   5.080
 4897SOL    HW215591   1.784   5.823   5.176
 4898SOL     OW15592   3.518   1.332   4.879
 4898SOL    HW115593   3.437   1.300   4.928
 4898SOL    HW215594   3.498   1.334   4.781
 4899SOL     OW15595   5.767   4.866   3.067
 4899SOL    HW115596   5.837   4.810   3.021
 4899SOL    HW215597   5.812   4.941   3.116
 4900SOL     OW15598   3.629   6.033   5.084
 4900SOL    HW115599   3.640   6.100   5.157
 4900SOL    HW215600   3.536   5.995   5.086
 4901SOL     OW15601   2.215   1.786   5.710
 4901SOL    HW115602   2.134   1.819   5.758
 4901SOL    HW215603   2.214   1.686   5.708
 4902SOL     OW15604   1.102   1.666   4.818
 4902SOL    HW115605   1.197   1.671   4.849
 4902SOL    HW215606   1.051   1.743   4.854
 4903SOL     OW15607   4.670   5.783   0.425
 4903SOL    HW115608   4.616   5.793   0.509
 4903SOL    HW215609   4.675   5.687   0.399
 4904SOL     OW15610   2.153   0.199   5.565
 4904SOL    HW115611   2.146   0.116   5.619
 4904SOL    HW215612   2.106   0.186   5.478
 4905SOL     OW15613   3.156   0.896   3.689
 4905SOL    HW115614   3.059   0.915   3.678
 4905SOL    HW215615   3.194   0.865   3.602
 4906SOL     OW15616   4.856   2.288   6.260
 4906SOL    HW115617   4.885   2.353   6.190
 4906SOL    HW215618   4.853   2.196   6.221
 4907SOL     OW15619   4.799   0.460   1.636
 4907SOL    HW115620   4.891   0.431   1.608
 4907SOL    HW215621   4.791   0.451   1.735
 4908SOL     OW15622   5.259   6.458   6.886
 4908SOL    HW115623   5.279   6.414   6.973
 4908SOL    HW215624   5.185   6.524   6.898
 4909SOL     OW15625   0.085   5.461   3.449
 4909SOL    HW115626   0.010   5.523   3.472
 4909SOL    HW215627   0.115   5.480   3.355
 4910SOL     OW15628   5.783   0.499   4.350
 4910SOL    HW115629   5.775   0.505   4.251
 4910SOL    HW215630   5.702   0.454   4.388
 4911SOL     OW15631   1.668   3.894   3.129
 4911SOL    HW115632   1.586   3.934   3.088
 4911SOL    HW215633   1.743   3.960   3.125
 4912SOL     OW15634   5.607   1.962   5.910
 4912SOL    HW115635   5.662   2.033   5.865
 4912SOL    HW215636   5.657   1.928   5.990
 4913SOL     OW15637   4.497   3.660   5.526
 4913SOL    HW115638   4.499   3.738   5.462
 4913SOL    HW215639   4.441   3.587   5.488
 4914SOL     OW15640   4.322   6.746   5.240
 4914SOL    HW115641   4.244   6.808   5.248
 4914SOL    HW215642   4.358   6.751   5.147
 4915SOL     OW15643   2.600   6.321   5.170
 4915SOL    HW115644   2.658   6.268   5.108
 4915SOL    HW215645   2.575   6.408   5.126
 4916SOL     OW15646   0.798   1.319   3.778
 4916SOL    HW115647   0.722   1.274   3.732
 4916SOL    HW215648   0.789   1.308   3.877
 4917SOL     OW15649   3.494   5.612   1.438
 4917SOL    HW115650   3.480   5.516   1.413
 4917SOL    HW215651   3.426   5.669   1.392
 4918SOL     OW15652   5.505   6.719   1.812
 4918SOL    HW115653   5.521   6.815   1.834
 4918SOL    HW215654   5.413   6.708   1.775
 4919SOL     OW15655   2.858   3.457   2.031
 4919SOL    HW115656   2.916   3.386   1.990
 4919SOL    HW215657   2.776   3.469   1.974
 4920SOL     OW15658   5.573   6.845   4.819
 4920SOL    HW115659   5.586   6.769   4.883
 4920SOL    HW215660   5.587   6.931   4.868
 4921SOL     OW15661   1.244   5.260   0.042
 4921SOL    HW115662   1.321   5.265   7.008
 4921SOL    HW215663   1.269   5.305   0.128
 4922SOL     OW15664   2.793   2.326   4.352
 4922SOL    HW115665   2.718   2.390   4.365
 4922SOL    HW215666   2.807   2.309   4.255
 4923SOL     OW15667   2.736   1.144   2.452
 4923SOL    HW115668   2.675   1.187   2.385
 4923SOL    HW215669   2.831   1.152   2.420
 4924SOL     OW15670   3.243   1.603   4.679
 4924SOL    HW115671   3.215   1.573   4.588
 4924SOL    HW215672   3.302   1.683   4.672
 4925SOL     OW15673   5.305   0.423   2.611
 4925SOL    HW115674   5.293   0.504   2.668
 4925SOL    HW215675   5.400   0.418   2.579
 4926SOL     OW15676   5.672   1.408   1.795
 4926SOL    HW115677   5.744   1.443   1.855
 4926SOL    HW215678   5.708   1.395   1.703
 4927SOL     OW15679   3.172   3.619   5.302
 4927SOL    HW115680   3.201   3.684   5.233
 4927SOL    HW215681   3.191   3.656   5.393
 4928SOL     OW15682   1.303   0.730   7.027
 4928SOL    HW115683   1.379   0.673   6.995
 4928SOL    HW215684   1.237   0.741   6.953
 4929SOL     OW15685   6.282   0.270   4.314
 4929SOL    HW115686   6.367   0.324   4.311
 4929SOL    HW215687   6.297   0.187   4.366
 4930SOL     OW15688   5.681   6.931   2.603
 4930SOL    HW115689   5.621   6.976   2.537
 4930SOL    HW215690   5.713   6.998   2.670
 4931SOL     OW15691   6.442   6.611   1.757
 4931SOL    HW115692   6.493   6.618   1.671
 4931SOL    HW215693   6.505   6.592   1.832
 4932SOL     OW15694   4.122   3.307   3.072
 4932SOL    HW115695   4.051   3.237   3.060
 4932SOL    HW215696   4.156   3.303   3.166
 4933SOL     OW15697   2.351   6.916   2.074
 4933SOL    HW115698   2.353   6.906   2.174
 4933SOL    HW215699   2.354   6.825   2.032
 4934SOL     OW15700   3.354   6.090   2.655
 4934SOL    HW115701   3.334   6.102   2.752
 4934SOL    HW215702   3.296   6.018   2.617
 4935SOL     OW15703   1.398   2.032   6.419
 4935SOL    HW115704   1.421   1.992   6.508
 4935SOL    HW215705   1.304   2.065   6.420
 4936SOL     OW15706   3.431   5.078   1.137
 4936SOL    HW115707   3.413   5.164   1.089
 4936SOL    HW215708   3.460   5.008   1.071
 4937SOL     OW15709   5.682   2.844   5.602
 4937SOL    HW115710   5.610   2.899   5.644
 4937SOL    HW215711   5.738   2.802   5.674
 4938SOL     OW15712   2.662   5.908   5.821
 4938SOL    HW115713   2.658   5.997   5.777
 4938SOL    HW215714   2.570   5.868   5.824
 4939SOL     OW15715   5.280   2.026   4.960
 4939SOL    HW115716   5.192   2.007   5.003
 4939SOL    HW215717   5.306   2.121   4.977
 4940SOL     OW15718   1.074   1.163   4.594
 4940SOL    HW115719   1.098   1.258   4.614
 4940SOL    HW215720   1.078   1.110   4.679
 4941SOL     OW15721   3.974   2.359   6.155
 4941SOL    HW115722   3.940   2.390   6.066
 4941SOL    HW215723   3.897   2.336   6.214
 4942SOL     OW15724   5.142   3.314   5.559
 4942SOL    HW115725   5.172   3.220   5.573
 4942SOL    HW215726   5.110   3.352   5.646
 4943SOL     OW15727   3.977   3.292   1.139
 4943SOL    HW115728   3.978   3.251   1.048
 4943SOL    HW215729   3.882   3.312   1.166
 4944SOL     OW15730   2.044   4.491   2.818
 4944SOL    HW115731   2.062   4.426   2.744
 4944SOL    HW215732   1.978   4.559   2.788
 4945SOL     OW15733   1.070   1.293   3.677
 4945SOL    HW115734   0.984   1.262   3.717
 4945SOL    HW215735   1.128   1.214   3.657
 4946SOL     OW15736   0.830   3.079   1.695
 4946SOL    HW115737   0.820   2.999   1.755
 4946SOL    HW215738   0.834   3.048   1.600
 4947SOL     OW15739   1.286   0.107   0.665
 4947SOL    HW115740   1.334   0.161   0.735
 4947SOL    HW215741   1.354   0.062   0.606
 4948SOL     OW15742   2.729   0.632   2.111
 4948SOL    HW115743   2.661   0.685   2.060
 4948SOL    HW215744   2.694   0.540   2.129
 4949SOL     OW15745   4.952   0.574   5.375
 4949SOL    HW115746   4.909   0.570   5.465
 4949SOL    HW215747   4.900   0.516   5.311
 4950SOL     OW15748   2.920   5.857   3.568
 4950SOL    HW115749   2.917   5.786   3.497
 4950SOL    HW215750   2.860   5.831   3.643
 4951SOL     OW15751   5.761   1.230   4.807
 4951SOL    HW115752   5.813   1.194   4.885
 4951SOL    HW215753   5.777   1.173   4.727
 4952SOL     OW15754   0.549   0.838   4.950
 4952SOL    HW115755   0.476   0.808   4.890
 4952SOL    HW215756   0.521   0.921   4.999
 4953SOL     OW15757   2.447   6.138   2.281
 4953SOL    HW115758   2.393   6.097   2.207
 4953SOL    HW215759   2.537   6.164   2.246
 4954SOL     OW15760   4.757   4.347   6.327
 4954SOL    HW115761   4.768   4.441   6.293
 4954SOL    HW215762   4.814   4.333   6.407
 4955SOL     OW15763   1.619   5.896   6.693
 4955SOL    HW115764   1.524   5.867   6.704
 4955SOL    HW215765   1.634   5.982   6.742
 4956SOL     OW15766   3.223   6.781   5.069
 4956SOL    HW115767   3.301   6.844   5.065
 4956SOL    HW215768   3.169   6.802   5.150
 4957SOL     OW15769   6.637   0.943   3.380
 4957SOL    HW115770   6.541   0.956   3.407
 4957SOL    HW215771   6.692   0.924   3.461
 4958SOL     OW15772   0.377   6.280   5.934
 4958SOL    HW115773   0.335   6.239   5.853
 4958SOL    HW215774   0.468   6.239   5.948
 4959SOL     OW15775   6.633   1.284   6.860
 4959SOL    HW115776   6.689   1.239   6.791
 4959SOL    HW215777   6.573   1.351   6.815
 4960SOL     OW15778   3.169   6.465   3.685
 4960SOL    HW115779   3.223   6.535   3.639
 4960SOL    HW215780   3.073   6.474   3.659
 4961SOL     OW15781   5.366   1.184   4.978
 4961SOL    HW115782   5.271   1.210   4.994
 4961SOL    HW215783   5.422   1.267   4.968
 4962SOL     OW15784   5.777   2.743   1.614
 4962SOL    HW115785   5.826   2.827   1.590
 4962SOL    HW215786   5.712   2.721   1.541
 4963SOL     OW15787   5.886   5.995   1.117
 4963SOL    HW115788   5.926   5.949   1.037
 4963SOL    HW215789   5.957   6.011   1.185
 4964SOL     OW15790   3.715   6.454   3.199
 4964SOL    HW115791   3.682   6.434   3.292
 4964SOL    HW215792   3.740   6.369   3.154
 4965SOL     OW15793   0.330   6.858   4.014
 4965SOL    HW115794   0.304   6.898   3.927
 4965SOL    HW215795   0.413   6.903   4.048
 4966SOL     OW15796   2.379   6.802   4.677
 4966SOL    HW115797   2.431   6.716   4.676
 4966SOL    HW215798   2.322   6.805   4.759
 4967SOL     OW15799   4.472   3.174   6.664
 4967SOL    HW115800   4.400   3.243   6.670
 4967SOL    HW215801   4.519   3.167   6.753
 4968SOL     OW15802   5.237   2.894   3.308
 4968SOL    HW115803   5.168   2.867   3.375
 4968SOL    HW215804   5.323   2.846   3.328
 4969SOL     OW15805   1.503   1.074   2.609
 4969SOL    HW115806   1.539   0.991   2.652
 4969SOL    HW215807   1.503   1.062   2.510
 4970SOL     OW15808   1.604   2.538   5.039
 4970SOL    HW115809   1.683   2.600   5.039
 4970SOL    HW215810   1.588   2.505   4.947
 4971SOL     OW15811   6.365   6.099   3.770
 4971SOL    HW115812   6.453   6.111   3.723
 4971SOL    HW215813   6.366   6.150   3.856
 4972SOL     OW15814   2.176   3.560   0.913
 4972SOL    HW115815   2.150   3.477   0.964
 4972SOL    HW215816   2.098   3.623   0.911
 4973SOL     OW15817   7.016   6.895   1.689
 4973SOL    HW115818   7.000   6.987   1.724
 4973SOL    HW215819   6.928   6.850   1.670
 4974SOL     OW15820   6.821   4.453   0.579
 4974SOL    HW115821   6.896   4.409   0.529
 4974SOL    HW215822   6.789   4.392   0.652
 4975SOL     OW15823   6.221   5.778   0.479
 4975SOL    HW115824   6.270   5.709   0.532
 4975SOL    HW215825   6.266   5.867   0.489
 4976SOL     OW15826   2.810   0.398   4.426
 4976SOL    HW115827   2.721   0.359   4.400
 4976SOL    HW215828   2.835   0.470   4.361
 4977SOL     OW15829   5.218   4.045   0.684
 4977SOL    HW115830   5.166   3.998   0.755
 4977SOL    HW215831   5.298   4.089   0.726
 4978SOL     OW15832   6.844   3.625   5.537
 4978SOL    HW115833   6.884   3.642   5.627
 4978SOL    HW215834   6.792   3.540   5.540
 4979SOL     OW15835   0.273   1.871   5.085
 4979SOL    HW115836   0.345   1.923   5.132
 4979SOL    HW215837   0.314   1.795   5.036
 4980SOL     OW15838   4.667   6.838   3.288
 4980SOL    HW115839   4.739   6.895   3.328
 4980SOL    HW215840   4.710   6.767   3.231
 4981SOL     OW15841   5.076   5.621   5.709
 4981SOL    HW115842   5.011   5.609   5.785
 4981SOL    HW215843   5.154   5.560   5.722
 4982SOL     OW15844   2.679   1.455   6.774
 4982SOL    HW115845   2.603   1.449   6.709
 4982SOL    HW215846   2.734   1.371   6.768
 4983SOL     OW15847   4.876   3.176   4.255
 4983SOL    HW115848   4.934   3.227   4.319
 4983SOL    HW215849   4.798   3.233   4.228
 4984SOL     OW15850   5.633   3.582   4.424
 4984SOL    HW115851   5.616   3.681   4.426
 4984SOL    HW215852   5.664   3.555   4.333
 4985SOL     OW15853   6.781   6.470   3.781
 4985SOL    HW115854   6.857   6.483   3.717
 4985SOL    HW215855   6.695   6.463   3.730
 4986SOL     OW15856   6.691   4.674   3.088
 4986SOL    HW115857   6.775   4.623   3.100
 4986SOL    HW215858   6.616   4.628   3.135
 4987SOL     OW15859   0.742   1.869   1.319
 4987SOL    HW115860   0.819   1.839   1.263
 4987SOL    HW215861   0.763   1.851   1.416
 4988SOL     OW15862   6.771   1.489   3.899
 4988SOL    HW115863   6.701   1.436   3.948
 4988SOL    HW215864   6.856   1.437   3.894
 4989SOL     OW15865   6.143   1.288   1.539
 4989SOL    HW115866   6.062   1.234   1.515
 4989SOL    HW215867   6.136   1.318   1.634
 4990SOL     OW15868   0.965   1.866   6.324
 4990SOL    HW115869   0.873   1.903   6.337
 4990SOL    HW215870   0.994   1.881   6.230
 4991SOL     OW15871   0.827   3.589   3.993
 4991SOL    HW115872   0.758   3.570   4.064
 4991SOL    HW215873   0.797   3.550   3.906
 4992SOL     OW15874   4.610   1.169   4.170
 4992SOL    HW115875   4.688   1.123   4.127
 4992SOL    HW215876   4.610   1.150   4.268
 4993SOL     OW15877   2.369   4.437   3.850
 4993SOL    HW115878   2.450   4.496   3.848
 4993SOL    HW215879   2.292   4.484   3.808
 4994SOL     OW15880   1.677   0.165   2.294
 4994SOL    HW115881   1.647   0.101   2.365
 4994SOL    HW215882   1.663   0.259   2.326
 4995SOL     OW15883   6.877   3.321   5.845
 4995SOL    HW115884   6.860   3.304   5.748
 4995SOL    HW215885   6.975   3.328   5.861
 4996SOL     OW15886   1.137   0.258   2.309
 4996SOL    HW115887   1.072   0.193   2.349
 4996SOL    HW215888   1.215   0.270   2.371
 4997SOL     OW15889   6.406   2.196   3.105
 4997SOL    HW115890   6.458   2.143   3.171
 4997SOL    HW215891   6.323   2.231   3.149
 4998SOL     OW15892   1.881   4.145   4.782
 4998SOL    HW115893   1.933   4.227   4.759
 4998SOL    HW215894   1.939   4.081   4.833
 4999SOL     OW15895   4.850   5.580   1.306
 4999SOL    HW115896   4.916   5.596   1.379
 4999SOL    HW215897   4.811   5.668   1.277
 5000SOL     OW15898   1.731   0.552   3.867
 5000SOL    HW115899   1.689   0.575   3.955
 5000SOL    HW215900   1.721   0.629   3.805
 5001SOL     OW15901   1.994   4.160   6.081
 5001SOL    HW115902   2.075   4.101   6.087
 5001SOL    HW215903   2.010   4.234   6.016
 5002SOL     OW15904   1.414   2.773   2.968
 5002SOL    HW115905   1.415   2.860   3.018
 5002SOL    HW215906   1.320   2.743   2.957
 5003SOL     OW15907   0.937   6.565   3.402
 5003SOL    HW115908   0.866   6.626   3.435
 5003SOL    HW215909   0.999   6.541   3.476
 5004SOL     OW15910   2.373   5.951   5.524
 5004SOL    HW115911   2.442   5.882   5.500
 5004SOL    HW215912   2.401   5.999   5.607
 5005SOL     OW15913   3.698   2.167   0.689
 5005SOL    HW115914   3.751   2.093   0.729
 5005SOL    HW215915   3.752   2.251   0.691
 5006SOL     OW15916   5.671   6.803   6.436
 5006SOL    HW115917   5.586   6.807   6.385
 5006SOL    HW215918   5.738   6.864   6.394
 5007SOL     OW15919   2.602   0.358   6.241
 5007SOL    HW115920   2.551   0.274   6.223
 5007SOL    HW215921   2.674   0.368   6.173
 5008SOL     OW15922   6.587   0.328   3.881
 5008SOL    HW115923   6.562   0.300   3.974
 5008SOL    HW215924   6.685   0.346   3.876
 5009SOL     OW15925   1.932   5.917   1.656
 5009SOL    HW115926   1.937   5.845   1.725
 5009SOL    HW215927   2.005   5.984   1.672
 5010SOL     OW15928   3.819   3.656   4.130
 5010SOL    HW115929   3.754   3.612   4.193
 5010SOL    HW215930   3.896   3.594   4.115
 5011SOL     OW15931   2.102   3.222   2.049
 5011SOL    HW115932   2.048   3.242   2.130
 5011SOL    HW215933   2.164   3.298   2.030
 5012SOL     OW15934   5.905   2.726   6.671
 5012SOL    HW115935   5.806   2.715   6.661
 5012SOL    HW215936   5.940   2.779   6.593
 5013SOL     OW15937   5.254   0.751   6.839
 5013SOL    HW115938   5.177   0.784   6.894
 5013SOL    HW215939   5.328   0.722   6.900
 5014SOL     OW15940   6.286   5.238   0.784
 5014SOL    HW115941   6.315   5.298   0.709
 5014SOL    HW215942   6.275   5.291   0.868
 5015SOL     OW15943   4.025   1.931   3.563
 5015SOL    HW115944   4.075   2.013   3.590
 5015SOL    HW215945   3.977   1.893   3.642
 5016SOL     OW15946   2.124   1.109   2.169
 5016SOL    HW115947   2.200   1.056   2.207
 5016SOL    HW215948   2.156   1.202   2.148
 5017SOL     OW15949   2.442   2.526   0.826
 5017SOL    HW115950   2.415   2.622   0.828
 5017SOL    HW215951   2.377   2.474   0.770
 5018SOL     OW15952   0.846   4.481   1.567
 5018SOL    HW115953   0.900   4.413   1.516
 5018SOL    HW215954   0.767   4.508   1.512
 5019SOL     OW15955   2.479   4.590   0.587
 5019SOL    HW115956   2.508   4.652   0.660
 5019SOL    HW215957   2.514   4.624   0.499
 5020SOL     OW15958   5.706   6.710   5.040
 5020SOL    HW115959   5.740   6.799   5.072
 5020SOL    HW215960   5.685   6.652   5.119
 5021SOL     OW15961   1.193   3.414   6.144
 5021SOL    HW115962   1.095   3.417   6.163
 5021SOL    HW215963   1.239   3.362   6.216
 5022SOL     OW15964   1.572   0.262   0.768
 5022SOL    HW115965   1.667   0.282   0.742
 5022SOL    HW215966   1.512   0.281   0.691
 5023SOL     OW15967   6.490   3.288   0.967
 5023SOL    HW115968   6.436   3.271   1.050
 5023SOL    HW215969   6.528   3.380   0.970
 5024SOL     OW15970   0.247   4.300   2.620
 5024SOL    HW115971   0.274   4.278   2.526
 5024SOL    HW215972   0.214   4.217   2.665
 5025SOL     OW15973   4.593   2.134   2.172
 5025SOL    HW115974   4.685   2.134   2.132
 5025SOL    HW215975   4.581   2.214   2.231
 5026SOL     OW15976   6.163   6.172   6.370
 5026SOL    HW115977   6.144   6.167   6.272
 5026SOL    HW215978   6.091   6.223   6.416
 5027SOL     OW15979   0.815   6.662   2.964
 5027SOL    HW115980   0.871   6.629   3.039
 5027SOL    HW215981   0.871   6.716   2.901
 5028SOL     OW15982   0.479   5.965   1.758
 5028SOL    HW115983   0.487   5.866   1.759
 5028SOL    HW215984   0.410   5.992   1.691
 5029SOL     OW15985   6.753   3.101   3.054
 5029SOL    HW115986   6.852   3.111   3.059
 5029SOL    HW215987   6.730   3.016   3.005
 5030SOL     OW15988   6.751   0.759   6.871
 5030SOL    HW115989   6.751   0.675   6.817
 5030SOL    HW215990   6.666   0.766   6.922
 5031SOL     OW15991   6.259   1.217   4.446
 5031SOL    HW115992   6.191   1.149   4.471
 5031SOL    HW215993   6.220   1.280   4.378
 5032SOL     OW15994   1.269   4.433   0.948
 5032SOL    HW115995   1.190   4.420   0.888
 5032SOL    HW215996   1.353   4.429   0.894
 5033SOL     OW15997   2.072   5.007   6.118
 5033SOL    HW115998   2.003   5.044   6.180
 5033SOL    HW215999   2.150   5.070   6.115
 5034SOL     OW16000   6.840   3.164   1.744
 5034SOL    HW116001   6.824   3.066   1.752
 5034SOL    HW216002   6.909   3.181   1.673
 5035SOL     OW16003   5.955   4.561   1.398
 5035SOL    HW116004   6.036   4.609   1.434
 5035SOL    HW216005   5.922   4.609   1.316
 5036SOL     OW16006   0.668   5.707   6.368
 5036SOL    HW116007   0.710   5.737   6.454
 5036SOL    HW216008   0.569   5.708   6.378
 5037SOL     OW16009   4.787   2.429   2.786
 5037SOL    HW116010   4.748   2.456   2.874
 5037SOL    HW216011   4.714   2.403   2.724
 5038SOL     OW16012   1.946   5.999   5.491
 5038SOL    HW116013   1.974   6.011   5.395
 5038SOL    HW216014   2.003   5.928   5.533
 5039SOL     OW16015   1.820   3.800   4.925
 5039SOL    HW116016   1.889   3.865   4.957
 5039SOL    HW216017   1.745   3.850   4.882
 5040SOL     OW16018   2.751   3.207   6.562
 5040SOL    HW116019   2.842   3.179   6.533
 5040SOL    HW216020   2.759   3.274   6.636
 5041SOL     OW16021   0.832   3.198   1.036
 5041SOL    HW116022   0.914   3.181   0.981
 5041SOL    HW216023   0.780   3.113   1.046
 5042SOL     OW16024   7.024   3.389   6.825
 5042SOL    HW116025   0.021   3.482   6.798
 5042SOL    HW216026   0.055   3.323   6.782
 5043SOL     OW16027   3.508   1.090   5.551
 5043SOL    HW116028   3.488   1.182   5.583
 5043SOL    HW216029   3.461   1.023   5.609
 5044SOL     OW16030   6.103   6.219   3.302
 5044SOL    HW116031   6.049   6.163   3.240
 5044SOL    HW216032   6.186   6.170   3.327
 5045SOL     OW16033   5.040   3.341   0.522
 5045SOL    HW116034   5.030   3.326   0.424
 5045SOL    HW216035   5.035   3.440   0.541
 5046SOL     OW16036   3.748   2.886   4.919
 5046SOL    HW116037   3.772   2.928   5.006
 5046SOL    HW216038   3.753   2.787   4.927
 5047SOL     OW16039   6.108   1.288   2.597
 5047SOL    HW116040   6.030   1.345   2.571
 5047SOL    HW216041   6.150   1.325   2.680
 5048SOL     OW16042   6.433   2.212   1.864
 5048SOL    HW116043   6.453   2.245   1.956
 5048SOL    HW216044   6.446   2.287   1.798
 5049SOL     OW16045   6.338   1.206   2.870
 5049SOL    HW116046   6.310   1.288   2.820
 5049SOL    HW216047   6.430   1.179   2.842
 5050SOL     OW16048   0.387   1.948   1.949
 5050SOL    HW116049   0.348   2.038   1.966
 5050SOL    HW216050   0.375   1.923   1.853
 5051SOL     OW16051   3.639   3.268   0.759
 5051SOL    HW116052   3.710   3.240   0.694
 5051SOL    HW216053   3.549   3.261   0.714
 5052SOL     OW16054   2.765   4.682   7.017
 5052SOL    HW116055   2.823   4.690   6.936
 5052SOL    HW216056   2.815   4.634   0.059
 5053SOL     OW16057   2.160   3.725   2.336
 5053SOL    HW116058   2.257   3.745   2.350
 5053SOL    HW216059   2.140   3.723   2.238
 5054SOL     OW16060   3.766   6.064   5.647
 5054SOL    HW116061   3.812   6.101   5.566
 5054SOL    HW216062   3.701   6.131   5.682
 5055SOL     OW16063   0.268   1.341   4.968
 5055SOL    HW116064   0.210   1.365   5.046
 5055SOL    HW216065   0.292   1.423   4.917
 5056SOL     OW16066   6.896   4.362   6.415
 5056SOL    HW116067   6.947   4.335   6.497
 5056SOL    HW216068   6.948   4.337   6.333
 5057SOL     OW16069   0.978   5.488   3.501
 5057SOL    HW116070   0.942   5.459   3.590
 5057SOL    HW216071   0.987   5.587   3.500
 5058SOL     OW16072   4.218   3.883   6.786
 5058SOL    HW116073   4.299   3.870   6.844
 5058SOL    HW216074   4.144   3.825   6.819
 5059SOL     OW16075   4.701   2.688   5.138
 5059SOL    HW116076   4.614   2.641   5.121
 5059SOL    HW216077   4.741   2.716   5.051
 5060SOL     OW16078   6.945   3.280   4.699
 5060SOL    HW116079   7.010   3.215   4.659
 5060SOL    HW216080   6.965   3.372   4.665
 5061SOL     OW16081   3.110   3.408   4.094
 5061SOL    HW116082   3.047   3.400   4.171
 5061SOL    HW216083   3.146   3.501   4.091
 5062SOL     OW16084   5.230   1.532   2.589
 5062SOL    HW116085   5.232   1.448   2.642
 5062SOL    HW216086   5.295   1.526   2.514
 5063SOL     OW16087   1.238   6.414   1.933
 5063SOL    HW116088   1.159   6.460   1.975
 5063SOL    HW216089   1.211   6.322   1.905
 5064SOL     OW16090   4.746   5.359   0.741
 5064SOL    HW116091   4.796   5.278   0.710
 5064SOL    HW216092   4.798   5.404   0.814
 5065SOL     OW16093   1.796   0.582   3.000
 5065SOL    HW116094   1.824   0.661   3.054
 5065SOL    HW216095   1.802   0.603   2.903
 5066SOL     OW16096   2.348   4.058   1.591
 5066SOL    HW116097   2.328   3.987   1.658
 5066SOL    HW216098   2.313   4.031   1.502
 5067SOL     OW16099   4.118   2.013   1.752
 5067SOL    HW116100   4.217   2.019   1.740
 5067SOL    HW216101   4.078   2.104   1.750
 5068SOL     OW16102   2.858   5.269   0.148
 5068SOL    HW116103   2.889   5.177   0.125
 5068SOL    HW216104   2.912   5.305   0.223
 5069SOL     OW16105   2.250   3.017   5.555
 5069SOL    HW116106   2.160   3.007   5.514
 5069SOL    HW216107   2.315   3.047   5.485
 5070SOL     OW16108   5.691   4.279   3.836
 5070SOL    HW116109   5.636   4.355   3.803
 5070SOL    HW216110   5.705   4.213   3.763
 5071SOL     OW16111   3.607   1.814   3.367
 5071SOL    HW116112   3.686   1.872   3.346
 5071SOL    HW216113   3.533   1.871   3.403
 5072SOL     OW16114   2.150   1.107   1.307
 5072SOL    HW116115   2.110   1.112   1.398
 5072SOL    HW216116   2.200   1.021   1.297
 5073SOL     OW16117   1.687   6.292   1.763
 5073SOL    HW116118   1.648   6.233   1.833
 5073SOL    HW216119   1.786   6.298   1.775
 5074SOL     OW16120   3.673   1.833   1.567
 5074SOL    HW116121   3.656   1.890   1.647
 5074SOL    HW216122   3.603   1.850   1.497
 5075SOL     OW16123   1.583   2.416   0.165
 5075SOL    HW116124   1.537   2.476   0.231
 5075SOL    HW216125   1.584   2.322   0.200
 5076SOL     OW16126   5.499   0.029   6.826
 5076SOL    HW116127   5.544   0.061   6.910
 5076SOL    HW216128   5.523   6.964   6.810
 5077SOL     OW16129   1.596   3.789   6.194
 5077SOL    HW116130   1.672   3.737   6.156
 5077SOL    HW216131   1.518   3.728   6.209
 5078SOL     OW16132   0.564   1.000   4.454
 5078SOL    HW116133   0.548   1.003   4.356
 5078SOL    HW216134   0.621   0.920   4.476
 5079SOL     OW16135   2.460   2.318   5.988
 5079SOL    HW116136   2.492   2.344   5.897
 5079SOL    HW216137   2.453   2.399   6.046
 5080SOL     OW16138   5.866   5.776   5.553
 5080SOL    HW116139   5.848   5.684   5.518
 5080SOL    HW216140   5.804   5.796   5.628
 5081SOL     OW16141   2.439   4.994   4.888
 5081SOL    HW116142   2.451   5.092   4.903
 5081SOL    HW216143   2.505   4.943   4.943
 5082SOL     OW16144   4.609   6.955   0.118
 5082SOL    HW116145   4.510   6.962   0.125
 5082SOL    HW216146   4.633   6.874   0.065
 5083SOL     OW16147   3.814   0.555   0.968
 5083SOL    HW116148   3.853   0.495   0.899
 5083SOL    HW216149   3.714   0.547   0.967
 5084SOL     OW16150   0.808   4.793   4.950
 5084SOL    HW116151   0.766   4.862   4.891
 5084SOL    HW216152   0.802   4.703   4.907
 5085SOL     OW16153   0.973   2.914   5.757
 5085SOL    HW116154   0.971   2.833   5.699
 5085SOL    HW216155   0.898   2.909   5.823
 5086SOL     OW16156   0.391   4.172   2.122
 5086SOL    HW116157   0.491   4.169   2.132
 5086SOL    HW216158   0.368   4.187   2.025
 5087SOL     OW16159   6.792   5.237   2.232
 5087SOL    HW116160   6.845   5.322   2.236
 5087SOL    HW216161   6.849   5.165   2.191
 5088SOL     OW16162   4.430   6.596   3.087
 5088SOL    HW116163   4.479   6.518   3.127
 5088SOL    HW216164   4.347   6.563   3.042
 5089SOL     OW16165   5.642   3.874   3.930
 5089SOL    HW116166   5.618   3.946   3.994
 5089SOL    HW216167   5.602   3.893   3.840
 5090SOL     OW16168   1.871   1.166   2.862
 5090SOL    HW116169   1.876   1.262   2.834
 5090SOL    HW216170   1.853   1.161   2.961
 5091SOL     OW16171   6.304   0.449   0.756
 5091SOL    HW116172   6.298   0.547   0.736
 5091SOL    HW216173   6.391   0.430   0.803
 5092SOL     OW16174   3.847   2.989   3.878
 5092SOL    HW116175   3.756   3.015   3.847
 5092SOL    HW216176   3.907   2.981   3.798
 5093SOL     OW16177   2.641   1.731   1.710
 5093SOL    HW116178   2.709   1.663   1.682
 5093SOL    HW216179   2.688   1.817   1.733
 5094SOL     OW16180   1.906   5.698   6.727
 5094SOL    HW116181   1.954   5.732   6.646
 5094SOL    HW216182   1.952   5.616   6.760
 5095SOL     OW16183   0.434   1.565   2.855
 5095SOL    HW116184   0.505   1.598   2.792
 5095SOL    HW216185   0.474   1.499   2.918
 5096SOL     OW16186   5.510   4.787   6.061
 5096SOL    HW116187   5.591   4.843   6.077
 5096SOL    HW216188   5.442   4.806   6.131
 5097SOL     OW16189   6.528   0.471   0.047
 5097SOL    HW116190   6.606   0.441   7.024
 5097SOL    HW216191   6.521   0.416   0.131
 5098SOL     OW16192   3.724   2.405   1.355
 5098SOL    HW116193   3.662   2.372   1.285
 5098SOL    HW216194   3.813   2.425   1.314
 5099SOL     OW16195   0.208   6.359   1.536
 5099SOL    HW116196   0.225   6.261   1.525
 5099SOL    HW216197   0.266   6.411   1.473
 5100SOL     OW16198   3.155   5.461   3.389
 5100SOL    HW116199   3.111   5.479   3.477
 5100SOL    HW216200   3.129   5.531   3.323
 5101SOL     OW16201   3.941   0.512   4.567
 5101SOL    HW116202   3.939   0.420   4.607
 5101SOL    HW216203   3.868   0.567   4.608
 5102SOL     OW16204   5.001   5.853   4.541
 5102SOL    HW116205   4.933   5.793   4.497
 5102SOL    HW216206   5.086   5.802   4.555
 5103SOL     OW16207   0.654   1.418   4.648
 5103SOL    HW116208   0.615   1.486   4.586
 5103SOL    HW216209   0.688   1.340   4.595
 5104SOL     OW16210   3.260   5.851   1.749
 5104SOL    HW116211   3.232   5.834   1.843
 5104SOL    HW216212   3.289   5.765   1.707
 5105SOL     OW16213   3.259   2.927   6.220
 5105SOL    HW116214   3.303   2.923   6.309
 5105SOL    HW216215   3.296   3.003   6.167
 5106SOL     OW16216   3.988   1.654   1.181
 5106SOL    HW116217   3.942   1.620   1.263
 5106SOL    HW216218   3.967   1.751   1.169
 5107SOL     OW16219   5.518   2.153   0.801
 5107SOL    HW116220   5.431   2.135   0.847
 5107SOL    HW216221   5.555   2.067   0.764
 5108SOL     OW16222   4.316   4.014   5.326
 5108SOL    HW116223   4.224   4.050   5.308
 5108SOL    HW216224   4.320   3.979   5.419
 5109SOL     OW16225   1.065   2.676   0.709
 5109SOL    HW116226   1.064   2.578   0.727
 5109SOL    HW216227   0.980   2.702   0.663
 5110SOL     OW16228   0.134   0.368   6.281
 5110SOL    HW116229   0.153   0.405   6.372
 5110SOL    HW216230   0.084   0.435   6.228
 5111SOL     OW16231   1.330   6.882   3.848
 5111SOL    HW116232   1.360   6.976   3.867
 5111SOL    HW216233   1.405   6.819   3.867
 5112SOL     OW16234   0.422   0.382   2.994
 5112SOL    HW116235   0.408   0.463   2.938
 5112SOL    HW216236   0.419   0.300   2.937
 5113SOL     OW16237   1.382   6.142   1.486
 5113SOL    HW116238   1.344   6.050   1.494
 5113SOL    HW216239   1.475   6.143   1.524
 5114SOL     OW16240   3.914   6.888   0.214
 5114SOL    HW116241   3.950   6.872   0.306
 5114SOL    HW216242   3.815   6.871   0.214
 5115SOL     OW16243   1.967   4.032   2.114
 5115SOL    HW116244   2.024   4.045   2.032
 5115SOL    HW216245   2.006   4.084   2.190
 5116SOL     OW16246   2.210   6.582   6.952
 5116SOL    HW116247   2.257   6.612   6.869
 5116SOL    HW216248   2.262   6.610   0.001
 5117SOL     OW16249   0.902   3.811   3.829
 5117SOL    HW116250   0.883   3.731   3.885
 5117SOL    HW216251   0.854   3.890   3.866
 5118SOL     OW16252   5.469   6.673   0.048
 5118SOL    HW116253   5.526   6.635   0.120
 5118SOL    HW216254   5.447   6.602   7.012
 5119SOL     OW16255   4.707   1.562   1.474
 5119SOL    HW116256   4.793   1.512   1.478
 5119SOL    HW216257   4.721   1.648   1.424
 5120SOL     OW16258   4.606   6.842   5.285
 5120SOL    HW116259   4.622   6.915   5.219
 5120SOL    HW216260   4.645   6.868   5.374
 5121SOL     OW16261   3.578   3.564   0.278
 5121SOL    HW116262   3.558   3.662   0.278
 5121SOL    HW216263   3.499   3.514   0.313
 5122SOL     OW16264   3.811   5.957   2.943
 5122SOL    HW116265   3.822   5.954   2.843
 5122SOL    HW216266   3.857   5.877   2.984
 5123SOL     OW16267   5.537   2.077   3.946
 5123SOL    HW116268   5.581   2.076   4.035
 5123SOL    HW216269   5.443   2.110   3.956
 5124SOL     OW16270   2.058   6.661   3.627
 5124SOL    HW116271   2.023   6.753   3.646
 5124SOL    HW216272   2.074   6.614   3.713
 5125SOL     OW16273   0.240   1.956   2.966
 5125SOL    HW116274   0.228   1.860   2.989
 5125SOL    HW216275   0.322   1.992   3.011
 5126SOL     OW16276   0.990   6.448   0.059
 5126SOL    HW116277   1.085   6.416   0.063
 5126SOL    HW216278   0.975   6.516   0.131
 5127SOL     OW16279   0.837   5.601   6.804
 5127SOL    HW116280   0.901   5.617   6.729
 5127SOL    HW216281   0.887   5.603   6.891
 5128SOL     OW16282   6.513   6.557   0.808
 5128SOL    HW116283   6.522   6.612   0.725
 5128SOL    HW216284   6.589   6.577   0.870
 5129SOL     OW16285   4.954   6.369   2.586
 5129SOL    HW116286   4.984   6.290   2.532
 5129SOL    HW216287   5.003   6.370   2.674
 5130SOL     OW16288   6.995   5.363   2.564
 5130SOL    HW116289   6.965   5.274   2.600
 5130SOL    HW216290   6.988   5.362   2.464
 5131SOL     OW16291   1.875   3.188   4.066
 5131SOL    HW116292   1.971   3.215   4.071
 5131SOL    HW216293   1.869   3.097   4.024
 5132SOL     OW16294   4.251   2.867   5.899
 5132SOL    HW116295   4.276   2.782   5.853
 5132SOL    HW216296   4.330   2.928   5.900
 5133SOL     OW16297   2.972   4.708   0.388
 5133SOL    HW116298   3.022   4.765   0.323
 5133SOL    HW216299   2.984   4.744   0.480
 5134SOL     OW16300   6.776   2.653   2.208
 5134SOL    HW116301   6.734   2.742   2.191
 5134SOL    HW216302   6.851   2.663   2.273
 5135SOL     OW16303   6.403   2.126   5.517
 5135SOL    HW116304   6.328   2.130   5.582
 5135SOL    HW216305   6.388   2.049   5.454
 5136SOL     OW16306   4.662   0.170   6.021
 5136SOL    HW116307   4.650   0.269   6.031
 5136SOL    HW216308   4.641   0.125   6.108
 5137SOL     OW16309   5.837   3.044   6.390
 5137SOL    HW116310   5.931   3.080   6.383
 5137SOL    HW216311   5.787   3.066   6.307
 5138SOL     OW16312   3.206   3.135   5.887
 5138SOL    HW116313   3.109   3.118   5.901
 5138SOL    HW216314   3.251   3.148   5.976
 5139SOL     OW16315   1.532   6.950   3.476
 5139SOL    HW116316   1.622   6.944   3.434
 5139SOL    HW216317   1.492   0.009   3.457
 5140SOL     OW16318   3.179   1.648   0.072
 5140SOL    HW116319   3.105   1.582   0.059
 5140SOL    HW216320   3.192   1.701   7.019
 5141SOL     OW16321   6.897   3.794   0.201
 5141SOL    HW116322   6.905   3.708   0.250
 5141SOL    HW216323   6.801   3.810   0.177
 5142SOL     OW16324   6.200   1.199   3.783
 5142SOL    HW116325   6.105   1.224   3.802
 5142SOL    HW216326   6.205   1.103   3.757
 5143SOL     OW16327   0.552   4.290   3.728
 5143SOL    HW116328   0.640   4.245   3.715
 5143SOL    HW216329   0.566   4.388   3.743
 5144SOL     OW16330   0.935   6.096   6.414
 5144SOL    HW116331   0.862   6.165   6.410
 5144SOL    HW216332   0.990   6.111   6.496
 5145SOL     OW16333   1.685   5.237   5.902
 5145SOL    HW116334   1.659   5.190   5.986
 5145SOL    HW216335   1.757   5.186   5.855
 5146SOL     OW16336   4.341   3.975   5.591
 5146SOL    HW116337   4.440   3.963   5.589
 5146SOL    HW216338   4.305   3.939   5.677
 5147SOL     OW16339   0.283   4.559   2.399
 5147SOL    HW116340   0.290   4.465   2.364
 5147SOL    HW216341   0.280   4.557   2.499
 5148SOL     OW16342   0.958   6.395   0.853
 5148SOL    HW116343   0.907   6.370   0.934
 5148SOL    HW216344   1.055   6.376   0.867
 5149SOL     OW16345   5.933   5.915   4.711
 5149SOL    HW116346   5.856   5.953   4.762
 5149SOL    HW216347   5.939   5.960   4.622
 5150SOL     OW16348   2.430   4.843   2.914
 5150SOL    HW116349   2.394   4.752   2.932
 5150SOL    HW216350   2.355   4.906   2.894
 5151SOL     OW16351   5.327   1.244   0.327
 5151SOL    HW116352   5.229   1.227   0.339
 5151SOL    HW216353   5.366   1.173   0.268
 5152SOL     OW16354   1.968   5.081   6.359
 5152SOL    HW116355   1.899   5.048   6.424
 5152SOL    HW216356   1.931   5.160   6.309
 5153SOL     OW16357   2.055   1.161   6.113
 5153SOL    HW116358   1.964   1.140   6.078
 5153SOL    HW216359   2.048   1.230   6.184
 5154SOL     OW16360   2.088   2.930   6.358
 5154SOL    HW116361   2.186   2.935   6.343
 5154SOL    HW216362   2.061   2.835   6.376
 5155SOL     OW16363   3.542   6.428   2.129
 5155SOL    HW116364   3.599   6.395   2.053
 5155SOL    HW216365   3.591   6.414   2.215
 5156SOL     OW16366   6.867   3.262   5.588
 5156SOL    HW116367   6.940   3.303   5.533
 5156SOL    HW216368   6.844   3.172   5.551
 5157SOL     OW16369   4.562   2.579   3.737
 5157SOL    HW116370   4.505   2.550   3.814
 5157SOL    HW216371   4.627   2.506   3.714
 5158SOL     OW16372   3.101   1.741   1.268
 5158SOL    HW116373   3.099   1.698   1.177
 5158SOL    HW216374   3.032   1.813   1.272
 5159SOL     OW16375   0.386   3.368   4.416
 5159SOL    HW116376   0.404   3.463   4.443
 5159SOL    HW216377   0.471   3.315   4.424
 5160SOL     OW16378   0.444   4.022   4.032
 5160SOL    HW116379   0.452   3.927   4.002
 5160SOL    HW216380   0.375   4.069   3.977
 5161SOL     OW16381   1.551   3.592   4.445
 5161SOL    HW116382   1.534   3.612   4.542
 5161SOL    HW216383   1.624   3.524   4.438
 5162SOL     OW16384   1.111   5.073   4.212
 5162SOL    HW116385   1.029   5.018   4.199
 5162SOL    HW216386   1.173   5.025   4.275
 5163SOL     OW16387   3.864   5.012   1.402
 5163SOL    HW116388   3.798   5.007   1.327
 5163SOL    HW216389   3.931   4.939   1.392
 5164SOL     OW16390   5.970   2.317   6.477
 5164SOL    HW116391   5.957   2.263   6.394
 5164SOL    HW216392   6.004   2.258   6.551
 5165SOL     OW16393   5.817   3.500   5.442
 5165SOL    HW116394   5.905   3.504   5.490
 5165SOL    HW216395   5.830   3.529   5.347
 5166SOL     OW16396   1.353   5.205   1.546
 5166SOL    HW116397   1.408   5.121   1.543
 5166SOL    HW216398   1.411   5.281   1.577
 5167SOL     OW16399   6.249   0.388   5.657
 5167SOL    HW116400   6.279   0.483   5.667
 5167SOL    HW216401   6.174   0.370   5.720
 5168SOL     OW16402   5.033   2.837   3.458
 5168SOL    HW116403   4.972   2.899   3.509
 5168SOL    HW216404   4.979   2.771   3.407
 5169SOL     OW16405   3.374   2.379   5.810
 5169SOL    HW116406   3.297   2.327   5.848
 5169SOL    HW216407   3.421   2.323   5.741
 5170SOL     OW16408   0.186   3.967   5.644
 5170SOL    HW116409   0.248   3.963   5.721
 5170SOL    HW216410   0.163   4.062   5.624
 5171SOL     OW16411   2.366   5.311   4.644
 5171SOL    HW116412   2.443   5.288   4.585
 5171SOL    HW216413   2.281   5.303   4.591
 5172SOL     OW16414   0.485   2.983   2.055
 5172SOL    HW116415   0.497   3.020   2.147
 5172SOL    HW216416   0.496   3.057   1.988
 5173SOL     OW16417   5.706   4.883   6.335
 5173SOL    HW116418   5.658   4.841   6.412
 5173SOL    HW216419   5.678   4.978   6.325
 5174SOL     OW16420   1.865   4.545   4.473
 5174SOL    HW116421   1.932   4.573   4.542
 5174SOL    HW216422   1.912   4.502   4.396
 5175SOL     OW16423   2.421   4.140   6.642
 5175SOL    HW116424   2.417   4.075   6.718
 5175SOL    HW216425   2.513   4.137   6.602
 5176SOL     OW16426   4.379   3.302   1.481
 5176SOL    HW116427   4.359   3.278   1.386
 5176SOL    HW216428   4.309   3.262   1.540
 5177SOL     OW16429   4.768   7.003   5.875
 5177SOL    HW116430   4.751   0.055   5.929
 5177SOL    HW216431   4.687   6.983   5.818
 5178SOL     OW16432   2.076   2.426   1.443
 5178SOL    HW116433   2.155   2.367   1.452
 5178SOL    HW216434   2.059   2.472   1.531
 5179SOL     OW16435   4.172   5.749   5.619
 5179SOL    HW116436   4.130   5.817   5.679
 5179SOL    HW216437   4.223   5.683   5.673
 5180SOL     OW16438   2.907   2.829   6.634
 5180SOL    HW116439   2.956   2.796   6.553
 5180SOL    HW216440   2.809   2.812   6.623
 5181SOL     OW16441   5.218   1.256   2.766
 5181SOL    HW116442   5.289   1.187   2.754
 5181SOL    HW216443   5.136   1.213   2.803
 5182SOL     OW16444   5.179   5.295   1.361
 5182SOL    HW116445   5.178   5.201   1.328
 5182SOL    HW216446   5.182   5.295   1.461
 5183SOL     OW16447   4.439   0.324   2.557
 5183SOL    HW116448   4.428   0.377   2.641
 5183SOL    HW216449   4.350   0.311   2.514
 5184SOL     OW16450   0.767   1.828   3.838
 5184SOL    HW116451   0.860   1.863   3.824
 5184SOL    HW216452   0.703   1.904   3.847
 5185SOL     OW16453   4.699   0.022   3.093
 5185SOL    HW116454   4.708   0.096   3.159
 5185SOL    HW216455   4.674   6.968   3.141
 5186SOL     OW16456   6.077   3.477   0.731
 5186SOL    HW116457   6.166   3.433   0.720
 5186SOL    HW216458   6.087   3.576   0.722
 5187SOL     OW16459   6.371   0.986   3.468
 5187SOL    HW116460   6.272   0.996   3.484
 5187SOL    HW216461   6.421   1.026   3.544
 5188SOL     OW16462   0.755   5.093   0.527
 5188SOL    HW116463   0.837   5.096   0.585
 5188SOL    HW216464   0.781   5.068   0.434
 5189SOL     OW16465   4.636   5.273   1.041
 5189SOL    HW116466   4.609   5.335   0.966
 5189SOL    HW216467   4.603   5.181   1.021
 5190SOL     OW16468   0.784   2.327   4.509
 5190SOL    HW116469   0.722   2.311   4.586
 5190SOL    HW216470   0.850   2.252   4.504
 5191SOL     OW16471   3.653   0.572   1.815
 5191SOL    HW116472   3.732   0.617   1.773
 5191SOL    HW216473   3.671   0.473   1.822
 5192SOL     OW16474   4.285   5.666   2.377
 5192SOL    HW116475   4.205   5.630   2.329
 5192SOL    HW216476   4.329   5.592   2.429
 5193SOL     OW16477   4.651   4.872   3.749
 5193SOL    HW116478   4.630   4.850   3.844
 5193SOL    HW216479   4.732   4.821   3.720
 5194SOL     OW16480   4.586   6.923   6.265
 5194SOL    HW116481   4.584   6.858   6.341
 5194SOL    HW216482   4.647   6.890   6.193
 5195SOL     OW16483   6.197   6.234   4.549
 5195SOL    HW116484   6.232   6.286   4.471
 5195SOL    HW216485   6.258   6.157   4.568
 5196SOL     OW16486   1.280   3.548   0.898
 5196SOL    HW116487   1.301   3.606   0.977
 5196SOL    HW216488   1.182   3.552   0.879
 5197SOL     OW16489   2.003   6.309   4.160
 5197SOL    HW116490   1.935   6.294   4.088
 5197SOL    HW216491   1.997   6.235   4.227
 5198SOL     OW16492   3.424   0.203   4.613
 5198SOL    HW116493   3.484   0.264   4.562
 5198SOL    HW216494   3.330   0.214   4.581
 5199SOL     OW16495   2.038   6.315   0.766
 5199SOL    HW116496   1.956   6.341   0.817
 5199SOL    HW216497   2.071   6.225   0.798
 5200SOL     OW16498   1.036   2.222   4.848
 5200SOL    HW116499   0.970   2.191   4.917
 5200SOL    HW216500   1.043   2.321   4.851
 5201SOL     OW16501   5.200   5.770   4.147
 5201SOL    HW116502   5.139   5.844   4.177
 5201SOL    HW216503   5.274   5.808   4.092
 5202SOL     OW16504   5.437   3.553   6.181
 5202SOL    HW116505   5.389   3.466   6.190
 5202SOL    HW216506   5.379   3.620   6.133
 5203SOL     OW16507   1.774   0.793   6.462
 5203SOL    HW116508   1.839   0.761   6.531
 5203SOL    HW216509   1.685   0.750   6.478
 5204SOL     OW16510   3.269   6.442   6.803
 5204SOL    HW116511   3.337   6.511   6.829
 5204SOL    HW216512   3.314   6.370   6.750
 5205SOL     OW16513   6.847   5.594   0.057
 5205SOL    HW116514   6.901   5.631   7.011
 5205SOL    HW216515   6.858   5.654   0.137
 5206SOL     OW16516   0.413   5.415   5.780
 5206SOL    HW116517   0.377   5.403   5.687
 5206SOL    HW216518   0.512   5.413   5.777
 5207SOL     OW16519   0.471   0.773   3.602
 5207SOL    HW116520   0.494   0.816   3.689
 5207SOL    HW216521   0.534   0.805   3.531
 5208SOL     OW16522   5.163   2.428   0.495
 5208SOL    HW116523   5.245   2.466   0.451
 5208SOL    HW216524   5.134   2.488   0.569
 5209SOL     OW16525   5.111   0.454   2.421
 5209SOL    HW116526   5.171   0.446   2.500
 5209SOL    HW216527   5.100   0.550   2.397
 5210SOL     OW16528   5.414   4.079   1.061
 5210SOL    HW116529   5.416   4.105   0.965
 5210SOL    HW216530   5.324   4.043   1.084
 5211SOL     OW16531   5.325   1.610   4.599
 5211SOL    HW116532   5.366   1.547   4.665
 5211SOL    HW216533   5.253   1.563   4.549
 5212SOL     OW16534   1.073   2.348   0.673
 5212SOL    HW116535   1.166   2.360   0.707
 5212SOL    HW216536   1.008   2.351   0.750
 5213SOL     OW16537   4.140   3.811   1.838
 5213SOL    HW116538   4.059   3.867   1.856
 5213SOL    HW216539   4.217   3.869   1.812
 5214SOL     OW16540   4.936   3.939   5.940
 5214SOL    HW116541   4.953   3.917   6.036
 5214SOL    HW216542   4.988   3.877   5.882
 5215SOL     OW16543   6.901   4.200   3.807
 5215SOL    HW116544   6.937   4.154   3.888
 5215SOL    HW216545   6.810   4.165   3.787
 5216SOL     OW16546   4.631   5.725   1.025
 5216SOL    HW116547   4.703   5.686   0.967
 5216SOL    HW216548   4.612   5.819   0.995
 5217SOL     OW16549   3.971   5.744   4.467
 5217SOL    HW116550   3.981   5.714   4.562
 5217SOL    HW216551   3.975   5.844   4.464
 5218SOL     OW16552   0.293   1.472   0.829
 5218SOL    HW116553   0.244   1.502   0.747
 5218SOL    HW216554   0.251   1.514   0.910
 5219SOL     OW16555   3.407   1.844   4.698
 5219SOL    HW116556   3.479   1.775   4.690
 5219SOL    HW216557   3.444   1.934   4.674
 5220SOL     OW16558   1.708   4.685   3.146
 5220SOL    HW116559   1.749   4.716   3.060
 5220SOL    HW216560   1.609   4.700   3.143
 5221SOL     OW16561   0.098   0.274   1.909
 5221SOL    HW116562   0.193   0.299   1.893
 5221SOL    HW216563   0.081   0.267   2.007
 5222SOL     OW16564   3.927   5.493   2.420
 5222SOL    HW116565   3.884   5.580   2.445
 5222SOL    HW216566   4.002   5.511   2.356
 5223SOL     OW16567   6.979   2.444   1.268
 5223SOL    HW116568   0.003   2.488   1.197
 5223SOL    HW216569   6.918   2.376   1.227
 5224SOL     OW16570   0.249   2.102   4.339
 5224SOL    HW116571   0.249   2.025   4.403
 5224SOL    HW216572   0.175   2.091   4.274
 5225SOL     OW16573   0.242   0.947   4.468
 5225SOL    HW116574   0.275   0.853   4.460
 5225SOL    HW216575   0.308   1.001   4.520
 5226SOL     OW16576   0.124   6.285   3.539
 5226SOL    HW116577   0.096   6.323   3.450
 5226SOL    HW216578   0.175   6.200   3.524
 5227SOL     OW16579   0.186   3.569   5.896
 5227SOL    HW116580   0.153   3.625   5.820
 5227SOL    HW216581   0.243   3.626   5.956
 5228SOL     OW16582   0.887   2.743   0.001
 5228SOL    HW116583   0.878   2.693   0.087
 5228SOL    HW216584   0.834   2.697   6.960
 5229SOL     OW16585   3.088   6.167   6.426
 5229SOL    HW116586   3.029   6.144   6.503
 5229SOL    HW216587   3.144   6.088   6.402
 5230SOL     OW16588   6.212   0.195   2.845
 5230SOL    HW116589   6.271   0.275   2.849
 5230SOL    HW216590   6.176   0.175   2.937
 5231SOL     OW16591   4.969   2.050   3.328
 5231SOL    HW116592   4.936   2.008   3.244
 5231SOL    HW216593   5.062   2.018   3.347
 5232SOL     OW16594   1.742   4.200   6.170
 5232SOL    HW116595   1.685   4.118   6.162
 5232SOL    HW216596   1.832   4.183   6.130
 5233SOL     OW16597   3.285   0.954   1.848
 5233SOL    HW116598   3.219   1.027   1.831
 5233SOL    HW216599   3.266   0.912   1.937
 5234SOL     OW16600   3.313   2.932   6.472
 5234SOL    HW116601   3.318   3.031   6.465
 5234SOL    HW216602   3.307   2.905   6.568
 5235SOL     OW16603   2.034   2.030   0.619
 5235SOL    HW116604   2.028   2.080   0.706
 5235SOL    HW216605   2.129   2.031   0.587
 5236SOL     OW16606   3.133   5.146   1.709
 5236SOL    HW116607   3.092   5.139   1.800
 5236SOL    HW216608   3.226   5.109   1.712
 5237SOL     OW16609   2.396   1.317   4.703
 5237SOL    HW116610   2.400   1.271   4.614
 5237SOL    HW216611   2.434   1.258   4.773
 5238SOL     OW16612   0.958   5.055   1.366
 5238SOL    HW116613   1.046   5.019   1.335
 5238SOL    HW216614   0.944   5.146   1.328
 5239SOL     OW16615   3.273   3.582   0.986
 5239SOL    HW116616   3.315   3.621   1.068
 5239SOL    HW216617   3.209   3.510   1.013
 5240SOL     OW16618   2.667   2.440   5.529
 5240SOL    HW116619   2.619   2.380   5.465
 5240SOL    HW216620   2.757   2.402   5.550
 5241SOL     OW16621   0.614   5.786   2.373
 5241SOL    HW116622   0.681   5.722   2.335
 5241SOL    HW216623   0.645   5.880   2.356
 5242SOL     OW16624   4.779   0.082   1.790
 5242SOL    HW116625   4.751   0.103   1.696
 5242SOL    HW216626   4.727   0.140   1.853
 5243SOL     OW16627   2.136   6.239   2.064
 5243SOL    HW116628   2.053   6.228   2.010
 5243SOL    HW216629   2.212   6.261   2.004
 5244SOL     OW16630   5.200   3.500   0.321
 5244SOL    HW116631   5.136   3.577   0.313
 5244SOL    HW216632   5.242   3.501   0.412
 5245SOL     OW16633   3.969   4.232   0.669
 5245SOL    HW116634   3.995   4.153   0.723
 5245SOL    HW216635   4.004   4.316   0.711
 5246SOL     OW16636   6.086   2.483   2.173
 5246SOL    HW116637   6.109   2.577   2.149
 5246SOL    HW216638   6.096   2.425   2.093
 5247SOL     OW16639   3.748   0.791   5.974
 5247SOL    HW116640   3.653   0.818   5.959
 5247SOL    HW216641   3.784   0.836   6.055
 5248SOL     OW16642   0.188   1.665   2.943
 5248SOL    HW116643   0.280   1.646   2.910
 5248SOL    HW216644   0.139   1.579   2.957
 5249SOL     OW16645   1.574   5.512   6.666
 5249SOL    HW116646   1.496   5.516   6.602
 5249SOL    HW216647   1.609   5.604   6.682
 5250SOL     OW16648   1.241   5.728   0.339
 5250SOL    HW116649   1.170   5.798   0.336
 5250SOL    HW216650   1.330   5.769   0.318
 5251SOL     OW16651   0.955   4.625   0.965
 5251SOL    HW116652   0.886   4.666   0.905
 5251SOL    HW216653   1.003   4.552   0.917
 5252SOL     OW16654   3.046   6.583   2.044
 5252SOL    HW116655   3.118   6.515   2.037
 5252SOL    HW216656   3.086   6.674   2.054
 5253SOL     OW16657   6.630   4.242   4.888
 5253SOL    HW116658   6.727   4.236   4.866
 5253SOL    HW216659   6.577   4.238   4.804
 5254SOL     OW16660   6.346   0.387   3.735
 5254SOL    HW116661   6.297   0.472   3.755
 5254SOL    HW216662   6.427   0.381   3.792
 5255SOL     OW16663   5.362   2.279   4.996
 5255SOL    HW116664   5.421   2.293   5.076
 5255SOL    HW216665   5.375   2.356   4.933
 5256SOL     OW16666   5.026   1.863   3.956
 5256SOL    HW116667   4.983   1.896   3.872
 5256SOL    HW216668   4.956   1.828   4.018
 5257SOL     OW16669   4.862   6.853   1.156
 5257SOL    HW116670   4.950   6.809   1.174
 5257SOL    HW216671   4.876   6.951   1.141
 5258SOL     OW16672   5.352   2.227   3.238
 5258SOL    HW116673   5.283   2.178   3.185
 5258SOL    HW216674   5.422   2.263   3.176
 5259SOL     OW16675   4.619   5.733   2.628
 5259SOL    HW116676   4.601   5.762   2.534
 5259SOL    HW216677   4.558   5.782   2.690
 5260SOL     OW16678   3.884   5.708   0.344
 5260SOL    HW116679   3.956   5.731   0.410
 5260SOL    HW216680   3.884   5.609   0.328
 5261SOL     OW16681   0.507   4.250   6.631
 5261SOL    HW116682   0.435   4.291   6.687
 5261SOL    HW216683   0.519   4.304   6.548
 5262SOL     OW16684   2.838   0.762   3.476
 5262SOL    HW116685   2.882   0.806   3.398
 5262SOL    HW216686   2.844   0.821   3.556
 5263SOL     OW16687   1.577   1.359   2.665
 5263SOL    HW116688   1.591   1.413   2.582
 5263SOL    HW216689   1.578   1.261   2.642
 5264SOL     OW16690   6.662   2.376   1.833
 5264SOL    HW116691   6.677   2.334   1.923
 5264SOL    HW216692   6.661   2.305   1.763
 5265SOL     OW16693   6.244   3.137   4.652
 5265SOL    HW116694   6.330   3.089   4.636
 5265SOL    HW216695   6.263   3.233   4.674
 5266SOL     OW16696   3.024   5.623   0.767
 5266SOL    HW116697   2.958   5.695   0.745
 5266SOL    HW216698   2.980   5.555   0.826
 5267SOL     OW16699   4.856   2.549   4.554
 5267SOL    HW116700   4.804   2.504   4.627
 5267SOL    HW216701   4.833   2.507   4.466
 5268SOL     OW16702   5.198   0.563   6.639
 5268SOL    HW116703   5.128   0.500   6.674
 5268SOL    HW216704   5.211   0.637   6.705
 5269SOL     OW16705   0.748   6.446   2.180
 5269SOL    HW116706   0.706   6.359   2.156
 5269SOL    HW216707   0.701   6.520   2.131
 5270SOL     OW16708   5.725   1.376   1.522
 5270SOL    HW116709   5.692   1.408   1.433
 5270SOL    HW216710   5.800   1.311   1.507
 5271SOL     OW16711   5.878   5.004   5.179
 5271SOL    HW116712   5.868   4.986   5.277
 5271SOL    HW216713   5.826   5.085   5.154
 5272SOL     OW16714   3.297   5.744   1.312
 5272SOL    HW116715   3.234   5.777   1.241
 5272SOL    HW216716   3.244   5.710   1.390
 5273SOL     OW16717   0.637   3.543   2.465
 5273SOL    HW116718   0.662   3.560   2.370
 5273SOL    HW216719   0.697   3.596   2.525
 5274SOL     OW16720   5.287   6.972   2.844
 5274SOL    HW116721   5.309   0.022   2.899
 5274SOL    HW216722   5.241   6.904   2.902
 5275SOL     OW16723   3.651   1.612   0.630
 5275SOL    HW116724   3.607   1.624   0.719
 5275SOL    HW216725   3.589   1.565   0.568
 5276SOL     OW16726   2.121   0.225   1.337
 5276SOL    HW116727   2.090   0.263   1.424
 5276SOL    HW216728   2.154   0.298   1.278
 5277SOL     OW16729   2.458   0.960   2.986
 5277SOL    HW116730   2.508   1.044   2.966
 5277SOL    HW216731   2.368   0.982   3.025
 5278SOL     OW16732   4.823   5.400   4.164
 5278SOL    HW116733   4.887   5.459   4.114
 5278SOL    HW216734   4.732   5.408   4.124
 5279SOL     OW16735   2.739   5.941   0.866
 5279SOL    HW116736   2.721   6.029   0.823
 5279SOL    HW216737   2.819   5.948   0.926
 5280SOL     OW16738   2.771   6.080   4.702
 5280SOL    HW116739   2.860   6.052   4.739
 5280SOL    HW216740   2.719   5.999   4.676
 5281SOL     OW16741   6.147   2.054   2.420
 5281SOL    HW116742   6.144   1.957   2.446
 5281SOL    HW216743   6.187   2.064   2.329
 5282SOL     OW16744   2.848   1.455   3.676
 5282SOL    HW116745   2.941   1.438   3.708
 5282SOL    HW216746   2.850   1.495   3.585
 5283SOL     OW16747   4.818   6.672   1.845
 5283SOL    HW116748   4.869   6.753   1.815
 5283SOL    HW216749   4.841   6.651   1.940
 5284SOL     OW16750   5.340   4.404   3.024
 5284SOL    HW116751   5.284   4.321   3.026
 5284SOL    HW216752   5.305   4.470   3.090
 5285SOL     OW16753   3.032   4.841   4.197
 5285SOL    HW116754   3.025   4.843   4.097
 5285SOL    HW216755   3.089   4.917   4.227
 5286SOL     OW16756   2.284   4.266   1.094
 5286SOL    HW116757   2.294   4.187   1.154
 5286SOL    HW216758   2.188   4.276   1.067
 5287SOL     OW16759   2.469   1.546   0.935
 5287SOL    HW116760   2.507   1.531   1.026
 5287SOL    HW216761   2.543   1.559   0.870
 5288SOL     OW16762   3.944   0.241   1.484
 5288SOL    HW116763   3.940   0.268   1.388
 5288SOL    HW216764   3.933   0.141   1.490
 5289SOL     OW16765   1.525   4.877   0.292
 5289SOL    HW116766   1.593   4.872   0.219
 5289SOL    HW216767   1.529   4.793   0.346
 5290SOL     OW16768   3.028   5.559   6.742
 5290SOL    HW116769   2.977   5.487   6.790
 5290SOL    HW216770   3.100   5.593   6.802
 5291SOL     OW16771   2.288   5.550   5.526
 5291SOL    HW116772   2.255   5.563   5.432
 5291SOL    HW216773   2.380   5.510   5.524
 5292SOL     OW16774   6.157   3.192   0.131
 5292SOL    HW116775   6.224   3.167   0.061
 5292SOL    HW216776   6.150   3.118   0.198
 5293SOL     OW16777   0.481   1.039   5.091
 5293SOL    HW116778   0.478   1.106   5.017
 5293SOL    HW216779   0.561   1.055   5.148
 5294SOL     OW16780   5.704   3.249   6.770
 5294SOL    HW116781   5.625   3.261   6.709
 5294SOL    HW216782   5.701   3.319   6.842
 5295SOL     OW16783   5.530   1.208   2.983
 5295SOL    HW116784   5.451   1.150   3.004
 5295SOL    HW216785   5.592   1.160   2.921
 5296SOL     OW16786   1.634   5.018   7.002
 5296SOL    HW116787   1.684   4.971   6.929
 5296SOL    HW216788   1.547   5.052   6.966
 5297SOL     OW16789   2.194   1.906   0.882
 5297SOL    HW116790   2.260   1.871   0.815
 5297SOL    HW216791   2.156   1.993   0.851
 5298SOL     OW16792   6.510   5.310   2.109
 5298SOL    HW116793   6.479   5.380   2.173
 5298SOL    HW216794   6.607   5.292   2.125
 5299SOL     OW16795   2.638   0.715   1.709
 5299SOL    HW116796   2.583   0.798   1.704
 5299SOL    HW216797   2.683   0.700   1.620
 5300SOL     OW16798   0.316   5.369   3.163
 5300SOL    HW116799   0.305   5.293   3.227
 5300SOL    HW216800   0.300   5.337   3.070
 5301SOL     OW16801   4.158   1.603   6.725
 5301SOL    HW116802   4.140   1.506   6.712
 5301SOL    HW216803   4.183   1.621   6.820
 5302SOL     OW16804   6.652   4.038   2.545
 5302SOL    HW116805   6.583   4.074   2.483
 5302SOL    HW216806   6.611   4.023   2.635
 5303SOL     OW16807   6.437   5.436   3.798
 5303SOL    HW116808   6.377   5.402   3.871
 5303SOL    HW216809   6.382   5.465   3.720
 5304SOL     OW16810   5.139   2.045   6.262
 5304SOL    HW116811   5.135   2.037   6.162
 5304SOL    HW216812   5.224   2.091   6.288
 5305SOL     OW16813   1.720   0.649   4.284
 5305SOL    HW116814   1.621   0.636   4.287
 5305SOL    HW216815   1.741   0.729   4.227
 5306SOL     OW16816   2.659   5.866   5.197
 5306SOL    HW116817   2.623   5.915   5.118
 5306SOL    HW216818   2.612   5.896   5.280
 5307SOL     OW16819   4.599   6.262   6.070
 5307SOL    HW116820   4.569   6.342   6.019
 5307SOL    HW216821   4.653   6.291   6.150
 5308SOL     OW16822   0.458   0.480   4.169
 5308SOL    HW116823   0.452   0.389   4.210
 5308SOL    HW216824   0.367   0.509   4.140
 5309SOL     OW16825   3.729   4.077   3.455
 5309SOL    HW116826   3.700   3.982   3.464
 5309SOL    HW216827   3.697   4.113   3.368
 5310SOL     OW16828   5.073   2.430   1.624
 5310SOL    HW116829   5.141   2.463   1.559
 5310SOL    HW216830   5.081   2.481   1.710
 5311SOL     OW16831   1.479   5.404   0.057
 5311SOL    HW116832   1.498   5.359   7.000
 5311SOL    HW216833   1.557   5.390   0.119
 5312SOL     OW16834   0.932   4.688   2.276
 5312SOL    HW116835   0.900   4.757   2.210
 5312SOL    HW216836   0.973   4.734   2.354
 5313SOL     OW16837   0.887   6.120   6.887
 5313SOL    HW116838   0.874   6.112   6.986
 5313SOL    HW216839   0.953   6.192   6.868
 5314SOL     OW16840   4.183   5.135   0.241
 5314SOL    HW116841   4.148   5.225   0.267
 5314SOL    HW216842   4.261   5.146   0.179
 5315SOL     OW16843   4.785   4.153   2.102
 5315SOL    HW116844   4.752   4.087   2.036
 5315SOL    HW216845   4.748   4.132   2.193
 5316SOL     OW16846   6.967   5.466   4.983
 5316SOL    HW116847   6.933   5.554   4.950
 5316SOL    HW216848   6.996   5.410   4.905
 5317SOL     OW16849   5.704   1.075   3.238
 5317SOL    HW116850   5.653   1.156   3.264
 5317SOL    HW216851   5.772   1.099   3.168
 5318SOL     OW16852   7.002   2.674   4.984
 5318SOL    HW116853   0.018   2.674   5.073
 5318SOL    HW216854   6.903   2.683   4.998
 5319SOL     OW16855   5.566   6.861   6.675
 5319SOL    HW116856   5.620   6.782   6.704
 5319SOL    HW216857   5.585   6.880   6.578
 5320SOL     OW16858   6.108   4.000   6.739
 5320SOL    HW116859   6.155   4.046   6.663
 5320SOL    HW216860   6.015   3.977   6.710
 5321SOL     OW16861   1.475   5.050   4.395
 5321SOL    HW116862   1.390   4.999   4.411
 5321SOL    HW216863   1.553   4.998   4.430
 5322SOL     OW16864   3.945   6.374   6.960
 5322SOL    HW116865   3.952   6.327   0.018
 5322SOL    HW216866   3.981   6.467   6.969
 5323SOL     OW16867   4.455   2.195   0.673
 5323SOL    HW116868   4.419   2.170   0.583
 5323SOL    HW216869   4.426   2.287   0.696
 5324SOL     OW16870   3.900   2.489   1.719
 5324SOL    HW116871   3.888   2.549   1.640
 5324SOL    HW216872   3.811   2.461   1.754
 5325SOL     OW16873   4.813   6.577   2.684
 5325SOL    HW116874   4.832   6.571   2.782
 5325SOL    HW216875   4.851   6.497   2.638
 5326SOL     OW16876   6.915   5.596   1.666
 5326SOL    HW116877   6.947   5.503   1.652
 5326SOL    HW216878   6.914   5.644   1.578
 5327SOL     OW16879   0.467   6.869   4.715
 5327SOL    HW116880   0.405   6.917   4.777
 5327SOL    HW216881   0.552   6.922   4.705
 5328SOL     OW16882   4.110   3.330   6.412
 5328SOL    HW116883   4.168   3.320   6.493
 5328SOL    HW216884   4.015   3.343   6.441
 5329SOL     OW16885   0.428   4.837   6.983
 5329SOL    HW116886   0.429   4.799   6.891
 5329SOL    HW216887   0.395   4.931   6.980
 5330SOL     OW16888   3.780   3.607   0.454
 5330SOL    HW116889   3.862   3.645   0.410
 5330SOL    HW216890   3.708   3.597   0.386
 5331SOL     OW16891   4.846   2.124   0.504
 5331SOL    HW116892   4.880   2.168   0.587
 5331SOL    HW216893   4.890   2.164   0.424
 5332SOL     OW16894   6.368   4.999   0.260
 5332SOL    HW116895   6.408   5.015   0.351
 5332SOL    HW216896   6.397   4.910   0.226
 5333SOL     OW16897   2.246   1.323   3.566
 5333SOL    HW116898   2.320   1.372   3.520
 5333SOL    HW216899   2.161   1.337   3.516
 5334SOL     OW16900   4.407   4.958   3.533
 5334SOL    HW116901   4.375   4.864   3.546
 5334SOL    HW216902   4.493   4.971   3.582
 5335SOL     OW16903   6.725   4.376   2.334
 5335SOL    HW116904   6.825   4.378   2.337
 5335SOL    HW216905   6.692   4.449   2.275
 5336SOL     OW16906   1.837   1.586   4.108
 5336SOL    HW116907   1.792   1.657   4.053
 5336SOL    HW216908   1.845   1.617   4.202
 5337SOL     OW16909   6.208   4.347   1.533
 5337SOL    HW116910   6.209   4.333   1.434
 5337SOL    HW216911   6.228   4.442   1.554
 5338SOL     OW16912   6.255   2.733   0.230
 5338SOL    HW116913   6.199   2.747   0.312
 5338SOL    HW216914   6.286   2.638   0.226
 5339SOL     OW16915   5.863   2.070   2.427
 5339SOL    HW116916   5.962   2.056   2.424
 5339SOL    HW216917   5.833   2.108   2.340
 5340SOL     OW16918   5.551   2.962   2.157
 5340SOL    HW116919   5.632   2.931   2.207
 5340SOL    HW216920   5.528   2.895   2.086
 5341SOL     OW16921   4.507   4.835   3.282
 5341SOL    HW116922   4.413   4.858   3.260
 5341SOL    HW216923   4.517   4.827   3.382
 5342SOL     OW16924   5.876   7.005   5.721
 5342SOL    HW116925   5.924   6.919   5.705
 5342SOL    HW216926   5.791   7.007   5.667
 5343SOL     OW16927   3.735   3.651   5.817
 5343SOL    HW116928   3.719   3.709   5.737
 5343SOL    HW216929   3.667   3.578   5.820
 5344SOL     OW16930   0.564   1.483   0.049
 5344SOL    HW116931   0.549   1.393   0.007
 5344SOL    HW216932   0.661   1.506   0.044
 5345SOL     OW16933   4.952   1.517   6.830
 5345SOL    HW116934   4.983   1.595   6.884
 5345SOL    HW216935   4.905   1.549   6.748
 5346SOL     OW16936   2.764   5.077   3.796
 5346SOL    HW116937   2.670   5.051   3.772
 5346SOL    HW216938   2.802   5.135   3.725
 5347SOL     OW16939   6.640   2.400   3.720
 5347SOL    HW116940   6.545   2.377   3.698
 5347SOL    HW216941   6.678   2.457   3.647
 5348SOL     OW16942   5.415   1.739   4.353
 5348SOL    HW116943   5.391   1.673   4.283
 5348SOL    HW216944   5.384   1.707   4.442
 5349SOL     OW16945   0.727   2.811   1.908
 5349SOL    HW116946   0.801   2.755   1.946
 5349SOL    HW216947   0.706   2.779   1.815
 5350SOL     OW16948   1.937   6.793   5.793
 5350SOL    HW116949   1.862   6.777   5.728
 5350SOL    HW216950   1.900   6.832   5.878
 5351SOL     OW16951   0.229   5.354   1.340
 5351SOL    HW116952   0.201   5.277   1.398
 5351SOL    HW216953   0.311   5.397   1.379
 5352SOL     OW16954   1.845   4.165   3.362
 5352SOL    HW116955   1.871   4.146   3.456
 5352SOL    HW216956   1.746   4.165   3.354
 5353SOL     OW16957   4.530   5.375   3.635
 5353SOL    HW116958   4.575   5.358   3.548
 5353SOL    HW216959   4.525   5.289   3.687
 5354SOL     OW16960   3.596   5.089   0.687
 5354SOL    HW116961   3.535   5.086   0.608
 5354SOL    HW216962   3.645   5.003   0.696
 5355SOL     OW16963   5.253   5.444   5.527
 5355SOL    HW116964   5.177   5.398   5.482
 5355SOL    HW216965   5.340   5.415   5.485
 5356SOL     OW16966   0.078   4.232   1.728
 5356SOL    HW116967   0.143   4.156   1.722
 5356SOL    HW216968   0.053   4.248   1.823
 5357SOL     OW16969   4.711   4.817   2.001
 5357SOL    HW116970   4.675   4.883   1.935
 5357SOL    HW216971   4.746   4.737   1.952
 5358SOL     OW16972   4.249   1.707   6.977
 5358SOL    HW116973   4.243   1.804   6.952
 5358SOL    HW216974   4.331   1.692   0.002
 5359SOL     OW16975   2.154   1.521   0.206
 5359SOL    HW116976   2.083   1.588   0.226
 5359SOL    HW216977   2.122   1.430   0.230
 5360SOL     OW16978   5.510   5.144   4.001
 5360SOL    HW116979   5.462   5.119   3.917
 5360SOL    HW216980   5.560   5.229   3.987
 5361SOL     OW16981   3.656   6.397   2.626
 5361SOL    HW116982   3.698   6.445   2.703
 5361SOL    HW216983   3.644   6.300   2.650
 5362SOL     OW16984   5.175   6.408   2.234
 5362SOL    HW116985   5.109   6.411   2.160
 5362SOL    HW216986   5.267   6.398   2.197
 5363SOL     OW16987   5.541   6.106   4.792
 5363SOL    HW116988   5.608   6.077   4.860
 5363SOL    HW216989   5.527   6.205   4.798
 5364SOL     OW16990   5.321   0.716   2.762
 5364SOL    HW116991   5.247   0.781   2.745
 5364SOL    HW216992   5.303   0.665   2.846
 5365SOL     OW16993   3.027   3.208   3.514
 5365SOL    HW116994   3.009   3.275   3.442
 5365SOL    HW216995   2.968   3.226   3.593
 5366SOL     OW16996   6.873   0.225   1.567
 5366SOL    HW116997   6.911   0.316   1.581
 5366SOL    HW216998   6.773   0.230   1.565
 5367SOL     OW16999   6.088   0.112   0.844
 5367SOL    HW117000   6.015   0.050   0.872
 5367SOL    HW217001   6.171   0.092   0.896
 5368SOL     OW17002   6.747   5.851   2.283
 5368SOL    HW117003   6.841   5.881   2.274
 5368SOL    HW217004   6.687   5.929   2.300
 5369SOL     OW17005   2.668   4.988   2.114
 5369SOL    HW117006   2.732   5.010   2.040
 5369SOL    HW217007   2.706   4.914   2.170
 5370SOL     OW17008   3.653   3.977   1.590
 5370SOL    HW117009   3.665   4.061   1.641
 5370SOL    HW217010   3.686   3.899   1.644
 5371SOL     OW17011   6.781   4.954   5.180
 5371SOL    HW117012   6.873   4.956   5.218
 5371SOL    HW217013   6.771   5.027   5.112
 5372SOL     OW17014   1.766   0.192   2.716
 5372SOL    HW117015   1.684   0.184   2.773
 5372SOL    HW217016   1.805   0.101   2.701
 5373SOL     OW17017   4.088   6.516   5.734
 5373SOL    HW117018   4.116   6.422   5.717
 5373SOL    HW217019   4.113   6.573   5.655
 5374SOL     OW17020   2.689   5.304   1.601
 5374SOL    HW117021   2.680   5.300   1.502
 5374SOL    HW217022   2.786   5.293   1.626
 5375SOL     OW17023   0.601   6.534   5.030
 5375SOL    HW117024   0.673   6.466   5.012
 5375SOL    HW217025   0.546   6.547   4.947
 5376SOL     OW17026   1.089   2.052   0.560
 5376SOL    HW117027   1.028   2.057   0.640
 5376SOL    HW217028   1.182   2.074   0.588
 5377SOL     OW17029   2.121   0.645   2.796
 5377SOL    HW117030   2.069   0.729   2.815
 5377SOL    HW217031   2.162   0.652   2.705
 5378SOL     OW17032   5.981   0.788   0.913
 5378SOL    HW117033   5.968   0.717   0.982
 5378SOL    HW217034   6.044   0.857   0.948
 5379SOL     OW17035   1.245   2.874   5.666
 5379SOL    HW117036   1.197   2.873   5.578
 5379SOL    HW217037   1.178   2.863   5.740
 5380SOL     OW17038   3.907   0.341   1.225
 5380SOL    HW117039   3.823   0.326   1.174
 5380SOL    HW217040   3.983   0.351   1.161
 5381SOL     OW17041   5.391   6.618   3.134
 5381SOL    HW117042   5.477   6.670   3.133
 5381SOL    HW217043   5.410   6.522   3.115
 5382SOL     OW17044   4.121   1.576   2.987
 5382SOL    HW117045   4.148   1.627   2.906
 5382SOL    HW217046   4.056   1.505   2.962
 5383SOL     OW17047   1.320   2.933   3.980
 5383SOL    HW117048   1.259   2.871   4.028
 5383SOL    HW217049   1.403   2.946   4.034
 5384SOL     OW17050   4.443   5.757   5.449
 5384SOL    HW117051   4.446   5.761   5.349
 5384SOL    HW217052   4.426   5.848   5.486
 5385SOL     OW17053   6.450   2.626   6.142
 5385SOL    HW117054   6.493   2.573   6.069
 5385SOL    HW217055   6.350   2.614   6.137
 5386SOL     OW17056   6.249   3.072   3.986
 5386SOL    HW117057   6.170   3.134   3.987
 5386SOL    HW217058   6.315   3.103   3.919
 5387SOL     OW17059   2.604   0.375   2.102
 5387SOL    HW117060   2.511   0.362   2.070
 5387SOL    HW217061   2.604   0.380   2.202
 5388SOL     OW17062   0.765   6.180   2.853
 5388SOL    HW117063   0.705   6.250   2.890
 5388SOL    HW217064   0.721   6.090   2.864
 5389SOL     OW17065   4.284   1.657   4.823
 5389SOL    HW117066   4.329   1.609   4.747
 5389SOL    HW217067   4.185   1.648   4.814
 5390SOL     OW17068   6.599   3.549   4.253
 5390SOL    HW117069   6.624   3.544   4.157
 5390SOL    HW217070   6.505   3.515   4.265
 5391SOL     OW17071   2.344   1.913   0.005
 5391SOL    HW117072   2.385   2.004   0.011
 5391SOL    HW217073   2.416   1.844   0.012
 5392SOL     OW17074   4.500   2.122   3.414
 5392SOL    HW117075   4.413   2.171   3.415
 5392SOL    HW217076   4.503   2.057   3.490
 5393SOL     OW17077   4.040   0.768   5.222
 5393SOL    HW117078   4.083   0.804   5.139
 5393SOL    HW217079   4.091   0.799   5.302
 5394SOL     OW17080   1.708   6.939   0.641
 5394SOL    HW117081   1.789   6.925   0.584
 5394SOL    HW217082   1.736   6.945   0.737
 5395SOL     OW17083   5.385   1.639   1.442
 5395SOL    HW117084   5.438   1.671   1.521
 5395SOL    HW217085   5.287   1.654   1.459
 5396SOL     OW17086   5.929   5.535   2.623
 5396SOL    HW117087   5.944   5.567   2.717
 5396SOL    HW217088   5.889   5.609   2.568
 5397SOL     OW17089   6.115   1.516   3.044
 5397SOL    HW117090   6.065   1.430   3.055
 5397SOL    HW217091   6.200   1.512   3.096
 5398SOL     OW17092   4.727   2.164   3.893
 5398SOL    HW117093   4.679   2.082   3.926
 5398SOL    HW217094   4.808   2.180   3.951
 5399SOL     OW17095   1.764   0.114   5.411
 5399SOL    HW117096   1.847   0.084   5.366
 5399SOL    HW217097   1.696   0.142   5.343
 5400SOL     OW17098   3.369   2.952   0.996
 5400SOL    HW117099   3.386   2.860   1.031
 5400SOL    HW217100   3.291   2.950   0.934
 5401SOL     OW17101   4.919   4.482   2.772
 5401SOL    HW117102   4.916   4.500   2.870
 5401SOL    HW217103   4.855   4.409   2.750
 5402SOL     OW17104   2.192   0.031   0.582
 5402SOL    HW117105   2.247   0.029   0.498
 5402SOL    HW217106   2.251   0.048   0.661
 5403SOL     OW17107   5.086   3.199   0.116
 5403SOL    HW117108   5.104   3.109   0.076
 5403SOL    HW217109   5.167   3.257   0.103
 5404SOL     OW17110   0.057   1.021   0.913
 5404SOL    HW117111   0.101   1.100   0.955
 5404SOL    HW217112   0.101   0.937   0.944
 5405SOL     OW17113   5.229   5.517   0.468
 5405SOL    HW117114   5.129   5.519   0.469
 5405SOL    HW217115   5.264   5.543   0.558
 5406SOL     OW17116   2.398   0.872   4.887
 5406SOL    HW117117   2.354   0.939   4.827
 5406SOL    HW217118   2.487   0.908   4.917
 5407SOL     OW17119   2.788   0.652   1.494
 5407SOL    HW117120   2.872   0.598   1.487
 5407SOL    HW217121   2.751   0.667   1.403
 5408SOL     OW17122   2.570   2.180   4.522
 5408SOL    HW117123   2.667   2.208   4.520
 5408SOL    HW217124   2.559   2.104   4.585
 5409SOL     OW17125   6.710   2.770   1.510
 5409SOL    HW117126   6.810   2.767   1.506
 5409SOL    HW217127   6.673   2.683   1.477
 5410SOL     OW17128   0.512   2.190   1.448
 5410SOL    HW117129   0.595   2.198   1.392
 5410SOL    HW217130   0.531   2.221   1.541
 5411SOL     OW17131   4.839   4.995   6.703
 5411SOL    HW117132   4.915   5.026   6.646
 5411SOL    HW217133   4.822   5.061   6.776
 5412SOL     OW17134   0.896   1.591   6.333
 5412SOL    HW117135   0.924   1.687   6.335
 5412SOL    HW217136   0.971   1.535   6.297
 5413SOL     OW17137   6.628   6.906   5.399
 5413SOL    HW117138   6.578   6.910   5.312
 5413SOL    HW217139   6.637   6.998   5.437
 5414SOL     OW17140   6.896   4.749   5.748
 5414SOL    HW117141   6.943   4.667   5.718
 5414SOL    HW217142   6.797   4.733   5.750
 5415SOL     OW17143   3.041   0.217   0.334
 5415SOL    HW117144   3.062   0.209   0.432
 5415SOL    HW217145   2.994   0.134   0.303
 5416SOL     OW17146   2.757   4.929   5.498
 5416SOL    HW117147   2.713   4.974   5.420
 5416SOL    HW217148   2.804   4.846   5.467
 5417SOL     OW17149   4.923   5.799   3.504
 5417SOL    HW117150   4.867   5.753   3.435
 5417SOL    HW217151   5.016   5.762   3.502
 5418SOL     OW17152   5.862   4.400   4.257
 5418SOL    HW117153   5.856   4.446   4.345
 5418SOL    HW217154   5.851   4.467   4.184
 5419SOL     OW17155   4.198   0.128   7.019
 5419SOL    HW117156   4.215   0.032   6.997
 5419SOL    HW217157   4.132   0.166   6.955
 5420SOL     OW17158   1.572   1.458   1.291
 5420SOL    HW117159   1.518   1.385   1.333
 5420SOL    HW217160   1.669   1.436   1.298
 5421SOL     OW17161   3.364   5.304   2.045
 5421SOL    HW117162   3.397   5.318   2.138
 5421SOL    HW217163   3.387   5.384   1.989
 5422SOL     OW17164   1.722   6.061   3.976
 5422SOL    HW117165   1.777   5.980   3.956
 5422SOL    HW217166   1.641   6.036   4.029
 5423SOL     OW17167   6.341   6.147   1.952
 5423SOL    HW117168   6.393   6.087   1.891
 5423SOL    HW217169   6.324   6.100   2.039
 5424SOL     OW17170   4.797   4.092   5.093
 5424SOL    HW117171   4.855   4.046   5.161
 5424SOL    HW217172   4.701   4.080   5.118
 5425SOL     OW17173   0.336   3.430   5.625
 5425SOL    HW117174   0.315   3.362   5.696
 5425SOL    HW217175   0.355   3.518   5.668
 5426SOL     OW17176   5.275   5.211   1.899
 5426SOL    HW117177   5.266   5.274   1.823
 5426SOL    HW217178   5.215   5.240   1.974
 5427SOL     OW17179   4.911   2.612   7.015
 5427SOL    HW117180   4.928   2.551   0.061
 5427SOL    HW217181   4.963   2.581   6.935
 5428SOL     OW17182   6.494   5.222   3.056
 5428SOL    HW117183   6.533   5.148   3.111
 5428SOL    HW217184   6.502   5.200   2.959
 5429SOL     OW17185   2.949   0.567   3.761
 5429SOL    HW117186   2.930   0.614   3.674
 5429SOL    HW217187   2.876   0.588   3.826
 5430SOL     OW17188   2.709   3.932   6.158
 5430SOL    HW117189   2.727   3.876   6.239
 5430SOL    HW217190   2.719   3.876   6.076
 5431SOL     OW17191   3.048   5.335   6.502
 5431SOL    HW117192   2.964   5.322   6.554
 5431SOL    HW217193   3.058   5.262   6.435
 5432SOL     OW17194   5.580   5.594   1.215
 5432SOL    HW117195   5.523   5.540   1.276
 5432SOL    HW217196   5.614   5.675   1.263
 5433SOL     OW17197   1.508   0.058   0.938
 5433SOL    HW117198   1.586   0.008   0.977
 5433SOL    HW217199   1.541   0.127   0.874
 5434SOL     OW17200   4.821   1.401   5.053
 5434SOL    HW117201   4.826   1.305   5.079
 5434SOL    HW217202   4.729   1.423   5.022
 5435SOL     OW17203   6.488   3.933   0.809
 5435SOL    HW117204   6.409   3.930   0.870
 5435SOL    HW217205   6.488   3.853   0.750
 5436SOL     OW17206   1.137   5.278   2.277
 5436SOL    HW117207   1.164   5.252   2.184
 5436SOL    HW217208   1.066   5.349   2.272
 5437SOL     OW17209   3.867   5.555   0.009
 5437SOL    HW117210   3.853   5.463   0.046
 5437SOL    HW217211   3.782   5.608   0.019
 5438SOL     OW17212   4.736   4.168   2.373
 5438SOL    HW117213   4.759   4.092   2.435
 5438SOL    HW217214   4.808   4.237   2.378
 5439SOL     OW17215   1.042   4.077   1.182
 5439SOL    HW117216   1.043   4.028   1.095
 5439SOL    HW217217   0.950   4.072   1.222
 5440SOL     OW17218   5.673   6.157   3.336
 5440SOL    HW117219   5.705   6.083   3.277
 5440SOL    HW217220   5.603   6.123   3.398
 5441SOL     OW17221   4.744   2.761   3.802
 5441SOL    HW117222   4.747   2.759   3.902
 5441SOL    HW217223   4.671   2.701   3.770
 5442SOL     OW17224   5.359   0.058   4.414
 5442SOL    HW117225   5.380   7.005   4.466
 5442SOL    HW217226   5.438   0.083   4.358
 5443SOL     OW17227   4.656   6.573   5.191
 5443SOL    HW117228   4.617   6.657   5.228
 5443SOL    HW217229   4.645   6.499   5.257
 5444SOL     OW17230   0.261   1.318   3.950
 5444SOL    HW117231   0.355   1.349   3.935
 5444SOL    HW217232   0.259   1.219   3.962
 5445SOL     OW17233   5.246   5.328   5.774
 5445SOL    HW117234   5.165   5.272   5.789
 5445SOL    HW217235   5.241   5.372   5.685
 5446SOL     OW17236   0.179   4.845   5.196
 5446SOL    HW117237   0.155   4.930   5.244
 5446SOL    HW217238   0.095   4.800   5.166
 5447SOL     OW17239   1.411   1.831   0.543
 5447SOL    HW117240   1.504   1.868   0.540
 5447SOL    HW217241   1.366   1.862   0.627
 5448SOL     OW17242   4.325   5.741   3.729
 5448SOL    HW117243   4.403   5.690   3.767
 5448SOL    HW217244   4.248   5.735   3.792
 5449SOL     OW17245   3.222   1.639   2.068
 5449SOL    HW117246   3.182   1.730   2.056
 5449SOL    HW217247   3.162   1.584   2.126
 5450SOL     OW17248   4.148   6.207   1.623
 5450SOL    HW117249   4.208   6.198   1.544
 5450SOL    HW217250   4.201   6.232   1.704
 5451SOL     OW17251   1.247   0.210   3.149
 5451SOL    HW117252   1.157   0.253   3.156
 5451SOL    HW217253   1.316   0.271   3.188
 5452SOL     OW17254   1.662   4.766   1.767
 5452SOL    HW117255   1.610   4.704   1.708
 5452SOL    HW217256   1.724   4.713   1.825
 5453SOL     OW17257   6.154   3.979   3.411
 5453SOL    HW117258   6.128   4.056   3.352
 5453SOL    HW217259   6.176   4.013   3.502
 5454SOL     OW17260   6.287   5.434   2.970
 5454SOL    HW117261   6.317   5.358   3.026
 5454SOL    HW217262   6.351   5.447   2.894
 5455SOL     OW17263   6.991   1.824   2.228
 5455SOL    HW117264   0.027   1.759   2.190
 5455SOL    HW217265   6.990   1.816   2.327
 5456SOL     OW17266   4.965   0.917   6.655
 5456SOL    HW117267   5.055   0.893   6.692
 5456SOL    HW217268   4.901   0.843   6.674
 5457SOL     OW17269   6.433   2.703   0.812
 5457SOL    HW117270   6.486   2.788   0.811
 5457SOL    HW217271   6.376   2.700   0.894
 5458SOL     OW17272   6.295   4.306   1.233
 5458SOL    HW117273   6.312   4.209   1.221
 5458SOL    HW217274   6.381   4.353   1.253
 5459SOL     OW17275   1.399   4.576   5.787
 5459SOL    HW117276   1.310   4.550   5.824
 5459SOL    HW217277   1.446   4.637   5.852
 5460SOL     OW17278   1.941   0.853   0.705
 5460SOL    HW117279   1.953   0.874   0.608
 5460SOL    HW217280   2.013   0.791   0.735
 5461SOL     OW17281   0.163   1.641   6.147
 5461SOL    HW117282   0.075   1.606   6.178
 5461SOL    HW217283   0.215   1.676   6.226
 5462SOL     OW17284   5.336   5.992   6.548
 5462SOL    HW117285   5.318   5.994   6.647
 5462SOL    HW217286   5.322   5.899   6.514
 5463SOL     OW17287   0.106   2.789   6.498
 5463SOL    HW117288   0.152   2.705   6.470
 5463SOL    HW217289   0.160   2.835   6.569
 5464SOL     OW17290   5.948   6.437   5.567
 5464SOL    HW117291   5.918   6.533   5.573
 5464SOL    HW217292   5.973   6.416   5.472
 5465SOL     OW17293   6.596   6.471   3.056
 5465SOL    HW117294   6.675   6.511   3.103
 5465SOL    HW217295   6.542   6.419   3.122
 5466SOL     OW17296   5.647   2.341   5.084
 5466SOL    HW117297   5.636   2.251   5.043
 5466SOL    HW217298   5.695   2.333   5.172
 5467SOL     OW17299   5.513   4.066   3.499
 5467SOL    HW117300   5.523   4.108   3.409
 5467SOL    HW217301   5.423   4.022   3.504
 5468SOL     OW17302   6.736   1.801   2.505
 5468SOL    HW117303   6.669   1.783   2.433
 5468SOL    HW217304   6.698   1.867   2.569
 5469SOL     OW17305   1.732   0.628   5.899
 5469SOL    HW117306   1.734   0.630   5.999
 5469SOL    HW217307   1.763   0.539   5.867
 5470SOL     OW17308   3.940   5.279   4.892
 5470SOL    HW117309   3.993   5.306   4.812
 5470SOL    HW217310   3.901   5.188   4.877
 5471SOL     OW17311   4.969   6.819   2.535
 5471SOL    HW117312   4.932   6.866   2.455
 5471SOL    HW217313   4.935   6.725   2.536
 5472SOL     OW17314   3.122   2.280   6.503
 5472SOL    HW117315   3.058   2.330   6.561
 5472SOL    HW217316   3.131   2.326   6.415
 5473SOL     OW17317   1.653   5.007   0.826
 5473SOL    HW117318   1.659   4.957   0.912
 5473SOL    HW217319   1.739   4.998   0.776
 5474SOL     OW17320   0.849   5.420   3.733
 5474SOL    HW117321   0.772   5.484   3.731
 5474SOL    HW217322   0.867   5.392   3.827
 5475SOL     OW17323   1.613   2.101   7.004
 5475SOL    HW117324   1.523   2.142   7.017
 5475SOL    HW217325   1.628   2.030   0.044
 5476SOL     OW17326   2.189   5.629   5.285
 5476SOL    HW117327   2.147   5.718   5.303
 5476SOL    HW217328   2.224   5.627   5.192
 5477SOL     OW17329   1.842   4.814   3.644
 5477SOL    HW117330   1.834   4.780   3.551
 5477SOL    HW217331   1.785   4.895   3.655
 5478SOL     OW17332   5.490   5.283   6.662
 5478SOL    HW117333   5.583   5.246   6.668
 5478SOL    HW217334   5.464   5.290   6.566
 5479SOL     OW17335   4.591   1.466   4.845
 5479SOL    HW117336   4.577   1.391   4.781
 5479SOL    HW217337   4.552   1.442   4.934
 5480SOL     OW17338   6.190   4.733   5.017
 5480SOL    HW117339   6.220   4.678   4.939
 5480SOL    HW217340   6.268   4.781   5.056
 5481SOL     OW17341   3.791   1.028   6.148
 5481SOL    HW117342   3.798   1.086   6.229
 5481SOL    HW217343   3.722   1.067   6.086
 5482SOL     OW17344   3.638   3.642   2.353
 5482SOL    HW117345   3.569   3.592   2.301
 5482SOL    HW217346   3.717   3.584   2.369
 5483SOL     OW17347   6.441   2.846   5.891
 5483SOL    HW117348   6.410   2.884   5.978
 5483SOL    HW217349   6.541   2.835   5.894
 5484SOL     OW17350   6.920   6.852   3.986
 5484SOL    HW117351   6.843   6.789   3.987
 5484SOL    HW217352   6.988   6.824   4.054
 5485SOL     OW17353   3.147   0.280   4.586
 5485SOL    HW117354   3.181   0.314   4.674
 5485SOL    HW217355   3.048   0.268   4.591
 5486SOL     OW17356   1.730   0.317   3.528
 5486SOL    HW117357   1.825   0.309   3.557
 5486SOL    HW217358   1.705   0.238   3.472
 5487SOL     OW17359   6.222   4.022   0.231
 5487SOL    HW117360   6.261   4.019   0.323
 5487SOL    HW217361   6.296   4.017   0.163
 5488SOL     OW17362   4.429   2.150   0.388
 5488SOL    HW117363   4.488   2.074   0.363
 5488SOL    HW217364   4.352   2.156   0.324
 5489SOL     OW17365   1.422   4.367   2.024
 5489SOL    HW117366   1.358   4.404   1.957
 5489SOL    HW217367   1.404   4.409   2.113
 5490SOL     OW17368   3.328   6.919   0.220
 5490SOL    HW117369   3.341   6.855   0.295
 5490SOL    HW217370   3.330   7.013   0.255
 5491SOL     OW17371   1.490   4.838   6.651
 5491SOL    HW117372   1.453   4.788   6.573
 5491SOL    HW217373   1.444   4.808   6.734
 5492SOL     OW17374   1.151   1.176   6.142
 5492SOL    HW117375   1.246   1.198   6.118
 5492SOL    HW217376   1.091   1.200   6.067
 5493SOL     OW17377   3.693   3.112   5.348
 5493SOL    HW117378   3.733   3.025   5.320
 5493SOL    HW217379   3.613   3.132   5.291
 5494SOL     OW17380   6.620   3.059   0.952
 5494SOL    HW117381   6.582   2.977   0.995
 5494SOL    HW217382   6.551   3.131   0.951
 5495SOL     OW17383   3.478   3.170   1.125
 5495SOL    HW117384   3.433   3.088   1.090
 5495SOL    HW217385   3.451   3.249   1.070
 5496SOL     OW17386   3.764   5.936   1.377
 5496SOL    HW117387   3.753   5.867   1.449
 5496SOL    HW217388   3.703   6.013   1.395
 5497SOL     OW17389   0.479   1.866   3.260
 5497SOL    HW117390   0.530   1.926   3.197
 5497SOL    HW217391   0.507   1.772   3.245
 5498SOL     OW17392   4.704   1.334   6.661
 5498SOL    HW117393   4.685   1.326   6.759
 5498SOL    HW217394   4.701   1.430   6.634
 5499SOL     OW17395   0.091   0.654   3.212
 5499SOL    HW117396   0.078   0.750   3.185
 5499SOL    HW217397   0.002   0.613   3.233
 5500SOL     OW17398   1.749   5.988   0.015
 5500SOL    HW117399   1.839   5.984   0.057
 5500SOL    HW217400   1.698   6.066   0.051
 5501SOL     OW17401   3.120   6.999   1.865
 5501SOL    HW117402   3.123   0.065   1.891
 5501SOL    HW217403   3.192   6.981   1.798
 5502SOL     OW17404   6.066   4.029   6.261
 5502SOL    HW117405   6.125   4.038   6.342
 5502SOL    HW217406   6.022   3.939   6.262
 5503SOL     OW17407   1.114   5.063   3.059
 5503SOL    HW117408   1.028   5.099   3.097
 5503SOL    HW217409   1.172   5.140   3.032
 5504SOL     OW17410   2.822   1.191   5.063
 5504SOL    HW117411   2.739   1.137   5.080
 5504SOL    HW217412   2.824   1.219   4.967
 5505SOL     OW17413   1.833   6.205   4.967
 5505SOL    HW117414   1.745   6.179   5.007
 5505SOL    HW217415   1.858   6.139   4.896
 5506SOL     OW17416   6.828   0.544   4.792
 5506SOL    HW117417   6.822   0.625   4.734
 5506SOL    HW217418   6.771   0.472   4.754
 5507SOL     OW17419   2.825   6.718   3.057
 5507SOL    HW117420   2.738   6.679   3.088
 5507SOL    HW217421   2.833   6.812   3.089
 5508SOL     OW17422   2.406   1.117   6.911
 5508SOL    HW117423   2.483   1.127   6.848
 5508SOL    HW217424   2.395   1.020   6.936
 5509SOL     OW17425   7.001   6.082   0.625
 5509SOL    HW117426   6.925   6.039   0.674
 5509SOL    HW217427   6.995   6.182   0.635
 5510SOL     OW17428   4.555   6.568   6.672
 5510SOL    HW117429   4.473   6.549   6.727
 5510SOL    HW217430   4.604   6.645   6.711
 5511SOL     OW17431   1.455   0.513   3.031
 5511SOL    HW117432   1.433   0.477   3.122
 5511SOL    HW217433   1.554   0.529   3.025
 5512SOL     OW17434   6.494   2.258   0.531
 5512SOL    HW117435   6.450   2.342   0.501
 5512SOL    HW217436   6.501   2.194   0.454
 5513SOL     OW17437   4.960   4.361   5.057
 5513SOL    HW117438   4.959   4.422   4.977
 5513SOL    HW217439   4.908   4.278   5.036
 5514SOL     OW17440   5.339   5.078   2.482
 5514SOL    HW117441   5.297   5.157   2.525
 5514SOL    HW217442   5.399   5.031   2.547
 5515SOL     OW17443   6.138   3.505   1.275
 5515SOL    HW117444   6.128   3.405   1.275
 5515SOL    HW217445   6.082   3.544   1.348
 5516SOL     OW17446   1.818   2.486   0.646
 5516SOL    HW117447   1.773   2.424   0.582
 5516SOL    HW217448   1.824   2.578   0.606
 5517SOL     OW17449   3.201   2.151   2.311
 5517SOL    HW117450   3.193   2.206   2.394
 5517SOL    HW217451   3.267   2.077   2.325
 5518SOL     OW17452   6.233   5.779   6.233
 5518SOL    HW117453   6.324   5.797   6.270
 5518SOL    HW217454   6.215   5.680   6.234
 5519SOL     OW17455   5.207   3.825   3.165
 5519SOL    HW117456   5.247   3.735   3.146
 5519SOL    HW217457   5.187   3.833   3.263
 5520SOL     OW17458   1.133   4.258   2.800
 5520SOL    HW117459   1.177   4.310   2.873
 5520SOL    HW217460   1.202   4.206   2.749
 5521SOL     OW17461   4.367   5.867   2.064
 5521SOL    HW117462   4.386   5.774   2.035
 5521SOL    HW217463   4.273   5.874   2.095
 5522SOL     OW17464   2.054   3.915   1.465
 5522SOL    HW117465   2.131   3.946   1.411
 5522SOL    HW217466   2.028   3.822   1.436
 5523SOL     OW17467   3.466   6.870   2.735
 5523SOL    HW117468   3.545   6.854   2.675
 5523SOL    HW217469   3.446   6.968   2.738
 5524SOL     OW17470   0.257   5.962   4.748
 5524SOL    HW117471   0.162   5.935   4.763
 5524SOL    HW217472   0.304   5.969   4.836
 5525SOL     OW17473   0.129   4.415   0.191
 5525SOL    HW117474   0.182   4.474   0.252
 5525SOL    HW217475   0.189   4.346   0.150
 5526SOL     OW17476   6.138   3.584   4.514
 5526SOL    HW117477   6.040   3.581   4.536
 5526SOL    HW217478   6.171   3.678   4.523
 5527SOL     OW17479   0.697   3.061   2.596
 5527SOL    HW117480   0.794   3.074   2.617
 5527SOL    HW217481   0.656   3.148   2.569
 5528SOL     OW17482   0.636   2.299   6.038
 5528SOL    HW117483   0.577   2.337   6.109
 5528SOL    HW217484   0.731   2.319   6.059
 5529SOL     OW17485   2.395   0.209   4.527
 5529SOL    HW117486   2.298   0.232   4.536
 5529SOL    HW217487   2.433   0.190   4.617
 5530SOL     OW17488   6.965   2.158   2.171
 5530SOL    HW117489   0.023   2.167   2.218
 5530SOL    HW217490   6.902   2.106   2.229
 5531SOL     OW17491   3.802   3.137   4.323
 5531SOL    HW117492   3.734   3.105   4.388
 5531SOL    HW217493   3.803   3.076   4.243
 5532SOL     OW17494   1.894   1.098   0.816
 5532SOL    HW117495   1.941   1.073   0.901
 5532SOL    HW217496   1.893   1.020   0.754
 5533SOL     OW17497   2.944   0.820   2.181
 5533SOL    HW117498   2.917   0.729   2.152
 5533SOL    HW217499   3.007   0.813   2.258
 5534SOL     OW17500   1.230   3.451   6.685
 5534SOL    HW117501   1.311   3.450   6.627
 5534SOL    HW217502   1.237   3.526   6.751
 5535SOL     OW17503   0.204   3.342   2.934
 5535SOL    HW117504   0.279   3.396   2.896
 5535SOL    HW217505   0.181   3.377   3.024
 5536SOL     OW17506   2.733   0.701   3.901
 5536SOL    HW117507   2.704   0.621   3.954
 5536SOL    HW217508   2.684   0.782   3.932
 5537SOL     OW17509   3.371   1.360   4.647
 5537SOL    HW117510   3.422   1.380   4.564
 5537SOL    HW217511   3.319   1.441   4.674
 5538SOL     OW17512   3.476   6.891   5.050
 5538SOL    HW117513   3.477   6.933   4.959
 5538SOL    HW217514   3.523   6.950   5.115
 5539SOL     OW17515   0.652   1.752   1.018
 5539SOL    HW117516   0.626   1.663   0.979
 5539SOL    HW217517   0.572   1.794   1.060
 5540SOL     OW17518   5.462   3.072   1.759
 5540SOL    HW117519   5.378   3.094   1.710
 5540SOL    HW217520   5.443   3.003   1.830
 5541SOL     OW17521   5.271   3.108   6.042
 5541SOL    HW117522   5.176   3.090   6.018
 5541SOL    HW217523   5.276   3.179   6.112
 5542SOL     OW17524   5.688   6.215   5.767
 5542SOL    HW117525   5.760   6.152   5.738
 5542SOL    HW217526   5.707   6.306   5.731
 5543SOL     OW17527   1.935   5.327   6.250
 5543SOL    HW117528   1.843   5.342   6.288
 5543SOL    HW217529   1.934   5.347   6.153
 5544SOL     OW17530   5.659   5.475   5.667
 5544SOL    HW117531   5.716   5.500   5.589
 5544SOL    HW217532   5.681   5.536   5.744
 5545SOL     OW17533   5.072   0.727   2.393
 5545SOL    HW117534   5.164   0.752   2.423
 5545SOL    HW217535   5.056   0.762   2.300
 5546SOL     OW17536   0.965   6.260   3.946
 5546SOL    HW117537   0.908   6.197   3.998
 5546SOL    HW217538   1.060   6.231   3.950
 5547SOL     OW17539   4.044   1.279   4.925
 5547SOL    HW117540   4.084   1.210   4.864
 5547SOL    HW217541   3.945   1.282   4.912
 5548SOL     OW17542   6.422   4.011   5.850
 5548SOL    HW117543   6.379   4.087   5.801
 5548SOL    HW217544   6.460   3.946   5.784
 5549SOL     OW17545   3.848   4.094   1.233
 5549SOL    HW117546   3.819   4.000   1.251
 5549SOL    HW217547   3.774   4.157   1.258
 5550SOL     OW17548   2.386   4.253   1.989
 5550SOL    HW117549   2.419   4.314   2.061
 5550SOL    HW217550   2.433   4.274   1.903
 5551SOL     OW17551   1.673   6.215   2.807
 5551SOL    HW117552   1.726   6.287   2.762
 5551SOL    HW217553   1.592   6.255   2.850
 5552SOL     OW17554   6.224   0.833   6.784
 5552SOL    HW117555   6.150   0.889   6.748
 5552SOL    HW217556   6.311   0.882   6.775
 5553SOL     OW17557   4.501   6.543   6.223
 5553SOL    HW117558   4.532   6.618   6.282
 5553SOL    HW217559   4.556   6.542   6.139
 5554SOL     OW17560   4.955   2.655   1.026
 5554SOL    HW117561   4.975   2.561   1.054
 5554SOL    HW217562   4.981   2.718   1.099
 5555SOL     OW17563   1.218   3.634   2.474
 5555SOL    HW117564   1.154   3.605   2.403
 5555SOL    HW217565   1.169   3.651   2.559
 5556SOL     OW17566   6.290   1.593   3.895
 5556SOL    HW117567   6.193   1.613   3.880
 5556SOL    HW217568   6.345   1.670   3.861
 5557SOL     OW17569   4.063   5.706   1.951
 5557SOL    HW117570   3.994   5.692   1.880
 5557SOL    HW217571   4.058   5.801   1.984
 5558SOL     OW17572   3.261   3.449   6.397
 5558SOL    HW117573   3.332   3.514   6.371
 5558SOL    HW217574   3.195   3.494   6.457
 5559SOL     OW17575   2.057   0.320   2.223
 5559SOL    HW117576   1.961   0.344   2.209
 5559SOL    HW217577   2.114   0.377   2.163
 5560SOL     OW17578   6.945   5.423   1.088
 5560SOL    HW117579   6.991   5.482   1.154
 5560SOL    HW217580   6.849   5.412   1.116
 5561SOL     OW17581   2.219   0.765   4.317
 5561SOL    HW117582   2.187   0.747   4.224
 5561SOL    HW217583   2.145   0.745   4.381
 5562SOL     OW17584   4.063   2.783   6.920
 5562SOL    HW117585   4.064   2.691   6.880
 5562SOL    HW217586   4.157   2.811   6.939
 5563SOL     OW17587   2.872   5.314   3.044
 5563SOL    HW117588   2.822   5.239   3.087
 5563SOL    HW217589   2.967   5.313   3.076
 5564SOL     OW17590   4.805   0.182   0.557
 5564SOL    HW117591   4.747   0.134   0.491
 5564SOL    HW217592   4.897   0.145   0.553
 5565SOL     OW17593   3.771   2.331   5.874
 5565SOL    HW117594   3.722   2.247   5.898
 5565SOL    HW217595   3.727   2.374   5.795
 5566SOL     OW17596   1.507   4.646   0.068
 5566SOL    HW117597   1.477   4.703   7.021
 5566SOL    HW217598   1.589   4.686   0.109
 5567SOL     OW17599   6.969   3.683   1.320
 5567SOL    HW117600   0.026   3.639   1.340
 5567SOL    HW217601   6.934   3.728   1.402
 5568SOL     OW17602   5.236   1.621   3.655
 5568SOL    HW117603   5.171   1.598   3.583
 5568SOL    HW217604   5.330   1.612   3.621
 5569SOL     OW17605   1.908   2.015   2.126
 5569SOL    HW117606   1.916   2.088   2.193
 5569SOL    HW217607   1.991   1.958   2.129
 5570SOL     OW17608   6.016   3.824   4.268
 5570SOL    HW117609   6.009   3.911   4.318
 5570SOL    HW217610   6.073   3.760   4.320
 5571SOL     OW17611   6.077   5.954   1.309
 5571SOL    HW117612   6.081   5.963   1.408
 5571SOL    HW217613   6.146   6.014   1.267
 5572SOL     OW17614   1.373   3.795   4.907
 5572SOL    HW117615   1.344   3.726   4.841
 5572SOL    HW217616   1.295   3.853   4.931
 5573SOL     OW17617   1.646   5.898   5.241
 5573SOL    HW117618   1.600   5.945   5.166
 5573SOL    HW217619   1.634   5.949   5.326
 5574SOL     OW17620   0.312   2.200   1.990
 5574SOL    HW117621   0.391   2.259   1.971
 5574SOL    HW217622   0.280   2.217   2.083
 5575SOL     OW17623   6.866   1.246   1.057
 5575SOL    HW117624   6.787   1.298   1.092
 5575SOL    HW217625   6.835   1.156   1.026
 5576SOL     OW17626   0.872   4.610   1.800
 5576SOL    HW117627   0.940   4.557   1.852
 5576SOL    HW217628   0.854   4.565   1.713
 5577SOL     OW17629   2.775   2.753   0.208
 5577SOL    HW117630   2.845   2.688   0.179
 5577SOL    HW217631   2.703   2.705   0.259
 5578SOL     OW17632   3.763   3.526   1.917
 5578SOL    HW117633   3.699   3.578   1.973
 5578SOL    HW217634   3.856   3.559   1.932
 5579SOL     OW17635   0.321   3.452   0.411
 5579SOL    HW117636   0.293   3.503   0.329
 5579SOL    HW217637   0.243   3.399   0.445
 5580SOL     OW17638   4.714   2.517   5.742
 5580SOL    HW117639   4.728   2.535   5.645
 5580SOL    HW217640   4.712   2.418   5.758
 5581SOL     OW17641   2.008   0.299   1.839
 5581SOL    HW117642   2.072   0.231   1.874
 5581SOL    HW217643   1.914   0.271   1.861
 5582SOL     OW17644   4.047   3.657   6.898
 5582SOL    HW117645   3.959   3.674   6.853
 5582SOL    HW217646   4.046   3.566   6.940
 5583SOL     OW17647   4.668   0.969   2.495
 5583SOL    HW117648   4.723   0.898   2.452
 5583SOL    HW217649   4.714   1.002   2.577
 5584SOL     OW17650   6.990   4.399   4.402
 5584SOL    HW117651   6.956   4.368   4.491
 5584SOL    HW217652   6.943   4.348   4.329
 5585SOL     OW17653   5.957   5.439   3.274
 5585SOL    HW117654   5.922   5.501   3.204
 5585SOL    HW217655   6.016   5.371   3.231
 5586SOL     OW17656   0.328   3.160   6.017
 5586SOL    HW117657   0.256   3.225   5.993
 5586SOL    HW217658   0.388   3.200   6.086
 5587SOL     OW17659   4.257   6.363   0.511
 5587SOL    HW117660   4.224   6.436   0.572
 5587SOL    HW217661   4.242   6.390   0.416
 5588SOL     OW17662   2.079   5.335   3.101
 5588SOL    HW117663   2.078   5.259   3.166
 5588SOL    HW217664   1.994   5.388   3.110
 5589SOL     OW17665   6.573   3.719   5.990
 5589SOL    HW117666   6.600   3.623   5.977
 5589SOL    HW217667   6.637   3.778   5.940
 5590SOL     OW17668   7.020   6.327   3.983
 5590SOL    HW117669   6.929   6.363   4.006
 5590SOL    HW217670   0.027   6.379   3.906
 5591SOL     OW17671   5.873   1.978   1.239
 5591SOL    HW117672   5.961   1.933   1.224
 5591SOL    HW217673   5.799   1.914   1.218
 5592SOL     OW17674   1.873   5.644   2.899
 5592SOL    HW117675   1.935   5.579   2.857
 5592SOL    HW217676   1.806   5.675   2.831
 5593SOL     OW17677   0.811   2.667   0.637
 5593SOL    HW117678   0.715   2.644   0.619
 5593SOL    HW217679   0.816   2.752   0.689
 5594SOL     OW17680   5.069   0.889   6.107
 5594SOL    HW117681   5.082   0.802   6.057
 5594SOL    HW217682   5.101   0.964   6.050
 5595SOL     OW17683   0.406   1.577   4.455
 5595SOL    HW117684   0.399   1.675   4.472
 5595SOL    HW217685   0.334   1.549   4.391
 5596SOL     OW17686   4.429   0.671   2.485
 5596SOL    HW117687   4.452   0.668   2.582
 5596SOL    HW217688   4.441   0.580   2.446
 5597SOL     OW17689   4.838   2.903   4.332
 5597SOL    HW117690   4.841   2.997   4.298
 5597SOL    HW217691   4.927   2.879   4.371
 5598SOL     OW17692   5.150   3.693   4.232
 5598SOL    HW117693   5.065   3.663   4.188
 5598SOL    HW217694   5.201   3.752   4.170
 5599SOL     OW17695   1.001   1.990   2.768
 5599SOL    HW117696   0.936   2.014   2.695
 5599SOL    HW217697   1.028   1.894   2.758
 5600SOL     OW17698   1.360   1.403   1.635
 5600SOL    HW117699   1.305   1.402   1.719
 5600SOL    HW217700   1.406   1.491   1.627
 5601SOL     OW17701   1.755   0.670   6.190
 5601SOL    HW117702   1.732   0.750   6.245
 5601SOL    HW217703   1.803   0.603   6.248
 5602SOL     OW17704   6.891   1.541   1.144
 5602SOL    HW117705   6.901   1.509   1.049
 5602SOL    HW217706   6.890   1.641   1.145
 5603SOL     OW17707   5.759   2.568   6.991
 5603SOL    HW117708   5.847   2.521   6.993
 5603SOL    HW217709   5.772   2.662   6.960
 5604SOL     OW17710   6.143   2.018   5.173
 5604SOL    HW117711   6.228   1.997   5.222
 5604SOL    HW217712   6.098   1.933   5.145
 5605SOL     OW17713   6.975   1.562   5.275
 5605SOL    HW117714   6.989   1.638   5.211
 5605SOL    HW217715   6.931   1.596   5.358
 5606SOL     OW17716   4.885   6.487   0.506
 5606SOL    HW117717   4.918   6.512   0.415
 5606SOL    HW217718   4.792   6.520   0.518
 5607SOL     OW17719   5.525   1.363   2.646
 5607SOL    HW117720   5.500   1.319   2.559
 5607SOL    HW217721   5.585   1.441   2.628
 5608SOL     OW17722   5.302   6.983   3.984
 5608SOL    HW117723   5.227   7.002   4.048
 5608SOL    HW217724   5.375   0.021   3.997
 5609SOL     OW17725   2.908   5.634   1.037
 5609SOL    HW117726   2.872   5.588   0.955
 5609SOL    HW217727   2.834   5.677   1.087
 5610SOL     OW17728   3.865   6.143   0.500
 5610SOL    HW117729   3.804   6.075   0.459
 5610SOL    HW217730   3.836   6.235   0.472
 5611SOL     OW17731   1.084   5.872   2.797
 5611SOL    HW117732   1.148   5.796   2.789
 5611SOL    HW217733   1.014   5.851   2.865
 5612SOL     OW17734   3.826   2.126   6.717
 5612SOL    HW117735   3.772   2.136   6.800
 5612SOL    HW217736   3.794   2.190   6.647
 5613SOL     OW17737   6.032   4.193   3.284
 5613SOL    HW117738   6.043   4.283   3.241
 5613SOL    HW217739   5.982   4.204   3.370
 5614SOL     OW17740   4.264   1.854   4.502
 5614SOL    HW117741   4.309   1.768   4.527
 5614SOL    HW217742   4.273   1.869   4.404
 5615SOL     OW17743   0.318   1.829   4.497
 5615SOL    HW117744   0.287   1.821   4.592
 5615SOL    HW217745   0.261   1.771   4.438
 5616SOL     OW17746   2.515   1.647   5.186
 5616SOL    HW117747   2.483   1.598   5.267
 5616SOL    HW217748   2.444   1.710   5.154
 5617SOL     OW17749   2.881   6.656   6.020
 5617SOL    HW117750   2.939   6.691   6.093
 5617SOL    HW217751   2.842   6.732   5.969
 5618SOL     OW17752   6.862   5.198   4.142
 5618SOL    HW117753   6.822   5.180   4.052
 5618SOL    HW217754   6.940   5.260   4.132
 5619SOL     OW17755   3.071   4.040   5.444
 5619SOL    HW117756   3.062   4.107   5.518
 5619SOL    HW217757   2.982   4.025   5.402
 5620SOL     OW17758   4.373   3.772   0.888
 5620SOL    HW117759   4.328   3.822   0.814
 5620SOL    HW217760   4.376   3.674   0.865
 5621SOL     OW17761   2.255   1.937   0.273
 5621SOL    HW117762   2.288   1.907   0.184
 5621SOL    HW217763   2.263   1.863   0.339
 5622SOL     OW17764   4.717   0.138   6.295
 5622SOL    HW117765   4.664   0.213   6.336
 5622SOL    HW217766   4.658   0.058   6.285
 5623SOL     OW17767   2.757   5.551   4.949
 5623SOL    HW117768   2.825   5.479   4.963
 5623SOL    HW217769   2.713   5.572   5.037
 5624SOL     OW17770   1.079   4.496   4.068
 5624SOL    HW117771   1.096   4.589   4.036
 5624SOL    HW217772   1.133   4.478   4.150
 5625SOL     OW17773   6.238   1.488   4.881
 5625SOL    HW117774   6.332   1.493   4.847
 5625SOL    HW217775   6.174   1.509   4.806
 5626SOL     OW17776   2.782   6.230   4.070
 5626SOL    HW117777   2.705   6.290   4.090
 5626SOL    HW217778   2.855   6.247   4.137
 5627SOL     OW17779   0.759   5.843   6.122
 5627SOL    HW117780   0.789   5.770   6.060
 5627SOL    HW217781   0.764   5.810   6.217
 5628SOL     OW17782   1.215   2.342   0.422
 5628SOL    HW117783   1.278   2.273   0.457
 5628SOL    HW217784   1.132   2.343   0.477
 5629SOL     OW17785   3.502   3.982   2.897
 5629SOL    HW117786   3.470   3.887   2.896
 5629SOL    HW217787   3.447   4.035   2.961
 5630SOL     OW17788   1.890   3.728   0.429
 5630SOL    HW117789   1.812   3.741   0.490
 5630SOL    HW217790   1.867   3.760   0.338
 5631SOL     OW17791   4.574   1.706   0.717
 5631SOL    HW117792   4.654   1.651   0.742
 5631SOL    HW217793   4.593   1.802   0.733
 5632SOL     OW17794   3.027   2.540   6.208
 5632SOL    HW117795   3.008   2.606   6.136
 5632SOL    HW217796   2.969   2.459   6.195
 5633SOL     OW17797   6.239   3.479   3.981
 5633SOL    HW117798   6.261   3.424   3.900
 5633SOL    HW217799   6.251   3.576   3.960
 5634SOL     OW17800   2.352   5.185   4.310
 5634SOL    HW117801   2.377   5.232   4.225
 5634SOL    HW217802   2.407   5.102   4.320
 5635SOL     OW17803   2.252   4.411   5.291
 5635SOL    HW117804   2.314   4.433   5.365
 5635SOL    HW217805   2.233   4.313   5.291
 5636SOL     OW17806   4.186   6.369   4.314
 5636SOL    HW117807   4.183   6.311   4.232
 5636SOL    HW217808   4.277   6.366   4.354
 5637SOL     OW17809   5.054   6.488   3.365
 5637SOL    HW117810   5.027   6.491   3.268
 5637SOL    HW217811   5.119   6.561   3.384
 5638SOL     OW17812   6.250   3.976   1.247
 5638SOL    HW117813   6.314   3.950   1.320
 5638SOL    HW217814   6.157   3.978   1.285
 5639SOL     OW17815   0.708   1.452   1.660
 5639SOL    HW117816   0.693   1.470   1.757
 5639SOL    HW217817   0.789   1.395   1.649
 5640SOL     OW17818   3.102   0.421   3.553
 5640SOL    HW117819   3.052   0.446   3.636
 5640SOL    HW217820   3.091   0.493   3.485
 5641SOL     OW17821   0.986   5.253   5.298
 5641SOL    HW117822   0.983   5.205   5.386
 5641SOL    HW217823   1.067   5.311   5.294
 5642SOL     OW17824   1.673   6.822   5.197
 5642SOL    HW117825   1.620   6.768   5.263
 5642SOL    HW217826   1.646   6.918   5.204
 5643SOL     OW17827   4.506   1.404   5.097
 5643SOL    HW117828   4.521   1.490   5.145
 5643SOL    HW217829   4.408   1.389   5.085
 5644SOL     OW17830   3.354   0.318   5.261
 5644SOL    HW117831   3.362   0.372   5.344
 5644SOL    HW217832   3.278   0.254   5.269
 5645SOL     OW17833   6.216   4.396   3.780
 5645SOL    HW117834   6.269   4.350   3.851
 5645SOL    HW217835   6.149   4.457   3.823
 5646SOL     OW17836   1.476   5.318   3.259
 5646SOL    HW117837   1.452   5.282   3.350
 5646SOL    HW217838   1.428   5.265   3.189
 5647SOL     OW17839   4.828   6.316   1.523
 5647SOL    HW117840   4.780   6.273   1.446
 5647SOL    HW217841   4.865   6.245   1.583
 5648SOL     OW17842   2.072   5.540   2.701
 5648SOL    HW117843   2.086   5.487   2.618
 5648SOL    HW217844   2.093   5.636   2.684
 5649SOL     OW17845   0.932   6.868   4.002
 5649SOL    HW117846   0.951   6.819   3.917
 5649SOL    HW217847   1.002   6.845   4.070
 5650SOL     OW17848   1.327   5.259   1.243
 5650SOL    HW117849   1.398   5.201   1.202
 5650SOL    HW217850   1.336   5.257   1.342
 5651SOL     OW17851   1.876   1.333   0.648
 5651SOL    HW117852   1.864   1.249   0.701
 5651SOL    HW217853   1.955   1.383   0.684
 5652SOL     OW17854   6.210   5.838   0.848
 5652SOL    HW117855   6.224   5.905   0.775
 5652SOL    HW217856   6.262   5.866   0.929
 5653SOL     OW17857   6.701   6.632   6.541
 5653SOL    HW117858   6.602   6.634   6.536
 5653SOL    HW217859   6.730   6.562   6.606
 5654SOL     OW17860   0.953   6.100   4.632
 5654SOL    HW117861   0.914   6.062   4.717
 5654SOL    HW217862   0.879   6.117   4.567
 5655SOL     OW17863   0.460   2.933   3.930
 5655SOL    HW117864   0.549   2.899   3.960
 5655SOL    HW217865   0.388   2.881   3.976
 5656SOL     OW17866   6.637   4.314   6.449
 5656SOL    HW117867   6.640   4.232   6.506
 5656SOL    HW217868   6.730   4.348   6.434
 5657SOL     OW17869   5.597   3.160   5.943
 5657SOL    HW117870   5.579   3.258   5.950
 5657SOL    HW217871   5.547   3.122   5.865
 5658SOL     OW17872   2.817   3.082   6.295
 5658SOL    HW117873   2.735   3.025   6.302
 5658SOL    HW217874   2.792   3.178   6.304
 5659SOL     OW17875   3.820   3.336   6.506
 5659SOL    HW117876   3.812   3.429   6.469
 5659SOL    HW217877   3.733   3.288   6.495
 5660SOL     OW17878   4.918   6.677   5.652
 5660SOL    HW117879   4.974   6.672   5.569
 5660SOL    HW217880   4.946   6.605   5.716
 5661SOL     OW17881   1.928   6.091   4.324
 5661SOL    HW117882   1.851   6.088   4.388
 5661SOL    HW217883   2.013   6.104   4.376
 5662SOL     OW17884   2.872   6.743   2.789
 5662SOL    HW117885   2.870   6.753   2.888
 5662SOL    HW217886   2.966   6.729   2.758
 5663SOL     OW17887   2.556   2.435   1.066
 5663SOL    HW117888   2.516   2.481   0.986
 5663SOL    HW217889   2.574   2.503   1.138
 5664SOL     OW17890   0.061   3.813   4.093
 5664SOL    HW117891   0.030   3.819   4.188
 5664SOL    HW217892   7.029   3.866   4.034
 5665SOL     OW17893   1.008   6.886   0.964
 5665SOL    HW117894   1.085   6.904   1.025
 5665SOL    HW217895   1.042   6.863   0.872
 5666SOL     OW17896   6.534   0.120   3.685
 5666SOL    HW117897   6.485   0.063   3.751
 5666SOL    HW217898   6.583   0.192   3.734
 5667SOL     OW17899   1.494   5.016   5.028
 5667SOL    HW117900   1.467   4.975   5.115
 5667SOL    HW217901   1.586   5.055   5.037
 5668SOL     OW17902   6.015   3.126   3.265
 5668SOL    HW117903   6.028   3.135   3.166
 5668SOL    HW217904   6.015   3.029   3.290
 5669SOL     OW17905   6.485   4.286   0.994
 5669SOL    HW117906   6.541   4.205   0.978
 5669SOL    HW217907   6.540   4.368   0.974
 5670SOL     OW17908   1.397   3.368   3.748
 5670SOL    HW117909   1.495   3.385   3.759
 5670SOL    HW217910   1.349   3.454   3.736
 5671SOL     OW17911   5.905   6.740   5.535
 5671SOL    HW117912   5.983   6.738   5.597
 5671SOL    HW217913   5.908   6.824   5.481
 5672SOL     OW17914   5.175   4.123   6.174
 5672SOL    HW117915   5.158   4.189   6.247
 5672SOL    HW217916   5.219   4.168   6.097
 5673SOL     OW17917   1.802   6.719   1.226
 5673SOL    HW117918   1.782   6.680   1.316
 5673SOL    HW217919   1.720   6.763   1.190
 5674SOL     OW17920   1.612   4.531   4.799
 5674SOL    HW117921   1.696   4.580   4.819
 5674SOL    HW217922   1.588   4.471   4.876
 5675SOL     OW17923   4.413   2.469   6.623
 5675SOL    HW117924   4.482   2.536   6.595
 5675SOL    HW217925   4.325   2.493   6.582
 5676SOL     OW17926   2.789   1.829   2.519
 5676SOL    HW117927   2.835   1.816   2.431
 5676SOL    HW217928   2.700   1.782   2.517
 5677SOL     OW17929   0.757   0.827   1.009
 5677SOL    HW117930   0.703   0.763   0.954
 5677SOL    HW217931   0.778   0.786   1.098
 5678SOL     OW17932   4.108   0.809   2.736
 5678SOL    HW117933   4.177   0.881   2.738
 5678SOL    HW217934   4.094   0.778   2.642
 5679SOL     OW17935   5.947   1.141   4.206
 5679SOL    HW117936   5.854   1.177   4.216
 5679SOL    HW217937   5.968   1.080   4.282
 5680SOL     OW17938   1.672   5.373   6.345
 5680SOL    HW117939   1.666   5.443   6.275
 5680SOL    HW217940   1.592   5.379   6.406
 5681SOL     OW17941   0.659   3.652   1.855
 5681SOL    HW117942   0.729   3.722   1.842
 5681SOL    HW217943   0.702   3.567   1.886
 5682SOL     OW17944   2.484   5.523   4.351
 5682SOL    HW117945   2.424   5.445   4.333
 5682SOL    HW217946   2.484   5.585   4.273
 5683SOL     OW17947   3.535   2.012   6.320
 5683SOL    HW117948   3.552   1.964   6.234
 5683SOL    HW217949   3.608   1.990   6.386
 5684SOL     OW17950   2.309   3.427   5.786
 5684SOL    HW117951   2.403   3.401   5.810
 5684SOL    HW217952   2.271   3.361   5.722
 5685SOL     OW17953   2.596   1.816   3.235
 5685SOL    HW117954   2.594   1.781   3.142
 5685SOL    HW217955   2.514   1.785   3.285
 5686SOL     OW17956   3.164   1.618   4.955
 5686SOL    HW117957   3.071   1.644   4.981
 5686SOL    HW217958   3.165   1.589   4.859
 5687SOL     OW17959   0.855   6.033   5.604
 5687SOL    HW117960   0.768   6.058   5.562
 5687SOL    HW217961   0.927   6.094   5.571
 5688SOL     OW17962   1.832   2.412   2.837
 5688SOL    HW117963   1.739   2.431   2.867
 5688SOL    HW217964   1.860   2.481   2.769
 5689SOL     OW17965   2.510   1.023   2.028
 5689SOL    HW117966   2.479   1.113   2.056
 5689SOL    HW217967   2.604   1.029   1.994
 5690SOL     OW17968   1.109   5.724   0.075
 5690SOL    HW117969   1.009   5.717   0.087
 5690SOL    HW217970   1.154   5.699   0.161
 5691SOL     OW17971   3.755   0.883   1.855
 5691SOL    HW117972   3.838   0.909   1.806
 5691SOL    HW217973   3.679   0.875   1.790
 5692SOL     OW17974   5.194   4.637   0.705
 5692SOL    HW117975   5.184   4.540   0.729
 5692SOL    HW217976   5.210   4.691   0.788
 5693SOL     OW17977   4.666   1.191   1.928
 5693SOL    HW117978   4.607   1.232   1.998
 5693SOL    HW217979   4.754   1.240   1.926
 5694SOL     OW17980   1.182   0.590   2.644
 5694SOL    HW117981   1.226   0.658   2.586
 5694SOL    HW217982   1.154   0.512   2.588
 5695SOL     OW17983   1.633   1.592   3.427
 5695SOL    HW117984   1.731   1.609   3.415
 5695SOL    HW217985   1.585   1.612   3.342
 5696SOL     OW17986   0.818   6.492   4.170
 5696SOL    HW117987   0.875   6.513   4.091
 5696SOL    HW217988   0.868   6.431   4.232
 5697SOL     OW17989   5.868   2.499   2.374
 5697SOL    HW117990   5.930   2.492   2.296
 5697SOL    HW217991   5.778   2.464   2.349
 5698SOL     OW17992   1.621   4.733   4.303
 5698SOL    HW117993   1.691   4.672   4.342
 5698SOL    HW217994   1.531   4.694   4.319
 5699SOL     OW17995   1.456   2.246   2.924
 5699SOL    HW117996   1.378   2.204   2.879
 5699SOL    HW217997   1.535   2.245   2.862
 5700SOL     OW17998   6.153   6.779   3.518
 5700SOL    HW117999   6.224   6.771   3.588
 5700SOL    HW218000   6.161   6.704   3.453
 5701SOL     OW18001   0.592   0.506   1.642
 5701SOL    HW118002   0.498   0.474   1.642
 5701SOL    HW218003   0.652   0.434   1.608
 5702SOL     OW18004   2.075   6.055   3.980
 5702SOL    HW118005   2.111   6.086   4.068
 5702SOL    HW218006   1.992   6.002   3.995
 5703SOL     OW18007   0.093   4.538   6.807
 5703SOL    HW118008   0.091   4.620   6.865
 5703SOL    HW218009   0.030   4.470   6.843
 5704SOL     OW18010   4.902   3.975   3.343
 5704SOL    HW118011   4.869   3.901   3.401
 5704SOL    HW218012   4.853   3.975   3.256
 5705SOL     OW18013   4.956   5.629   6.619
 5705SOL    HW118014   4.925   5.686   6.694
 5705SOL    HW218015   5.042   5.666   6.583
 5706SOL     OW18016   5.166   2.577   2.215
 5706SOL    HW118017   5.109   2.603   2.137
 5706SOL    HW218018   5.243   2.640   2.222
 5707SOL     OW18019   6.289   0.032   0.993
 5707SOL    HW118020   6.349   6.985   1.013
 5707SOL    HW218021   6.342   0.117   0.993
 5708SOL     OW18022   5.005   5.769   2.188
 5708SOL    HW118023   5.041   5.695   2.130
 5708SOL    HW218024   5.076   5.838   2.200
 5709SOL     OW18025   0.409   1.168   2.419
 5709SOL    HW118026   0.338   1.186   2.487
 5709SOL    HW218027   0.425   1.069   2.414
 5710SOL     OW18028   3.439   2.195   0.508
 5710SOL    HW118029   3.495   2.156   0.581
 5710SOL    HW218030   3.471   2.163   0.419
 5711SOL     OW18031   5.123   1.080   1.321
 5711SOL    HW118032   5.041   1.045   1.276
 5711SOL    HW218033   5.142   1.027   1.403
 5712SOL     OW18034   6.076   6.741   7.004
 5712SOL    HW118035   6.071   6.649   0.015
 5712SOL    HW218036   6.135   6.799   0.030
 5713SOL     OW18037   2.747   3.914   1.663
 5713SOL    HW118038   2.838   3.953   1.646
 5713SOL    HW218039   2.755   3.838   1.728
 5714SOL     OW18040   6.519   6.274   1.489
 5714SOL    HW118041   6.605   6.290   1.440
 5714SOL    HW218042   6.539   6.231   1.577
 5715SOL     OW18043   7.022   7.025   2.587
 5715SOL    HW118044   0.071   6.971   2.616
 5715SOL    HW218045   6.960   6.967   2.534
 5716SOL     OW18046   1.064   6.180   5.495
 5716SOL    HW118047   1.128   6.256   5.498
 5716SOL    HW218048   1.051   6.152   5.400
 5717SOL     OW18049   1.515   5.086   1.173
 5717SOL    HW118050   1.547   5.020   1.104
 5717SOL    HW218051   1.587   5.102   1.240
 5718SOL     OW18052   1.425   3.660   0.563
 5718SOL    HW118053   1.384   3.713   0.637
 5718SOL    HW218054   1.369   3.668   0.481
 5719SOL     OW18055   2.457   3.174   0.586
 5719SOL    HW118056   2.410   3.108   0.527
 5719SOL    HW218057   2.477   3.256   0.532
 5720SOL     OW18058   1.685   6.942   4.466
 5720SOL    HW118059   1.757   6.903   4.523
 5720SOL    HW218060   1.611   6.977   4.524
 5721SOL     OW18061   5.918   4.541   0.969
 5721SOL    HW118062   5.946   4.451   1.003
 5721SOL    HW218063   5.853   4.582   1.034
 5722SOL     OW18064   6.495   2.236   5.192
 5722SOL    HW118065   6.549   2.157   5.220
 5722SOL    HW218066   6.429   2.208   5.122
 5723SOL     OW18067   4.484   3.828   0.266
 5723SOL    HW118068   4.526   3.785   0.186
 5723SOL    HW218069   4.408   3.772   0.297
 5724SOL     OW18070   5.871   2.734   4.051
 5724SOL    HW118071   5.880   2.689   4.140
 5724SOL    HW218072   5.896   2.831   4.060
 5725SOL     OW18073   6.729   4.676   4.302
 5725SOL    HW118074   6.677   4.655   4.220
 5725SOL    HW218075   6.814   4.721   4.277
 5726SOL     OW18076   6.684   5.591   4.145
 5726SOL    HW118077   6.736   5.667   4.183
 5726SOL    HW218078   6.731   5.556   4.064
 5727SOL     OW18079   6.483   2.614   4.601
 5727SOL    HW118080   6.512   2.698   4.648
 5727SOL    HW218081   6.525   2.611   4.510
 5728SOL     OW18082   5.058   6.433   5.550
 5728SOL    HW118083   5.076   6.526   5.516
 5728SOL    HW218084   4.999   6.385   5.486
 5729SOL     OW18085   1.508   1.490   6.748
 5729SOL    HW118086   1.548   1.418   6.691
 5729SOL    HW218087   1.487   1.570   6.692
 5730SOL     OW18088   5.791   4.637   6.315
 5730SOL    HW118089   5.858   4.627   6.388
 5730SOL    HW218090   5.761   4.733   6.310
 5731SOL     OW18091   6.719   0.438   2.495
 5731SOL    HW118092   6.723   0.505   2.569
 5731SOL    HW218093   6.737   0.346   2.533
 5732SOL     OW18094   0.565   6.142   3.940
 5732SOL    HW118095   0.533   6.237   3.933
 5732SOL    HW218096   0.488   6.083   3.966
 5733SOL     OW18097   3.659   6.370   5.158
 5733SOL    HW118098   3.692   6.292   5.211
 5733SOL    HW218099   3.728   6.397   5.091
 5734SOL     OW18100   1.396   0.596   5.340
 5734SOL    HW118101   1.389   0.503   5.377
 5734SOL    HW218102   1.394   0.662   5.415
 5735SOL     OW18103   3.496   1.604   0.858
 5735SOL    HW118104   3.420   1.540   0.869
 5735SOL    HW218105   3.476   1.689   0.907
 5736SOL     OW18106   6.763   4.496   0.139
 5736SOL    HW118107   6.803   4.405   0.150
 5736SOL    HW218108   6.817   4.563   0.189
 5737SOL     OW18109   5.655   5.836   0.915
 5737SOL    HW118110   5.754   5.851   0.921
 5737SOL    HW218111   5.629   5.829   0.819
 5738SOL     OW18112   1.793   3.347   5.986
 5738SOL    HW118113   1.873   3.309   5.940
 5738SOL    HW218114   1.821   3.418   6.050
 5739SOL     OW18115   1.779   1.409   6.455
 5739SOL    HW118116   1.875   1.386   6.467
 5739SOL    HW218117   1.767   1.460   6.369
 5740SOL     OW18118   4.253   5.371   0.573
 5740SOL    HW118119   4.163   5.371   0.616
 5740SOL    HW218120   4.247   5.416   0.484
 5741SOL     OW18121   0.005   5.363   4.016
 5741SOL    HW118122   6.995   5.438   3.964
 5741SOL    HW218123   0.076   5.319   3.962
 5742SOL     OW18124   5.143   6.357   2.834
 5742SOL    HW118125   5.219   6.299   2.863
 5742SOL    HW218126   5.083   6.374   2.912
 5743SOL     OW18127   2.672   6.213   4.898
 5743SOL    HW118128   2.733   6.156   4.842
 5743SOL    HW218129   2.720   6.297   4.924
 5744SOL     OW18130   4.737   0.305   1.164
 5744SOL    HW118131   4.740   0.372   1.089
 5744SOL    HW218132   4.717   0.352   1.250
 5745SOL     OW18133   3.508   1.489   4.458
 5745SOL    HW118134   3.481   1.573   4.410
 5745SOL    HW218135   3.574   1.439   4.402
 5746SOL     OW18136   4.707   0.973   1.096
 5746SOL    HW118137   4.684   1.068   1.115
 5746SOL    HW218138   4.633   0.931   1.042
 5747SOL     OW18139   0.257   5.222   2.922
 5747SOL    HW118140   0.266   5.227   2.822
 5747SOL    HW218141   0.241   5.127   2.949
 5748SOL     OW18142   1.463   4.649   1.130
 5748SOL    HW118143   1.391   4.655   1.061
 5748SOL    HW218144   1.423   4.625   1.218
 5749SOL     OW18145   2.590   0.848   4.262
 5749SOL    HW118146   2.682   0.871   4.293
 5749SOL    HW218147   2.530   0.835   4.341
 5750SOL     OW18148   5.767   5.034   4.596
 5750SOL    HW118149   5.715   5.103   4.646
 5750SOL    HW218150   5.773   4.951   4.651
 5751SOL     OW18151   2.646   2.485   4.908
 5751SOL    HW118152   2.651   2.495   5.008
 5751SOL    HW218153   2.737   2.498   4.869
 5752SOL     OW18154   5.995   1.256   6.056
 5752SOL    HW118155   6.093   1.239   6.068
 5752SOL    HW218156   5.974   1.263   5.959
 5753SOL     OW18157   3.499   3.766   6.535
 5753SOL    HW118158   3.423   3.756   6.598
 5753SOL    HW218159   3.577   3.806   6.583
 5754SOL     OW18160   5.716   5.833   1.253
 5754SOL    HW118161   5.760   5.885   1.179
 5754SOL    HW218162   5.786   5.793   1.312
 5755SOL     OW18163   3.135   3.985   6.087
 5755SOL    HW118164   3.107   3.892   6.112
 5755SOL    HW218165   3.212   3.980   6.023
 5756SOL     OW18166   6.762   5.245   3.547
 5756SOL    HW118167   6.849   5.258   3.595
 5756SOL    HW218168   6.739   5.327   3.496
 5757SOL     OW18169   6.515   6.607   2.039
 5757SOL    HW118170   6.431   6.645   2.078
 5757SOL    HW218171   6.584   6.679   2.030
 5758SOL     OW18172   2.769   1.970   4.086
 5758SOL    HW118173   2.731   1.885   4.121
 5758SOL    HW218174   2.845   1.949   4.024
 5759SOL     OW18175   4.836   2.201   6.763
 5759SOL    HW118176   4.814   2.103   6.769
 5759SOL    HW218177   4.801   2.247   6.845
 5760SOL     OW18178   1.684   6.362   2.173
 5760SOL    HW118179   1.660   6.325   2.263
 5760SOL    HW218180   1.606   6.413   2.136
 5761SOL     OW18181   6.229   0.326   5.153
 5761SOL    HW118182   6.245   0.363   5.244
 5761SOL    HW218183   6.310   0.275   5.123
 5762SOL     OW18184   5.188   0.126   0.150
 5762SOL    HW118185   5.249   0.069   0.205
 5762SOL    HW218186   5.233   0.213   0.129
 5763SOL     OW18187   1.112   6.827   0.706
 5763SOL    HW118188   1.108   6.741   0.654
 5763SOL    HW218189   1.172   6.892   0.658
 5764SOL     OW18190   5.567   5.021   5.739
 5764SOL    HW118191   5.531   5.085   5.806
 5764SOL    HW218192   5.658   5.050   5.710
 5765SOL     OW18193   6.132   4.946   6.134
 5765SOL    HW118194   6.099   4.942   6.040
 5765SOL    HW218195   6.206   5.013   6.141
 5766SOL     OW18196   2.654   1.246   1.713
 5766SOL    HW118197   2.566   1.256   1.666
 5766SOL    HW218198   2.662   1.152   1.748
 5767SOL     OW18199   1.726   6.704   0.396
 5767SOL    HW118200   1.794   6.643   0.436
 5767SOL    HW218201   1.679   6.657   0.321
 5768SOL     OW18202   6.953   0.316   2.956
 5768SOL    HW118203   6.912   0.232   2.922
 5768SOL    HW218204   6.909   0.343   3.042
 5769SOL     OW18205   2.912   6.997   3.082
 5769SOL    HW118206   2.911   7.011   2.983
 5769SOL    HW218207   2.991   6.941   3.107
 5770SOL     OW18208   0.014   0.153   0.677
 5770SOL    HW118209   0.058   0.115   0.758
 5770SOL    HW218210   0.075   0.219   0.633
 5771SOL     OW18211   1.818   0.134   1.432
 5771SOL    HW118212   1.861   0.216   1.470
 5771SOL    HW218213   1.838   0.127   1.335
 5772SOL     OW18214   5.937   2.501   0.672
 5772SOL    HW118215   5.927   2.406   0.699
 5772SOL    HW218216   5.976   2.554   0.748
 5773SOL     OW18217   5.482   6.873   3.787
 5773SOL    HW118218   5.451   6.897   3.879
 5773SOL    HW218219   5.543   6.794   3.792
 5774SOL     OW18220   2.475   4.379   3.585
 5774SOL    HW118221   2.433   4.397   3.674
 5774SOL    HW218222   2.497   4.282   3.577
 5775SOL     OW18223   1.193   0.317   0.881
 5775SOL    HW118224   1.194   0.417   0.878
 5775SOL    HW218225   1.124   0.282   0.818
 5776SOL     OW18226   6.398   1.014   6.186
 5776SOL    HW118227   6.433   1.048   6.274
 5776SOL    HW218228   6.460   0.945   6.150
 5777SOL     OW18229   6.235   0.814   4.366
 5777SOL    HW118230   6.214   0.807   4.464
 5777SOL    HW218231   6.193   0.738   4.317
 5778SOL     OW18232   2.245   0.501   2.477
 5778SOL    HW118233   2.289   0.422   2.518
 5778SOL    HW218234   2.311   0.551   2.420
 5779SOL     OW18235   3.513   0.555   0.950
 5779SOL    HW118236   3.487   0.649   0.930
 5779SOL    HW218237   3.484   0.530   1.042
 5780SOL     OW18238   6.376   5.129   1.791
 5780SOL    HW118239   6.475   5.136   1.773
 5780SOL    HW218240   6.331   5.092   1.710
 5781SOL     OW18241   2.277   4.160   4.726
 5781SOL    HW118242   2.301   4.115   4.811
 5781SOL    HW218243   2.359   4.201   4.686
 5782SOL     OW18244   1.635   1.088   1.249
 5782SOL    HW118245   1.605   1.060   1.340
 5782SOL    HW218246   1.562   1.137   1.203
 5783SOL     OW18247   1.580   1.133   0.457
 5783SOL    HW118248   1.587   1.064   0.529
 5783SOL    HW218249   1.557   1.221   0.497
 5784SOL     OW18250   0.662   6.130   0.177
 5784SOL    HW118251   0.563   6.131   0.158
 5784SOL    HW218252   0.681   6.185   0.258
 5785SOL     OW18253   0.955   1.246   0.848
 5785SOL    HW118254   1.044   1.199   0.848
 5785SOL    HW218255   0.961   1.328   0.791
 5786SOL     OW18256   1.636   3.150   1.555
 5786SOL    HW118257   1.725   3.190   1.535
 5786SOL    HW218258   1.625   3.141   1.654
 5787SOL     OW18259   5.817   2.285   4.503
 5787SOL    HW118260   5.905   2.240   4.522
 5787SOL    HW218261   5.752   2.262   4.575
 5788SOL     OW18262   3.135   0.334   1.379
 5788SOL    HW118263   3.186   0.261   1.425
 5788SOL    HW218264   3.102   0.301   1.291
 5789SOL     OW18265   3.863   2.940   6.935
 5789SOL    HW118266   3.796   2.887   6.986
 5789SOL    HW218267   3.951   2.893   6.934
 5790SOL     OW18268   6.423   5.605   4.788
 5790SOL    HW118269   6.406   5.665   4.866
 5790SOL    HW218270   6.453   5.515   4.821
 5791SOL     OW18271   3.133   1.397   2.210
 5791SOL    HW118272   3.216   1.340   2.208
 5791SOL    HW218273   3.141   1.465   2.282
 5792SOL     OW18274   5.113   3.159   3.169
 5792SOL    HW118275   5.114   3.185   3.073
 5792SOL    HW218276   5.165   3.074   3.181
 5793SOL     OW18277   5.819   2.318   5.363
 5793SOL    HW118278   5.837   2.411   5.331
 5793SOL    HW218279   5.725   2.313   5.398
 5794SOL     OW18280   2.863   6.579   6.356
 5794SOL    HW118281   2.848   6.483   6.332
 5794SOL    HW218282   2.936   6.616   6.299
 5795SOL     OW18283   1.005   5.999   1.600
 5795SOL    HW118284   1.099   5.965   1.591
 5795SOL    HW218285   0.982   6.007   1.697
 5796SOL     OW18286   4.715   1.612   6.573
 5796SOL    HW118287   4.762   1.691   6.533
 5796SOL    HW218288   4.627   1.641   6.609
 5797SOL     OW18289   5.397   1.552   0.316
 5797SOL    HW118290   5.424   1.586   0.226
 5797SOL    HW218291   5.353   1.462   0.306
 5798SOL     OW18292   0.589   3.911   4.759
 5798SOL    HW118293   0.530   3.841   4.798
 5798SOL    HW218294   0.654   3.942   4.828
 5799SOL     OW18295   1.468   6.342   2.964
 5799SOL    HW118296   1.372   6.315   2.950
 5799SOL    HW218297   1.507   6.288   3.039
 5800SOL     OW18298   0.204   6.829   0.886
 5800SOL    HW118299   0.160   6.891   0.951
 5800SOL    HW218300   0.284   6.873   0.846
 5801SOL     OW18301   2.475   2.441   2.410
 5801SOL    HW118302   2.535   2.383   2.355
 5801SOL    HW218303   2.427   2.506   2.351
 5802SOL     OW18304   6.776   2.287   3.105
 5802SOL    HW118305   6.839   2.210   3.104
 5802SOL    HW218306   6.701   2.270   3.041
 5803SOL     OW18307   1.545   5.246   4.238
 5803SOL    HW118308   1.640   5.262   4.264
 5803SOL    HW218309   1.511   5.164   4.282
 5804SOL     OW18310   6.506   6.709   3.756
 5804SOL    HW118311   6.409   6.715   3.780
 5804SOL    HW218312   6.528   6.615   3.728
 5805SOL     OW18313   1.874   3.570   1.123
 5805SOL    HW118314   1.814   3.491   1.137
 5805SOL    HW218315   1.894   3.613   1.211
 5806SOL     OW18316   0.588   3.549   3.795
 5806SOL    HW118317   0.588   3.451   3.818
 5806SOL    HW218318   0.630   3.562   3.705
 5807SOL     OW18319   1.342   6.039   1.155
 5807SOL    HW118320   1.271   6.098   1.117
 5807SOL    HW218321   1.362   6.067   1.249
 5808SOL     OW18322   6.303   6.763   4.094
 5808SOL    HW118323   6.354   6.849   4.098
 5808SOL    HW218324   6.245   6.755   4.175
 5809SOL     OW18325   0.589   2.211   5.770
 5809SOL    HW118326   0.544   2.284   5.719
 5809SOL    HW218327   0.602   2.240   5.865
 5810SOL     OW18328   4.370   6.726   4.981
 5810SOL    HW118329   4.293   6.688   4.931
 5810SOL    HW218330   4.455   6.703   4.934
 5811SOL     OW18331   3.000   2.886   6.201
 5811SOL    HW118332   3.091   2.917   6.227
 5811SOL    HW218333   2.931   2.943   6.246
 5812SOL     OW18334   5.815   2.970   0.649
 5812SOL    HW118335   5.762   3.033   0.706
 5812SOL    HW218336   5.776   2.968   0.557
 5813SOL     OW18337   3.931   6.127   1.151
 5813SOL    HW118338   3.960   6.215   1.115
 5813SOL    HW218339   3.971   6.113   1.242
 5814SOL     OW18340   6.496   2.071   2.339
 5814SOL    HW118341   6.410   2.077   2.288
 5814SOL    HW218342   6.477   2.050   2.435
 5815SOL     OW18343   6.410   1.355   3.825
 5815SOL    HW118344   6.329   1.305   3.796
 5815SOL    HW218345   6.387   1.452   3.840
 5816SOL     OW18346   0.124   5.014   2.553
 5816SOL    HW118347   0.184   4.953   2.604
 5816SOL    HW218348   0.034   4.972   2.542
 5817SOL     OW18349   5.746   3.982   5.277
 5817SOL    HW118350   5.829   3.947   5.319
 5817SOL    HW218351   5.752   3.974   5.178
 5818SOL     OW18352   1.130   6.571   4.696
 5818SOL    HW118353   1.152   6.475   4.714
 5818SOL    HW218354   1.112   6.617   4.783
 5819SOL     OW18355   3.345   4.915   0.214
 5819SOL    HW118356   3.415   4.925   0.285
 5819SOL    HW218357   3.371   4.971   0.135
 5820SOL     OW18358   5.428   4.981   1.982
 5820SOL    HW118359   5.357   4.937   2.038
 5820SOL    HW218360   5.393   5.069   1.948
 5821SOL     OW18361   7.027   0.805   1.299
 5821SOL    HW118362   6.948   0.797   1.239
 5821SOL    HW218363   0.066   0.863   1.255
 5822SOL     OW18364   1.408   2.103   3.141
 5822SOL    HW118365   1.441   2.163   3.068
 5822SOL    HW218366   1.425   2.146   3.229
 5823SOL     OW18367   2.361   6.522   3.884
 5823SOL    HW118368   2.327   6.460   3.813
 5823SOL    HW218369   2.455   6.497   3.908
 5824SOL     OW18370   0.883   6.832   2.324
 5824SOL    HW118371   0.896   6.910   2.262
 5824SOL    HW218372   0.785   6.819   2.341
 5825SOL     OW18373   6.862   6.830   4.844
 5825SOL    HW118374   6.824   6.793   4.928
 5825SOL    HW218375   6.823   6.921   4.826
 5826SOL     OW18376   0.396   0.636   5.489
 5826SOL    HW118377   0.354   0.597   5.406
 5826SOL    HW218378   0.404   0.736   5.478
 5827SOL     OW18379   1.344   3.549   5.181
 5827SOL    HW118380   1.253   3.531   5.143
 5827SOL    HW218381   1.367   3.479   5.248
 5828SOL     OW18382   5.412   6.480   4.192
 5828SOL    HW118383   5.315   6.482   4.217
 5828SOL    HW218384   5.422   6.438   4.101
 5829SOL     OW18385   2.013   0.992   4.688
 5829SOL    HW118386   1.962   1.073   4.658
 5829SOL    HW218387   2.104   0.993   4.648
 5830SOL     OW18388   3.416   5.107   5.300
 5830SOL    HW118389   3.447   5.056   5.380
 5830SOL    HW218390   3.447   5.202   5.307
 5831SOL     OW18391   1.129   1.608   5.524
 5831SOL    HW118392   1.218   1.564   5.524
 5831SOL    HW218393   1.065   1.555   5.469
 5832SOL     OW18394   3.237   4.766   1.432
 5832SOL    HW118395   3.198   4.857   1.424
 5832SOL    HW218396   3.335   4.773   1.450
 5833SOL     OW18397   4.092   3.802   5.590
 5833SOL    HW118398   4.178   3.851   5.574
 5833SOL    HW218399   4.090   3.719   5.534
 5834SOL     OW18400   6.637   4.562   6.624
 5834SOL    HW118401   6.655   4.647   6.576
 5834SOL    HW218402   6.538   4.544   6.623
 5835SOL     OW18403   5.417   0.661   3.015
 5835SOL    HW118404   5.507   0.618   3.029
 5835SOL    HW218405   5.345   0.597   3.044
 5836SOL     OW18406   4.342   6.325   2.783
 5836SOL    HW118407   4.262   6.336   2.723
 5836SOL    HW218408   4.424   6.312   2.727
 5837SOL     OW18409   3.719   4.263   0.599
 5837SOL    HW118410   3.678   4.261   0.690
 5837SOL    HW218411   3.816   4.242   0.605
 5838SOL     OW18412   2.975   1.960   1.376
 5838SOL    HW118413   2.919   2.040   1.355
 5838SOL    HW218414   3.022   1.974   1.464
 5839SOL     OW18415   1.242   2.111   2.134
 5839SOL    HW118416   1.245   2.164   2.049
 5839SOL    HW218417   1.306   2.034   2.127
 5840SOL     OW18418   0.752   3.598   2.231
 5840SOL    HW118419   0.733   3.523   2.167
 5840SOL    HW218420   0.779   3.679   2.181
 5841SOL     OW18421   4.927   0.678   1.350
 5841SOL    HW118422   4.865   0.618   1.401
 5841SOL    HW218423   5.021   0.665   1.383
 5842SOL     OW18424   3.474   1.914   0.154
 5842SOL    HW118425   3.516   1.890   0.066
 5842SOL    HW218426   3.544   1.922   0.224
 5843SOL     OW18427   1.931   3.696   0.889
 5843SOL    HW118428   1.878   3.656   0.964
 5843SOL    HW218429   1.908   3.650   0.803
 5844SOL     OW18430   0.626   0.148   4.972
 5844SOL    HW118431   0.621   0.168   4.875
 5844SOL    HW218432   0.695   0.078   4.988
 5845SOL     OW18433   0.134   6.684   1.729
 5845SOL    HW118434   0.086   6.622   1.667
 5845SOL    HW218435   0.098   6.777   1.719
 5846SOL     OW18436   6.661   3.847   5.532
 5846SOL    HW118437   6.674   3.938   5.491
 5846SOL    HW218438   6.739   3.789   5.507
 5847SOL     OW18439   2.522   3.149   1.529
 5847SOL    HW118440   2.464   3.194   1.596
 5847SOL    HW218441   2.466   3.116   1.453
 5848SOL     OW18442   2.256   6.103   3.771
 5848SOL    HW118443   2.188   6.116   3.843
 5848SOL    HW218444   2.240   6.015   3.726
 5849SOL     OW18445   2.203   6.385   5.190
 5849SOL    HW118446   2.293   6.398   5.233
 5849SOL    HW218447   2.200   6.436   5.104
 5850SOL     OW18448   1.368   2.521   1.863
 5850SOL    HW118449   1.425   2.460   1.917
 5850SOL    HW218450   1.305   2.571   1.923
 5851SOL     OW18451   5.949   3.003   4.220
 5851SOL    HW118452   6.016   2.983   4.292
 5851SOL    HW218453   5.996   3.044   4.142
 5852SOL     OW18454   5.099   5.493   3.572
 5852SOL    HW118455   5.151   5.409   3.560
 5852SOL    HW218456   5.007   5.471   3.605
 5853SOL     OW18457   3.724   5.128   5.469
 5853SOL    HW118458   3.632   5.089   5.476
 5853SOL    HW218459   3.740   5.190   5.546
 5854SOL     OW18460   3.514   4.590   5.969
 5854SOL    HW118461   3.450   4.666   5.980
 5854SOL    HW218462   3.501   4.548   5.879
 5855SOL     OW18463   2.025   2.437   3.857
 5855SOL    HW118464   1.987   2.345   3.856
 5855SOL    HW218465   2.118   2.435   3.823
 5856SOL     OW18466   1.708   6.453   2.628
 5856SOL    HW118467   1.792   6.503   2.605
 5856SOL    HW218468   1.629   6.510   2.609
 5857SOL     OW18469   0.106   3.310   5.953
 5857SOL    HW118470   0.026   3.313   6.013
 5857SOL    HW218471   0.156   3.397   5.960
 5858SOL     OW18472   2.083   1.451   3.275
 5858SOL    HW118473   2.098   1.543   3.312
 5858SOL    HW218474   2.146   1.434   3.200
 5859SOL     OW18475   5.620   0.067   1.495
 5859SOL    HW118476   5.675   7.022   1.459
 5859SOL    HW218477   5.579   0.040   1.582
 5860SOL     OW18478   0.437   4.125   3.230
 5860SOL    HW118479   0.411   4.029   3.238
 5860SOL    HW218480   0.463   4.160   3.321
 5861SOL     OW18481   6.024   0.433   5.032
 5861SOL    HW118482   6.009   0.358   4.969
 5861SOL    HW218483   6.102   0.412   5.092
 5862SOL     OW18484   6.435   5.804   2.445
 5862SOL    HW118485   6.449   5.770   2.352
 5862SOL    HW218486   6.505   5.765   2.505
 5863SOL     OW18487   2.826   0.849   4.986
 5863SOL    HW118488   2.763   0.926   4.977
 5863SOL    HW218489   2.919   0.883   4.995
 5864SOL     OW18490   3.667   3.822   3.488
 5864SOL    HW118491   3.735   3.782   3.549
 5864SOL    HW218492   3.576   3.810   3.527
 5865SOL     OW18493   5.885   1.323   5.778
 5865SOL    HW118494   5.798   1.369   5.796
 5865SOL    HW218495   5.954   1.391   5.754
 5866SOL     OW18496   3.499   3.600   1.515
 5866SOL    HW118497   3.545   3.551   1.590
 5866SOL    HW218498   3.553   3.592   1.432
 5867SOL     OW18499   2.366   2.306   1.415
 5867SOL    HW118500   2.374   2.299   1.316
 5867SOL    HW218501   2.409   2.226   1.458
 5868SOL     OW18502   0.711   1.758   5.995
 5868SOL    HW118503   0.663   1.685   6.043
 5868SOL    HW218504   0.676   1.846   6.026
 5869SOL     OW18505   0.958   4.539   3.730
 5869SOL    HW118506   0.962   4.444   3.759
 5869SOL    HW218507   1.000   4.597   3.800
 5870SOL     OW18508   4.121   4.563   5.612
 5870SOL    HW118509   4.218   4.560   5.635
 5870SOL    HW218510   4.097   4.653   5.576
 5871SOL     OW18511   2.960   3.428   3.363
 5871SOL    HW118512   2.963   3.383   3.274
 5871SOL    HW218513   2.946   3.526   3.350
 5872SOL     OW18514   4.034   6.043   1.384
 5872SOL    HW118515   4.045   6.123   1.444
 5872SOL    HW218516   3.940   6.011   1.387
 5873SOL     OW18517   2.844   5.113   2.800
 5873SOL    HW118518   2.865   5.187   2.863
 5873SOL    HW218519   2.829   5.029   2.852
 5874SOL     OW18520   2.237   4.313   5.015
 5874SOL    HW118521   2.232   4.346   5.110
 5874SOL    HW218522   2.274   4.220   5.014
 5875SOL     OW18523   3.553   2.243   0.148
 5875SOL    HW118524   3.614   2.322   0.151
 5875SOL    HW218525   3.469   2.268   0.100
 5876SOL     OW18526   3.900   3.948   2.473
 5876SOL    HW118527   3.954   3.970   2.391
 5876SOL    HW218528   3.961   3.924   2.548
 5877SOL     OW18529   5.864   6.470   1.105
 5877SOL    HW118530   5.854   6.566   1.132
 5877SOL    HW218531   5.868   6.413   1.187
 5878SOL     OW18532   1.308   5.577   3.398
 5878SOL    HW118533   1.285   5.659   3.346
 5878SOL    HW218534   1.274   5.496   3.350
 5879SOL     OW18535   6.342   3.505   6.851
 5879SOL    HW118536   6.252   3.537   6.880
 5879SOL    HW218537   6.409   3.523   6.923
 5880SOL     OW18538   2.657   5.623   1.383
 5880SOL    HW118539   2.575   5.623   1.440
 5880SOL    HW218540   2.735   5.653   1.438
 5881SOL     OW18541   0.145   4.696   3.538
 5881SOL    HW118542   0.208   4.621   3.516
 5881SOL    HW218543   0.185   4.754   3.609
 5882SOL     OW18544   5.861   0.590   0.725
 5882SOL    HW118545   5.891   0.677   0.765
 5882SOL    HW218546   5.764   0.577   0.744
 5883SOL     OW18547   0.535   2.396   6.288
 5883SOL    HW118548   0.536   2.489   6.325
 5883SOL    HW218549   0.520   2.330   6.361
 5884SOL     OW18550   1.879   1.403   3.461
 5884SOL    HW118551   1.938   1.426   3.383
 5884SOL    HW218552   1.808   1.339   3.431
 5885SOL     OW18553   6.530   6.591   1.476
 5885SOL    HW118554   6.465   6.659   1.441
 5885SOL    HW218555   6.487   6.501   1.477
 5886SOL     OW18556   0.309   2.605   5.086
 5886SOL    HW118557   0.234   2.565   5.033
 5886SOL    HW218558   0.276   2.686   5.134
 5887SOL     OW18559   3.970   1.272   3.817
 5887SOL    HW118560   4.042   1.332   3.784
 5887SOL    HW218561   3.881   1.307   3.787
 5888SOL     OW18562   2.728   6.259   2.755
 5888SOL    HW118563   2.733   6.356   2.780
 5888SOL    HW218564   2.762   6.204   2.831
 5889SOL     OW18565   1.695   6.936   1.530
 5889SOL    HW118566   1.730   7.012   1.476
 5889SOL    HW218567   1.672   6.968   1.622
 5890SOL     OW18568   1.239   0.062   5.302
 5890SOL    HW118569   1.269   0.007   5.380
 5890SOL    HW218570   1.140   0.055   5.292
 5891SOL     OW18571   4.286   3.360   6.685
 5891SOL    HW118572   4.190   3.339   6.703
 5891SOL    HW218573   4.324   3.412   6.762
 5892SOL     OW18574   1.087   6.235   1.744
 5892SOL    HW118575   1.166   6.221   1.684
 5892SOL    HW218576   1.098   6.180   1.827
 5893SOL     OW18577   1.461   3.324   3.489
 5893SOL    HW118578   1.499   3.232   3.486
 5893SOL    HW218579   1.401   3.333   3.568
 5894SOL     OW18580   1.161   4.938   3.476
 5894SOL    HW118581   1.171   4.955   3.574
 5894SOL    HW218582   1.093   5.001   3.438
 5895SOL     OW18583   5.089   2.408   4.707
 5895SOL    HW118584   5.040   2.469   4.644
 5895SOL    HW218585   5.158   2.460   4.757
 5896SOL     OW18586   4.134   2.101   0.293
 5896SOL    HW118587   4.070   2.027   0.273
 5896SOL    HW218588   4.144   2.111   0.392
 5897SOL     OW18589   3.760   6.967   1.998
 5897SOL    HW118590   3.745   7.012   1.910
 5897SOL    HW218591   3.857   6.950   2.010
 5898SOL     OW18592   1.800   0.621   2.752
 5898SOL    HW118593   1.897   0.596   2.754
 5898SOL    HW218594   1.783   0.682   2.674
 5899SOL     OW18595   5.412   0.138   5.104
 5899SOL    HW118596   5.325   0.129   5.056
 5899SOL    HW218597   5.394   0.150   5.202
 5900SOL     OW18598   4.852   5.014   3.469
 5900SOL    HW118599   4.901   5.096   3.439
 5900SOL    HW218600   4.809   5.031   3.558
 5901SOL     OW18601   2.255   0.599   6.363
 5901SOL    HW118602   2.291   0.591   6.270
 5901SOL    HW218603   2.316   0.554   6.427
 5902SOL     OW18604   6.829   2.075   0.753
 5902SOL    HW118605   6.925   2.103   0.757
 5902SOL    HW218606   6.771   2.156   0.743
 5903SOL     OW18607   5.486   4.125   0.786
 5903SOL    HW118608   5.457   4.211   0.744
 5903SOL    HW218609   5.584   4.113   0.773
 5904SOL     OW18610   0.186   3.551   2.465
 5904SOL    HW118611   0.244   3.604   2.528
 5904SOL    HW218612   0.132   3.486   2.518
 5905SOL     OW18613   5.934   6.120   2.812
 5905SOL    HW118614   5.983   6.169   2.884
 5905SOL    HW218615   5.979   6.032   2.795
 5906SOL     OW18616   5.498   0.629   4.145
 5906SOL    HW118617   5.542   0.706   4.191
 5906SOL    HW218618   5.511   0.545   4.199
 5907SOL     OW18619   1.571   6.136   1.936
 5907SOL    HW118620   1.523   6.208   1.986
 5907SOL    HW218621   1.545   6.046   1.972
 5908SOL     OW18622   0.883   2.461   5.695
 5908SOL    HW118623   0.791   2.501   5.695
 5908SOL    HW218624   0.878   2.367   5.730
 5909SOL     OW18625   0.635   5.364   0.611
 5909SOL    HW118626   0.653   5.290   0.546
 5909SOL    HW218627   0.722   5.395   0.651
 5910SOL     OW18628   0.842   2.546   3.491
 5910SOL    HW118629   0.941   2.538   3.499
 5910SOL    HW218630   0.817   2.572   3.398
 5911SOL     OW18631   0.213   5.779   6.465
 5911SOL    HW118632   0.171   5.846   6.403
 5911SOL    HW218633   0.143   5.743   6.527
 5912SOL     OW18634   6.267   1.390   5.575
 5912SOL    HW118635   6.189   1.414   5.633
 5912SOL    HW218636   6.346   1.369   5.632
 5913SOL     OW18637   5.394   2.687   0.156
 5913SOL    HW118638   5.410   2.590   0.138
 5913SOL    HW218639   5.421   2.741   0.077
 5914SOL     OW18640   1.135   6.895   6.632
 5914SOL    HW118641   1.118   6.971   6.569
 5914SOL    HW218642   1.079   6.817   6.606
 5915SOL     OW18643   3.563   6.185   0.246
 5915SOL    HW118644   3.551   6.209   0.150
 5915SOL    HW218645   3.633   6.115   0.254
 5916SOL     OW18646   0.073   6.758   2.166
 5916SOL    HW118647   0.040   6.837   2.115
 5916SOL    HW218648   0.008   6.682   2.156
 5917SOL     OW18649   2.966   3.972   5.867
 5917SOL    HW118650   2.986   4.045   5.802
 5917SOL    HW218651   3.013   3.991   5.954
 5918SOL     OW18652   1.860   5.726   6.109
 5918SOL    HW118653   1.930   5.661   6.080
 5918SOL    HW218654   1.875   5.752   6.205
 5919SOL     OW18655   2.926   3.509   2.959
 5919SOL    HW118656   2.900   3.473   2.869
 5919SOL    HW218657   2.957   3.603   2.949
 5920SOL     OW18658   5.191   1.400   6.086
 5920SOL    HW118659   5.103   1.446   6.087
 5920SOL    HW218660   5.253   1.446   6.149
 5921SOL     OW18661   3.681   5.159   6.555
 5921SOL    HW118662   3.756   5.164   6.489
 5921SOL    HW218663   3.705   5.094   6.627
 5922SOL     OW18664   6.525   3.766   3.874
 5922SOL    HW118665   6.427   3.758   3.892
 5922SOL    HW218666   6.542   3.751   3.776
 5923SOL     OW18667   0.194   0.750   1.489
 5923SOL    HW118668   0.101   0.786   1.478
 5923SOL    HW218669   0.237   0.741   1.399
 5924SOL     OW18670   6.070   6.749   3.251
 5924SOL    HW118671   6.099   6.843   3.262
 5924SOL    HW218672   5.979   6.737   3.291
 5925SOL     OW18673   3.943   6.137   1.830
 5925SOL    HW118674   4.007   6.182   1.767
 5925SOL    HW218675   3.899   6.060   1.784
 5926SOL     OW18676   4.508   4.407   2.729
 5926SOL    HW118677   4.463   4.489   2.764
 5926SOL    HW218678   4.543   4.425   2.637
 5927SOL     OW18679   1.137   3.357   1.979
 5927SOL    HW118680   1.061   3.301   1.947
 5927SOL    HW218681   1.189   3.306   2.048
 5928SOL     OW18682   3.601   6.869   1.551
 5928SOL    HW118683   3.519   6.926   1.554
 5928SOL    HW218684   3.583   6.783   1.599
 5929SOL     OW18685   6.348   1.115   5.559
 5929SOL    HW118686   6.278   1.185   5.548
 5929SOL    HW218687   6.326   1.058   5.639
 5930SOL     OW18688   0.649   2.808   2.245
 5930SOL    HW118689   0.706   2.738   2.202
 5930SOL    HW218690   0.620   2.874   2.175
 5931SOL     OW18691   6.179   5.880   2.483
 5931SOL    HW118692   6.273   5.847   2.489
 5931SOL    HW218693   6.176   5.965   2.431
 5932SOL     OW18694   3.161   0.029   6.445
 5932SOL    HW118695   3.082   0.049   6.388
 5932SOL    HW218696   3.193   6.966   6.425
 5933SOL     OW18697   6.677   5.104   4.294
 5933SOL    HW118698   6.746   5.144   4.234
 5933SOL    HW218699   6.618   5.176   4.330
 5934SOL     OW18700   3.638   3.410   5.677
 5934SOL    HW118701   3.624   3.449   5.586
 5934SOL    HW218702   3.551   3.376   5.712
 5935SOL     OW18703   0.576   6.048   5.250
 5935SOL    HW118704   0.554   5.964   5.201
 5935SOL    HW218705   0.500   6.113   5.243
 5936SOL     OW18706   2.967   3.555   2.490
 5936SOL    HW118707   2.946   3.498   2.411
 5936SOL    HW218708   2.898   3.541   2.561
 5937SOL     OW18709   6.298   3.072   2.366
 5937SOL    HW118710   6.272   3.138   2.296
 5937SOL    HW218711   6.349   2.997   2.324
 5938SOL     OW18712   5.774   5.638   4.911
 5938SOL    HW118713   5.808   5.552   4.873
 5938SOL    HW218714   5.769   5.707   4.839
 5939SOL     OW18715   3.209   6.146   4.197
 5939SOL    HW118716   3.302   6.114   4.216
 5939SOL    HW218717   3.167   6.179   4.281
 5940SOL     OW18718   4.242   4.917   3.116
 5940SOL    HW118719   4.153   4.876   3.135
 5940SOL    HW218720   4.239   5.015   3.136
 5941SOL     OW18721   6.048   2.702   3.418
 5941SOL    HW118722   6.136   2.743   3.440
 5941SOL    HW218723   5.987   2.708   3.498
 5942SOL     OW18724   5.545   2.875   6.597
 5942SOL    HW118725   5.603   2.891   6.677
 5942SOL    HW218726   5.527   2.963   6.551
 5943SOL     OW18727   3.966   3.676   0.284
 5943SOL    HW118728   4.065   3.681   0.268
 5943SOL    HW218729   3.919   3.680   0.196
 5944SOL     OW18730   0.704   2.813   0.336
 5944SOL    HW118731   0.751   2.727   0.314
 5944SOL    HW218732   0.761   2.867   0.398
 5945SOL     OW18733   0.177   6.051   5.458
 5945SOL    HW118734   0.243   6.019   5.391
 5945SOL    HW218735   0.106   5.982   5.472
 5946SOL     OW18736   3.262   4.638   0.130
 5946SOL    HW118737   3.320   4.557   0.126
 5946SOL    HW218738   3.319   4.720   0.122
 5947SOL     OW18739   3.136   3.237   3.886
 5947SOL    HW118740   3.147   3.317   3.826
 5947SOL    HW218741   3.133   3.267   3.981
 5948SOL     OW18742   4.587   4.670   2.259
 5948SOL    HW118743   4.597   4.580   2.216
 5948SOL    HW218744   4.612   4.741   2.193
 5949SOL     OW18745   5.058   5.752   0.833
 5949SOL    HW118746   4.979   5.742   0.893
 5949SOL    HW218747   5.027   5.769   0.739
 5950SOL     OW18748   4.732   2.568   5.473
 5950SOL    HW118749   4.682   2.651   5.450
 5950SOL    HW218750   4.720   2.500   5.401
 5951SOL     OW18751   0.937   5.660   4.992
 5951SOL    HW118752   0.985   5.577   4.960
 5951SOL    HW218753   0.944   5.666   5.091
 5952SOL     OW18754   4.200   5.377   3.054
 5952SOL    HW118755   4.284   5.325   3.039
 5952SOL    HW218756   4.199   5.411   3.148
 5953SOL     OW18757   6.832   4.033   4.918
 5953SOL    HW118758   6.864   4.018   5.012
 5953SOL    HW218759   6.909   4.028   4.855
 5954SOL     OW18760   0.262   5.772   5.613
 5954SOL    HW118761   0.280   5.693   5.672
 5954SOL    HW218762   0.166   5.799   5.623
 5955SOL     OW18763   4.453   5.228   1.379
 5955SOL    HW118764   4.502   5.292   1.320
 5955SOL    HW218765   4.519   5.169   1.425
 5956SOL     OW18766   5.610   1.578   4.174
 5956SOL    HW118767   5.605   1.654   4.110
 5956SOL    HW218768   5.567   1.497   4.134
 5957SOL     OW18769   2.646   1.639   3.706
 5957SOL    HW118770   2.694   1.553   3.720
 5957SOL    HW218771   2.703   1.699   3.649
 5958SOL     OW18772   4.538   0.800   3.160
 5958SOL    HW118773   4.457   0.764   3.116
 5958SOL    HW218774   4.513   0.845   3.246
 5959SOL     OW18775   4.317   2.694   5.682
 5959SOL    HW118776   4.259   2.757   5.631
 5959SOL    HW218777   4.413   2.717   5.669
 5960SOL     OW18778   2.775   6.360   3.817
 5960SOL    HW118779   2.696   6.309   3.784
 5960SOL    HW218780   2.813   6.315   3.898
 5961SOL     OW18781   3.935   1.494   2.115
 5961SOL    HW118782   4.025   1.532   2.095
 5961SOL    HW218783   3.934   1.459   2.209
 5962SOL     OW18784   5.577   5.842   6.120
 5962SOL    HW118785   5.663   5.891   6.132
 5962SOL    HW218786   5.551   5.797   6.205
 5963SOL     OW18787   3.379   3.760   0.005
 5963SOL    HW118788   3.466   3.799   7.006
 5963SOL    HW218789   3.308   3.830   0.001
 5964SOL     OW18790   2.744   6.790   3.778
 5964SOL    HW118791   2.686   6.731   3.721
 5964SOL    HW218792   2.747   6.881   3.738
 5965SOL     OW18793   1.515   0.562   6.931
 5965SOL    HW118794   1.576   0.591   7.004
 5965SOL    HW218795   1.564   0.565   6.843
 5966SOL     OW18796   1.360   6.998   5.846
 5966SOL    HW118797   1.302   7.014   5.926
 5966SOL    HW218798   1.374   0.054   5.797
 5967SOL     OW18799   2.195   0.795   5.707
 5967SOL    HW118800   2.157   0.720   5.761
 5967SOL    HW218801   2.149   0.798   5.618
 5968SOL     OW18802   5.712   2.995   0.365
 5968SOL    HW118803   5.642   2.988   0.294
 5968SOL    HW218804   5.802   2.977   0.325
 5969SOL     OW18805   5.065   1.619   6.375
 5969SOL    HW118806   4.993   1.583   6.316
 5969SOL    HW218807   5.030   1.695   6.430
 5970SOL     OW18808   0.515   4.401   0.625
 5970SOL    HW118809   0.529   4.479   0.686
 5970SOL    HW218810   0.530   4.430   0.530
 5971SOL     OW18811   6.218   0.086   1.456
 5971SOL    HW118812   6.219   0.025   1.377
 5971SOL    HW218813   6.243   0.035   1.538
 5972SOL     OW18814   5.309   5.741   6.424
 5972SOL    HW118815   5.395   5.724   6.376
 5972SOL    HW218816   5.302   5.679   6.502
 5973SOL     OW18817   1.575   3.160   3.013
 5973SOL    HW118818   1.525   3.178   3.098
 5973SOL    HW218819   1.670   3.137   3.035
 5974SOL     OW18820   4.995   0.426   0.347
 5974SOL    HW118821   5.081   0.386   0.380
 5974SOL    HW218822   4.981   0.516   0.389
 5975SOL     OW18823   4.391   6.119   1.022
 5975SOL    HW118824   4.355   6.026   1.023
 5975SOL    HW218825   4.318   6.182   0.995
 5976SOL     OW18826   3.558   3.045   5.588
 5976SOL    HW118827   3.616   3.105   5.533
 5976SOL    HW218828   3.576   2.950   5.566
 5977SOL     OW18829   0.683   5.957   0.540
 5977SOL    HW118830   0.704   6.054   0.527
 5977SOL    HW218831   0.748   5.918   0.605
 5978SOL     OW18832   3.722   5.608   1.253
 5978SOL    HW118833   3.797   5.566   1.304
 5978SOL    HW218834   3.637   5.601   1.306
 5979SOL     OW18835   6.681   0.869   1.848
 5979SOL    HW118836   6.581   0.864   1.847
 5979SOL    HW218837   6.710   0.956   1.888
 5980SOL     OW18838   3.467   2.822   2.180
 5980SOL    HW118839   3.502   2.866   2.097
 5980SOL    HW218840   3.470   2.887   2.256
 5981SOL     OW18841   4.792   1.534   0.400
 5981SOL    HW118842   4.711   1.554   0.344
 5981SOL    HW218843   4.827   1.619   0.439
 5982SOL     OW18844   6.158   2.291   2.592
 5982SOL    HW118845   6.158   2.209   2.535
 5982SOL    HW218846   6.082   2.286   2.657
 5983SOL     OW18847   1.441   0.642   4.224
 5983SOL    HW118848   1.402   0.732   4.241
 5983SOL    HW218849   1.427   0.616   4.129
 5984SOL     OW18850   5.692   6.460   3.601
 5984SOL    HW118851   5.654   6.383   3.652
 5984SOL    HW218852   5.782   6.436   3.565
 5985SOL     OW18853   6.409   2.600   3.501
 5985SOL    HW118854   6.338   2.653   3.548
 5985SOL    HW218855   6.459   2.660   3.438
 5986SOL     OW18856   3.979   4.345   6.122
 5986SOL    HW118857   3.908   4.380   6.061
 5986SOL    HW218858   4.066   4.390   6.102
 5987SOL     OW18859   5.350   0.764   4.524
 5987SOL    HW118860   5.419   0.825   4.484
 5987SOL    HW218861   5.269   0.763   4.466
 5988SOL     OW18862   3.787   1.084   6.614
 5988SOL    HW118863   3.800   1.156   6.682
 5988SOL    HW218864   3.710   1.025   6.642
 5989SOL     OW18865   1.586   5.664   5.599
 5989SOL    HW118866   1.556   5.586   5.655
 5989SOL    HW218867   1.682   5.654   5.576
 5990SOL     OW18868   3.961   3.906   0.777
 5990SOL    HW118869   3.950   3.996   0.818
 5990SOL    HW218870   3.882   3.849   0.800
 5991SOL     OW18871   4.526   5.941   0.134
 5991SOL    HW118872   4.573   5.854   0.149
 5991SOL    HW218873   4.568   5.990   0.058
 5992SOL     OW18874   3.424   6.726   2.046
 5992SOL    HW118875   3.394   6.642   2.000
 5992SOL    HW218876   3.510   6.709   2.094
 5993SOL     OW18877   5.572   4.604   5.855
 5993SOL    HW118878   5.665   4.579   5.881
 5993SOL    HW218879   5.538   4.675   5.916
 5994SOL     OW18880   6.765   2.785   1.206
 5994SOL    HW118881   6.757   2.771   1.304
 5994SOL    HW218882   6.775   2.882   1.186
 5995SOL     OW18883   4.626   2.779   1.846
 5995SOL    HW118884   4.667   2.738   1.928
 5995SOL    HW218885   4.637   2.878   1.850
 5996SOL     OW18886   1.733   5.547   1.809
 5996SOL    HW118887   1.712   5.449   1.806
 5996SOL    HW218888   1.718   5.586   1.718
 5997SOL     OW18889   0.725   6.727   3.391
 5997SOL    HW118890   0.725   6.815   3.438
 5997SOL    HW218891   0.657   6.728   3.318
 5998SOL     OW18892   5.823   0.894   1.585
 5998SOL    HW118893   5.732   0.854   1.572
 5998SOL    HW218894   5.891   0.836   1.541
 5999SOL     OW18895   2.838   3.415   0.991
 5999SOL    HW118896   2.935   3.391   0.984
 5999SOL    HW218897   2.830   3.514   1.007
 6000SOL     OW18898   0.699   6.303   0.394
 6000SOL    HW118899   0.676   6.350   0.479
 6000SOL    HW218900   0.789   6.335   0.362
 6001SOL     OW18901   5.467   5.235   0.099
 6001SOL    HW118902   5.428   5.314   0.053
 6001SOL    HW218903   5.476   5.254   0.197
 6002SOL     OW18904   6.870   6.889   5.648
 6002SOL    HW118905   6.846   6.936   5.563
 6002SOL    HW218906   6.908   6.956   5.712
 6003SOL     OW18907   5.903   2.625   4.308
 6003SOL    HW118908   5.935   2.693   4.374
 6003SOL    HW218909   5.811   2.594   4.334
 6004SOL     OW18910   6.370   2.381   3.684
 6004SOL    HW118911   6.413   2.447   3.623
 6004SOL    HW218912   6.278   2.359   3.651
 6005SOL     OW18913   5.523   4.964   5.303
 6005SOL    HW118914   5.529   4.875   5.258
 6005SOL    HW218915   5.494   4.952   5.398
 6006SOL     OW18916   3.106   0.162   5.305
 6006SOL    HW118917   3.073   0.132   5.216
 6006SOL    HW218918   3.029   0.171   5.369
 6007SOL     OW18919   0.090   3.082   6.355
 6007SOL    HW118920   0.112   2.996   6.400
 6007SOL    HW218921   0.174   3.125   6.322
 6008SOL     OW18922   2.146   4.923   5.257
 6008SOL    HW118923   2.124   4.827   5.276
 6008SOL    HW218924   2.214   4.955   5.323
 6009SOL     OW18925   4.221   5.698   3.481
 6009SOL    HW118926   4.144   5.761   3.469
 6009SOL    HW218927   4.273   5.723   3.562
 6010SOL     OW18928   0.464   4.526   3.572
 6010SOL    HW118929   0.518   4.552   3.652
 6010SOL    HW218930   0.524   4.485   3.504
 6011SOL     OW18931   4.725   2.812   2.546
 6011SOL    HW118932   4.689   2.828   2.638
 6011SOL    HW218933   4.767   2.896   2.511
 6012SOL     OW18934   6.262   0.591   0.141
 6012SOL    HW118935   6.350   0.576   0.096
 6012SOL    HW218936   6.195   0.525   0.108
 6013SOL     OW18937   4.435   1.099   2.486
 6013SOL    HW118938   4.513   1.039   2.504
 6013SOL    HW218939   4.468   1.188   2.454
 6014SOL     OW18940   3.495   3.974   4.121
 6014SOL    HW118941   3.410   3.965   4.069
 6014SOL    HW218942   3.475   4.012   4.211
 6015SOL     OW18943   6.323   3.717   4.284
 6015SOL    HW118944   6.312   3.617   4.292
 6015SOL    HW218945   6.386   3.749   4.354
 6016SOL     OW18946   5.222   1.952   5.604
 6016SOL    HW118947   5.209   1.883   5.532
 6016SOL    HW218948   5.288   1.919   5.670
 6017SOL     OW18949   6.965   4.694   5.126
 6017SOL    HW118950   6.870   4.705   5.097
 6017SOL    HW218951   6.968   4.636   5.207
 6018SOL     OW18952   2.918   1.485   4.927
 6018SOL    HW118953   2.851   1.527   4.987
 6018SOL    HW218954   2.972   1.417   4.978
 6019SOL     OW18955   0.558   3.298   5.516
 6019SOL    HW118956   0.463   3.330   5.505
 6019SOL    HW218957   0.619   3.377   5.508
 6020SOL     OW18958   0.875   5.400   0.733
 6020SOL    HW118959   0.950   5.435   0.789
 6020SOL    HW218960   0.890   5.303   0.714
 6021SOL     OW18961   5.078   0.262   2.995
 6021SOL    HW118962   5.078   0.250   2.896
 6021SOL    HW218963   5.010   0.330   3.020
 6022SOL     OW18964   6.785   1.585   3.146
 6022SOL    HW118965   6.846   1.661   3.169
 6022SOL    HW218966   6.711   1.579   3.213
 6023SOL     OW18967   5.497   0.269   1.365
 6023SOL    HW118968   5.565   0.334   1.331
 6023SOL    HW218969   5.542   0.199   1.421
 6024SOL     OW18970   0.632   4.809   0.553
 6024SOL    HW118971   0.583   4.744   0.494
 6024SOL    HW218972   0.584   4.897   0.553
 6025SOL     OW18973   3.324   1.303   3.789
 6025SOL    HW118974   3.392   1.259   3.847
 6025SOL    HW218975   3.356   1.394   3.763
 6026SOL     OW18976   0.084   5.630   4.646
 6026SOL    HW118977   0.113   5.599   4.737
 6026SOL    HW218978   0.152   5.601   4.578
 6027SOL     OW18979   7.006   3.342   6.173
 6027SOL    HW118980   6.961   3.278   6.235
 6027SOL    HW218981   0.060   3.376   6.216
 6028SOL     OW18982   5.225   4.796   0.936
 6028SOL    HW118983   5.248   4.892   0.948
 6028SOL    HW218984   5.157   4.770   1.004
 6029SOL     OW18985   2.615   0.082   3.576
 6029SOL    HW118986   2.586   7.017   3.580
 6029SOL    HW218987   2.612   0.121   3.668
 6030SOL     OW18988   5.220   3.685   4.886
 6030SOL    HW118989   5.193   3.589   4.899
 6030SOL    HW218990   5.317   3.690   4.863
 6031SOL     OW18991   1.506   6.024   4.160
 6031SOL    HW118992   1.465   6.108   4.197
 6031SOL    HW218993   1.524   5.961   4.236
 6032SOL     OW18994   2.558   5.100   2.985
 6032SOL    HW118995   2.554   5.002   2.962
 6032SOL    HW218996   2.562   5.153   2.900
 6033SOL     OW18997   2.423   2.666   2.709
 6033SOL    HW118998   2.398   2.700   2.799
 6033SOL    HW218999   2.508   2.614   2.714
 6034SOL     OW19000   0.774   0.313   6.161
 6034SOL    HW119001   0.698   0.364   6.202
 6034SOL    HW219002   0.810   0.247   6.227
 6035SOL     OW19003   1.465   0.129   2.633
 6035SOL    HW119004   1.419   0.170   2.712
 6035SOL    HW219005   1.442   0.180   2.551
 6036SOL     OW19006   5.905   4.867   1.564
 6036SOL    HW119007   5.881   4.933   1.493
 6036SOL    HW219008   5.842   4.789   1.559
 6037SOL     OW19009   3.695   0.540   0.455
 6037SOL    HW119010   3.777   0.579   0.498
 6037SOL    HW219011   3.636   0.501   0.526
 6038SOL     OW19012   1.036   2.595   6.780
 6038SOL    HW119013   1.092   2.645   6.847
 6038SOL    HW219014   0.943   2.586   6.814
 6039SOL     OW19015   3.944   3.950   3.590
 6039SOL    HW119016   3.881   4.013   3.545
 6039SOL    HW219017   3.904   3.918   3.676
 6040SOL     OW19018   2.163   1.101   0.008
 6040SOL    HW119019   2.155   1.165   0.084
 6040SOL    HW219020   2.253   1.111   6.996
 6041SOL     OW19021   3.515   2.305   5.337
 6041SOL    HW119022   3.511   2.214   5.296
 6041SOL    HW219023   3.436   2.359   5.306
 6042SOL     OW19024   3.884   6.459   2.941
 6042SOL    HW119025   3.836   6.381   2.981
 6042SOL    HW219026   3.901   6.527   3.012
 6043SOL     OW19027   1.359   0.487   4.018
 6043SOL    HW119028   1.365   0.389   4.037
 6043SOL    HW219029   1.291   0.529   4.078
 6044SOL     OW19030   2.529   1.875   2.241
 6044SOL    HW119031   2.438   1.915   2.245
 6044SOL    HW219032   2.596   1.945   2.218
 6045SOL     OW19033   5.277   2.934   3.693
 6045SOL    HW119034   5.223   2.852   3.675
 6045SOL    HW219035   5.345   2.915   3.763
 6046SOL     OW19036   3.200   3.130   0.597
 6046SOL    HW119037   3.154   3.128   0.508
 6046SOL    HW219038   3.136   3.162   0.667
 6047SOL     OW19039   5.364   2.339   1.287
 6047SOL    HW119040   5.440   2.356   1.224
 6047SOL    HW219041   5.397   2.286   1.365
 6048SOL     OW19042   4.858   5.702   5.268
 6048SOL    HW119043   4.888   5.769   5.200
 6048SOL    HW219044   4.934   5.680   5.329
 6049SOL     OW19045   5.325   4.847   6.273
 6049SOL    HW119046   5.284   4.822   6.361
 6049SOL    HW219047   5.270   4.918   6.230
 6050SOL     OW19048   2.446   5.471   1.000
 6050SOL    HW119049   2.513   5.474   0.926
 6050SOL    HW219050   2.391   5.388   0.991
 6051SOL     OW19051   2.219   6.734   2.873
 6051SOL    HW119052   2.204   6.801   2.945
 6051SOL    HW219053   2.175   6.765   2.789
 6052SOL     OW19054   5.434   0.963   1.671
 6052SOL    HW119055   5.385   0.988   1.754
 6052SOL    HW219056   5.456   1.045   1.619
 6053SOL     OW19057   4.369   0.689   6.231
 6053SOL    HW119058   4.311   0.616   6.266
 6053SOL    HW219059   4.327   0.777   6.251
 6054SOL     OW19060   3.237   4.595   0.706
 6054SOL    HW119061   3.268   4.589   0.611
 6054SOL    HW219062   3.141   4.624   0.707
 6055SOL     OW19063   3.326   5.681   5.935
 6055SOL    HW119064   3.340   5.639   6.025
 6055SOL    HW219065   3.405   5.662   5.877
 6056SOL     OW19066   5.144   3.457   4.970
 6056SOL    HW119067   5.061   3.432   5.019
 6056SOL    HW219068   5.177   3.377   4.919
 6057SOL     OW19069   5.871   0.486   2.169
 6057SOL    HW119070   5.855   0.579   2.201
 6057SOL    HW219071   5.926   0.489   2.085
 6058SOL     OW19072   5.486   3.709   0.425
 6058SOL    HW119073   5.579   3.674   0.416
 6058SOL    HW219074   5.423   3.633   0.440
 6059SOL     OW19075   5.193   4.472   5.268
 6059SOL    HW119076   5.187   4.372   5.259
 6059SOL    HW219077   5.277   4.496   5.317
 6060SOL     OW19078   2.555   3.301   6.969
 6060SOL    HW119079   2.594   3.224   6.918
 6060SOL    HW219080   2.592   3.387   6.933
 6061SOL     OW19081   4.732   4.752   0.767
 6061SOL    HW119082   4.794   4.717   0.698
 6061SOL    HW219083   4.638   4.748   0.733
 6062SOL     OW19084   2.335   1.430   6.825
 6062SOL    HW119085   2.244   1.389   6.819
 6062SOL    HW219086   2.341   1.486   6.908
 6063SOL     OW19087   3.529   4.129   5.844
 6063SOL    HW119088   3.469   4.204   5.872
 6063SOL    HW219089   3.587   4.159   5.769
 6064SOL     OW19090   0.955   0.470   1.352
 6064SOL    HW119091   0.953   0.519   1.264
 6064SOL    HW219092   0.928   0.533   1.425
 6065SOL     OW19093   0.348   5.621   2.083
 6065SOL    HW119094   0.358   5.664   1.994
 6065SOL    HW219095   0.332   5.691   2.153
 6066SOL     OW19096   5.772   0.677   4.811
 6066SOL    HW119097   5.739   0.771   4.800
 6066SOL    HW219098   5.870   0.679   4.832
 6067SOL     OW19099   4.942   1.249   5.326
 6067SOL    HW119100   4.930   1.200   5.413
 6067SOL    HW219101   4.883   1.209   5.257
 6068SOL     OW19102   5.095   2.454   3.854
 6068SOL    HW119103   5.082   2.512   3.774
 6068SOL    HW219104   5.098   2.358   3.826
 6069SOL     OW19105   6.732   3.889   5.835
 6069SOL    HW119106   6.817   3.940   5.849
 6069SOL    HW219107   6.721   3.871   5.737
 6070SOL     OW19108   3.659   2.837   1.297
 6070SOL    HW119109   3.591   2.775   1.338
 6070SOL    HW219110   3.618   2.927   1.284
 6071SOL     OW19111   0.701   5.789   4.481
 6071SOL    HW119112   0.639   5.758   4.553
 6071SOL    HW219113   0.649   5.801   4.396
 6072SOL     OW19114   0.611   0.810   2.033
 6072SOL    HW119115   0.529   0.856   2.067
 6072SOL    HW219116   0.692   0.862   2.060
 6073SOL     OW19117   5.199   2.997   0.999
 6073SOL    HW119118   5.236   3.046   0.920
 6073SOL    HW219119   5.273   2.947   1.044
 6074SOL     OW19120   1.812   6.560   2.019
 6074SOL    HW119121   1.877   6.515   1.958
 6074SOL    HW219122   1.719   6.542   1.986
 6075SOL     OW19123   4.494   0.228   5.236
 6075SOL    HW119124   4.424   0.255   5.302
 6075SOL    HW219125   4.456   0.160   5.173
 6076SOL     OW19126   2.210   5.472   3.608
 6076SOL    HW119127   2.275   5.468   3.684
 6076SOL    HW219128   2.246   5.422   3.530
 6077SOL     OW19129   6.061   6.273   0.914
 6077SOL    HW119130   5.973   6.253   0.872
 6077SOL    HW219131   6.086   6.368   0.894
 6078SOL     OW19132   4.293   4.850   0.441
 6078SOL    HW119133   4.290   4.866   0.342
 6078SOL    HW219134   4.200   4.843   0.476
 6079SOL     OW19135   4.959   4.758   6.393
 6079SOL    HW119136   4.967   4.678   6.332
 6079SOL    HW219137   4.898   4.736   6.469
 6080SOL     OW19138   0.165   5.148   1.491
 6080SOL    HW119139   0.155   5.155   1.590
 6080SOL    HW219140   0.213   5.063   1.468
 6081SOL     OW19141   6.894   2.992   5.176
 6081SOL    HW119142   6.812   3.037   5.140
 6081SOL    HW219143   6.874   2.953   5.266
 6082SOL     OW19144   3.707   6.877   2.592
 6082SOL    HW119145   3.739   6.962   2.550
 6082SOL    HW219146   3.785   6.818   2.612
 6083SOL     OW19147   5.605   5.466   0.763
 6083SOL    HW119148   5.564   5.452   0.673
 6083SOL    HW219149   5.673   5.539   0.758
 6084SOL     OW19150   1.006   6.300   2.294
 6084SOL    HW119151   0.912   6.329   2.276
 6084SOL    HW219152   1.044   6.258   2.211
 6085SOL     OW19153   6.833   5.898   6.425
 6085SOL    HW119154   6.829   5.837   6.503
 6085SOL    HW219155   6.741   5.930   6.401
 6086SOL     OW19156   2.790   1.999   5.983
 6086SOL    HW119157   2.817   1.994   5.887
 6086SOL    HW219158   2.847   1.937   6.037
 6087SOL     OW19159   3.790   5.949   0.987
 6087SOL    HW119160   3.831   5.970   0.898
 6087SOL    HW219161   3.827   6.012   1.055
 6088SOL     OW19162   5.121   6.713   4.816
 6088SOL    HW119163   5.163   6.750   4.733
 6088SOL    HW219164   5.066   6.633   4.792
 6089SOL     OW19165   6.407   2.382   3.333
 6089SOL    HW119166   6.387   2.450   3.404
 6089SOL    HW219167   6.376   2.417   3.244
 6090SOL     OW19168   2.579   4.898   4.670
 6090SOL    HW119169   2.534   4.948   4.745
 6090SOL    HW219170   2.623   4.816   4.706
 6091SOL     OW19171   2.857   1.632   0.558
 6091SOL    HW119172   2.912   1.550   0.578
 6091SOL    HW219173   2.783   1.640   0.625
 6092SOL     OW19174   4.149   1.153   1.834
 6092SOL    HW119175   4.063   1.173   1.882
 6092SOL    HW219176   4.211   1.231   1.843
 6093SOL     OW19177   2.460   2.203   1.870
 6093SOL    HW119178   2.484   2.124   1.926
 6093SOL    HW219179   2.535   2.270   1.875
 6094SOL     OW19180   1.640   6.194   3.405
 6094SOL    HW119181   1.664   6.178   3.500
 6094SOL    HW219182   1.681   6.280   3.374
 6095SOL     OW19183   4.656   4.642   6.399
 6095SOL    HW119184   4.686   4.667   6.491
 6095SOL    HW219185   4.687   4.712   6.334
 6096SOL     OW19186   5.661   0.363   2.019
 6096SOL    HW119187   5.710   0.369   1.932
 6096SOL    HW219188   5.707   0.418   2.088
 6097SOL     OW19189   1.619   5.014   2.290
 6097SOL    HW119190   1.625   5.082   2.217
 6097SOL    HW219191   1.681   4.938   2.271
 6098SOL     OW19192   6.599   1.369   6.158
 6098SOL    HW119193   6.582   1.308   6.236
 6098SOL    HW219194   6.604   1.463   6.190
 6099SOL     OW19195   4.682   5.687   5.511
 6099SOL    HW119196   4.588   5.718   5.505
 6099SOL    HW219197   4.729   5.704   5.425
 6100SOL     OW19198   0.639   6.190   2.138
 6100SOL    HW119199   0.657   6.211   2.042
 6100SOL    HW219200   0.564   6.124   2.143
 6101SOL     OW19201   6.767   2.810   2.915
 6101SOL    HW119202   6.770   2.711   2.910
 6101SOL    HW219203   6.832   2.850   2.850
 6102SOL     OW19204   4.173   5.878   2.912
 6102SOL    HW119205   4.155   5.897   3.008
 6102SOL    HW219206   4.208   5.784   2.902
 6103SOL     OW19207   0.309   0.677   1.266
 6103SOL    HW119208   0.281   0.712   1.177
 6103SOL    HW219209   0.408   0.663   1.267
 6104SOL     OW19210   6.460   6.900   5.188
 6104SOL    HW119211   6.411   6.817   5.213
 6104SOL    HW219212   6.488   6.894   5.092
 6105SOL     OW19213   1.545   5.487   5.832
 6105SOL    HW119214   1.529   5.389   5.844
 6105SOL    HW219215   1.642   5.503   5.814
 6106SOL     OW19216   1.229   4.879   0.166
 6106SOL    HW119217   1.328   4.868   0.181
 6106SOL    HW219218   1.214   4.947   0.094
 6107SOL     OW19219   4.678   5.502   4.749
 6107SOL    HW119220   4.683   5.558   4.832
 6107SOL    HW219221   4.649   5.559   4.673
 6108SOL     OW19222   2.236   2.465   3.225
 6108SOL    HW119223   2.170   2.466   3.150
 6108SOL    HW219224   2.267   2.371   3.240
 6109SOL     OW19225   5.539   0.642   5.015
 6109SOL    HW119226   5.629   0.686   5.006
 6109SOL    HW219227   5.474   0.688   4.955
 6110SOL     OW19228   2.403   2.750   0.525
 6110SOL    HW119229   2.367   2.765   0.617
 6110SOL    HW219230   2.363   2.815   0.461
 6111SOL     OW19231   1.245   3.328   2.401
 6111SOL    HW119232   1.266   3.409   2.454
 6111SOL    HW219233   1.203   3.259   2.460
 6112SOL     OW19234   4.710   0.414   2.512
 6112SOL    HW119235   4.616   0.379   2.513
 6112SOL    HW219236   4.721   0.476   2.433
 6113SOL     OW19237   2.621   2.813   6.609
 6113SOL    HW119238   2.595   2.844   6.701
 6113SOL    HW219239   2.547   2.760   6.569
 6114SOL     OW19240   4.997   3.415   2.521
 6114SOL    HW119241   5.005   3.406   2.422
 6114SOL    HW219242   4.916   3.470   2.543
 6115SOL     OW19243   6.651   1.091   4.924
 6115SOL    HW119244   6.641   1.161   4.853
 6115SOL    HW219245   6.696   1.010   4.885
 6116SOL     OW19246   4.191   1.794   5.552
 6116SOL    HW119247   4.143   1.882   5.543
 6116SOL    HW219248   4.276   1.808   5.603
 6117SOL     OW19249   1.838   2.217   3.181
 6117SOL    HW119250   1.760   2.250   3.128
 6117SOL    HW219251   1.886   2.147   3.129
 6118SOL     OW19252   6.367   1.491   1.462
 6118SOL    HW119253   6.352   1.495   1.363
 6118SOL    HW219254   6.290   1.444   1.505
 6119SOL     OW19255   1.697   3.445   0.454
 6119SOL    HW119256   1.682   3.504   0.534
 6119SOL    HW219257   1.620   3.453   0.391
 6120SOL     OW19258   1.903   6.460   5.624
 6120SOL    HW119259   1.974   6.446   5.693
 6120SOL    HW219260   1.833   6.521   5.661
 6121SOL     OW19261   1.204   3.952   5.745
 6121SOL    HW119262   1.119   3.947   5.798
 6121SOL    HW219263   1.197   3.889   5.667
 6122SOL     OW19264   4.628   5.327   6.718
 6122SOL    HW119265   4.704   5.323   6.783
 6122SOL    HW219266   4.606   5.422   6.699
 6123SOL     OW19267   4.755   6.875   5.519
 6123SOL    HW119268   4.762   6.814   5.598
 6123SOL    HW219269   4.828   6.944   5.524
 6124SOL     OW19270   0.482   6.541   5.925
 6124SOL    HW119271   0.417   6.467   5.911
 6124SOL    HW219272   0.574   6.504   5.938
 6125SOL     OW19273   2.293   3.955   6.835
 6125SOL    HW119274   2.219   4.021   6.825
 6125SOL    HW219275   2.327   3.956   6.929
 6126SOL     OW19276   0.471   1.644   4.966
 6126SOL    HW119277   0.525   1.639   5.050
 6126SOL    HW219278   0.510   1.713   4.905
 6127SOL     OW19279   4.035   6.892   1.986
 6127SOL    HW119280   4.090   6.940   2.054
 6127SOL    HW219281   4.093   6.863   1.910
 6128SOL     OW19282   5.350   5.233   0.610
 6128SOL    HW119283   5.258   5.195   0.610
 6128SOL    HW219284   5.390   5.224   0.701
 6129SOL     OW19285   1.002   3.275   3.883
 6129SOL    HW119286   1.088   3.228   3.865
 6129SOL    HW219287   1.000   3.307   3.978
 6130SOL     OW19288   5.734   2.508   3.157
 6130SOL    HW119289   5.815   2.465   3.196
 6130SOL    HW219290   5.761   2.587   3.102
 6131SOL     OW19291   1.247   1.556   3.244
 6131SOL    HW119292   1.275   1.645   3.280
 6131SOL    HW219293   1.163   1.527   3.289
 6132SOL     OW19294   3.910   1.732   6.724
 6132SOL    HW119295   4.001   1.720   6.686
 6132SOL    HW219296   3.906   1.819   6.773
 6133SOL     OW19297   2.090   3.309   3.142
 6133SOL    HW119298   2.012   3.364   3.170
 6133SOL    HW219299   2.138   3.276   3.224
 6134SOL     OW19300   4.309   6.801   0.114
 6134SOL    HW119301   4.361   6.716   0.124
 6134SOL    HW219302   4.275   6.830   0.203
 6135SOL     OW19303   0.231   5.593   0.967
 6135SOL    HW119304   0.260   5.610   1.062
 6135SOL    HW219305   0.150   5.646   0.947
 6136SOL     OW19306   1.467   2.766   1.803
 6136SOL    HW119307   1.470   2.666   1.805
 6136SOL    HW219308   1.383   2.798   1.846
 6137SOL     OW19309   0.637   3.900   2.124
 6137SOL    HW119310   0.641   3.997   2.149
 6137SOL    HW219311   0.691   3.885   2.041
 6138SOL     OW19312   4.035   6.950   3.422
 6138SOL    HW119313   4.058   0.017   3.417
 6138SOL    HW219314   3.936   6.939   3.415
 6139SOL     OW19315   0.683   6.533   5.430
 6139SOL    HW119316   0.649   6.514   5.523
 6139SOL    HW219317   0.641   6.616   5.395
 6140SOL     OW19318   0.693   0.611   2.375
 6140SOL    HW119319   0.779   0.653   2.347
 6140SOL    HW219320   0.638   0.590   2.294
 6141SOL     OW19321   0.226   6.999   6.270
 6141SOL    HW119322   0.270   0.032   6.207
 6141SOL    HW219323   0.143   6.962   6.228
 6142SOL     OW19324   0.665   6.213   6.422
 6142SOL    HW119325   0.588   6.219   6.358
 6142SOL    HW219326   0.632   6.229   6.515
 6143SOL     OW19327   0.379   4.260   1.043
 6143SOL    HW119328   0.445   4.328   1.072
 6143SOL    HW219329   0.292   4.305   1.020
 6144SOL     OW19330   5.129   4.912   3.404
 6144SOL    HW119331   5.202   4.960   3.355
 6144SOL    HW219332   5.040   4.954   3.382
 6145SOL     OW19333   5.461   4.744   3.957
 6145SOL    HW119334   5.414   4.814   3.903
 6145SOL    HW219335   5.450   4.765   4.054
 6146SOL     OW19336   3.568   6.136   3.236
 6146SOL    HW119337   3.638   6.161   3.302
 6146SOL    HW219338   3.482   6.181   3.260
 6147SOL     OW19339   2.134   2.297   4.947
 6147SOL    HW119340   2.157   2.394   4.952
 6147SOL    HW219341   2.110   2.263   5.038
 6148SOL     OW19342   3.983   5.868   5.803
 6148SOL    HW119343   3.944   5.813   5.729
 6148SOL    HW219344   3.989   5.814   5.886
 6149SOL     OW19345   2.382   6.929   1.736
 6149SOL    HW119346   2.354   6.939   1.831
 6149SOL    HW219347   2.454   6.996   1.715
 6150SOL     OW19348   6.004   3.843   6.957
 6150SOL    HW119349   5.943   3.917   6.986
 6150SOL    HW219350   6.084   3.882   6.912
 6151SOL     OW19351   5.482   5.149   5.001
 6151SOL    HW119352   5.441   5.114   4.917
 6151SOL    HW219353   5.452   5.093   5.079
 6152SOL     OW19354   0.675   4.988   4.753
 6152SOL    HW119355   0.593   4.931   4.752
 6152SOL    HW219356   0.704   5.007   4.659
 6153SOL     OW19357   5.285   5.054   0.961
 6153SOL    HW119358   5.305   5.093   1.051
 6153SOL    HW219359   5.333   5.107   0.891
 6154SOL     OW19360   5.594   3.116   2.837
 6154SOL    HW119361   5.568   3.206   2.803
 6154SOL    HW219362   5.660   3.127   2.912
 6155SOL     OW19363   2.829   1.075   2.948
 6155SOL    HW119364   2.866   1.142   2.883
 6155SOL    HW219365   2.878   0.989   2.939
 6156SOL     OW19366   4.274   5.080   1.231
 6156SOL    HW119367   4.273   5.109   1.136
 6156SOL    HW219368   4.343   5.132   1.282
 6157SOL     OW19369   0.609   2.009   3.055
 6157SOL    HW119370   0.624   2.098   3.098
 6157SOL    HW219371   0.696   1.961   3.044
 6158SOL     OW19372   3.736   2.260   0.369
 6158SOL    HW119373   3.766   2.278   0.463
 6158SOL    HW219374   3.796   2.309   0.305
 6159SOL     OW19375   4.700   2.521   0.641
 6159SOL    HW119376   4.665   2.473   0.560
 6159SOL    HW219377   4.714   2.456   0.715
 6160SOL     OW19378   6.399   6.691   6.519
 6160SOL    HW119379   6.418   6.789   6.509
 6160SOL    HW219380   6.347   6.676   6.603
 6161SOL     OW19381   5.323   0.966   0.208
 6161SOL    HW119382   5.390   0.983   0.136
 6161SOL    HW219383   5.370   0.960   0.296
 6162SOL     OW19384   6.116   6.169   3.772
 6162SOL    HW119385   6.089   6.264   3.755
 6162SOL    HW219386   6.213   6.157   3.753
 6163SOL     OW19387   5.511   5.415   2.214
 6163SOL    HW119388   5.598   5.409   2.262
 6163SOL    HW219389   5.466   5.326   2.215
 6164SOL     OW19390   3.599   4.202   4.924
 6164SOL    HW119391   3.674   4.174   4.983
 6164SOL    HW219392   3.551   4.279   4.966
 6165SOL     OW19393   3.768   1.862   5.894
 6165SOL    HW119394   3.847   1.824   5.941
 6165SOL    HW219395   3.751   1.810   5.810
 6166SOL     OW19396   5.856   1.759   0.382
 6166SOL    HW119397   5.923   1.690   0.354
 6166SOL    HW219398   5.839   1.751   0.480
 6167SOL     OW19399   0.518   4.715   3.146
 6167SOL    HW119400   0.611   4.752   3.146
 6167SOL    HW219401   0.454   4.785   3.179
 6168SOL     OW19402   0.506   2.946   3.640
 6168SOL    HW119403   0.512   2.959   3.738
 6168SOL    HW219404   0.409   2.939   3.613
 6169SOL     OW19405   1.278   1.422   6.888
 6169SOL    HW119406   1.366   1.440   6.845
 6169SOL    HW219407   1.258   1.493   6.955
 6170SOL     OW19408   3.359   4.583   5.437
 6170SOL    HW119409   3.447   4.541   5.462
 6170SOL    HW219410   3.376   4.664   5.381
 6171SOL     OW19411   1.490   3.303   1.374
 6171SOL    HW119412   1.493   3.386   1.431
 6171SOL    HW219413   1.538   3.229   1.421
 6172SOL     OW19414   1.098   0.785   2.823
 6172SOL    HW119415   1.027   0.840   2.779
 6172SOL    HW219416   1.135   0.720   2.757
 6173SOL     OW19417   6.929   4.871   2.419
 6173SOL    HW119418   6.850   4.914   2.375
 6173SOL    HW219419   6.988   4.831   2.349
 6174SOL     OW19420   6.157   5.146   3.029
 6174SOL    HW119421   6.159   5.168   2.932
 6174SOL    HW219422   6.062   5.134   3.059
 6175SOL     OW19423   5.029   0.175   3.745
 6175SOL    HW119424   5.105   0.216   3.696
 6175SOL    HW219425   5.041   0.076   3.749
 6176SOL     OW19426   6.877   3.144   0.469
 6176SOL    HW119427   6.826   3.207   0.412
 6176SOL    HW219428   6.826   3.127   0.554
 6177SOL     OW19429   6.082   1.491   0.865
 6177SOL    HW119430   6.076   1.486   0.765
 6177SOL    HW219431   5.998   1.453   0.905
 6178SOL     OW19432   4.760   5.508   2.274
 6178SOL    HW119433   4.703   5.567   2.331
 6178SOL    HW219434   4.832   5.466   2.330
 6179SOL     OW19435   6.860   4.596   4.552
 6179SOL    HW119436   6.803   4.610   4.471
 6179SOL    HW219437   6.956   4.605   4.527
 6180SOL     OW19438   3.524   6.390   6.500
 6180SOL    HW119439   3.572   6.457   6.557
 6180SOL    HW219440   3.456   6.342   6.556
 6181SOL     OW19441   4.613   6.472   1.159
 6181SOL    HW119442   4.682   6.530   1.203
 6181SOL    HW219443   4.522   6.498   1.193
 6182SOL     OW19444   5.623   3.727   5.390
 6182SOL    HW119445   5.692   3.680   5.446
 6182SOL    HW219446   5.666   3.800   5.338
 6183SOL     OW19447   2.893   0.070   2.825
 6183SOL    HW119448   2.863   0.160   2.792
 6183SOL    HW219449   2.969   0.038   2.768
 6184SOL     OW19450   2.286   6.690   6.085
 6184SOL    HW119451   2.224   6.681   6.007
 6184SOL    HW219452   2.283   6.606   6.140
 6185SOL     OW19453   0.920   4.981   6.451
 6185SOL    HW119454   1.006   4.931   6.464
 6185SOL    HW219455   0.889   5.017   6.539
 6186SOL     OW19456   5.941   0.015   4.617
 6186SOL    HW119457   5.879   0.080   4.661
 6186SOL    HW219458   5.915   0.004   4.521
 6187SOL     OW19459   4.561   4.490   4.458
 6187SOL    HW119460   4.504   4.537   4.525
 6187SOL    HW219461   4.619   4.556   4.411
 6188SOL     OW19462   2.281   6.641   1.142
 6188SOL    HW119463   2.181   6.647   1.136
 6188SOL    HW219464   2.309   6.665   1.235
 6189SOL     OW19465   4.422   4.567   4.020
 6189SOL    HW119466   4.478   4.648   4.007
 6189SOL    HW219467   4.374   4.572   4.108
 6190SOL     OW19468   6.305   3.438   6.471
 6190SOL    HW119469   6.239   3.484   6.410
 6190SOL    HW219470   6.385   3.497   6.483
 6191SOL     OW19471   4.499   2.767   0.193
 6191SOL    HW119472   4.402   2.787   0.202
 6191SOL    HW219473   4.548   2.849   0.163
 6192SOL     OW19474   3.294   3.517   0.258
 6192SOL    HW119475   3.225   3.588   0.243
 6192SOL    HW219476   3.271   3.436   0.203
 6193SOL     OW19477   5.324   1.025   3.024
 6193SOL    HW119478   5.319   1.024   2.924
 6193SOL    HW219479   5.249   0.969   3.061
 6194SOL     OW19480   1.423   6.742   7.015
 6194SOL    HW119481   1.451   6.831   0.020
 6194SOL    HW219482   1.380   6.753   6.925
 6195SOL     OW19483   3.748   5.756   5.592
 6195SOL    HW119484   3.745   5.759   5.492
 6195SOL    HW219485   3.736   5.849   5.629
 6196SOL     OW19486   5.729   2.366   1.305
 6196SOL    HW119487   5.758   2.278   1.343
 6196SOL    HW219488   5.657   2.352   1.238
 6197SOL     OW19489   4.112   3.998   0.288
 6197SOL    HW119490   4.146   3.985   0.195
 6197SOL    HW219491   4.190   4.003   0.351
 6198SOL     OW19492   3.122   5.159   2.416
 6198SOL    HW119493   3.192   5.166   2.487
 6198SOL    HW219494   3.152   5.097   2.344
 6199SOL     OW19495   0.715   6.999   0.969
 6199SOL    HW119496   0.734   0.056   0.923
 6199SOL    HW219497   0.798   6.943   0.970
 6200SOL     OW19498   2.092   0.695   5.468
 6200SOL    HW119499   2.015   0.716   5.408
 6200SOL    HW219500   2.159   0.639   5.418
 6201SOL     OW19501   1.533   3.884   5.368
 6201SOL    HW119502   1.599   3.822   5.412
 6201SOL    HW219503   1.515   3.854   5.275
 6202SOL     OW19504   4.196   1.959   1.374
 6202SOL    HW119505   4.120   1.899   1.397
 6202SOL    HW219506   4.166   2.055   1.379
 6203SOL     OW19507   5.811   6.759   3.331
 6203SOL    HW119508   5.773   6.758   3.423
 6203SOL    HW219509   5.741   6.730   3.266
 6204SOL     OW19510   0.602   5.006   5.166
 6204SOL    HW119511   0.666   5.063   5.114
 6204SOL    HW219512   0.571   5.055   5.247
 6205SOL     OW19513   5.523   6.429   0.175
 6205SOL    HW119514   5.513   6.445   0.274
 6205SOL    HW219515   5.620   6.439   0.150
 6206SOL     OW19516   6.113   0.473   2.589
 6206SOL    HW119517   6.080   0.380   2.610
 6206SOL    HW219518   6.132   0.521   2.675
 6207SOL     OW19519   1.604   4.131   4.228
 6207SOL    HW119520   1.634   4.095   4.139
 6207SOL    HW219521   1.564   4.056   4.282
 6208SOL     OW19522   6.349   1.458   6.459
 6208SOL    HW119523   6.250   1.465   6.471
 6208SOL    HW219524   6.385   1.545   6.426
 6209SOL     OW19525   4.545   5.595   0.038
 6209SOL    HW119526   4.475   5.606   6.997
 6209SOL    HW219527   4.635   5.587   7.026
 6210SOL     OW19528   6.104   5.056   3.766
 6210SOL    HW119529   6.109   5.022   3.860
 6210SOL    HW219530   6.101   5.156   3.767
 6211SOL     OW19531   3.154   6.703   4.472
 6211SOL    HW119532   3.057   6.729   4.464
 6211SOL    HW219533   3.206   6.780   4.509
 6212SOL     OW19534   2.345   5.178   3.128
 6212SOL    HW119535   2.277   5.113   3.094
 6212SOL    HW219536   2.432   5.161   3.082
 6213SOL     OW19537   4.889   0.220   6.953
 6213SOL    HW119538   4.935   0.304   6.924
 6213SOL    HW219539   4.909   0.203   0.020
 6214SOL     OW19540   4.640   4.586   3.286
 6214SOL    HW119541   4.603   4.643   3.360
 6214SOL    HW219542   4.573   4.580   3.212
 6215SOL     OW19543   3.910   1.945   6.983
 6215SOL    HW119544   3.906   2.041   7.008
 6215SOL    HW219545   3.989   1.929   6.924
 6216SOL     OW19546   6.417   2.327   2.108
 6216SOL    HW119547   6.500   2.342   2.164
 6216SOL    HW219548   6.369   2.414   2.097
 6217SOL     OW19549   0.163   2.802   2.884
 6217SOL    HW119550   0.151   2.709   2.919
 6217SOL    HW219551   0.076   2.835   2.848
 6218SOL     OW19552   3.065   5.087   5.004
 6218SOL    HW119553   3.011   5.021   4.951
 6218SOL    HW219554   3.141   5.120   4.948
 6219SOL     OW19555   1.257   2.152   4.458
 6219SOL    HW119556   1.267   2.243   4.500
 6219SOL    HW219557   1.247   2.084   4.530
 6220SOL     OW19558   1.481   3.342   5.373
 6220SOL    HW119559   1.499   3.349   5.275
 6220SOL    HW219560   1.555   3.293   5.418
 6221SOL     OW19561   6.465   5.950   6.705
 6221SOL    HW119562   6.478   5.852   6.717
 6221SOL    HW219563   6.401   5.966   6.630
 6222SOL     OW19564   0.865   6.698   1.068
 6222SOL    HW119565   0.903   6.664   1.153
 6222SOL    HW219566   0.923   6.772   1.033
 6223SOL     OW19567   0.191   4.150   5.036
 6223SOL    HW119568   0.111   4.201   5.066
 6223SOL    HW219569   0.227   4.190   4.951
 6224SOL     OW19570   2.598   1.987   6.285
 6224SOL    HW119571   2.578   1.919   6.214
 6224SOL    HW219572   2.569   1.951   6.374
 6225SOL     OW19573   3.113   2.926   1.244
 6225SOL    HW119574   3.022   2.888   1.229
 6225SOL    HW219575   3.181   2.874   1.192
 6226SOL     OW19576   5.491   1.887   5.078
 6226SOL    HW119577   5.505   1.947   5.157
 6226SOL    HW219578   5.402   1.907   5.037
 6227SOL     OW19579   3.478   5.647   5.677
 6227SOL    HW119580   3.443   5.556   5.696
 6227SOL    HW219581   3.546   5.642   5.604
 6228SOL     OW19582   0.376   2.739   2.648
 6228SOL    HW119583   0.341   2.784   2.730
 6228SOL    HW219584   0.467   2.702   2.666
 6229SOL     OW19585   0.792   2.857   2.458
 6229SOL    HW119586   0.733   2.920   2.508
 6229SOL    HW219587   0.750   2.834   2.370
 6230SOL     OW19588   1.428   1.228   4.195
 6230SOL    HW119589   1.334   1.227   4.162
 6230SOL    HW219590   1.488   1.266   4.125
 6231SOL     OW19591   6.844   4.935   1.530
 6231SOL    HW119592   6.866   4.882   1.611
 6231SOL    HW219593   6.891   4.896   1.450
 6232SOL     OW19594   6.065   1.914   0.777
 6232SOL    HW119595   6.038   1.972   0.853
 6232SOL    HW219596   6.073   1.969   0.694
 6233SOL     OW19597   5.888   0.839   0.103
 6233SOL    HW119598   5.928   0.819   0.014
 6233SOL    HW219599   5.880   0.938   0.115
 6234SOL     OW19600   6.454   1.330   5.781
 6234SOL    HW119601   6.466   1.241   5.825
 6234SOL    HW219602   6.431   1.399   5.850
 6235SOL     OW19603   1.481   0.405   1.873
 6235SOL    HW119604   1.407   0.431   1.810
 6235SOL    HW219605   1.443   0.351   1.948
 6236SOL     OW19606   0.707   4.065   0.320
 6236SOL    HW119607   0.764   4.077   0.401
 6236SOL    HW219608   0.723   4.141   0.257
 6237SOL     OW19609   3.529   6.047   6.549
 6237SOL    HW119610   3.600   6.111   6.579
 6237SOL    HW219611   3.539   5.961   6.597
 6238SOL     OW19612   3.822   4.892   3.398
 6238SOL    HW119613   3.875   4.826   3.452
 6238SOL    HW219614   3.737   4.913   3.444
 6239SOL     OW19615   3.165   6.081   1.979
 6239SOL    HW119616   3.133   6.131   2.060
 6239SOL    HW219617   3.163   6.142   1.900
 6240SOL     OW19618   2.972   3.037   6.804
 6240SOL    HW119619   2.946   2.984   6.724
 6240SOL    HW219620   3.009   2.976   6.874
 6241SOL     OW19621   2.949   0.066   1.494
 6241SOL    HW119622   2.918   0.150   1.539
 6241SOL    HW219623   3.029   0.085   1.437
 6242SOL     OW19624   5.533   0.583   3.778
 6242SOL    HW119625   5.496   0.653   3.838
 6242SOL    HW219626   5.500   0.493   3.807
 6243SOL     OW19627   5.934   6.653   3.679
 6243SOL    HW119628   5.845   6.672   3.720
 6243SOL    HW219629   5.969   6.737   3.637
 6244SOL     OW19630   1.343   2.347   2.336
 6244SOL    HW119631   1.434   2.311   2.313
 6244SOL    HW219632   1.282   2.271   2.360
 6245SOL     OW19633   1.742   4.471   0.490
 6245SOL    HW119634   1.741   4.452   0.392
 6245SOL    HW219635   1.836   4.472   0.523
 6246SOL     OW19636   1.951   3.216   5.789
 6246SOL    HW119637   2.013   3.157   5.840
 6246SOL    HW219638   2.003   3.272   5.725
 6247SOL     OW19639   1.436   6.705   3.565
 6247SOL    HW119640   1.342   6.737   3.555
 6247SOL    HW219641   1.499   6.774   3.529
 6248SOL     OW19642   2.768   4.158   0.508
 6248SOL    HW119643   2.717   4.237   0.543
 6248SOL    HW219644   2.860   4.159   0.547
 6249SOL     OW19645   0.728   3.943   0.069
 6249SOL    HW119646   0.818   3.955   0.028
 6249SOL    HW219647   0.722   3.995   0.154
 6250SOL     OW19648   0.176   6.069   0.422
 6250SOL    HW119649   0.108   6.077   0.495
 6250SOL    HW219650   0.225   5.982   0.432
 6251SOL     OW19651   3.479   5.712   6.916
 6251SOL    HW119652   3.397   5.656   6.919
 6251SOL    HW219653   3.533   5.695   6.999
 6252SOL     OW19654   1.511   6.877   6.064
 6252SOL    HW119655   1.457   6.934   6.002
 6252SOL    HW219656   1.460   6.794   6.085
 6253SOL     OW19657   2.175   3.826   2.623
 6253SOL    HW119658   2.132   3.754   2.568
 6253SOL    HW219659   2.183   3.909   2.569
 6254SOL     OW19660   4.813   1.054   0.320
 6254SOL    HW119661   4.739   1.060   0.387
 6254SOL    HW219662   4.852   1.145   0.305
 6255SOL     OW19663   2.660   0.723   1.252
 6255SOL    HW119664   2.665   0.727   1.152
 6255SOL    HW219665   2.627   0.810   1.287
 6256SOL     OW19666   3.235   5.184   2.836
 6256SOL    HW119667   3.317   5.151   2.791
 6256SOL    HW219668   3.177   5.107   2.862
 6257SOL     OW19669   5.006   2.555   0.676
 6257SOL    HW119670   4.923   2.552   0.619
 6257SOL    HW219671   5.041   2.648   0.678
 6258SOL     OW19672   4.465   0.144   3.769
 6258SOL    HW119673   4.526   0.162   3.846
 6258SOL    HW219674   4.515   0.092   3.699
 6259SOL     OW19675   2.818   2.622   0.974
 6259SOL    HW119676   2.776   2.633   1.064
 6259SOL    HW219677   2.870   2.704   0.951
 6260SOL     OW19678   3.016   5.381   0.359
 6260SOL    HW119679   2.953   5.360   0.434
 6260SOL    HW219680   3.081   5.305   0.349
 6261SOL     OW19681   3.708   0.177   6.636
 6261SOL    HW119682   3.701   0.222   6.547
 6261SOL    HW219683   3.714   0.247   6.708
 6262SOL     OW19684   1.345   4.978   0.841
 6262SOL    HW119685   1.276   5.022   0.783
 6262SOL    HW219686   1.433   5.022   0.825
 6263SOL     OW19687   7.007   0.449   5.484
 6263SOL    HW119688   0.056   0.391   5.501
 6263SOL    HW219689   7.014   0.488   5.392
 6264SOL     OW19690   1.411   0.149   1.697
 6264SOL    HW119691   1.342   0.186   1.759
 6264SOL    HW219692   1.365   0.098   1.623
 6265SOL     OW19693   2.677   4.389   0.646
 6265SOL    HW119694   2.588   4.428   0.624
 6265SOL    HW219695   2.727   4.451   0.706
 6266SOL     OW19696   3.759   0.703   4.615
 6266SOL    HW119697   3.753   0.800   4.641
 6266SOL    HW219698   3.678   0.677   4.563
 6267SOL     OW19699   2.692   0.445   6.833
 6267SOL    HW119700   2.621   0.501   6.790
 6267SOL    HW219701   2.778   0.458   6.784
 6268SOL     OW19702   3.374   6.352   3.225
 6268SOL    HW119703   3.411   6.405   3.301
 6268SOL    HW219704   3.318   6.412   3.167
 6269SOL     OW19705   6.643   5.503   1.675
 6269SOL    HW119706   6.630   5.459   1.764
 6269SOL    HW219707   6.727   5.557   1.677
 6270SOL     OW19708   1.814   0.381   5.537
 6270SOL    HW119709   1.808   0.285   5.508
 6270SOL    HW219710   1.857   0.386   5.626
 6271SOL     OW19711   5.396   2.716   5.855
 6271SOL    HW119712   5.375   2.698   5.951
 6271SOL    HW219713   5.366   2.638   5.799
 6272SOL     OW19714   0.858   2.490   6.384
 6272SOL    HW119715   0.940   2.519   6.433
 6272SOL    HW219716   0.884   2.452   6.296
 6273SOL     OW19717   2.221   0.275   2.880
 6273SOL    HW119718   2.262   0.340   2.944
 6273SOL    HW219719   2.274   0.273   2.795
 6274SOL     OW19720   2.175   5.462   5.922
 6274SOL    HW119721   2.120   5.544   5.941
 6274SOL    HW219722   2.270   5.489   5.906
 6275SOL     OW19723   1.967   6.090   4.744
 6275SOL    HW119724   1.988   6.005   4.695
 6275SOL    HW219725   2.051   6.128   4.782
 6276SOL     OW19726   2.075   4.927   3.529
 6276SOL    HW119727   1.986   4.895   3.560
 6276SOL    HW219728   2.109   4.996   3.593
 6277SOL     OW19729   5.324   3.600   1.971
 6277SOL    HW119730   5.379   3.530   1.925
 6277SOL    HW219731   5.378   3.645   2.042
 6278SOL     OW19732   4.983   0.334   4.451
 6278SOL    HW119733   4.938   0.336   4.362
 6278SOL    HW219734   4.936   0.267   4.510
 6279SOL     OW19735   3.590   0.884   6.650
 6279SOL    HW119736   3.632   0.808   6.601
 6279SOL    HW219737   3.597   0.869   6.749
 6280SOL     OW19738   1.058   2.579   5.276
 6280SOL    HW119739   0.962   2.552   5.284
 6280SOL    HW219740   1.117   2.504   5.307
 6281SOL     OW19741   1.801   5.283   4.377
 6281SOL    HW119742   1.851   5.368   4.390
 6281SOL    HW219743   1.862   5.206   4.393
 6282SOL     OW19744   1.250   0.226   4.712
 6282SOL    HW119745   1.152   0.215   4.698
 6282SOL    HW219746   1.299   0.201   4.628
 6283SOL     OW19747   6.631   3.437   5.887
 6283SOL    HW119748   6.712   3.408   5.938
 6283SOL    HW219749   6.655   3.453   5.792
 6284SOL     OW19750   1.959   5.316   4.734
 6284SOL    HW119751   1.991   5.240   4.791
 6284SOL    HW219752   1.996   5.305   4.642
 6285SOL     OW19753   0.829   2.827   3.790
 6285SOL    HW119754   0.757   2.765   3.759
 6285SOL    HW219755   0.789   2.917   3.810
 6286SOL     OW19756   6.508   1.852   3.901
 6286SOL    HW119757   6.463   1.931   3.860
 6286SOL    HW219758   6.525   1.783   3.831
 6287SOL     OW19759   3.540   5.231   3.787
 6287SOL    HW119760   3.599   5.257   3.863
 6287SOL    HW219761   3.484   5.153   3.813
 6288SOL     OW19762   5.875   4.720   2.883
 6288SOL    HW119763   5.922   4.759   2.804
 6288SOL    HW219764   5.922   4.636   2.912
 6289SOL     OW19765   1.367   4.955   2.158
 6289SOL    HW119766   1.446   5.013   2.177
 6289SOL    HW219767   1.298   4.968   2.230
 6290SOL     OW19768   6.023   3.340   4.134
 6290SOL    HW119769   6.104   3.380   4.090
 6290SOL    HW219770   6.044   3.319   4.229
 6291SOL     OW19771   3.452   2.919   4.199
 6291SOL    HW119772   3.537   2.868   4.197
 6291SOL    HW219773   3.447   2.979   4.119
 6292SOL     OW19774   1.502   2.025   3.823
 6292SOL    HW119775   1.557   1.951   3.784
 6292SOL    HW219776   1.477   2.001   3.917
 6293SOL     OW19777   3.554   0.414   7.023
 6293SOL    HW119778   3.554   0.330   0.047
 6293SOL    HW219779   3.539   0.492   0.053
 6294SOL     OW19780   3.666   4.897   4.064
 6294SOL    HW119781   3.751   4.860   4.102
 6294SOL    HW219782   3.684   4.936   3.974
 6295SOL     OW19783   5.160   4.913   5.669
 6295SOL    HW119784   5.224   4.897   5.744
 6295SOL    HW219785   5.104   4.993   5.690
 6296SOL     OW19786   0.082   6.805   4.739
 6296SOL    HW119787   0.105   6.745   4.662
 6296SOL    HW219788   7.013   6.810   4.750
 6297SOL     OW19789   4.639   6.968   5.003
 6297SOL    HW119790   4.543   6.973   5.031
 6297SOL    HW219791   4.645   6.968   4.903
 6298SOL     OW19792   1.399   2.606   5.873
 6298SOL    HW119793   1.491   2.627   5.840
 6298SOL    HW219794   1.364   2.683   5.926
 6299SOL     OW19795   5.085   1.126   0.406
 6299SOL    HW119796   5.073   1.109   0.504
 6299SOL    HW219797   5.023   1.068   0.354
 6300SOL     OW19798   5.002   0.428   6.767
 6300SOL    HW119799   4.971   0.344   6.721
 6300SOL    HW219800   4.940   0.503   6.745
 6301SOL     OW19801   3.270   0.480   0.734
 6301SOL    HW119802   3.203   0.473   0.660
 6301SOL    HW219803   3.243   0.554   0.796
 6302SOL     OW19804   1.548   1.765   4.176
 6302SOL    HW119805   1.486   1.692   4.146
 6302SOL    HW219806   1.520   1.851   4.133
 6303SOL     OW19807   2.296   1.027   4.657
 6303SOL    HW119808   2.342   0.961   4.597
 6303SOL    HW219809   2.309   1.119   4.621
 6304SOL     OW19810   2.430   1.081   1.085
 6304SOL    HW119811   2.446   1.018   1.161
 6304SOL    HW219812   2.425   1.029   0.999
 6305SOL     OW19813   6.245   7.000   1.696
 6305SOL    HW119814   6.336   7.008   1.736
 6305SOL    HW219815   6.176   7.008   1.769
 6306SOL     OW19816   1.117   3.506   4.358
 6306SOL    HW119817   1.133   3.605   4.364
 6306SOL    HW219818   1.173   3.460   4.427
 6307SOL     OW19819   3.990   4.786   6.042
 6307SOL    HW119820   3.964   4.763   5.949
 6307SOL    HW219821   4.074   4.739   6.066
 6308SOL     OW19822   1.918   1.636   4.851
 6308SOL    HW119823   1.948   1.561   4.793
 6308SOL    HW219824   1.857   1.697   4.800
 6309SOL     OW19825   5.132   3.955   4.366
 6309SOL    HW119826   5.152   3.940   4.463
 6309SOL    HW219827   5.152   3.871   4.315
 6310SOL     OW19828   2.071   5.573   3.387
 6310SOL    HW119829   2.114   5.533   3.469
 6310SOL    HW219830   2.132   5.562   3.309
 6311SOL     OW19831   5.627   0.217   5.393
 6311SOL    HW119832   5.528   0.204   5.389
 6311SOL    HW219833   5.648   0.313   5.414
 6312SOL     OW19834   5.807   5.114   5.678
 6312SOL    HW119835   5.862   5.123   5.761
 6312SOL    HW219836   5.803   5.202   5.631
 6313SOL     OW19837   1.428   6.052   3.356
 6313SOL    HW119838   1.503   6.118   3.360
 6313SOL    HW219839   1.420   6.005   3.444
 6314SOL     OW19840   4.139   6.680   1.476
 6314SOL    HW119841   4.049   6.648   1.508
 6314SOL    HW219842   4.169   6.623   1.399
 6315SOL     OW19843   3.658   3.430   6.223
 6315SOL    HW119844   3.677   3.349   6.168
 6315SOL    HW219845   3.612   3.403   6.308
 6316SOL     OW19846   4.569   1.947   6.629
 6316SOL    HW119847   4.549   2.043   6.608
 6316SOL    HW219848   4.647   1.942   6.691
 6317SOL     OW19849   5.264   5.316   2.573
 6317SOL    HW119850   5.260   5.347   2.668
 6317SOL    HW219851   5.275   5.395   2.512
 6318SOL     OW19852   2.851   2.201   4.689
 6318SOL    HW119853   2.913   2.262   4.640
 6318SOL    HW219854   2.866   2.210   4.787
 6319SOL     OW19855   0.291   2.005   3.984
 6319SOL    HW119856   0.192   2.011   3.973
 6319SOL    HW219857   0.325   2.084   4.035
 6320SOL     OW19858   5.923   5.332   5.156
 6320SOL    HW119859   5.850   5.303   5.218
 6320SOL    HW219860   5.883   5.386   5.081
 6321SOL     OW19861   3.232   4.231   0.964
 6321SOL    HW119862   3.162   4.170   1.000
 6321SOL    HW219863   3.301   4.177   0.915
 6322SOL     OW19864   1.771   2.323   6.896
 6322SOL    HW119865   1.793   2.319   6.798
 6322SOL    HW219866   1.727   2.238   6.924
 6323SOL     OW19867   3.177   2.889   1.513
 6323SOL    HW119868   3.147   2.883   1.418
 6323SOL    HW219869   3.162   2.802   1.560
 6324SOL     OW19870   4.978   6.787   6.388
 6324SOL    HW119871   4.920   6.865   6.365
 6324SOL    HW219872   5.069   6.801   6.351
 6325SOL     OW19873   2.029   2.087   2.400
 6325SOL    HW119874   2.090   2.151   2.354
 6325SOL    HW219875   2.048   2.086   2.498
 6326SOL     OW19876   4.629   5.850   1.652
 6326SOL    HW119877   4.541   5.897   1.650
 6326SOL    HW219878   4.685   5.885   1.727
 6327SOL     OW19879   0.278   0.498   4.939
 6327SOL    HW119880   0.247   0.584   4.979
 6327SOL    HW219881   0.358   0.465   4.990
 6328SOL     OW19882   1.773   4.033   0.624
 6328SOL    HW119883   1.872   4.041   0.616
 6328SOL    HW219884   1.742   3.949   0.580
 6329SOL     OW19885   2.514   2.533   3.252
 6329SOL    HW119886   2.416   2.546   3.242
 6329SOL    HW219887   2.537   2.521   3.349
 6330SOL     OW19888   4.540   1.461   1.266
 6330SOL    HW119889   4.569   1.521   1.191
 6330SOL    HW219890   4.593   1.482   1.348
 6331SOL     OW19891   6.121   2.316   0.320
 6331SOL    HW119892   6.068   2.382   0.266
 6331SOL    HW219893   6.103   2.224   0.285
 6332SOL     OW19894   6.594   3.876   1.852
 6332SOL    HW119895   6.679   3.823   1.854
 6332SOL    HW219896   6.614   3.972   1.869
 6333SOL     OW19897   4.133   5.368   4.383
 6333SOL    HW119898   4.117   5.273   4.356
 6333SOL    HW219899   4.157   5.422   4.303
 6334SOL     OW19900   3.125   6.829   2.107
 6334SOL    HW119901   3.222   6.812   2.124
 6334SOL    HW219902   3.115   6.901   2.037
 6335SOL     OW19903   4.625   1.569   0.210
 6335SOL    HW119904   4.584   1.653   0.173
 6335SOL    HW219905   4.568   1.491   0.185
 6336SOL     OW19906   0.677   1.541   6.460
 6336SOL    HW119907   0.662   1.625   6.512
 6336SOL    HW219908   0.754   1.554   6.397
 6337SOL     OW19909   4.912   4.579   6.180
 6337SOL    HW119910   4.962   4.657   6.142
 6337SOL    HW219911   4.902   4.508   6.110
 6338SOL     OW19912   3.400   2.014   2.833
 6338SOL    HW119913   3.478   2.030   2.894
 6338SOL    HW219914   3.430   2.023   2.738
 6339SOL     OW19915   1.427   3.028   2.812
 6339SOL    HW119916   1.373   2.951   2.848
 6339SOL    HW219917   1.482   3.066   2.886
 6340SOL     OW19918   1.730   4.782   2.887
 6340SOL    HW119919   1.654   4.844   2.865
 6340SOL    HW219920   1.713   4.693   2.845
 6341SOL     OW19921   0.586   4.441   4.017
 6341SOL    HW119922   0.500   4.422   4.065
 6341SOL    HW219923   0.566   4.478   3.926
 6342SOL     OW19924   2.459   1.842   1.540
 6342SOL    HW119925   2.546   1.807   1.577
 6342SOL    HW219926   2.383   1.798   1.587
 6343SOL     OW19927   4.999   2.544   6.774
 6343SOL    HW119928   4.963   2.470   6.717
 6343SOL    HW219929   5.009   2.627   6.719
 6344SOL     OW19930   5.559   3.583   5.036
 6344SOL    HW119931   5.532   3.664   5.087
 6344SOL    HW219932   5.617   3.609   4.958
 6345SOL     OW19933   4.721   1.904   2.273
 6345SOL    HW119934   4.812   1.909   2.313
 6345SOL    HW219935   4.696   1.993   2.235
 6346SOL     OW19936   6.821   4.474   3.806
 6346SOL    HW119937   6.789   4.512   3.719
 6346SOL    HW219938   6.833   4.375   3.798
 6347SOL     OW19939   1.772   0.223   1.965
 6347SOL    HW119940   1.785   0.130   2.000
 6347SOL    HW219941   1.729   0.279   2.036
 6348SOL     OW19942   1.519   3.724   5.135
 6348SOL    HW119943   1.500   3.774   5.050
 6348SOL    HW219944   1.438   3.674   5.164
 6349SOL     OW19945   3.442   7.020   1.226
 6349SOL    HW119946   3.413   6.958   1.153
 6349SOL    HW219947   3.522   6.982   1.272
 6350SOL     OW19948   2.652   4.730   4.038
 6350SOL    HW119949   2.612   4.692   4.121
 6350SOL    HW219950   2.707   4.810   4.061
 6351SOL     OW19951   6.397   3.193   3.295
 6351SOL    HW119952   6.472   3.253   3.266
 6351SOL    HW219953   6.342   3.167   3.216
 6352SOL     OW19954   2.755   5.379   4.723
 6352SOL    HW119955   2.816   5.455   4.746
 6352SOL    HW219956   2.680   5.375   4.789
 6353SOL     OW19957   7.025   0.995   6.095
 6353SOL    HW119958   0.075   0.954   6.051
 6353SOL    HW219959   6.957   0.924   6.113
 6354SOL     OW19960   1.723   6.716   2.911
 6354SOL    HW119961   1.638   6.670   2.937
 6354SOL    HW219962   1.801   6.662   2.941
 6355SOL     OW19963   1.136   5.349   5.827
 6355SOL    HW119964   1.064   5.315   5.887
 6355SOL    HW219965   1.198   5.407   5.880
 6356SOL     OW19966   3.651   4.936   2.939
 6356SOL    HW119967   3.609   4.904   2.854
 6356SOL    HW219968   3.744   4.966   2.921
 6357SOL     OW19969   5.102   2.897   2.280
 6357SOL    HW119970   5.125   2.877   2.375
 6357SOL    HW219971   5.171   2.956   2.240
 6358SOL     OW19972   1.536   2.494   6.278
 6358SOL    HW119973   1.577   2.456   6.361
 6358SOL    HW219974   1.564   2.589   6.267
 6359SOL     OW19975   6.345   6.616   5.555
 6359SOL    HW119976   6.345   6.594   5.457
 6359SOL    HW219977   6.433   6.656   5.580
 6360SOL     OW19978   1.764   3.798   4.285
 6360SOL    HW119979   1.673   3.809   4.325
 6360SOL    HW219980   1.811   3.721   4.328
 6361SOL     OW19981   5.954   0.282   0.295
 6361SOL    HW119982   5.964   0.369   0.343
 6361SOL    HW219983   5.955   0.297   0.196
 6362SOL     OW19984   6.610   5.690   6.904
 6362SOL    HW119985   6.688   5.654   6.956
 6362SOL    HW219986   6.608   5.789   6.913
 6363SOL     OW19987   2.281   4.181   3.053
 6363SOL    HW119988   2.285   4.153   3.149
 6363SOL    HW219989   2.255   4.102   2.997
 6364SOL     OW19990   3.354   1.122   5.815
 6364SOL    HW119991   3.267   1.117   5.766
 6364SOL    HW219992   3.354   1.203   5.874
 6365SOL     OW19993   5.474   6.841   4.198
 6365SOL    HW119994   5.448   6.869   4.105
 6365SOL    HW219995   5.571   6.858   4.211
 6366SOL     OW19996   1.009   5.686   6.604
 6366SOL    HW119997   1.026   5.760   6.670
 6366SOL    HW219998   0.967   5.724   6.522
 6367SOL     OW19999   3.884   0.304   4.278
 6367SOL    HW120000   3.820   0.379   4.296
 6367SOL    HW220001   3.962   0.339   4.227
 6368SOL     OW20002   3.435   6.337   3.645
 6368SOL    HW120003   3.338   6.363   3.645
 6368SOL    HW220004   3.446   6.247   3.686
 6369SOL     OW20005   2.121   4.981   4.628
 6369SOL    HW120006   2.077   4.896   4.656
 6369SOL    HW220007   2.216   4.963   4.601
 6370SOL     OW20008   0.884   3.387   2.663
 6370SOL    HW120009   0.953   3.458   2.675
 6370SOL    HW220010   0.924   3.298   2.688
 6371SOL     OW20011   5.218   3.430   4.120
 6371SOL    HW120012   5.283   3.367   4.163
 6371SOL    HW220013   5.127   3.416   4.159
 6372SOL     OW20014   3.521   0.269   2.051
 6372SOL    HW120015   3.603   0.327   2.047
 6372SOL    HW220016   3.511   0.220   1.965
 6373SOL     OW20017   5.432   4.469   3.443
 6373SOL    HW120018   5.372   4.390   3.455
 6373SOL    HW220019   5.401   4.543   3.504
 6374SOL     OW20020   3.421   4.166   4.496
 6374SOL    HW120021   3.504   4.174   4.552
 6374SOL    HW220022   3.372   4.253   4.495
 6375SOL     OW20023   6.759   1.658   4.136
 6375SOL    HW120024   6.667   1.681   4.166
 6375SOL    HW220025   6.755   1.614   4.046
 6376SOL     OW20026   6.264   2.674   5.389
 6376SOL    HW120027   6.285   2.578   5.373
 6376SOL    HW220028   6.202   2.683   5.468
 6377SOL     OW20029   6.444   1.741   5.486
 6377SOL    HW120030   6.505   1.718   5.563
 6377SOL    HW220031   6.431   1.660   5.429
 6378SOL     OW20032   5.133   4.836   3.682
 6378SOL    HW120033   5.070   4.760   3.697
 6378SOL    HW220034   5.119   4.873   3.590
 6379SOL     OW20035   2.313   4.135   4.184
 6379SOL    HW120036   2.287   4.168   4.275
 6379SOL    HW220037   2.280   4.042   4.172
 6380SOL     OW20038   0.756   1.274   6.096
 6380SOL    HW120039   0.798   1.257   6.185
 6380SOL    HW220040   0.664   1.236   6.095
 6381SOL     OW20041   4.192   3.338   1.935
 6381SOL    HW120042   4.218   3.255   1.885
 6381SOL    HW220043   4.211   3.418   1.877
 6382SOL     OW20044   0.852   2.604   0.273
 6382SOL    HW120045   0.884   2.551   0.351
 6382SOL    HW220046   0.792   2.547   0.216
 6383SOL     OW20047   1.981   1.993   3.075
 6383SOL    HW120048   1.992   1.973   2.978
 6383SOL    HW220049   1.967   1.908   3.125
 6384SOL     OW20050   5.281   4.036   1.418
 6384SOL    HW120051   5.360   4.038   1.479
 6384SOL    HW220052   5.292   3.960   1.354
 6385SOL     OW20053   6.634   4.888   4.448
 6385SOL    HW120054   6.643   4.976   4.399
 6385SOL    HW220055   6.673   4.815   4.392
 6386SOL     OW20056   2.247   4.279   6.438
 6386SOL    HW120057   2.306   4.277   6.357
 6386SOL    HW220058   2.293   4.231   6.513
 6387SOL     OW20059   1.004   1.361   6.824
 6387SOL    HW120060   1.078   1.419   6.859
 6387SOL    HW220061   0.987   1.382   6.728
 6388SOL     OW20062   4.091   4.969   0.994
 6388SOL    HW120063   4.116   4.876   1.020
 6388SOL    HW220064   4.046   5.015   1.071
 6389SOL     OW20065   0.675   6.060   2.377
 6389SOL    HW120066   0.658   6.100   2.467
 6389SOL    HW220067   0.656   6.129   2.307
 6390SOL     OW20068   1.092   2.567   4.679
 6390SOL    HW120069   1.042   2.534   4.760
 6390SOL    HW220070   1.135   2.654   4.700
 6391SOL     OW20071   3.078   7.021   5.938
 6391SOL    HW120072   2.979   0.002   5.953
 6391SOL    HW220073   3.094   7.000   5.842
 6392SOL     OW20074   2.410   0.259   3.427
 6392SOL    HW120075   2.378   0.269   3.333
 6392SOL    HW220076   2.476   0.184   3.432
 6393SOL     OW20077   5.681   6.772   1.279
 6393SOL    HW120078   5.741   6.848   1.257
 6393SOL    HW220079   5.633   6.743   1.196
 6394SOL     OW20080   2.464   4.619   1.098
 6394SOL    HW120081   2.503   4.613   1.190
 6394SOL    HW220082   2.368   4.645   1.104
 6395SOL     OW20083   6.622   3.029   1.983
 6395SOL    HW120084   6.635   3.129   1.987
 6395SOL    HW220085   6.668   2.993   1.902
 6396SOL     OW20086   5.336   2.626   6.777
 6396SOL    HW120087   5.288   2.681   6.708
 6396SOL    HW220088   5.431   2.615   6.751
 6397SOL     OW20089   5.682   2.613   6.084
 6397SOL    HW120090   5.636   2.702   6.088
 6397SOL    HW220091   5.695   2.578   6.176
 6398SOL     OW20092   2.990   0.853   0.639
 6398SOL    HW120093   3.073   0.897   0.605
 6398SOL    HW220094   2.914   0.874   0.578
 6399SOL     OW20095   1.430   5.158   6.846
 6399SOL    HW120096   1.505   5.222   6.830
 6399SOL    HW220097   1.360   5.169   6.775
 6400SOL     OW20098   2.446   6.165   2.804
 6400SOL    HW120099   2.426   6.121   2.716
 6400SOL    HW220100   2.529   6.220   2.796
 6401SOL     OW20101   0.370   4.855   3.359
 6401SOL    HW120102   0.279   4.850   3.399
 6401SOL    HW220103   0.431   4.790   3.405
 6402SOL     OW20104   4.260   0.854   3.216
 6402SOL    HW120105   4.261   0.928   3.149
 6402SOL    HW220106   4.193   0.785   3.188
 6403SOL     OW20107   0.201   6.186   6.243
 6403SOL    HW120108   0.140   6.158   6.317
 6403SOL    HW220109   0.148   6.206   6.161
 6404SOL     OW20110   4.059   1.222   3.025
 6404SOL    HW120111   4.038   1.283   2.948
 6404SOL    HW220112   3.998   1.244   3.101
 6405SOL     OW20113   1.973   1.047   3.187
 6405SOL    HW120114   2.011   1.045   3.279
 6405SOL    HW220115   1.938   1.140   3.168
 6406SOL     OW20116   1.790   2.643   3.574
 6406SOL    HW120117   1.855   2.602   3.638
 6406SOL    HW220118   1.710   2.583   3.564
 6407SOL     OW20119   3.331   0.144   3.330
 6407SOL    HW120120   3.350   0.113   3.237
 6407SOL    HW220121   3.235   0.167   3.339
 6408SOL     OW20122   5.976   2.468   0.128
 6408SOL    HW120123   5.898   2.413   0.160
 6408SOL    HW220124   5.955   2.565   0.140
 6409SOL     OW20125   0.218   4.946   2.905
 6409SOL    HW120126   0.238   4.928   2.809
 6409SOL    HW220127   0.133   4.902   2.931
 6410SOL     OW20128   2.114   1.262   0.259
 6410SOL    HW120129   2.184   1.233   0.324
 6410SOL    HW220130   2.023   1.241   0.295
 6411SOL     OW20131   0.129   2.341   3.162
 6411SOL    HW120132   0.135   2.410   3.233
 6411SOL    HW220133   0.111   2.252   3.204
 6412SOL     OW20134   0.118   3.083   5.200
 6412SOL    HW120135   0.034   3.040   5.168
 6412SOL    HW220136   0.183   3.089   5.125
 6413SOL     OW20137   4.438   4.560   3.078
 6413SOL    HW120138   4.478   4.470   3.059
 6413SOL    HW220139   4.400   4.597   2.993
 6414SOL     OW20140   5.980   0.805   1.356
 6414SOL    HW120141   6.048   0.736   1.329
 6414SOL    HW220142   5.903   0.802   1.291
 6415SOL     OW20143   2.183   2.258   2.787
 6415SOL    HW120144   2.151   2.347   2.819
 6415SOL    HW220145   2.281   2.264   2.767
 6416SOL     OW20146   1.342   1.169   6.558
 6416SOL    HW120147   1.292   1.255   6.564
 6416SOL    HW220148   1.408   1.164   6.634
 6417SOL     OW20149   0.075   4.288   2.039
 6417SOL    HW120150   7.017   4.334   2.038
 6417SOL    HW220151   0.074   4.215   2.107
 6418SOL     OW20152   4.838   4.548   1.995
 6418SOL    HW120153   4.807   4.509   1.908
 6418SOL    HW220154   4.779   4.515   2.069
 6419SOL     OW20155   2.305   4.575   2.914
 6419SOL    HW120156   2.360   4.549   2.835
 6419SOL    HW220157   2.208   4.573   2.889
 6420SOL     OW20158   2.954   3.732   5.729
 6420SOL    HW120159   2.923   3.816   5.774
 6420SOL    HW220160   3.040   3.751   5.681
 6421SOL     OW20161   5.840   1.267   2.140
 6421SOL    HW120162   5.826   1.179   2.094
 6421SOL    HW220163   5.908   1.320   2.089
 6422SOL     OW20164   0.188   0.559   4.096
 6422SOL    HW120165   0.169   0.641   4.150
 6422SOL    HW220166   0.223   0.585   4.006
 6423SOL     OW20167   4.687   5.185   2.610
 6423SOL    HW120168   4.714   5.268   2.659
 6423SOL    HW220169   4.693   5.201   2.511
 6424SOL     OW20170   6.750   6.159   5.711
 6424SOL    HW120171   6.671   6.123   5.660
 6424SOL    HW220172   6.767   6.253   5.682
 6425SOL     OW20173   6.487   5.574   3.144
 6425SOL    HW120174   6.408   5.561   3.085
 6425SOL    HW220175   6.550   5.497   3.132
 6426SOL     OW20176   0.556   4.947   3.520
 6426SOL    HW120177   0.545   4.967   3.423
 6426SOL    HW220178   0.644   4.903   3.536
 6427SOL     OW20179   2.271   3.241   6.434
 6427SOL    HW120180   2.178   3.231   6.397
 6427SOL    HW220181   2.293   3.338   6.445
 6428SOL     OW20182   6.730   3.155   0.081
 6428SOL    HW120183   6.714   3.076   0.021
 6428SOL    HW220184   6.643   3.187   0.118
 6429SOL     OW20185   0.831   1.731   5.608
 6429SOL    HW120186   0.785   1.677   5.538
 6429SOL    HW220187   0.769   1.801   5.643
 6430SOL     OW20188   5.273   0.974   2.523
 6430SOL    HW120189   5.315   0.893   2.481
 6430SOL    HW220190   5.238   1.034   2.451
 6431SOL     OW20191   5.384   6.388   3.382
 6431SOL    HW120192   5.299   6.371   3.332
 6431SOL    HW220193   5.420   6.477   3.356
 6432SOL     OW20194   4.653   3.727   0.038
 6432SOL    HW120195   4.716   3.802   0.019
 6432SOL    HW220196   4.671   3.651   7.006
 6433SOL     OW20197   3.748   4.578   0.655
 6433SOL    HW120198   3.721   4.581   0.558
 6433SOL    HW220199   3.666   4.565   0.711
 6434SOL     OW20200   1.890   3.778   0.115
 6434SOL    HW120201   1.824   3.712   0.081
 6434SOL    HW220202   1.981   3.755   0.080
 6435SOL     OW20203   4.197   6.347   6.852
 6435SOL    HW120204   4.101   6.320   6.864
 6435SOL    HW220205   4.206   6.402   6.769
 6436SOL     OW20206   2.134   3.271   3.438
 6436SOL    HW120207   2.040   3.238   3.450
 6436SOL    HW220208   2.139   3.368   3.461
 6437SOL     OW20209   2.310   0.883   1.282
 6437SOL    HW120210   2.401   0.897   1.322
 6437SOL    HW220211   2.270   0.800   1.320
 6438SOL     OW20212   0.600   4.820   6.302
 6438SOL    HW120213   0.517   4.785   6.259
 6438SOL    HW220214   0.576   4.892   6.367
 6439SOL     OW20215   6.426   0.467   1.809
 6439SOL    HW120216   6.504   0.445   1.867
 6439SOL    HW220217   6.445   0.551   1.757
 6440SOL     OW20218   2.238   1.751   1.145
 6440SOL    HW120219   2.331   1.772   1.176
 6440SOL    HW220220   2.213   1.814   1.071
 6441SOL     OW20221   1.016   6.676   2.527
 6441SOL    HW120222   0.963   6.700   2.608
 6441SOL    HW220223   0.962   6.698   2.445
 6442SOL     OW20224   2.620   1.225   3.568
 6442SOL    HW120225   2.617   1.187   3.660
 6442SOL    HW220226   2.621   1.150   3.501
 6443SOL     OW20227   4.145   2.490   6.547
 6443SOL    HW120228   4.108   2.544   6.472
 6443SOL    HW220229   4.159   2.396   6.517
 6444SOL     OW20230   0.230   2.729   3.986
 6444SOL    HW120231   0.168   2.713   4.063
 6444SOL    HW220232   0.225   2.651   3.922
 6445SOL     OW20233   4.997   3.023   5.980
 6445SOL    HW120234   4.986   2.964   5.900
 6445SOL    HW220235   4.929   3.096   5.977
 6446SOL     OW20236   1.119   1.084   6.395
 6446SOL    HW120237   1.200   1.119   6.442
 6446SOL    HW220238   1.137   1.078   6.297
 6447SOL     OW20239   0.245   5.581   2.822
 6447SOL    HW120240   0.171   5.597   2.757
 6447SOL    HW220241   0.236   5.643   2.899
 6448SOL     OW20242   5.102   4.174   2.560
 6448SOL    HW120243   5.085   4.153   2.464
 6448SOL    HW220244   5.017   4.201   2.605
 6449SOL     OW20245   2.806   4.485   0.360
 6449SOL    HW120246   2.775   4.467   0.454
 6449SOL    HW220247   2.869   4.562   0.360
 6450SOL     OW20248   0.192   3.304   1.283
 6450SOL    HW120249   0.173   3.374   1.351
 6450SOL    HW220250   0.113   3.243   1.275
 6451SOL     OW20251   2.722   6.764   5.027
 6451SOL    HW120252   2.732   6.733   5.122
 6451SOL    HW220253   2.689   6.859   5.027
 6452SOL     OW20254   3.425   6.309   4.979
 6452SOL    HW120255   3.415   6.407   4.996
 6452SOL    HW220256   3.508   6.275   5.023
 6453SOL     OW20257   1.309   6.659   0.220
 6453SOL    HW120258   1.347   6.694   0.306
 6453SOL    HW220259   1.341   6.715   0.144
 6454SOL     OW20260   3.097   1.137   3.065
 6454SOL    HW120261   3.146   1.219   3.037
 6454SOL    HW220262   3.029   1.160   3.135
 6455SOL     OW20263   0.498   2.241   4.332
 6455SOL    HW120264   0.421   2.186   4.364
 6455SOL    HW220265   0.503   2.325   4.387
 6456SOL     OW20266   1.835   1.028   3.690
 6456SOL    HW120267   1.835   1.111   3.745
 6456SOL    HW220268   1.817   1.051   3.594
 6457SOL     OW20269   5.254   1.464   1.254
 6457SOL    HW120270   5.272   1.497   1.161
 6457SOL    HW220271   5.296   1.527   1.319
 6458SOL     OW20272   0.831   6.942   3.529
 6458SOL    HW120273   0.829   6.857   3.582
 6458SOL    HW220274   0.925   6.963   3.503
 6459SOL     OW20275   6.024   5.108   0.441
 6459SOL    HW120276   6.031   5.023   0.390
 6459SOL    HW220277   6.003   5.089   0.536
 6460SOL     OW20278   4.292   5.243   5.602
 6460SOL    HW120279   4.243   5.326   5.629
 6460SOL    HW220280   4.316   5.249   5.505
 6461SOL     OW20281   2.916   4.866   4.943
 6461SOL    HW120282   2.902   4.883   4.846
 6461SOL    HW220283   2.880   4.776   4.967
 6462SOL     OW20284   2.431   2.696   4.995
 6462SOL    HW120285   2.424   2.791   5.025
 6462SOL    HW220286   2.482   2.643   5.064
 6463SOL     OW20287   1.418   3.436   0.238
 6463SOL    HW120288   1.428   3.389   0.151
 6463SOL    HW220289   1.401   3.533   0.222
 6464SOL     OW20290   1.085   5.443   4.903
 6464SOL    HW120291   1.034   5.423   4.819
 6464SOL    HW220292   1.109   5.357   4.948
 6465SOL     OW20293   6.204   2.430   3.932
 6465SOL    HW120294   6.123   2.473   3.892
 6465SOL    HW220295   6.282   2.445   3.873
 6466SOL     OW20296   0.939   1.395   6.563
 6466SOL    HW120297   0.899   1.484   6.540
 6466SOL    HW220298   1.037   1.397   6.542
 6467SOL     OW20299   3.106   0.873   7.026
 6467SOL    HW120300   3.187   0.906   0.045
 6467SOL    HW220301   3.136   0.819   6.947
 6468SOL     OW20302   4.061   6.514   1.786
 6468SOL    HW120303   4.034   6.553   1.874
 6468SOL    HW220304   4.109   6.428   1.800
 6469SOL     OW20305   4.452   0.843   5.496
 6469SOL    HW120306   4.501   0.925   5.526
 6469SOL    HW220307   4.497   0.805   5.415
 6470SOL     OW20308   6.018   5.787   6.508
 6470SOL    HW120309   5.986   5.754   6.419
 6470SOL    HW220310   6.050   5.709   6.562
 6471SOL     OW20311   6.593   6.032   6.031
 6471SOL    HW120312   6.504   6.033   5.985
 6471SOL    HW220313   6.628   5.938   6.033
 6472SOL     OW20314   0.635   4.360   1.058
 6472SOL    HW120315   0.716   4.411   1.087
 6472SOL    HW220316   0.646   4.330   0.964
 6473SOL     OW20317   1.917   1.653   4.403
 6473SOL    HW120318   1.851   1.594   4.450
 6473SOL    HW220319   1.878   1.744   4.391
 6474SOL     OW20320   2.210   3.708   5.757
 6474SOL    HW120321   2.247   3.619   5.783
 6474SOL    HW220322   2.283   3.777   5.762
 6475SOL     OW20323   6.886   5.377   4.382
 6475SOL    HW120324   6.857   5.299   4.437
 6475SOL    HW220325   6.883   5.353   4.285
 6476SOL     OW20326   4.303   3.575   1.497
 6476SOL    HW120327   4.331   3.480   1.481
 6476SOL    HW220328   4.268   3.614   1.413
 6477SOL     OW20329   6.730   4.803   1.004
 6477SOL    HW120330   6.714   4.852   1.089
 6477SOL    HW220331   6.688   4.853   0.928
 6478SOL     OW20332   3.856   5.793   2.373
 6478SOL    HW120333   3.827   5.820   2.281
 6478SOL    HW220334   3.954   5.811   2.383
 6479SOL     OW20335   3.725   5.735   3.323
 6479SOL    HW120336   3.626   5.743   3.316
 6479SOL    HW220337   3.768   5.809   3.271
 6480SOL     OW20338   2.954   2.440   5.646
 6480SOL    HW120339   2.911   2.390   5.721
 6480SOL    HW220340   2.951   2.538   5.666
 6481SOL     OW20341   3.350   2.077   2.005
 6481SOL    HW120342   3.303   2.074   2.092
 6481SOL    HW220343   3.299   2.135   1.941
 6482SOL     OW20344   0.369   0.769   6.216
 6482SOL    HW120345   0.357   0.765   6.117
 6482SOL    HW220346   0.436   0.840   6.239
 6483SOL     OW20347   2.514   5.766   1.966
 6483SOL    HW120348   2.461   5.691   1.925
 6483SOL    HW220349   2.516   5.755   2.065
 6484SOL     OW20350   3.863   0.890   2.766
 6484SOL    HW120351   3.956   0.855   2.770
 6484SOL    HW220352   3.848   0.935   2.678
 6485SOL     OW20353   1.896   4.055   3.128
 6485SOL    HW120354   1.862   4.075   3.220
 6485SOL    HW220355   1.949   4.132   3.095
 6486SOL     OW20356   1.436   4.177   4.478
 6486SOL    HW120357   1.534   4.197   4.468
 6486SOL    HW220358   1.409   4.192   4.573
 6487SOL     OW20359   6.387   5.829   4.983
 6487SOL    HW120360   6.455   5.802   5.051
 6487SOL    HW220361   6.347   5.917   5.009
 6488SOL     OW20362   2.990   6.009   4.838
 6488SOL    HW120363   3.059   6.058   4.890
 6488SOL    HW220364   2.991   5.912   4.863
 6489SOL     OW20365   2.755   3.403   6.757
 6489SOL    HW120366   2.855   3.405   6.750
 6489SOL    HW220367   2.716   3.483   6.712
 6490SOL     OW20368   4.159   1.944   6.840
 6490SOL    HW120369   4.215   1.912   6.763
 6490SOL    HW220370   4.156   2.044   6.839
 6491SOL     OW20371   4.498   1.112   6.700
 6491SOL    HW120372   4.497   1.016   6.673
 6491SOL    HW220373   4.557   1.163   6.637
 6492SOL     OW20374   5.843   6.094   0.084
 6492SOL    HW120375   5.782   6.153   0.032
 6492SOL    HW220376   5.801   6.003   0.093
 6493SOL     OW20377   1.261   5.647   4.783
 6493SOL    HW120378   1.190   5.593   4.829
 6493SOL    HW220379   1.225   5.681   4.696
 6494SOL     OW20380   0.299   1.023   2.838
 6494SOL    HW120381   0.312   1.079   2.920
 6494SOL    HW220382   0.362   0.946   2.840
 6495SOL     OW20383   4.802   6.342   4.355
 6495SOL    HW120384   4.894   6.347   4.395
 6495SOL    HW220385   4.754   6.428   4.372
 6496SOL     OW20386   0.522   6.833   2.070
 6496SOL    HW120387   0.425   6.825   2.048
 6496SOL    HW220388   0.534   6.894   2.148
 6497SOL     OW20389   2.537   3.741   6.993
 6497SOL    HW120390   2.484   3.678   6.936
 6497SOL    HW220391   2.600   3.689   0.021
 6498SOL     OW20392   2.206   4.187   3.931
 6498SOL    HW120393   2.142   4.233   3.993
 6498SOL    HW220394   2.295   4.180   3.975
 6499SOL     OW20395   5.418   2.507   5.172
 6499SOL    HW120396   5.498   2.450   5.149
 6499SOL    HW220397   5.438   2.603   5.152
 6500SOL     OW20398   7.029   5.020   3.642
 6500SOL    HW120399   0.057   5.075   3.583
 6500SOL    HW220400   6.953   4.983   3.588
 6501SOL     OW20401   6.921   2.662   6.830
 6501SOL    HW120402   6.822   2.667   6.841
 6501SOL    HW220403   6.943   2.607   6.750
 6502SOL     OW20404   6.326   4.136   2.505
 6502SOL    HW120405   6.370   4.222   2.476
 6502SOL    HW220406   6.227   4.149   2.508
 6503SOL     OW20407   5.511   0.105   4.022
 6503SOL    HW120408   5.610   0.115   4.019
 6503SOL    HW220409   5.467   0.195   4.014
 6504SOL     OW20410   4.741   6.559   6.055
 6504SOL    HW120411   4.831   6.518   6.045
 6504SOL    HW220412   4.749   6.644   6.108
 6505SOL     OW20413   5.338   4.919   1.416
 6505SOL    HW120414   5.365   4.826   1.390
 6505SOL    HW220415   5.257   4.915   1.474
 6506SOL     OW20416   6.683   3.513   1.453
 6506SOL    HW120417   6.719   3.421   1.468
 6506SOL    HW220418   6.632   3.516   1.368
 6507SOL     OW20419   1.310   5.511   5.470
 6507SOL    HW120420   1.382   5.546   5.410
 6507SOL    HW220421   1.274   5.587   5.525
 6508SOL     OW20422   2.394   1.657   3.314
 6508SOL    HW120423   2.378   1.603   3.232
 6508SOL    HW220424   2.442   1.601   3.382
 6509SOL     OW20425   2.662   2.303   3.852
 6509SOL    HW120426   2.724   2.302   3.931
 6509SOL    HW220427   2.604   2.221   3.854
 6510SOL     OW20428   6.983   5.084   6.903
 6510SOL    HW120429   6.907   5.083   6.969
 6510SOL    HW220430   0.009   5.165   6.920
 6511SOL     OW20431   5.385   0.759   4.792
 6511SOL    HW120432   5.342   0.737   4.704
 6511SOL    HW220433   5.410   0.856   4.793
 6512SOL     OW20434   4.984   0.511   2.164
 6512SOL    HW120435   5.042   0.482   2.240
 6512SOL    HW220436   4.889   0.516   2.195
 6513SOL     OW20437   3.097   5.282   3.208
 6513SOL    HW120438   3.071   5.192   3.241
 6513SOL    HW220439   3.139   5.334   3.282
 6514SOL     OW20440   5.706   0.069   3.192
 6514SOL    HW120441   5.764   0.008   3.138
 6514SOL    HW220442   5.640   0.114   3.131
 6515SOL     OW20443   0.814   5.355   4.272
 6515SOL    HW120444   0.740   5.405   4.317
 6515SOL    HW220445   0.887   5.337   4.338
 6516SOL     OW20446   0.330   2.857   0.990
 6516SOL    HW120447   0.339   2.857   0.890
 6516SOL    HW220448   0.233   2.866   1.014
 6517SOL     OW20449   6.601   1.211   0.849
 6517SOL    HW120450   6.520   1.269   0.851
 6517SOL    HW220451   6.613   1.166   0.937
 6518SOL     OW20452   0.500   6.754   6.855
 6518SOL    HW120453   0.433   6.827   6.868
 6518SOL    HW220454   0.495   6.689   6.930
 6519SOL     OW20455   2.235   1.855   3.473
 6519SOL    HW120456   2.284   1.942   3.466
 6519SOL    HW220457   2.289   1.783   3.430
 6520SOL     OW20458   6.209   5.556   2.521
 6520SOL    HW120459   6.188   5.582   2.427
 6520SOL    HW220460   6.125   5.552   2.575
 6521SOL     OW20461   1.329   1.780   4.460
 6521SOL    HW120462   1.241   1.777   4.508
 6521SOL    HW220463   1.387   1.851   4.502
 6522SOL     OW20464   3.468   4.436   0.100
 6522SOL    HW120465   3.554   4.384   0.106
 6522SOL    HW220466   3.393   4.373   0.081
 6523SOL     OW20467   3.211   0.768   6.802
 6523SOL    HW120468   3.294   0.711   6.803
 6523SOL    HW220469   3.181   0.780   6.707
 6524SOL     OW20470   3.160   2.944   2.766
 6524SOL    HW120471   3.252   2.939   2.729
 6524SOL    HW220472   3.107   2.865   2.735
 6525SOL     OW20473   2.017   3.014   2.954
 6525SOL    HW120474   2.105   3.052   2.982
 6525SOL    HW220475   1.943   3.068   2.994
 6526SOL     OW20476   1.300   6.931   5.532
 6526SOL    HW120477   1.317   7.011   5.590
 6526SOL    HW220478   1.279   6.853   5.591
 6527SOL     OW20479   1.065   1.764   4.568
 6527SOL    HW120480   1.065   1.708   4.652
 6527SOL    HW220481   0.985   1.823   4.569
 6528SOL     OW20482   6.909   0.596   3.370
 6528SOL    HW120483   6.930   0.622   3.465
 6528SOL    HW220484   6.879   0.501   3.368
 6529SOL     OW20485   6.953   1.379   3.100
 6529SOL    HW120486   6.884   1.447   3.124
 6529SOL    HW220487   6.926   1.290   3.138
 6530SOL     OW20488   6.575   3.491   1.213
 6530SOL    HW120489   6.494   3.549   1.207
 6530SOL    HW220490   6.623   3.492   1.126
 6531SOL     OW20491   5.441   3.615   4.737
 6531SOL    HW120492   5.441   3.646   4.642
 6531SOL    HW220493   5.473   3.520   4.741
 6532SOL     OW20494   6.372   0.940   0.053
 6532SOL    HW120495   6.294   0.907   0.001
 6532SOL    HW220496   6.366   0.906   0.148
 6533SOL     OW20497   4.834   5.872   1.248
 6533SOL    HW120498   4.888   5.926   1.312
 6533SOL    HW220499   4.857   5.898   1.154
 6534SOL     OW20500   2.848   4.653   1.344
 6534SOL    HW120501   2.751   4.632   1.336
 6534SOL    HW220502   2.879   4.634   1.437
 6535SOL     OW20503   6.686   3.171   4.143
 6535SOL    HW120504   6.774   3.177   4.096
 6535SOL    HW220505   6.680   3.244   4.211
 6536SOL     OW20506   7.005   2.272   5.878
 6536SOL    HW120507   6.949   2.348   5.911
 6536SOL    HW220508   6.946   2.202   5.839
 6537SOL     OW20509   6.027   5.337   0.050
 6537SOL    HW120510   5.986   5.263   0.103
 6537SOL    HW220511   6.126   5.336   0.062
 6538SOL     OW20512   3.883   4.433   0.302
 6538SOL    HW120513   3.941   4.513   0.284
 6538SOL    HW220514   3.933   4.368   0.359
 6539SOL     OW20515   3.320   1.129   6.209
 6539SOL    HW120516   3.389   1.074   6.255
 6539SOL    HW220517   3.237   1.076   6.197
 6540SOL     OW20518   4.731   1.630   5.426
 6540SOL    HW120519   4.692   1.540   5.447
 6540SOL    HW220520   4.817   1.618   5.376
 6541SOL     OW20521   4.074   1.762   5.107
 6541SOL    HW120522   4.152   1.744   5.166
 6541SOL    HW220523   4.096   1.837   5.045
 6542SOL     OW20524   6.797   4.946   3.465
 6542SOL    HW120525   6.819   5.009   3.390
 6542SOL    HW220526   6.762   4.997   3.542
 6543SOL     OW20527   6.281   3.891   6.923
 6543SOL    HW120528   6.333   3.958   6.977
 6543SOL    HW220529   6.234   3.937   6.848
 6544SOL     OW20530   0.489   5.677   3.454
 6544SOL    HW120531   0.582   5.705   3.433
 6544SOL    HW220532   0.439   5.754   3.494
 6545SOL     OW20533   5.634   2.135   6.506
 6545SOL    HW120534   5.548   2.097   6.473
 6545SOL    HW220535   5.616   2.201   6.578
 6546SOL     OW20536   4.890   4.302   6.557
 6546SOL    HW120537   4.833   4.232   6.600
 6546SOL    HW220538   4.922   4.367   6.626
 6547SOL     OW20539   4.841   1.521   5.824
 6547SOL    HW120540   4.795   1.603   5.791
 6547SOL    HW220541   4.869   1.534   5.919
 6548SOL     OW20542   1.015   3.579   0.191
 6548SOL    HW120543   1.092   3.586   0.127
 6548SOL    HW220544   1.047   3.595   0.284
 6549SOL     OW20545   3.699   1.412   0.896
 6549SOL    HW120546   3.632   1.481   0.868
 6549SOL    HW220547   3.778   1.457   0.936
 6550SOL     OW20548   0.120   6.628   3.394
 6550SOL    HW120549   0.066   6.690   3.451
 6550SOL    HW220550   0.151   6.677   3.312
 6551SOL     OW20551   1.582   4.204   1.878
 6551SOL    HW120552   1.525   4.266   1.932
 6551SOL    HW220553   1.532   4.119   1.861
 6552SOL     OW20554   2.414   6.925   5.106
 6552SOL    HW120555   2.384   6.935   5.201
 6552SOL    HW220556   2.344   6.878   5.053
 6553SOL     OW20557   0.378   1.851   2.448
 6553SOL    HW120558   0.324   1.833   2.530
 6553SOL    HW220559   0.317   1.868   2.371
 6554SOL     OW20560   6.143   1.580   5.987
 6554SOL    HW120561   6.140   1.552   5.891
 6554SOL    HW220562   6.060   1.548   6.034
 6555SOL     OW20563   1.279   1.924   1.748
 6555SOL    HW120564   1.308   1.833   1.720
 6555SOL    HW220565   1.212   1.959   1.682
 6556SOL     OW20566   4.601   4.786   5.089
 6556SOL    HW120567   4.681   4.752   5.038
 6556SOL    HW220568   4.545   4.841   5.028
 6557SOL     OW20569   5.046   5.465   1.175
 6557SOL    HW120570   4.974   5.506   1.232
 6557SOL    HW220571   5.069   5.375   1.211
 6558SOL     OW20572   6.050   5.690   1.041
 6558SOL    HW120573   6.133   5.713   0.990
 6558SOL    HW220574   6.012   5.604   1.006
 6559SOL     OW20575   6.766   4.050   6.686
 6559SOL    HW120576   6.677   4.042   6.641
 6559SOL    HW220577   6.832   3.991   6.639
 6560SOL     OW20578   3.485   3.026   1.391
 6560SOL    HW120579   3.462   3.080   1.310
 6560SOL    HW220580   3.430   3.057   1.468
 6561SOL     OW20581   3.640   3.806   2.606
 6561SOL    HW120582   3.692   3.767   2.682
 6561SOL    HW220583   3.542   3.797   2.625
 6562SOL     OW20584   5.701   4.699   6.876
 6562SOL    HW120585   5.668   4.787   6.910
 6562SOL    HW220586   5.623   4.638   6.860
 6563SOL     OW20587   0.459   6.557   0.040
 6563SOL    HW120588   0.553   6.545   0.072
 6563SOL    HW220589   0.395   6.525   0.110
 6564SOL     OW20590   0.058   4.093   2.233
 6564SOL    HW120591   0.003   4.063   2.155
 6564SOL    HW220592   0.074   4.015   2.294
 6565SOL     OW20593   6.159   2.194   3.814
 6565SOL    HW120594   6.171   2.279   3.866
 6565SOL    HW220595   6.156   2.116   3.877
 6566SOL     OW20596   3.208   0.105   0.904
 6566SOL    HW120597   3.190   0.190   0.953
 6566SOL    HW220598   3.307   0.089   0.899
 6567SOL     OW20599   3.968   2.406   1.204
 6567SOL    HW120600   4.030   2.375   1.133
 6567SOL    HW220601   3.978   2.504   1.218
 6568SOL     OW20602   5.135   5.431   2.808
 6568SOL    HW120603   5.111   5.344   2.850
 6568SOL    HW220604   5.051   5.475   2.774
 6569SOL     OW20605   3.665   4.007   0.878
 6569SOL    HW120606   3.628   3.977   0.966
 6569SOL    HW220607   3.670   4.106   0.876
 6570SOL     OW20608   4.430   6.875   1.937
 6570SOL    HW120609   4.364   6.825   1.882
 6570SOL    HW220610   4.475   6.944   1.881
 6571SOL     OW20611   2.643   6.240   2.159
 6571SOL    HW120612   2.731   6.252   2.114
 6571SOL    HW220613   2.596   6.328   2.162
 6572SOL     OW20614   6.517   5.474   5.587
 6572SOL    HW120615   6.448   5.406   5.613
 6572SOL    HW220616   6.607   5.444   5.618
 6573SOL     OW20617   2.625   1.267   2.943
 6573SOL    HW120618   2.594   1.260   2.848
 6573SOL    HW220619   2.700   1.203   2.958
 6574SOL     OW20620   3.156   5.796   2.321
 6574SOL    HW120621   3.236   5.754   2.278
 6574SOL    HW220622   3.076   5.737   2.307
 6575SOL     OW20623   1.170   1.664   1.643
 6575SOL    HW120624   1.079   1.628   1.623
 6575SOL    HW220625   1.195   1.731   1.573
 6576SOL     OW20626   1.449   0.026   6.632
 6576SOL    HW120627   1.509   0.012   6.711
 6576SOL    HW220628   1.372   6.994   6.638
 6577SOL     OW20629   0.143   1.618   3.403
 6577SOL    HW120630   0.210   1.544   3.406
 6577SOL    HW220631   0.060   1.590   3.451
 6578SOL     OW20632   0.759   4.514   2.729
 6578SOL    HW120633   0.661   4.499   2.715
 6578SOL    HW220634   0.803   4.428   2.752
 6579SOL     OW20635   0.631   4.082   4.531
 6579SOL    HW120636   0.726   4.112   4.538
 6579SOL    HW220637   0.612   4.014   4.601
 6580SOL     OW20638   6.886   1.416   1.409
 6580SOL    HW120639   6.891   1.442   1.312
 6580SOL    HW220640   6.895   1.317   1.417
 6581SOL     OW20641   3.508   1.009   6.387
 6581SOL    HW120642   3.583   1.065   6.423
 6581SOL    HW220643   3.480   0.943   6.457
 6582SOL     OW20644   1.508   0.687   2.005
 6582SOL    HW120645   1.579   0.628   1.967
 6582SOL    HW220646   1.418   0.649   1.985
 6583SOL     OW20647   3.967   0.363   5.475
 6583SOL    HW120648   3.992   0.442   5.419
 6583SOL    HW220649   3.880   0.381   5.521
 6584SOL     OW20650   5.104   1.481   0.249
 6584SOL    HW120651   5.073   1.423   0.324
 6584SOL    HW220652   5.103   1.577   0.279
 6585SOL     OW20653   6.614   0.934   0.287
 6585SOL    HW120654   6.620   0.838   0.314
 6585SOL    HW220655   6.551   0.982   0.348
 6586SOL     OW20656   6.195   2.539   6.056
 6586SOL    HW120657   6.189   2.489   5.970
 6586SOL    HW220658   6.180   2.476   6.132
 6587SOL     OW20659   3.005   5.672   4.104
 6587SOL    HW120660   2.968   5.635   4.018
 6587SOL    HW220661   3.005   5.772   4.099
 6588SOL     OW20662   1.527   3.914   1.921
 6588SOL    HW120663   1.593   3.879   1.987
 6588SOL    HW220664   1.457   3.845   1.904
 6589SOL     OW20665   4.577   0.348   6.419
 6589SOL    HW120666   4.614   0.438   6.394
 6589SOL    HW220667   4.531   0.355   6.508
 6590SOL     OW20668   0.970   1.236   5.927
 6590SOL    HW120669   0.960   1.289   5.843
 6590SOL    HW220670   0.887   1.245   5.982
 6591SOL     OW20671   4.926   6.082   2.346
 6591SOL    HW120672   4.887   6.108   2.257
 6591SOL    HW220673   5.026   6.078   2.338
 6592SOL     OW20674   5.876   6.862   3.996
 6592SOL    HW120675   5.965   6.908   3.997
 6592SOL    HW220676   5.832   6.876   3.907
 6593SOL     OW20677   2.298   2.386   3.779
 6593SOL    HW120678   2.263   2.381   3.685
 6593SOL    HW220679   2.368   2.316   3.792
 6594SOL     OW20680   4.247   1.815   0.621
 6594SOL    HW120681   4.175   1.805   0.553
 6594SOL    HW220682   4.337   1.813   0.576
 6595SOL     OW20683   0.502   3.505   0.649
 6595SOL    HW120684   0.479   3.545   0.560
 6595SOL    HW220685   0.423   3.453   0.683
 6596SOL     OW20686   3.571   6.596   4.815
 6596SOL    HW120687   3.654   6.652   4.810
 6596SOL    HW220688   3.490   6.655   4.808
 6597SOL     OW20689   1.152   6.123   3.104
 6597SOL    HW120690   1.130   6.181   3.026
 6597SOL    HW220691   1.183   6.180   3.180
 6598SOL     OW20692   1.079   6.819   4.256
 6598SOL    HW120693   1.040   6.730   4.281
 6598SOL    HW220694   1.146   6.847   4.324
 6599SOL     OW20695   3.499   5.407   5.341
 6599SOL    HW120696   3.509   5.479   5.271
 6599SOL    HW220697   3.403   5.399   5.367
 6600SOL     OW20698   4.623   5.237   5.918
 6600SOL    HW120699   4.615   5.237   5.819
 6600SOL    HW220700   4.534   5.213   5.959
 6601SOL     OW20701   0.848   0.832   0.276
 6601SOL    HW120702   0.865   0.901   0.346
 6601SOL    HW220703   0.752   0.803   0.280
 6602SOL     OW20704   6.470   1.576   2.031
 6602SOL    HW120705   6.482   1.550   1.935
 6602SOL    HW220706   6.504   1.503   2.090
 6603SOL     OW20707   0.746   2.791   4.253
 6603SOL    HW120708   0.803   2.767   4.331
 6603SOL    HW220709   0.680   2.718   4.236
 6604SOL     OW20710   2.430   6.488   1.005
 6604SOL    HW120711   2.432   6.388   1.015
 6604SOL    HW220712   2.356   6.525   1.060
 6605SOL     OW20713   5.354   4.636   0.470
 6605SOL    HW120714   5.293   4.626   0.548
 6605SOL    HW220715   5.394   4.547   0.446
 6606SOL     OW20716   5.306   6.902   2.356
 6606SOL    HW120717   5.224   6.867   2.312
 6606SOL    HW220718   5.284   6.927   2.451
 6607SOL     OW20719   1.622   2.442   1.271
 6607SOL    HW120720   1.564   2.440   1.352
 6607SOL    HW220721   1.617   2.353   1.225
 6608SOL     OW20722   4.898   5.393   1.710
 6608SOL    HW120723   4.903   5.356   1.802
 6608SOL    HW220724   4.822   5.350   1.660
 6609SOL     OW20725   4.652   1.105   6.228
 6609SOL    HW120726   4.635   1.022   6.280
 6609SOL    HW220727   4.722   1.160   6.274
 6610SOL     OW20728   2.232   1.035   5.944
 6610SOL    HW120729   2.289   0.983   6.007
 6610SOL    HW220730   2.154   1.073   5.993
 6611SOL     OW20731   6.759   2.572   3.288
 6611SOL    HW120732   6.676   2.596   3.238
 6611SOL    HW220733   6.836   2.567   3.224
 6612SOL     OW20734   0.511   2.852   6.811
 6612SOL    HW120735   0.450   2.775   6.832
 6612SOL    HW220736   0.527   2.906   6.894
 6613SOL     OW20737   5.521   5.788   4.251
 6613SOL    HW120738   5.598   5.749   4.202
 6613SOL    HW220739   5.555   5.836   4.333
 6614SOL     OW20740   5.046   5.798   6.877
 6614SOL    HW120741   5.113   5.850   6.823
 6614SOL    HW220742   5.067   5.701   6.873
 6615SOL     OW20743   1.302   4.659   3.855
 6615SOL    HW120744   1.382   4.718   3.864
 6615SOL    HW220745   1.223   4.713   3.826
 6616SOL     OW20746   4.294   1.195   6.345
 6616SOL    HW120747   4.357   1.257   6.298
 6616SOL    HW220748   4.201   1.232   6.340
 6617SOL     OW20749   3.193   6.539   3.157
 6617SOL    HW120750   3.112   6.493   3.120
 6617SOL    HW220751   3.207   6.625   3.109
 6618SOL     OW20752   1.121   3.164   3.149
 6618SOL    HW120753   1.102   3.263   3.153
 6618SOL    HW220754   1.148   3.132   3.239
 6619SOL     OW20755   6.947   6.946   4.363
 6619SOL    HW120756   6.947   6.855   4.322
 6619SOL    HW220757   6.873   6.951   4.431
 6620SOL     OW20758   2.510   2.803   5.314
 6620SOL    HW120759   2.503   2.890   5.265
 6620SOL    HW220760   2.573   2.813   5.391
 6621SOL     OW20761   2.362   3.115   0.057
 6621SOL    HW120762   2.389   3.181   7.019
 6621SOL    HW220763   2.441   3.086   0.110
 6622SOL     OW20764   6.033   6.348   1.630
 6622SOL    HW120765   5.948   6.342   1.682
 6622SOL    HW220766   6.060   6.257   1.598
 6623SOL     OW20767   2.575   3.702   0.916
 6623SOL    HW120768   2.657   3.724   0.968
 6623SOL    HW220769   2.506   3.773   0.930
 6624SOL     OW20770   1.988   0.450   4.086
 6624SOL    HW120771   2.010   0.401   4.170
 6624SOL    HW220772   1.981   0.386   4.010
 6625SOL     OW20773   5.209   1.819   6.033
 6625SOL    HW120774   5.223   1.754   6.107
 6625SOL    HW220775   5.261   1.903   6.052
 6626SOL     OW20776   3.851   4.983   4.394
 6626SOL    HW120777   3.876   5.000   4.489
 6626SOL    HW220778   3.926   5.012   4.334
 6627SOL     OW20779   2.394   0.431   6.009
 6627SOL    HW120780   2.446   0.372   6.070
 6627SOL    HW220781   2.296   0.420   6.026
 6628SOL     OW20782   4.401   4.906   4.177
 6628SOL    HW120783   4.457   4.975   4.224
 6628SOL    HW220784   4.402   4.821   4.230
 6629SOL     OW20785   2.722   5.817   0.096
 6629SOL    HW120786   2.623   5.813   0.109
 6629SOL    HW220787   2.763   5.730   0.126
 6630SOL     OW20788   3.509   1.566   1.562
 6630SOL    HW120789   3.464   1.638   1.615
 6630SOL    HW220790   3.591   1.603   1.518
 6631SOL     OW20791   4.066   0.544   2.289
 6631SOL    HW120792   4.084   0.643   2.290
 6631SOL    HW220793   4.006   0.522   2.212
 6632SOL     OW20794   0.620   0.336   2.028
 6632SOL    HW120795   0.681   0.318   1.950
 6632SOL    HW220796   0.541   0.275   2.023
 6633SOL     OW20797   1.306   4.904   5.839
 6633SOL    HW120798   1.262   4.915   5.750
 6633SOL    HW220799   1.312   4.993   5.885
 6634SOL     OW20800   6.032   3.035   5.296
 6634SOL    HW120801   6.112   2.986   5.261
 6634SOL    HW220802   5.969   2.970   5.339
 6635SOL     OW20803   4.142   5.165   3.238
 6635SOL    HW120804   4.136   5.209   3.327
 6635SOL    HW220805   4.113   5.229   3.167
 6636SOL     OW20806   3.289   2.167   6.179
 6636SOL    HW120807   3.360   2.124   6.235
 6636SOL    HW220808   3.264   2.255   6.220
 6637SOL     OW20809   1.885   0.217   6.388
 6637SOL    HW120810   1.965   0.172   6.429
 6637SOL    HW220811   1.915   0.292   6.329
 6638SOL     OW20812   3.917   4.708   5.264
 6638SOL    HW120813   3.899   4.801   5.232
 6638SOL    HW220814   4.015   4.699   5.283
 6639SOL     OW20815   5.636   5.798   0.051
 6639SOL    HW120816   5.561   5.736   0.030
 6639SOL    HW220817   5.692   5.813   7.000
 6640SOL     OW20818   6.950   2.204   5.268
 6640SOL    HW120819   6.908   2.274   5.210
 6640SOL    HW220820   6.896   2.121   5.264
 6641SOL     OW20821   2.281   2.333   6.910
 6641SOL    HW120822   2.195   2.374   6.940
 6641SOL    HW220823   2.330   2.397   6.851
 6642SOL     OW20824   2.378   5.738   0.260
 6642SOL    HW120825   2.329   5.801   0.320
 6642SOL    HW220826   2.407   5.787   0.178
 6643SOL     OW20827   6.331   4.531   6.539
 6643SOL    HW120828   6.306   4.609   6.596
 6643SOL    HW220829   6.247   4.486   6.506
 6644SOL     OW20830   2.895   4.831   1.819
 6644SOL    HW120831   2.926   4.782   1.737
 6644SOL    HW220832   2.873   4.765   1.891
 6645SOL     OW20833   0.083   5.073   0.159
 6645SOL    HW120834   0.090   5.113   0.250
 6645SOL    HW220835   0.031   5.135   0.100
 6646SOL     OW20836   4.061   6.334   4.678
 6646SOL    HW120837   3.967   6.300   4.671
 6646SOL    HW220838   4.077   6.405   4.609
 6647SOL     OW20839   3.659   1.367   2.056
 6647SOL    HW120840   3.755   1.395   2.050
 6647SOL    HW220841   3.601   1.445   2.034
 6648SOL     OW20842   3.485   5.768   2.170
 6648SOL    HW120843   3.547   5.755   2.092
 6648SOL    HW220844   3.412   5.831   2.145
 6649SOL     OW20845   4.857   1.711   0.167
 6649SOL    HW120846   4.914   1.741   0.244
 6649SOL    HW220847   4.779   1.659   0.202
 6650SOL     OW20848   4.197   1.143   5.495
 6650SOL    HW120849   4.154   1.177   5.411
 6650SOL    HW220850   4.284   1.188   5.509
 6651SOL     OW20851   2.242   1.688   6.637
 6651SOL    HW120852   2.268   1.624   6.709
 6651SOL    HW220853   2.243   1.781   6.673
 6652SOL     OW20854   6.841   4.876   0.507
 6652SOL    HW120855   6.804   4.968   0.515
 6652SOL    HW220856   6.767   4.809   0.512
 6653SOL     OW20857   3.396   3.093   2.722
 6653SOL    HW120858   3.455   3.142   2.786
 6653SOL    HW220859   3.429   3.107   2.628
 6654SOL     OW20860   1.989   3.062   1.005
 6654SOL    HW120861   1.924   3.055   0.929
 6654SOL    HW220862   1.968   2.992   1.073
 6655SOL     OW20863   3.114   0.056   1.283
 6655SOL    HW120864   3.209   0.040   1.309
 6655SOL    HW220865   3.078   7.006   1.236
 6656SOL     OW20866   5.835   1.539   2.305
 6656SOL    HW120867   5.810   1.446   2.279
 6656SOL    HW220868   5.796   1.603   2.240
 6657SOL     OW20869   4.782   5.899   6.408
 6657SOL    HW120870   4.862   5.840   6.395
 6657SOL    HW220871   4.736   5.914   6.321
 6658SOL     OW20872   6.106   1.664   4.661
 6658SOL    HW120873   6.170   1.740   4.672
 6658SOL    HW220874   6.127   1.614   4.576
 6659SOL     OW20875   2.311   2.162   0.676
 6659SOL    HW120876   2.320   2.250   0.629
 6659SOL    HW220877   2.398   2.113   0.672
 6660SOL     OW20878   0.126   6.230   1.001
 6660SOL    HW120879   0.216   6.247   1.040
 6660SOL    HW220880   0.129   6.245   0.902
 6661SOL     OW20881   0.376   5.953   3.999
 6661SOL    HW120882   0.282   5.966   3.966
 6661SOL    HW220883   0.416   5.873   3.956
 6662SOL     OW20884   1.061   0.597   6.868
 6662SOL    HW120885   1.011   0.649   6.937
 6662SOL    HW220886   1.004   0.522   6.835
 6663SOL     OW20887   6.909   5.122   2.681
 6663SOL    HW120888   6.818   5.088   2.661
 6663SOL    HW220889   6.916   5.145   2.778
 6664SOL     OW20890   1.686   6.675   0.739
 6664SOL    HW120891   1.696   6.763   0.693
 6664SOL    HW220892   1.627   6.685   0.819
 6665SOL     OW20893   2.092   0.632   3.214
 6665SOL    HW120894   2.126   0.652   3.306
 6665SOL    HW220895   2.063   0.536   3.209
 6666SOL     OW20896   5.576   1.161   6.217
 6666SOL    HW120897   5.562   1.107   6.301
 6666SOL    HW220898   5.617   1.103   6.147
 6667SOL     OW20899   0.228   5.087   5.348
 6667SOL    HW120900   0.210   5.159   5.281
 6667SOL    HW220901   0.321   5.098   5.385
 6668SOL     OW20902   6.219   5.910   1.723
 6668SOL    HW120903   6.171   5.840   1.777
 6668SOL    HW220904   6.308   5.928   1.764
 6669SOL     OW20905   2.281   2.929   4.031
 6669SOL    HW120906   2.241   2.901   4.119
 6669SOL    HW220907   2.287   3.029   4.028
 6670SOL     OW20908   3.559   3.009   5.877
 6670SOL    HW120909   3.657   2.990   5.871
 6670SOL    HW220910   3.520   3.009   5.785
 6671SOL     OW20911   5.221   5.895   1.032
 6671SOL    HW120912   5.317   5.879   1.009
 6671SOL    HW220913   5.162   5.857   0.960
 6672SOL     OW20914   0.929   1.855   4.888
 6672SOL    HW120915   0.941   1.929   4.955
 6672SOL    HW220916   0.914   1.895   4.797
 6673SOL     OW20917   4.979   6.156   3.152
 6673SOL    HW120918   4.910   6.209   3.104
 6673SOL    HW220919   5.009   6.080   3.094
 6674SOL     OW20920   0.903   5.240   6.614
 6674SOL    HW120921   0.855   5.303   6.675
 6674SOL    HW220922   0.891   5.270   6.519
 6675SOL     OW20923   4.301   3.997   1.700
 6675SOL    HW120924   4.228   4.059   1.669
 6675SOL    HW220925   4.380   4.051   1.729
 6676SOL     OW20926   0.151   4.394   5.302
 6676SOL    HW120927   0.131   4.457   5.376
 6676SOL    HW220928   0.245   4.407   5.271
 6677SOL     OW20929   0.758   2.296   6.839
 6677SOL    HW120930   0.835   2.254   6.790
 6677SOL    HW220931   0.689   2.226   6.859
 6678SOL     OW20932   2.310   2.221   0.325
 6678SOL    HW120933   2.255   2.143   0.355
 6678SOL    HW220934   2.401   2.189   0.298
 6679SOL     OW20935   2.814   1.637   4.027
 6679SOL    HW120936   2.792   1.684   3.942
 6679SOL    HW220937   2.749   1.663   4.098
 6680SOL     OW20938   4.250   6.793   6.478
 6680SOL    HW120939   4.224   6.887   6.501
 6680SOL    HW220940   4.204   6.766   6.393
 6681SOL     OW20941   4.544   5.027   0.236
 6681SOL    HW120942   4.530   5.124   0.217
 6681SOL    HW220943   4.632   5.014   0.281
 6682SOL     OW20944   1.316   4.124   2.220
 6682SOL    HW120945   1.337   4.139   2.123
 6682SOL    HW220946   1.285   4.030   2.233
 6683SOL     OW20947   4.980   2.780   5.802
 6683SOL    HW120948   4.974   2.738   5.711
 6683SOL    HW220949   4.998   2.708   5.870
 6684SOL     OW20950   1.993   6.896   0.623
 6684SOL    HW120951   2.075   6.945   0.595
 6684SOL    HW220952   2.015   6.833   0.697
 6685SOL     OW20953   5.640   3.044   5.088
 6685SOL    HW120954   5.624   3.059   5.185
 6685SOL    HW220955   5.563   3.079   5.035
 6686SOL     OW20956   5.151   5.640   3.800
 6686SOL    HW120957   5.154   5.593   3.712
 6686SOL    HW220958   5.238   5.631   3.847
 6687SOL     OW20959   0.151   1.828   1.031
 6687SOL    HW120960   0.189   1.882   0.956
 6687SOL    HW220961   0.204   1.744   1.041
 6688SOL     OW20962   6.874   4.151   1.606
 6688SOL    HW120963   6.960   4.191   1.639
 6688SOL    HW220964   6.892   4.096   1.524
 6689SOL     OW20965   4.231   3.002   0.518
 6689SOL    HW120966   4.205   2.942   0.594
 6689SOL    HW220967   4.149   3.034   0.471
 6690SOL     OW20968   2.349   0.980   2.271
 6690SOL    HW120969   2.357   0.903   2.334
 6690SOL    HW220970   2.418   0.973   2.199
 6691SOL     OW20971   3.268   5.835   2.040
 6691SOL    HW120972   3.232   5.919   2.000
 6691SOL    HW220973   3.196   5.766   2.043
 6692SOL     OW20974   2.818   4.658   5.418
 6692SOL    HW120975   2.831   4.623   5.325
 6692SOL    HW220976   2.901   4.642   5.472
 6693SOL     OW20977   4.626   3.442   6.027
 6693SOL    HW120978   4.553   3.484   6.081
 6693SOL    HW220979   4.611   3.463   5.930
 6694SOL     OW20980   4.771   6.285   0.136
 6694SOL    HW120981   4.738   6.317   0.225
 6694SOL    HW220982   4.725   6.335   0.063
 6695SOL     OW20983   2.169   2.333   5.840
 6695SOL    HW120984   2.170   2.377   5.750
 6695SOL    HW220985   2.263   2.316   5.870
 6696SOL     OW20986   1.991   1.967   0.190
 6696SOL    HW120987   1.975   2.055   0.145
 6696SOL    HW220988   2.089   1.952   0.201
 6697SOL     OW20989   4.636   2.468   3.278
 6697SOL    HW120990   4.657   2.381   3.323
 6697SOL    HW220991   4.595   2.531   3.344
 6698SOL     OW20992   3.263   3.140   0.187
 6698SOL    HW120993   3.174   3.147   0.233
 6698SOL    HW220994   3.295   3.045   0.191
 6699SOL     OW20995   3.432   5.093   0.008
 6699SOL    HW120996   3.404   5.011   6.989
 6699SOL    HW220997   3.457   5.165   6.974
 6700SOL     OW20998   6.913   6.196   1.140
 6700SOL    HW120999   6.986   6.187   1.072
 6700SOL    HW221000   6.934   6.139   1.219
 6701SOL     OW21001   5.541   3.337   1.510
 6701SOL    HW121002   5.532   3.397   1.590
 6701SOL    HW221003   5.455   3.336   1.459
 6702SOL     OW21004   2.594   2.646   0.372
 6702SOL    HW121005   2.673   2.614   0.424
 6702SOL    HW221006   2.526   2.683   0.434
 6703SOL     OW21007   6.545   1.757   6.811
 6703SOL    HW121008   6.460   1.755   6.758
 6703SOL    HW221009   6.543   1.683   6.879
 6704SOL     OW21010   4.267   2.193   2.721
 6704SOL    HW121011   4.215   2.148   2.794
 6704SOL    HW221012   4.204   2.242   2.662
 6705SOL     OW21013   0.379   1.968   1.580
 6705SOL    HW121014   0.458   1.923   1.623
 6705SOL    HW221015   0.411   2.037   1.516
 6706SOL     OW21016   1.002   3.791   0.616
 6706SOL    HW121017   0.936   3.866   0.613
 6706SOL    HW221018   1.060   3.801   0.697
 6707SOL     OW21019   0.015   5.347   4.736
 6707SOL    HW121020   0.054   5.267   4.783
 6707SOL    HW221021   0.084   5.387   4.676
 6708SOL     OW21022   1.582   4.997   2.563
 6708SOL    HW121023   1.623   5.083   2.591
 6708SOL    HW221024   1.599   4.981   2.466
 6709SOL     OW21025   3.113   5.534   2.010
 6709SOL    HW121026   3.096   5.496   2.101
 6709SOL    HW221027   3.209   5.517   1.985
 6710SOL     OW21028   2.798   1.714   6.094
 6710SOL    HW121029   2.822   1.622   6.063
 6710SOL    HW221030   2.858   1.740   6.170
 6711SOL     OW21031   5.520   4.775   6.522
 6711SOL    HW121032   5.535   4.681   6.554
 6711SOL    HW221033   5.464   4.773   6.439
 6712SOL     OW21034   4.383   5.196   0.051
 6712SOL    HW121035   4.371   5.203   6.983
 6712SOL    HW221036   4.470   5.239   0.077
 6713SOL     OW21037   2.145   2.082   1.198
 6713SOL    HW121038   2.226   2.131   1.166
 6713SOL    HW221039   2.078   2.077   1.125
 6714SOL     OW21040   5.300   0.523   6.024
 6714SOL    HW121041   5.382   0.484   5.983
 6714SOL    HW221042   5.326   0.589   6.095
 6715SOL     OW21043   0.231   0.802   0.123
 6715SOL    HW121044   0.264   0.795   0.217
 6715SOL    HW221045   0.292   0.752   0.063
 6716SOL     OW21046   0.974   5.970   2.137
 6716SOL    HW121047   0.973   5.984   2.236
 6716SOL    HW221048   0.967   5.872   2.117
 6717SOL     OW21049   4.484   2.734   0.748
 6717SOL    HW121050   4.549   2.661   0.726
 6717SOL    HW221051   4.432   2.758   0.667
 6718SOL     OW21052   3.890   6.387   6.400
 6718SOL    HW121053   3.837   6.418   6.322
 6718SOL    HW221054   3.850   6.303   6.437
 6719SOL     OW21055   0.134   0.154   6.065
 6719SOL    HW121056   0.087   0.066   6.075
 6719SOL    HW221057   0.145   0.196   6.155
 6720SOL     OW21058   1.673   6.278   2.429
 6720SOL    HW121059   1.573   6.271   2.424
 6720SOL    HW221060   1.698   6.337   2.506
 6721SOL     OW21061   6.102   6.640   4.744
 6721SOL    HW121062   6.064   6.719   4.792
 6721SOL    HW221063   6.029   6.591   4.697
 6722SOL     OW21064   5.412   3.259   1.011
 6722SOL    HW121065   5.407   3.359   1.015
 6722SOL    HW221066   5.506   3.229   1.028
 6723SOL     OW21067   2.063   0.032   2.903
 6723SOL    HW121068   2.071   7.022   2.994
 6723SOL    HW221069   2.108   0.121   2.902
 6724SOL     OW21070   1.350   3.744   5.873
 6724SOL    HW121071   1.310   3.830   5.840
 6724SOL    HW221072   1.281   3.672   5.871
 6725SOL     OW21073   0.668   4.168   2.111
 6725SOL    HW121074   0.756   4.123   2.127
 6725SOL    HW221075   0.677   4.266   2.127
 6726SOL     OW21076   0.707   2.035   4.248
 6726SOL    HW121077   0.648   1.983   4.187
 6726SOL    HW221078   0.661   2.120   4.274
 6727SOL     OW21079   6.026   3.798   5.876
 6727SOL    HW121080   6.107   3.762   5.830
 6727SOL    HW221081   5.972   3.723   5.913
 6728SOL     OW21082   4.650   1.431   4.454
 6728SOL    HW121083   4.625   1.334   4.461
 6728SOL    HW221084   4.700   1.457   4.537
 6729SOL     OW21085   6.407   1.474   2.401
 6729SOL    HW121086   6.338   1.547   2.408
 6729SOL    HW221087   6.478   1.489   2.469
 6730SOL     OW21088   1.981   6.405   6.345
 6730SOL    HW121089   1.937   6.315   6.335
 6730SOL    HW221090   1.911   6.473   6.367
 6731SOL     OW21091   2.510   4.449   0.897
 6731SOL    HW121092   2.501   4.499   0.983
 6731SOL    HW221093   2.565   4.367   0.912
 6732SOL     OW21094   3.586   5.562   6.401
 6732SOL    HW121095   3.636   5.488   6.445
 6732SOL    HW221096   3.543   5.620   6.470
 6733SOL     OW21097   4.103   5.041   6.563
 6733SOL    HW121098   4.199   5.020   6.541
 6733SOL    HW221099   4.099   5.130   6.609
 6734SOL     OW21100   0.662   3.380   5.765
 6734SOL    HW121101   0.614   3.327   5.696
 6734SOL    HW221102   0.597   3.415   5.832
 6735SOL     OW21103   0.499   5.293   5.084
 6735SOL    HW121104   0.598   5.286   5.098
 6735SOL    HW221105   0.472   5.232   5.010
 6736SOL     OW21106   2.133   3.513   0.240
 6736SOL    HW121107   2.046   3.476   0.271
 6736SOL    HW221108   2.154   3.596   0.292
 6737SOL     OW21109   1.820   2.451   1.048
 6737SOL    HW121110   1.764   2.416   1.123
 6737SOL    HW221111   1.887   2.516   1.084
 6738SOL     OW21112   1.880   2.919   2.056
 6738SOL    HW121113   1.790   2.908   2.015
 6738SOL    HW221114   1.947   2.938   1.985
 6739SOL     OW21115   2.840   5.142   6.023
 6739SOL    HW121116   2.812   5.106   6.111
 6739SOL    HW221117   2.780   5.106   5.951
 6740SOL     OW21118   1.987   1.409   4.646
 6740SOL    HW121119   1.924   1.445   4.576
 6740SOL    HW221120   1.940   1.339   4.700
 6741SOL     OW21121   4.494   1.593   6.281
 6741SOL    HW121122   4.494   1.501   6.242
 6741SOL    HW221123   4.407   1.608   6.330
 6742SOL     OW21124   0.265   5.632   3.283
 6742SOL    HW121125   0.275   5.549   3.228
 6742SOL    HW221126   0.348   5.646   3.338
 6743SOL     OW21127   4.108   4.428   6.823
 6743SOL    HW121128   4.040   4.446   6.752
 6743SOL    HW221129   4.187   4.488   6.808
 6744SOL     OW21130   4.335   5.761   6.193
 6744SOL    HW121131   4.419   5.813   6.207
 6744SOL    HW221132   4.260   5.804   6.244
 6745SOL     OW21133   1.059   5.439   2.634
 6745SOL    HW121134   1.054   5.340   2.625
 6745SOL    HW221135   1.145   5.472   2.597
 6746SOL     OW21136   0.468   0.807   2.844
 6746SOL    HW121137   0.460   0.728   2.784
 6746SOL    HW221138   0.558   0.808   2.886
 6747SOL     OW21139   5.327   6.332   4.576
 6747SOL    HW121140   5.306   6.345   4.673
 6747SOL    HW221141   5.396   6.399   4.548
 6748SOL     OW21142   1.371   0.329   2.466
 6748SOL    HW121143   1.390   0.393   2.540
 6748SOL    HW221144   1.429   0.351   2.387
 6749SOL     OW21145   2.921   6.606   6.939
 6749SOL    HW121146   2.876   6.555   7.013
 6749SOL    HW221147   2.895   6.703   6.945
 6750SOL     OW21148   3.879   1.855   4.659
 6750SOL    HW121149   3.786   1.823   4.679
 6750SOL    HW221150   3.877   1.953   4.641
 6751SOL     OW21151   3.423   2.164   3.947
 6751SOL    HW121152   3.467   2.245   3.907
 6751SOL    HW221153   3.490   2.090   3.954
 6752SOL     OW21154   6.275   3.269   2.181
 6752SOL    HW121155   6.270   3.260   2.082
 6752SOL    HW221156   6.186   3.299   2.216
 6753SOL     OW21157   4.298   1.834   6.638
 6753SOL    HW121158   4.262   1.741   6.651
 6753SOL    HW221159   4.396   1.835   6.657
 6754SOL     OW21160   6.597   2.065   5.700
 6754SOL    HW121161   6.524   2.092   5.638
 6754SOL    HW221162   6.558   2.019   5.780
 6755SOL     OW21163   4.899   1.715   3.726
 6755SOL    HW121164   4.944   1.799   3.697
 6755SOL    HW221165   4.962   1.659   3.780
 6756SOL     OW21166   4.725   4.322   4.299
 6756SOL    HW121167   4.638   4.338   4.345
 6756SOL    HW221168   4.792   4.287   4.364
 6757SOL     OW21169   4.839   5.942   0.694
 6757SOL    HW121170   4.831   5.986   0.783
 6757SOL    HW221171   4.764   5.971   0.635
 6758SOL     OW21172   5.078   3.558   2.080
 6758SOL    HW121173   5.160   3.574   2.026
 6758SOL    HW221174   5.011   3.507   2.025
 6759SOL     OW21175   0.860   4.368   3.992
 6759SOL    HW121176   0.769   4.410   3.997
 6759SOL    HW221177   0.923   4.419   4.050
 6760SOL     OW21178   6.600   4.939   4.723
 6760SOL    HW121179   6.631   4.938   4.628
 6760SOL    HW221180   6.557   4.852   4.745
 6761SOL     OW21181   5.392   2.286   5.846
 6761SOL    HW121182   5.344   2.360   5.799
 6761SOL    HW221183   5.477   2.321   5.885
 6762SOL     OW21184   6.910   5.460   3.054
 6762SOL    HW121185   6.934   5.388   2.990
 6762SOL    HW221186   6.830   5.432   3.108
 6763SOL     OW21187   6.430   6.243   4.003
 6763SOL    HW121188   6.407   6.178   4.076
 6763SOL    HW221189   6.374   6.325   4.013
 6764SOL     OW21190   2.964   3.896   6.496
 6764SOL    HW121191   2.976   3.859   6.404
 6764SOL    HW221192   2.990   3.992   6.497
 6765SOL     OW21193   6.326   4.840   3.766
 6765SOL    HW121194   6.253   4.858   3.700
 6765SOL    HW221195   6.338   4.920   3.825
 6766SOL     OW21196   2.810   0.012   5.993
 6766SOL    HW121197   2.788   0.095   5.941
 6766SOL    HW221198   2.730   6.984   6.000
 6767SOL     OW21199   0.070   2.884   0.967
 6767SOL    HW121200   7.022   2.882   1.030
 6767SOL    HW221201   0.053   2.952   0.895
 6768SOL     OW21202   0.671   0.892   3.154
 6768SOL    HW121203   0.695   0.900   3.057
 6768SOL    HW221204   0.620   0.973   3.182
 6769SOL     OW21205   3.185   1.884   5.285
 6769SOL    HW121206   3.161   1.939   5.364
 6769SOL    HW221207   3.209   1.943   5.208
 6770SOL     OW21208   0.258   2.704   4.278
 6770SOL    HW121209   0.328   2.715   4.349
 6770SOL    HW221210   0.182   2.767   4.296
 6771SOL     OW21211   4.027   2.229   3.558
 6771SOL    HW121212   3.988   2.206   3.469
 6771SOL    HW221213   3.956   2.226   3.628
 6772SOL     OW21214   5.309   1.905   2.325
 6772SOL    HW121215   5.283   1.949   2.411
 6772SOL    HW221216   5.339   1.974   2.259
 6773SOL     OW21217   6.788   6.580   1.371
 6773SOL    HW121218   6.706   6.610   1.421
 6773SOL    HW221219   6.820   6.654   1.313
 6774SOL     OW21220   1.882   1.826   5.416
 6774SOL    HW121221   1.935   1.743   5.400
 6774SOL    HW221222   1.833   1.818   5.503
 6775SOL     OW21223   1.236   1.798   3.845
 6775SOL    HW121224   1.281   1.867   3.902
 6775SOL    HW221225   1.293   1.778   3.765
 6776SOL     OW21226   3.566   4.232   1.093
 6776SOL    HW121227   3.557   4.133   1.109
 6776SOL    HW221228   3.572   4.279   1.181
 6777SOL     OW21229   4.265   5.430   1.082
 6777SOL    HW121230   4.317   5.346   1.063
 6777SOL    HW221231   4.328   5.504   1.102
 6778SOL     OW21232   5.404   3.362   2.475
 6778SOL    HW121233   5.344   3.435   2.509
 6778SOL    HW221234   5.349   3.281   2.456
 6779SOL     OW21235   6.076   4.211   6.051
 6779SOL    HW121236   6.021   4.290   6.079
 6779SOL    HW221237   6.087   4.150   6.129
 6780SOL     OW21238   2.416   2.707   3.023
 6780SOL    HW121239   2.327   2.753   3.024
 6780SOL    HW221240   2.462   2.722   3.111
 6781SOL     OW21241   6.589   0.976   3.955
 6781SOL    HW121242   6.665   0.911   3.955
 6781SOL    HW221243   6.544   0.973   4.044
 6782SOL     OW21244   6.847   1.252   3.556
 6782SOL    HW121245   6.909   1.211   3.623
 6782SOL    HW221246   6.857   1.205   3.469
 6783SOL     OW21247   1.487   4.383   5.395
 6783SOL    HW121248   1.557   4.317   5.369
 6783SOL    HW221249   1.401   4.359   5.349
 6784SOL     OW21250   2.350   3.284   1.670
 6784SOL    HW121251   2.279   3.228   1.714
 6784SOL    HW221252   2.370   3.363   1.727
 6785SOL     OW21253   5.551   4.595   4.979
 6785SOL    HW121254   5.469   4.539   4.988
 6785SOL    HW221255   5.619   4.546   4.924
 6786SOL     OW21256   6.078   3.123   0.710
 6786SOL    HW121257   6.033   3.167   0.788
 6786SOL    HW221258   6.087   3.025   0.728
 6787SOL     OW21259   3.464   2.262   0.804
 6787SOL    HW121260   3.531   2.213   0.749
 6787SOL    HW221261   3.511   2.311   0.878
 6788SOL     OW21262   1.070   3.938   3.121
 6788SOL    HW121263   1.107   3.883   3.195
 6788SOL    HW221264   1.048   4.030   3.154
 6789SOL     OW21265   6.558   3.874   4.165
 6789SOL    HW121266   6.595   3.847   4.254
 6789SOL    HW221267   6.482   3.814   4.140
 6790SOL     OW21268   0.778   5.154   6.264
 6790SOL    HW121269   0.848   5.225   6.269
 6790SOL    HW221270   0.813   5.070   6.306
 6791SOL     OW21271   4.430   1.613   4.052
 6791SOL    HW121272   4.489   1.682   4.010
 6791SOL    HW221273   4.375   1.569   3.981
 6792SOL     OW21274   4.394   0.010   5.099
 6792SOL    HW121275   4.357   6.990   5.178
 6792SOL    HW221276   4.333   7.029   5.021
 6793SOL     OW21277   2.599   2.865   6.879
 6793SOL    HW121278   2.520   2.832   6.931
 6793SOL    HW221279   2.675   2.801   6.889
 6794SOL     OW21280   4.684   1.287   5.763
 6794SOL    HW121281   4.739   1.357   5.717
 6794SOL    HW221282   4.714   1.279   5.858
 6795SOL     OW21283   1.406   0.918   1.033
 6795SOL    HW121284   1.457   0.859   0.971
 6795SOL    HW221285   1.436   1.013   1.022
 6796SOL     OW21286   6.655   1.022   2.257
 6796SOL    HW121287   6.582   0.964   2.292
 6796SOL    HW221288   6.729   0.965   2.220
 6797SOL     OW21289   6.997   2.525   1.883
 6797SOL    HW121290   0.029   2.561   1.813
 6797SOL    HW221291   6.903   2.546   1.856
 6798SOL     OW21292   5.149   0.633   1.756
 6798SOL    HW121293   5.188   0.672   1.839
 6798SOL    HW221294   5.155   0.533   1.760
 6799SOL     OW21295   5.665   6.871   3.576
 6799SOL    HW121296   5.715   6.941   3.524
 6799SOL    HW221297   5.650   6.903   3.669
 6800SOL     OW21298   1.129   0.857   1.204
 6800SOL    HW121299   1.144   0.836   1.108
 6800SOL    HW221300   1.218   0.872   1.249
 6801SOL     OW21301   1.428   6.339   4.789
 6801SOL    HW121302   1.350   6.342   4.727
 6801SOL    HW221303   1.415   6.266   4.856
 6802SOL     OW21304   2.998   5.921   1.727
 6802SOL    HW121305   3.092   5.901   1.699
 6802SOL    HW221306   2.989   5.907   1.825
 6803SOL     OW21307   5.101   4.581   0.268
 6803SOL    HW121308   5.081   4.563   0.172
 6803SOL    HW221309   5.195   4.612   0.277
 6804SOL     OW21310   2.688   4.855   2.827
 6804SOL    HW121311   2.599   4.859   2.870
 6804SOL    HW221312   2.681   4.806   2.740
 6805SOL     OW21313   0.306   5.114   5.695
 6805SOL    HW121314   0.381   5.152   5.748
 6805SOL    HW221315   0.229   5.094   5.755
 6806SOL     OW21316   6.915   0.645   3.627
 6806SOL    HW121317   6.831   0.608   3.666
 6806SOL    HW221318   6.974   0.680   3.700
 6807SOL     OW21319   3.207   4.076   3.310
 6807SOL    HW121320   3.279   4.070   3.241
 6807SOL    HW221321   3.245   4.052   3.400
 6808SOL     OW21322   4.808   1.129   5.117
 6808SOL    HW121323   4.716   1.114   5.155
 6808SOL    HW221324   4.848   1.041   5.093
 6809SOL     OW21325   5.850   4.519   2.047
 6809SOL    HW121326   5.785   4.470   2.105
 6809SOL    HW221327   5.850   4.479   1.955
 6810SOL     OW21328   2.914   1.284   3.238
 6810SOL    HW121329   2.838   1.219   3.239
 6810SOL    HW221330   2.880   1.374   3.212
 6811SOL     OW21331   6.102   1.620   2.301
 6811SOL    HW121332   6.125   1.693   2.367
 6811SOL    HW221333   6.003   1.605   2.302
 6812SOL     OW21334   3.364   4.007   5.508
 6812SOL    HW121335   3.288   4.025   5.446
 6812SOL    HW221336   3.362   4.073   5.583
 6813SOL     OW21337   5.083   3.407   1.630
 6813SOL    HW121338   5.177   3.419   1.598
 6813SOL    HW221339   5.076   3.432   1.726
 6814SOL     OW21340   4.275   1.512   6.454
 6814SOL    HW121341   4.235   1.423   6.474
 6814SOL    HW221342   4.207   1.569   6.408
 6815SOL     OW21343   1.866   5.421   6.623
 6815SOL    HW121344   1.777   5.467   6.616
 6815SOL    HW221345   1.920   5.439   6.540
 6816SOL     OW21346   6.972   2.080   4.312
 6816SOL    HW121347   6.924   2.043   4.232
 6816SOL    HW221348   6.946   2.028   4.393
 6817SOL     OW21349   3.004   2.237   2.793
 6817SOL    HW121350   2.945   2.307   2.834
 6817SOL    HW221351   2.981   2.148   2.831
 6818SOL     OW21352   2.115   6.170   5.885
 6818SOL    HW121353   2.147   6.265   5.889
 6818SOL    HW221354   2.052   6.159   5.809
 6819SOL     OW21355   5.019   5.188   2.869
 6819SOL    HW121356   5.034   5.125   2.792
 6819SOL    HW221357   4.927   5.173   2.906
 6820SOL     OW21358   1.634   6.555   1.712
 6820SOL    HW121359   1.656   6.458   1.723
 6820SOL    HW221360   1.535   6.567   1.714
 6821SOL     OW21361   4.322   2.660   5.343
 6821SOL    HW121362   4.283   2.684   5.432
 6821SOL    HW221363   4.252   2.619   5.285
 6822SOL     OW21364   6.912   3.055   6.181
 6822SOL    HW121365   6.943   3.070   6.088
 6822SOL    HW221366   6.990   3.058   6.244
 6823SOL     OW21367   5.511   3.549   0.035
 6823SOL    HW121368   5.605   3.531   0.005
 6823SOL    HW221369   5.457   3.580   6.987
 6824SOL     OW21370   1.721   1.667   6.836
 6824SOL    HW121371   1.645   1.603   6.836
 6824SOL    HW221372   1.804   1.621   6.803
 6825SOL     OW21373   7.022   6.001   1.322
 6825SOL    HW121374   0.061   5.930   1.316
 6825SOL    HW221375   6.944   5.967   1.375
 6826SOL     OW21376   0.937   3.451   3.080
 6826SOL    HW121377   0.896   3.413   3.163
 6826SOL    HW221378   0.867   3.498   3.026
 6827SOL     OW21379   4.494   5.719   5.171
 6827SOL    HW121380   4.474   5.737   5.074
 6827SOL    HW221381   4.516   5.622   5.183
 6828SOL     OW21382   3.605   1.354   2.970
 6828SOL    HW121383   3.637   1.289   3.039
 6828SOL    HW221384   3.609   1.446   3.007
 6829SOL     OW21385   4.926   6.901   4.888
 6829SOL    HW121386   4.978   6.830   4.841
 6829SOL    HW221387   4.987   6.954   4.947
 6830SOL     OW21388   5.857   0.793   3.018
 6830SOL    HW121389   5.776   0.834   2.977
 6830SOL    HW221390   5.858   0.812   3.116
 6831SOL     OW21391   1.393   1.523   5.534
 6831SOL    HW121392   1.423   1.453   5.469
 6831SOL    HW221393   1.452   1.523   5.614
 6832SOL     OW21394   3.008   2.246   0.693
 6832SOL    HW121395   3.070   2.324   0.684
 6832SOL    HW221396   2.991   2.228   0.790
 6833SOL     OW21397   2.640   5.595   6.280
 6833SOL    HW121398   2.660   5.642   6.194
 6833SOL    HW221399   2.638   5.662   6.354
 6834SOL     OW21400   4.828   0.266   0.802
 6834SOL    HW121401   4.907   0.216   0.839
 6834SOL    HW221402   4.819   0.246   0.705
 6835SOL     OW21403   3.366   2.092   4.243
 6835SOL    HW121404   3.367   2.115   4.146
 6835SOL    HW221405   3.288   2.137   4.287
 6836SOL     OW21406   1.822   4.707   6.540
 6836SOL    HW121407   1.801   4.728   6.444
 6836SOL    HW221408   1.921   4.704   6.552
 6837SOL     OW21409   1.220   0.627   1.996
 6837SOL    HW121410   1.234   0.539   2.043
 6837SOL    HW221411   1.139   0.672   2.034
 6838SOL     OW21412   2.545   4.594   5.125
 6838SOL    HW121413   2.631   4.621   5.083
 6838SOL    HW221414   2.485   4.554   5.056
 6839SOL     OW21415   5.342   1.986   4.221
 6839SOL    HW121416   5.342   1.896   4.264
 6839SOL    HW221417   5.435   2.022   4.219
 6840SOL     OW21418   2.489   6.553   4.696
 6840SOL    HW121419   2.454   6.460   4.711
 6840SOL    HW221420   2.582   6.548   4.662
 6841SOL     OW21421   4.023   5.648   1.567
 6841SOL    HW121422   4.078   5.702   1.503
 6841SOL    HW221423   3.964   5.586   1.516
 6842SOL     OW21424   0.424   3.365   6.870
 6842SOL    HW121425   0.431   3.319   6.781
 6842SOL    HW221426   0.506   3.347   6.924
 6843SOL     OW21427   4.497   1.912   2.025
 6843SOL    HW121428   4.516   1.994   2.079
 6843SOL    HW221429   4.399   1.906   2.006
 6844SOL     OW21430   4.338   5.225   4.730
 6844SOL    HW121431   4.315   5.134   4.695
 6844SOL    HW221432   4.433   5.245   4.708
 6845SOL     OW21433   4.392   4.638   2.811
 6845SOL    HW121434   4.384   4.654   2.713
 6845SOL    HW221435   4.414   4.725   2.857
 6846SOL     OW21436   3.520   3.023   2.014
 6846SOL    HW121437   3.584   3.095   1.987
 6846SOL    HW221438   3.467   2.993   1.934
 6847SOL     OW21439   4.626   3.413   1.605
 6847SOL    HW121440   4.548   3.366   1.564
 6847SOL    HW221441   4.711   3.373   1.573
 6848SOL     OW21442   0.774   5.044   4.490
 6848SOL    HW121443   0.859   5.095   4.502
 6848SOL    HW221444   0.776   4.995   4.403
 6849SOL     OW21445   3.726   5.552   3.944
 6849SOL    HW121446   3.781   5.602   3.878
 6849SOL    HW221447   3.638   5.597   3.955
 6850SOL     OW21448   5.648   1.669   3.729
 6850SOL    HW121449   5.595   1.629   3.654
 6850SOL    HW221450   5.623   1.765   3.740
 6851SOL     OW21451   0.886   5.010   5.807
 6851SOL    HW121452   0.960   5.055   5.857
 6851SOL    HW221453   0.889   4.911   5.826
 6852SOL     OW21454   0.684   4.011   1.693
 6852SOL    HW121455   0.590   4.001   1.658
 6852SOL    HW221456   0.697   4.105   1.725
 6853SOL     OW21457   0.971   5.868   5.795
 6853SOL    HW121458   0.919   5.908   5.720
 6853SOL    HW221459   1.054   5.922   5.812
 6854SOL     OW21460   6.514   1.914   5.971
 6854SOL    HW121461   6.600   1.864   5.985
 6854SOL    HW221462   6.519   2.002   6.017
 6855SOL     OW21463   3.916   6.982   3.155
 6855SOL    HW121464   3.870   7.003   3.068
 6855SOL    HW221465   4.015   6.989   3.142
 6856SOL     OW21466   6.678   3.977   4.663
 6856SOL    HW121467   6.718   4.036   4.734
 6856SOL    HW221468   6.708   3.883   4.678
 6857SOL     OW21469   3.355   1.579   6.337
 6857SOL    HW121470   3.337   1.672   6.369
 6857SOL    HW221471   3.414   1.583   6.256
 6858SOL     OW21472   4.053   3.358   4.273
 6858SOL    HW121473   4.048   3.401   4.363
 6858SOL    HW221474   4.014   3.266   4.278
 6859SOL     OW21475   2.288   6.639   0.687
 6859SOL    HW121476   2.379   6.671   0.714
 6859SOL    HW221477   2.296   6.550   0.642
 6860SOL     OW21478   5.590   4.540   1.527
 6860SOL    HW121479   5.570   4.543   1.625
 6860SOL    HW221480   5.684   4.506   1.513
 6861SOL     OW21481   5.773   5.291   0.424
 6861SOL    HW121482   5.818   5.221   0.480
 6861SOL    HW221483   5.842   5.355   0.390
 6862SOL     OW21484   2.877   4.770   4.658
 6862SOL    HW121485   2.838   4.679   4.674
 6862SOL    HW221486   2.862   4.796   4.562
 6863SOL     OW21487   6.535   1.236   4.474
 6863SOL    HW121488   6.441   1.215   4.447
 6863SOL    HW221489   6.585   1.273   4.395
 6864SOL     OW21490   3.247   5.778   3.542
 6864SOL    HW121491   3.202   5.865   3.524
 6864SOL    HW221492   3.183   5.715   3.586
 6865SOL     OW21493   6.311   4.023   4.078
 6865SOL    HW121494   6.250   3.953   4.039
 6865SOL    HW221495   6.365   3.982   4.151
 6866SOL     OW21496   6.912   4.028   2.032
 6866SOL    HW121497   6.834   4.065   1.981
 6866SOL    HW221498   6.884   3.944   2.079
 6867SOL     OW21499   1.658   3.969   1.700
 6867SOL    HW121500   1.728   4.035   1.727
 6867SOL    HW221501   1.613   3.932   1.781
 6868SOL     OW21502   1.767   6.138   4.566
 6868SOL    HW121503   1.853   6.125   4.616
 6868SOL    HW221504   1.716   6.213   4.607
 6869SOL     OW21505   5.832   3.152   4.908
 6869SOL    HW121506   5.753   3.106   4.948
 6869SOL    HW221507   5.891   3.187   4.981
 6870SOL     OW21508   5.533   3.808   3.209
 6870SOL    HW121509   5.486   3.735   3.159
 6870SOL    HW221510   5.549   3.779   3.303
 6871SOL     OW21511   6.076   4.742   1.976
 6871SOL    HW121512   6.123   4.742   1.888
 6871SOL    HW221513   5.982   4.775   1.964
 6872SOL     OW21514   1.688   3.367   1.140
 6872SOL    HW121515   1.608   3.380   1.199
 6872SOL    HW221516   1.705   3.269   1.127
 6873SOL     OW21517   5.897   3.010   6.021
 6873SOL    HW121518   5.799   3.029   6.020
 6873SOL    HW221519   5.911   2.912   6.036
 6874SOL     OW21520   0.262   3.673   4.269
 6874SOL    HW121521   0.217   3.585   4.284
 6874SOL    HW221522   0.228   3.713   4.184
 6875SOL     OW21523   1.514   1.518   3.173
 6875SOL    HW121524   1.534   1.529   3.076
 6875SOL    HW221525   1.415   1.520   3.187
 6876SOL     OW21526   3.169   5.859   6.584
 6876SOL    HW121527   3.236   5.786   6.593
 6876SOL    HW221528   3.079   5.820   6.567
 6877SOL     OW21529   2.156   4.517   0.059
 6877SOL    HW121530   2.155   4.446   7.019
 6877SOL    HW221531   2.107   4.597   0.027
 6878SOL     OW21532   2.303   1.890   6.132
 6878SOL    HW121533   2.388   1.845   6.103
 6878SOL    HW221534   2.245   1.905   6.052
 6879SOL     OW21535   0.051   1.695   0.209
 6879SOL    HW121536   0.013   1.769   0.154
 6879SOL    HW221537   0.114   1.732   0.277
 6880SOL     OW21538   2.031   3.976   4.969
 6880SOL    HW121539   2.127   3.999   4.957
 6880SOL    HW221540   2.006   3.986   5.066
 6881SOL     OW21541   0.138   4.343   1.278
 6881SOL    HW121542   0.122   4.245   1.265
 6881SOL    HW221543   0.137   4.364   1.376
 6882SOL     OW21544   2.124   0.406   5.150
 6882SOL    HW121545   2.137   0.448   5.060
 6882SOL    HW221546   2.040   0.440   5.191
 6883SOL     OW21547   3.730   0.143   0.807
 6883SOL    HW121548   3.813   0.143   0.864
 6883SOL    HW221549   3.659   0.195   0.853
 6884SOL     OW21550   2.290   4.209   4.448
 6884SOL    HW121551   2.259   4.158   4.529
 6884SOL    HW221552   2.350   4.283   4.477
 6885SOL     OW21553   3.134   6.029   3.507
 6885SOL    HW121554   3.048   5.982   3.528
 6885SOL    HW221555   3.125   6.078   3.421
 6886SOL     OW21556   5.445   1.226   2.423
 6886SOL    HW121557   5.472   1.261   2.333
 6886SOL    HW221558   5.345   1.231   2.432
 6887SOL     OW21559   5.141   0.038   4.683
 6887SOL    HW121560   5.192   0.113   4.640
 6887SOL    HW221561   5.198   6.986   4.683
 6888SOL     OW21562   5.910   0.331   5.443
 6888SOL    HW121563   5.880   0.361   5.353
 6888SOL    HW221564   5.857   0.379   5.513
 6889SOL     OW21565   1.004   2.695   5.541
 6889SOL    HW121566   1.047   2.662   5.457
 6889SOL    HW221567   0.970   2.618   5.594
 6890SOL     OW21568   2.352   0.386   0.759
 6890SOL    HW121569   2.403   0.303   0.737
 6890SOL    HW221570   2.261   0.381   0.718
 6891SOL     OW21571   2.051   3.472   4.835
 6891SOL    HW121572   1.958   3.490   4.803
 6891SOL    HW221573   2.109   3.550   4.813
 6892SOL     OW21574   4.112   0.230   3.956
 6892SOL    HW121575   4.103   0.300   4.027
 6892SOL    HW221576   4.118   0.140   3.999
 6893SOL     OW21577   5.443   5.711   2.455
 6893SOL    HW121578   5.404   5.719   2.546
 6893SOL    HW221579   5.524   5.769   2.448
 6894SOL     OW21580   6.408   5.381   0.552
 6894SOL    HW121581   6.394   5.471   0.592
 6894SOL    HW221582   6.501   5.374   0.516
 6895SOL     OW21583   3.044   4.358   6.757
 6895SOL    HW121584   3.042   4.345   6.856
 6895SOL    HW221585   2.971   4.422   6.731
 6896SOL     OW21586   3.851   0.459   3.845
 6896SOL    HW121587   3.772   0.484   3.788
 6896SOL    HW221588   3.859   0.360   3.848
 6897SOL     OW21589   2.739   3.275   0.203
 6897SOL    HW121590   2.685   3.252   0.122
 6897SOL    HW221591   2.725   3.205   0.273
 6898SOL     OW21592   4.324   1.394   1.910
 6898SOL    HW121593   4.354   1.489   1.915
 6898SOL    HW221594   4.373   1.340   1.978
 6899SOL     OW21595   5.204   6.943   6.312
 6899SOL    HW121596   5.288   6.923   6.261
 6899SOL    HW221597   5.221   6.932   6.410
 6900SOL     OW21598   5.897   0.841   5.910
 6900SOL    HW121599   5.823   0.774   5.923
 6900SOL    HW221600   5.958   0.837   5.989
 6901SOL     OW21601   0.156   6.979   6.544
 6901SOL    HW121602   0.238   6.985   6.600
 6901SOL    HW221603   0.178   7.003   6.449
 6902SOL     OW21604   0.590   6.906   0.322
 6902SOL    HW121605   0.686   6.881   0.322
 6902SOL    HW221606   0.556   6.910   0.416
 6903SOL     OW21607   3.874   3.181   0.524
 6903SOL    HW121608   3.787   3.216   0.490
 6903SOL    HW221609   3.940   3.256   0.532
 6904SOL     OW21610   6.571   1.322   3.458
 6904SOL    HW121611   6.604   1.399   3.513
 6904SOL    HW221612   6.590   1.236   3.507
 6905SOL     OW21613   5.828   6.643   0.518
 6905SOL    HW121614   5.810   6.716   0.584
 6905SOL    HW221615   5.852   6.559   0.567
 6906SOL     OW21616   3.590   1.065   4.701
 6906SOL    HW121617   3.667   1.055   4.765
 6906SOL    HW221618   3.508   1.090   4.752
 6907SOL     OW21619   3.843   1.765   0.735
 6907SOL    HW121620   3.781   1.700   0.692
 6907SOL    HW221621   3.921   1.781   0.676
 6908SOL     OW21622   1.298   0.150   5.617
 6908SOL    HW121623   1.206   0.185   5.601
 6908SOL    HW221624   1.358   0.225   5.645
 6909SOL     OW21625   4.275   4.680   0.787
 6909SOL    HW121626   4.353   4.643   0.736
 6909SOL    HW221627   4.278   4.780   0.784
 6910SOL     OW21628   6.230   1.431   2.785
 6910SOL    HW121629   6.166   1.483   2.841
 6910SOL    HW221630   6.317   1.479   2.780
 6911SOL     OW21631   4.177   0.200   3.692
 6911SOL    HW121632   4.151   0.202   3.789
 6911SOL    HW221633   4.269   0.164   3.683
 6912SOL     OW21634   5.184   5.045   1.228
 6912SOL    HW121635   5.125   4.972   1.193
 6912SOL    HW221636   5.257   5.004   1.283
 6913SOL     OW21637   5.357   4.198   5.085
 6913SOL    HW121638   5.425   4.178   5.155
 6913SOL    HW221639   5.267   4.165   5.114
 6914SOL     OW21640   5.831   5.389   6.865
 6914SOL    HW121641   5.776   5.469   6.888
 6914SOL    HW221642   5.896   5.372   6.939
 6915SOL     OW21643   0.431   4.810   2.311
 6915SOL    HW121644   0.528   4.794   2.328
 6915SOL    HW221645   0.378   4.731   2.342
 6916SOL     OW21646   6.694   4.335   6.770
 6916SOL    HW121647   6.680   4.422   6.722
 6916SOL    HW221648   6.692   4.260   6.704
 6917SOL     OW21649   4.611   5.306   6.341
 6917SOL    HW121650   4.561   5.318   6.255
 6917SOL    HW221651   4.662   5.389   6.361
 6918SOL     OW21652   0.336   4.281   4.146
 6918SOL    HW121653   0.394   4.207   4.181
 6918SOL    HW221654   0.324   4.270   4.047
 6919SOL     OW21655   1.731   5.256   2.639
 6919SOL    HW121656   1.752   5.325   2.570
 6919SOL    HW221657   1.702   5.300   2.723
 6920SOL     OW21658   5.029   5.153   5.778
 6920SOL    HW121659   4.965   5.166   5.702
 6920SOL    HW221660   4.982   5.105   5.852
 6921SOL     OW21661   5.940   5.959   3.727
 6921SOL    HW121662   5.984   5.872   3.748
 6921SOL    HW221663   6.001   6.035   3.751
 6922SOL     OW21664   1.958   6.247   0.022
 6922SOL    HW121665   1.895   6.319   7.021
 6922SOL    HW221666   2.047   6.261   7.009
 6923SOL     OW21667   4.517   6.464   4.166
 6923SOL    HW121668   4.506   6.563   4.172
 6923SOL    HW221669   4.614   6.442   4.157
 6924SOL     OW21670   0.620   3.748   0.329
 6924SOL    HW121671   0.680   3.668   0.333
 6924SOL    HW221672   0.676   3.831   0.320
 6925SOL     OW21673   4.229   6.205   4.112
 6925SOL    HW121674   4.260   6.121   4.155
 6925SOL    HW221675   4.143   6.189   4.065
 6926SOL     OW21676   3.644   4.134   3.185
 6926SOL    HW121677   3.549   4.129   3.154
 6926SOL    HW221678   3.705   4.139   3.106
 6927SOL     OW21679   5.083   3.719   5.765
 6927SOL    HW121680   5.142   3.756   5.693
 6927SOL    HW221681   4.989   3.718   5.733
 6928SOL     OW21682   4.561   0.297   6.921
 6928SOL    HW121683   4.609   0.271   7.004
 6928SOL    HW221684   4.492   0.227   6.899
 6929SOL     OW21685   4.388   6.154   0.266
 6929SOL    HW121686   4.427   6.067   0.238
 6929SOL    HW221687   4.358   6.205   0.185
 6930SOL     OW21688   0.274   6.658   2.021
 6930SOL    HW121689   0.217   6.694   2.095
 6930SOL    HW221690   0.216   6.636   1.942
 6931SOL     OW21691   0.848   0.296   1.713
 6931SOL    HW121692   0.876   0.274   1.619
 6931SOL    HW221693   0.897   0.376   1.744
 6932SOL     OW21694   3.074   1.182   0.120
 6932SOL    HW121695   3.131   1.119   0.066
 6932SOL    HW221696   3.049   1.260   0.063
 6933SOL     OW21697   3.328   5.482   4.655
 6933SOL    HW121698   3.262   5.544   4.612
 6933SOL    HW221699   3.396   5.536   4.704
 6934SOL     OW21700   5.502   3.332   6.611
 6934SOL    HW121701   5.548   3.419   6.592
 6934SOL    HW221702   5.421   3.349   6.668
 6935SOL     OW21703   4.490   6.349   3.202
 6935SOL    HW121704   4.428   6.311   3.134
 6935SOL    HW221705   4.554   6.279   3.233
 6936SOL     OW21706   7.010   1.839   2.513
 6936SOL    HW121707   0.004   1.928   2.551
 6936SOL    HW221708   6.910   1.831   2.508
 6937SOL     OW21709   4.971   6.587   6.768
 6937SOL    HW121710   4.932   6.506   6.724
 6937SOL    HW221711   4.942   6.669   6.717
 6938SOL     OW21712   5.052   3.705   5.433
 6938SOL    HW121713   4.961   3.664   5.420
 6938SOL    HW221714   5.119   3.632   5.444
 6939SOL     OW21715   0.287   4.822   2.653
 6939SOL    HW121716   0.386   4.833   2.644
 6939SOL    HW221717   0.265   4.724   2.652
 6940SOL     OW21718   4.352   1.131   0.972
 6940SOL    HW121719   4.382   1.080   0.891
 6940SOL    HW221720   4.292   1.074   1.028
 6941SOL     OW21721   4.229   3.557   1.786
 6941SOL    HW121722   4.186   3.645   1.807
 6941SOL    HW221723   4.270   3.561   1.695
 6942SOL     OW21724   0.021   2.802   1.244
 6942SOL    HW121725   0.119   2.792   1.259
 6942SOL    HW221726   7.010   2.712   1.231
 6943SOL     OW21727   4.920   6.529   6.371
 6943SOL    HW121728   4.943   6.524   6.274
 6943SOL    HW221729   4.907   6.624   6.398
 6944SOL     OW21730   1.368   5.670   5.062
 6944SOL    HW121731   1.346   5.687   4.966
 6944SOL    HW221732   1.343   5.750   5.117
 6945SOL     OW21733   6.332   3.082   6.950
 6945SOL    HW121734   6.384   3.162   6.920
 6945SOL    HW221735   6.243   3.081   6.906
 6946SOL     OW21736   6.020   5.114   2.289
 6946SOL    HW121737   6.088   5.045   2.315
 6946SOL    HW221738   5.960   5.076   2.218
 6947SOL     OW21739   3.922   6.774   4.025
 6947SOL    HW121740   3.835   6.789   4.072
 6947SOL    HW221741   3.904   6.750   3.929
 6948SOL     OW21742   5.234   0.392   0.444
 6948SOL    HW121743   5.266   0.484   0.466
 6948SOL    HW221744   5.303   0.325   0.474
 6949SOL     OW21745   5.224   5.985   2.934
 6949SOL    HW121746   5.275   6.061   2.973
 6949SOL    HW221747   5.212   6.000   2.835
 6950SOL     OW21748   2.744   0.268   2.757
 6950SOL    HW121749   2.663   0.278   2.815
 6950SOL    HW221750   2.774   0.359   2.726
 6951SOL     OW21751   6.194   6.421   5.993
 6951SOL    HW121752   6.279   6.460   6.030
 6951SOL    HW221753   6.181   6.453   5.899
 6952SOL     OW21754   6.835   5.159   3.261
 6952SOL    HW121755   6.914   5.191   3.312
 6952SOL    HW221756   6.862   5.083   3.201
 6953SOL     OW21757   5.518   0.469   5.873
 6953SOL    HW121758   5.585   0.394   5.878
 6953SOL    HW221759   5.464   0.459   5.789
 6954SOL     OW21760   0.794   4.029   3.951
 6954SOL    HW121761   0.710   4.052   4.000
 6954SOL    HW221762   0.868   4.090   3.979
 6955SOL     OW21763   6.950   0.110   1.807
 6955SOL    HW121764   0.005   0.150   1.840
 6955SOL    HW221765   6.928   0.147   1.717
 6956SOL     OW21766   4.328   5.990   2.335
 6956SOL    HW121767   4.243   6.043   2.327
 6956SOL    HW221768   4.315   5.901   2.292
 6957SOL     OW21769   0.061   4.699   1.522
 6957SOL    HW121770   0.039   4.601   1.527
 6957SOL    HW221771   7.027   4.745   1.461
 6958SOL     OW21772   2.477   2.552   6.097
 6958SOL    HW121773   2.424   2.599   6.168
 6958SOL    HW221774   2.566   2.524   6.135
 6959SOL     OW21775   2.181   1.085   4.965
 6959SOL    HW121776   2.172   1.044   4.874
 6959SOL    HW221777   2.091   1.118   4.995
 6960SOL     OW21778   0.811   5.584   0.294
 6960SOL    HW121779   0.718   5.569   0.329
 6960SOL    HW221780   0.872   5.605   0.370
 6961SOL     OW21781   0.677   2.224   3.903
 6961SOL    HW121782   0.662   2.158   3.829
 6961SOL    HW221783   0.616   2.203   3.980
 6962SOL     OW21784   5.524   5.050   3.305
 6962SOL    HW121785   5.496   5.144   3.289
 6962SOL    HW221786   5.515   4.997   3.221
 6963SOL     OW21787   0.211   5.789   1.422
 6963SOL    HW121788   0.213   5.705   1.476
 6963SOL    HW221789   0.304   5.827   1.417
 6964SOL     OW21790   4.851   5.102   5.210
 6964SOL    HW121791   4.797   5.170   5.160
 6964SOL    HW221792   4.801   5.072   5.291
 6965SOL     OW21793   0.215   3.436   6.285
 6965SOL    HW121794   0.264   3.352   6.309
 6965SOL    HW221795   0.276   3.497   6.234
 6966SOL     OW21796   5.806   2.679   2.945
 6966SOL    HW121797   5.868   2.737   2.891
 6966SOL    HW221798   5.775   2.603   2.889
 6967SOL     OW21799   1.381   1.808   5.509
 6967SOL    HW121800   1.468   1.856   5.517
 6967SOL    HW221801   1.398   1.711   5.490
 6968SOL     OW21802   3.940   6.621   0.882
 6968SOL    HW121803   3.902   6.635   0.974
 6968SOL    HW221804   3.867   6.596   0.819
 6969SOL     OW21805   3.979   1.842   1.533
 6969SOL    HW121806   4.016   1.861   1.624
 6969SOL    HW221807   3.884   1.874   1.527
 6970SOL     OW21808   3.876   3.987   0.378
 6970SOL    HW121809   3.863   3.926   0.456
 6970SOL    HW221810   3.972   3.986   0.349
 6971SOL     OW21811   6.615   3.203   2.219
 6971SOL    HW121812   6.581   3.272   2.282
 6971SOL    HW221813   6.616   3.114   2.263
 6972SOL     OW21814   5.823   4.498   4.523
 6972SOL    HW121815   5.736   4.514   4.571
 6972SOL    HW221816   5.868   4.585   4.506
 6973SOL     OW21817   1.419   4.535   4.504
 6973SOL    HW121818   1.493   4.472   4.528
 6973SOL    HW221819   1.447   4.628   4.529
 6974SOL     OW21820   4.136   3.303   3.384
 6974SOL    HW121821   4.053   3.247   3.380
 6974SOL    HW221822   4.161   3.318   3.480
 6975SOL     OW21823   3.100   6.551   5.791
 6975SOL    HW121824   3.200   6.557   5.788
 6975SOL    HW221825   3.069   6.554   5.886
 6976SOL     OW21826   3.742   4.653   6.366
 6976SOL    HW121827   3.694   4.693   6.444
 6976SOL    HW221828   3.698   4.567   6.341
 6977SOL     OW21829   5.540   2.037   1.615
 6977SOL    HW121830   5.587   1.992   1.539
 6977SOL    HW221831   5.586   2.014   1.700
 6978SOL     OW21832   6.457   0.688   1.673
 6978SOL    HW121833   6.522   0.753   1.633
 6978SOL    HW221834   6.406   0.732   1.747
 6979SOL     OW21835   1.645   5.438   2.086
 6979SOL    HW121836   1.736   5.421   2.122
 6979SOL    HW221837   1.652   5.488   1.999
 6980SOL     OW21838   1.984   0.939   3.922
 6980SOL    HW121839   1.974   0.960   3.824
 6980SOL    HW221840   1.983   1.024   3.975
 6981SOL     OW21841   2.702   4.022   6.495
 6981SOL    HW121842   2.774   4.075   6.540
 6981SOL    HW221843   2.707   3.926   6.524
 6982SOL     OW21844   1.430   1.480   4.014
 6982SOL    HW121845   1.389   1.444   3.929
 6982SOL    HW221846   1.357   1.513   4.074
 6983SOL     OW21847   0.170   1.513   3.763
 6983SOL    HW121848   0.194   1.599   3.808
 6983SOL    HW221849   0.195   1.436   3.822
 6984SOL     OW21850   2.808   2.039   5.691
 6984SOL    HW121851   2.710   2.049   5.676
 6984SOL    HW221852   2.840   1.955   5.646
 6985SOL     OW21853   3.773   5.160   2.490
 6985SOL    HW121854   3.683   5.123   2.468
 6985SOL    HW221855   3.838   5.085   2.502
 6986SOL     OW21856   1.918   6.182   5.667
 6986SOL    HW121857   1.944   6.106   5.608
 6986SOL    HW221858   1.903   6.264   5.611
 6987SOL     OW21859   0.526   1.765   6.246
 6987SOL    HW121860   0.614   1.813   6.243
 6987SOL    HW221861   0.538   1.671   6.213
 6988SOL     OW21862   6.268   1.030   4.911
 6988SOL    HW121863   6.211   0.968   4.965
 6988SOL    HW221864   6.273   1.119   4.955
 6989SOL     OW21865   0.933   2.279   3.319
 6989SOL    HW121866   0.872   2.211   3.359
 6989SOL    HW221867   0.992   2.318   3.390
 6990SOL     OW21868   5.083   1.715   0.368
 6990SOL    HW121869   5.089   1.726   0.467
 6990SOL    HW221870   5.137   1.787   0.323
 6991SOL     OW21871   2.643   4.650   4.769
 6991SOL    HW121872   2.564   4.597   4.800
 6991SOL    HW221873   2.718   4.640   4.834
 6992SOL     OW21874   5.188   5.630   5.054
 6992SOL    HW121875   5.138   5.548   5.081
 6992SOL    HW221876   5.249   5.658   5.128
 6993SOL     OW21877   5.974   6.555   3.082
 6993SOL    HW121878   6.026   6.622   3.134
 6993SOL    HW221879   5.907   6.602   3.024
 6994SOL     OW21880   0.312   3.441   4.915
 6994SOL    HW121881   0.377   3.364   4.907
 6994SOL    HW221882   0.288   3.473   4.824
 6995SOL     OW21883   6.496   5.386   4.595
 6995SOL    HW121884   6.456   5.468   4.636
 6995SOL    HW221885   6.594   5.398   4.584
 6996SOL     OW21886   2.528   1.337   5.196
 6996SOL    HW121887   2.537   1.426   5.153
 6996SOL    HW221888   2.571   1.338   5.286
 6997SOL     OW21889   4.701   6.106   5.540
 6997SOL    HW121890   4.699   6.203   5.567
 6997SOL    HW221891   4.708   6.049   5.621
 6998SOL     OW21892   1.345   2.479   1.460
 6998SOL    HW121893   1.403   2.448   1.535
 6998SOL    HW221894   1.370   2.572   1.434
 6999SOL     OW21895   2.777   1.720   6.760
 6999SOL    HW121896   2.757   1.623   6.777
 6999SOL    HW221897   2.697   1.775   6.786
 7000SOL     OW21898   0.362   6.151   2.716
 7000SOL    HW121899   0.397   6.064   2.751
 7000SOL    HW221900   0.271   6.136   2.676
 7001SOL     OW21901   2.479   2.468   5.743
 7001SOL    HW121902   2.485   2.564   5.769
 7001SOL    HW221903   2.552   2.446   5.678
 7002SOL     OW21904   2.249   4.697   3.541
 7002SOL    HW121905   2.321   4.657   3.484
 7002SOL    HW221906   2.206   4.772   3.492
 7003SOL     OW21907   2.897   6.871   6.960
 7003SOL    HW121908   2.839   6.876   6.879
 7003SOL    HW221909   2.959   6.949   6.961
 7004SOL     OW21910   2.036   4.726   1.657
 7004SOL    HW121911   2.060   4.740   1.753
 7004SOL    HW221912   2.119   4.712   1.603
 7005SOL     OW21913   0.078   5.797   5.336
 7005SOL    HW121914   0.168   5.756   5.324
 7005SOL    HW221915   0.008   5.726   5.329
 7006SOL     OW21916   4.994   4.937   5.035
 7006SOL    HW121917   4.969   5.007   5.103
 7006SOL    HW221918   5.034   4.858   5.081
 7007SOL     OW21919   5.244   6.676   3.405
 7007SOL    HW121920   5.222   6.772   3.421
 7007SOL    HW221921   5.341   6.660   3.426
 7008SOL     OW21922   2.261   4.832   4.000
 7008SOL    HW121923   2.196   4.758   4.020
 7008SOL    HW221924   2.321   4.846   4.078
 7009SOL     OW21925   6.425   5.044   2.121
 7009SOL    HW121926   6.444   5.141   2.105
 7009SOL    HW221927   6.370   5.034   2.204
 7010SOL     OW21928   4.561   4.486   5.937
 7010SOL    HW121929   4.545   4.415   6.006
 7010SOL    HW221930   4.548   4.576   5.978
 7011SOL     OW21931   1.322   0.324   6.213
 7011SOL    HW121932   1.383   0.402   6.195
 7011SOL    HW221933   1.291   0.328   6.308
 7012SOL     OW21934   1.695   0.985   2.112
 7012SOL    HW121935   1.687   0.910   2.046
 7012SOL    HW221936   1.635   1.060   2.083
 7013SOL     OW21937   0.414   6.622   0.603
 7013SOL    HW121938   0.314   6.627   0.591
 7013SOL    HW221939   0.454   6.711   0.581
 7014SOL     OW21940   4.537   4.105   1.335
 7014SOL    HW121941   4.501   4.122   1.243
 7014SOL    HW221942   4.462   4.111   1.401
 7015SOL     OW21943   5.615   3.739   2.219
 7015SOL    HW121944   5.585   3.645   2.237
 7015SOL    HW221945   5.691   3.762   2.281
 7016SOL     OW21946   3.579   4.890   2.679
 7016SOL    HW121947   3.505   4.846   2.628
 7016SOL    HW221948   3.663   4.886   2.626
 7017SOL     OW21949   2.362   0.358   2.007
 7017SOL    HW121950   2.307   0.438   2.032
 7017SOL    HW221951   2.305   0.276   2.011
 7018SOL     OW21952   7.028   4.089   4.689
 7018SOL    HW121953   6.967   4.125   4.618
 7018SOL    HW221954   0.055   4.163   4.724
 7019SOL     OW21955   2.841   4.634   6.563
 7019SOL    HW121956   2.766   4.568   6.562
 7019SOL    HW221957   2.911   4.605   6.497
 7020SOL     OW21958   5.702   6.656   0.269
 7020SOL    HW121959   5.769   6.628   0.199
 7020SOL    HW221960   5.743   6.645   0.360
 7021SOL     OW21961   2.906   0.894   5.720
 7021SOL    HW121962   2.951   0.832   5.785
 7021SOL    HW221963   2.951   0.983   5.723
 7022SOL     OW21964   4.909   4.444   0.420
 7022SOL    HW121965   4.914   4.358   0.471
 7022SOL    HW221966   4.989   4.453   0.361
 7023SOL     OW21967   0.075   2.112   3.317
 7023SOL    HW121968   0.113   2.020   3.309
 7023SOL    HW221969   0.035   2.125   3.408
 7024SOL     OW21970   1.429   6.245   5.992
 7024SOL    HW121971   1.519   6.267   6.028
 7024SOL    HW221972   1.384   6.180   6.054
 7025SOL     OW21973   3.934   1.598   6.998
 7025SOL    HW121974   3.945   1.686   6.951
 7025SOL    HW221975   3.840   1.591   0.003
 7026SOL     OW21976   2.734   1.379   1.943
 7026SOL    HW121977   2.718   1.326   1.860
 7026SOL    HW221978   2.826   1.416   1.942
 7027SOL     OW21979   3.029   5.704   2.775
 7027SOL    HW121980   2.995   5.798   2.780
 7027SOL    HW221981   2.952   5.641   2.768
 7028SOL     OW21982   5.745   6.401   4.283
 7028SOL    HW121983   5.740   6.462   4.204
 7028SOL    HW221984   5.841   6.379   4.302
 7029SOL     OW21985   3.791   6.625   6.893
 7029SOL    HW121986   3.773   6.722   6.902
 7029SOL    HW221987   3.853   6.609   6.816
 7030SOL     OW21988   0.285   2.830   5.741
 7030SOL    HW121989   0.308   2.891   5.665
 7030SOL    HW221990   0.189   2.840   5.764
 7031SOL     OW21991   1.906   5.985   3.621
 7031SOL    HW121992   1.851   5.930   3.683
 7031SOL    HW221993   1.898   6.082   3.645
 7032SOL     OW21994   3.888   6.860   3.689
 7032SOL    HW121995   3.876   6.898   3.597
 7032SOL    HW221996   3.807   6.883   3.744
 7033SOL     OW21997   6.503   1.730   4.167
 7033SOL    HW121998   6.440   1.655   4.150
 7033SOL    HW221999   6.506   1.790   4.087
 7034SOL     OW22000   5.839   0.842   3.276
 7034SOL    HW122001   5.789   0.927   3.258
 7034SOL    HW222002   5.911   0.860   3.343
 7035SOL     OW22003   1.074   6.703   2.148
 7035SOL    HW122004   1.019   6.748   2.219
 7035SOL    HW222005   1.019   6.632   2.104
 7036SOL     OW22006   6.254   6.484   1.575
 7036SOL    HW122007   6.186   6.419   1.608
 7036SOL    HW222008   6.306   6.521   1.652
 7037SOL     OW22009   0.155   6.683   6.491
 7037SOL    HW122010   0.251   6.679   6.518
 7037SOL    HW222011   0.120   6.775   6.508
 7038SOL     OW22012   1.908   3.704   4.565
 7038SOL    HW122013   1.875   3.660   4.649
 7038SOL    HW222014   1.878   3.800   4.564
 7039SOL     OW22015   3.094   6.789   0.150
 7039SOL    HW122016   3.159   6.854   0.190
 7039SOL    HW222017   3.143   6.710   0.114
 7040SOL     OW22018   4.552   2.758   5.988
 7040SOL    HW122019   4.642   2.740   6.027
 7040SOL    HW222020   4.558   2.761   5.888
 7041SOL     OW22021   0.990   1.958   3.543
 7041SOL    HW122022   0.913   1.894   3.552
 7041SOL    HW222023   0.987   2.023   3.619
 7042SOL     OW22024   5.191   5.181   6.338
 7042SOL    HW122025   5.142   5.195   6.252
 7042SOL    HW222026   5.148   5.107   6.389
 7043SOL     OW22027   2.387   2.444   2.967
 7043SOL    HW122028   2.435   2.520   3.009
 7043SOL    HW222029   2.434   2.358   2.988
 7044SOL     OW22030   4.834   4.004   2.968
 7044SOL    HW122031   4.789   4.028   3.054
 7044SOL    HW222032   4.872   3.912   2.975
 7045SOL     OW22033   4.416   6.572   1.527
 7045SOL    HW122034   4.327   6.612   1.548
 7045SOL    HW222035   4.488   6.636   1.551
 7046SOL     OW22036   3.580   1.998   3.672
 7046SOL    HW122037   3.568   1.967   3.766
 7046SOL    HW222038   3.502   1.969   3.617
 7047SOL     OW22039   1.269   2.482   3.164
 7047SOL    HW122040   1.332   2.504   3.239
 7047SOL    HW222041   1.265   2.559   3.100
 7048SOL     OW22042   0.501   5.833   1.420
 7048SOL    HW122043   0.478   5.906   1.356
 7048SOL    HW222044   0.583   5.785   1.387
 7049SOL     OW22045   2.541   0.568   0.658
 7049SOL    HW122046   2.530   0.664   0.687
 7049SOL    HW222047   2.469   0.512   0.700
 7050SOL     OW22048   3.679   3.829   3.975
 7050SOL    HW122049   3.614   3.889   4.020
 7050SOL    HW222050   3.730   3.777   4.044
 7051SOL     OW22051   0.580   0.618   0.909
 7051SOL    HW122052   0.592   0.576   0.820
 7051SOL    HW222053   0.544   0.550   0.973
 7052SOL     OW22054   6.282   2.610   4.417
 7052SOL    HW122055   6.322   2.646   4.502
 7052SOL    HW222056   6.209   2.672   4.386
 7053SOL     OW22057   0.494   2.972   5.869
 7053SOL    HW122058   0.430   2.909   5.826
 7053SOL    HW222059   0.443   3.041   5.921
 7054SOL     OW22060   0.865   6.492   1.276
 7054SOL    HW122061   0.857   6.403   1.231
 7054SOL    HW222062   0.879   6.478   1.374
 7055SOL     OW22063   3.939   6.635   5.288
 7055SOL    HW122064   3.974   6.642   5.195
 7055SOL    HW222065   3.894   6.721   5.313
 7056SOL     OW22066   5.760   4.983   3.719
 7056SOL    HW122067   5.790   4.905   3.774
 7056SOL    HW222068   5.793   5.068   3.761
 7057SOL     OW22069   0.990   4.455   4.334
 7057SOL    HW122070   1.047   4.383   4.373
 7057SOL    HW222071   0.911   4.413   4.288
 7058SOL     OW22072   6.841   5.656   5.592
 7058SOL    HW122073   6.824   5.557   5.600
 7058SOL    HW222074   6.830   5.684   5.497
 7059SOL     OW22075   0.156   0.193   2.696
 7059SOL    HW122076   0.088   0.139   2.647
 7059SOL    HW222077   0.142   0.184   2.795
 7060SOL     OW22078   3.348   0.168   1.460
 7060SOL    HW122079   3.385   0.121   1.380
 7060SOL    HW222080   3.408   0.243   1.486
 7061SOL     OW22081   0.481   1.615   3.764
 7061SOL    HW122082   0.394   1.664   3.768
 7061SOL    HW222083   0.547   1.659   3.825
 7062SOL     OW22084   5.646   1.667   6.098
 7062SOL    HW122085   5.679   1.758   6.123
 7062SOL    HW222086   5.570   1.676   6.034
 7063SOL     OW22087   1.400   6.794   0.429
 7063SOL    HW122088   1.418   6.892   0.430
 7063SOL    HW222089   1.476   6.747   0.475
 7064SOL     OW22090   4.053   2.270   1.705
 7064SOL    HW122091   3.998   2.353   1.702
 7064SOL    HW222092   4.148   2.292   1.682
 7065SOL     OW22093   4.271   3.949   1.316
 7065SOL    HW122094   4.359   3.915   1.283
 7065SOL    HW222095   4.207   3.873   1.326
 7066SOL     OW22096   3.920   0.734   0.770
 7066SOL    HW122097   3.943   0.824   0.808
 7066SOL    HW222098   3.898   0.672   0.845
 7067SOL     OW22099   1.390   2.545   5.241
 7067SOL    HW122100   1.444   2.555   5.158
 7067SOL    HW222101   1.335   2.627   5.256
 7068SOL     OW22102   0.711   3.892   3.599
 7068SOL    HW122103   0.723   3.946   3.516
 7068SOL    HW222104   0.768   3.931   3.672
 7069SOL     OW22105   6.710   2.803   4.428
 7069SOL    HW122106   6.699   2.719   4.374
 7069SOL    HW222107   6.639   2.869   4.401
 7070SOL     OW22108   6.627   5.869   4.819
 7070SOL    HW122109   6.613   5.963   4.787
 7070SOL    HW222110   6.541   5.830   4.851
 7071SOL     OW22111   0.603   6.623   5.688
 7071SOL    HW122112   0.663   6.558   5.734
 7071SOL    HW222113   0.516   6.628   5.736
 7072SOL     OW22114   6.741   6.698   5.844
 7072SOL    HW122115   6.834   6.731   5.834
 7072SOL    HW222116   6.709   6.715   5.937
 7073SOL     OW22117   6.481   0.703   4.372
 7073SOL    HW122118   6.390   0.733   4.342
 7073SOL    HW222119   6.526   0.777   4.422
 7074SOL     OW22120   3.753   3.242   1.951
 7074SOL    HW122121   3.740   3.322   1.893
 7074SOL    HW222122   3.829   3.187   1.916
 7075SOL     OW22123   0.781   6.441   4.556
 7075SOL    HW122124   0.741   6.529   4.531
 7075SOL    HW222125   0.823   6.448   4.647
 7076SOL     OW22126   4.319   2.483   0.267
 7076SOL    HW122127   4.226   2.452   0.284
 7076SOL    HW222128   4.344   2.465   0.172
 7077SOL     OW22129   1.925   5.187   5.736
 7077SOL    HW122130   1.999   5.251   5.718
 7077SOL    HW222131   1.924   5.117   5.665
 7078SOL     OW22132   6.201   0.351   1.601
 7078SOL    HW122133   6.247   0.337   1.689
 7078SOL    HW222134   6.209   0.269   1.545
 7079SOL     OW22135   0.056   6.288   5.517
 7079SOL    HW122136   7.022   6.322   5.448
 7079SOL    HW222137   0.108   6.212   5.479
 7080SOL     OW22138   4.274   2.218   4.062
 7080SOL    HW122139   4.257   2.255   4.154
 7080SOL    HW222140   4.196   2.238   4.003
 7081SOL     OW22141   3.473   0.816   5.446
 7081SOL    HW122142   3.480   0.787   5.350
 7081SOL    HW222143   3.504   0.910   5.454
 7082SOL     OW22144   5.793   6.469   0.071
 7082SOL    HW122145   5.742   6.397   0.023
 7082SOL    HW222146   5.891   6.451   0.062
 7083SOL     OW22147   3.356   1.065   6.686
 7083SOL    HW122148   3.407   1.150   6.672
 7083SOL    HW222149   3.419   0.991   6.709
 7084SOL     OW22150   0.167   6.788   5.424
 7084SOL    HW122151   0.179   6.758   5.519
 7084SOL    HW222152   0.092   6.736   5.382
 7085SOL     OW22153   1.962   0.892   2.778
 7085SOL    HW122154   1.952   0.989   2.801
 7085SOL    HW222155   1.880   0.861   2.730
 7086SOL     OW22156   5.287   1.616   6.214
 7086SOL    HW122157   5.351   1.554   6.259
 7086SOL    HW222158   5.203   1.623   6.267
 7087SOL     OW22159   6.430   4.315   3.572
 7087SOL    HW122160   6.362   4.345   3.640
 7087SOL    HW222161   6.437   4.384   3.500
 7088SOL     OW22162   4.855   3.099   3.930
 7088SOL    HW122163   4.813   3.086   4.019
 7088SOL    HW222164   4.913   3.180   3.931
 7089SOL     OW22165   3.233   2.722   6.021
 7089SOL    HW122166   3.241   2.804   6.078
 7089SOL    HW222167   3.136   2.703   6.004
 7090SOL     OW22168   2.854   1.454   6.471
 7090SOL    HW122169   2.813   1.545   6.475
 7090SOL    HW222170   2.953   1.463   6.458
 7091SOL     OW22171   0.564   1.970   6.672
 7091SOL    HW122172   0.613   1.883   6.671
 7091SOL    HW222173   0.515   1.983   6.587
 7092SOL     OW22174   4.096   2.593   6.274
 7092SOL    HW122175   4.171   2.533   6.304
 7092SOL    HW222176   4.032   2.540   6.218
 7093SOL     OW22177   3.138   3.937   4.226
 7093SOL    HW122178   3.047   3.905   4.200
 7093SOL    HW222179   3.131   3.997   4.305
 7094SOL     OW22180   0.567   6.301   5.660
 7094SOL    HW122181   0.470   6.326   5.663
 7094SOL    HW222182   0.579   6.219   5.604
 7095SOL     OW22183   2.815   3.073   0.449
 7095SOL    HW122184   2.758   3.021   0.385
 7095SOL    HW222185   2.803   3.038   0.542
 7096SOL     OW22186   5.985   0.915   3.755
 7096SOL    HW122187   5.990   0.934   3.657
 7096SOL    HW222188   6.075   0.888   3.789
 7097SOL     OW22189   6.641   0.432   1.961
 7097SOL    HW122190   6.660   0.433   2.059
 7097SOL    HW222191   6.721   0.468   1.912
 7098SOL     OW22192   1.178   6.308   4.637
 7098SOL    HW122193   1.101   6.243   4.632
 7098SOL    HW222194   1.222   6.314   4.548
 7099SOL     OW22195   2.108   0.349   4.515
 7099SOL    HW122196   2.158   0.425   4.558
 7099SOL    HW222197   2.022   0.384   4.479
 7100SOL     OW22198   5.283   3.507   0.790
 7100SOL    HW122199   5.366   3.498   0.846
 7100SOL    HW222200   5.250   3.601   0.795
 7101SOL     OW22201   2.451   6.959   4.454
 7101SOL    HW122202   2.436   0.026   4.473
 7101SOL    HW222203   2.394   6.904   4.515
 7102SOL     OW22204   4.468   0.569   0.965
 7102SOL    HW122205   4.395   0.628   0.932
 7102SOL    HW222206   4.470   0.571   1.065
 7103SOL     OW22207   4.208   5.495   0.328
 7103SOL    HW122208   4.177   5.580   0.371
 7103SOL    HW222209   4.186   5.496   0.230
 7104SOL     OW22210   1.156   3.147   4.535
 7104SOL    HW122211   1.089   3.128   4.463
 7104SOL    HW222212   1.108   3.163   4.621
 7105SOL     OW22213   2.982   2.718   5.662
 7105SOL    HW122214   3.081   2.711   5.672
 7105SOL    HW222215   2.954   2.814   5.673
 7106SOL     OW22216   3.352   3.005   3.179
 7106SOL    HW122217   3.432   3.062   3.198
 7106SOL    HW222218   3.382   2.911   3.163
 7107SOL     OW22219   2.560   0.837   0.732
 7107SOL    HW122220   2.628   0.831   0.805
 7107SOL    HW222221   2.605   0.860   0.646
 7108SOL     OW22222   3.872   6.253   1.473
 7108SOL    HW122223   3.927   6.271   1.554
 7108SOL    HW222224   3.884   6.329   1.408
 7109SOL     OW22225   3.548   6.966   6.744
 7109SOL    HW122226   3.604   0.006   6.700
 7109SOL    HW222227   3.596   6.930   6.824
 7110SOL     OW22228   5.206   5.056   4.070
 7110SOL    HW122229   5.270   5.007   4.011
 7110SOL    HW222230   5.256   5.093   4.149
 7111SOL     OW22231   1.597   2.583   4.201
 7111SOL    HW122232   1.533   2.531   4.145
 7111SOL    HW222233   1.679   2.527   4.219
 7112SOL     OW22234   1.893   5.241   4.024
 7112SOL    HW122235   1.806   5.203   3.994
 7112SOL    HW222236   1.880   5.337   4.051
 7113SOL     OW22237   2.923   4.308   5.468
 7113SOL    HW122238   2.847   4.321   5.404
 7113SOL    HW222239   3.008   4.340   5.427
 7114SOL     OW22240   3.650   6.749   2.188
 7114SOL    HW122241   3.589   6.808   2.241
 7114SOL    HW222242   3.699   6.805   2.121
 7115SOL     OW22243   4.978   2.639   1.784
 7115SOL    HW122244   4.929   2.708   1.838
 7115SOL    HW222245   5.048   2.597   1.842
 7116SOL     OW22246   5.671   2.959   3.519
 7116SOL    HW122247   5.713   2.922   3.437
 7116SOL    HW222248   5.736   2.953   3.595
 7117SOL     OW22249   0.261   0.249   4.551
 7117SOL    HW122250   0.224   0.320   4.491
 7117SOL    HW222251   0.215   0.162   4.533
 7118SOL     OW22252   3.715   3.854   1.320
 7118SOL    HW122253   3.702   3.886   1.414
 7118SOL    HW222254   3.700   3.755   1.316
 7119SOL     OW22255   4.754   1.505   3.613
 7119SOL    HW122256   4.721   1.483   3.521
 7119SOL    HW222257   4.818   1.582   3.607
 7120SOL     OW22258   3.988   1.770   3.140
 7120SOL    HW122259   4.048   1.694   3.115
 7120SOL    HW222260   3.936   1.799   3.060
 7121SOL     OW22261   3.022   0.463   2.421
 7121SOL    HW122262   2.990   0.534   2.484
 7121SOL    HW222263   2.996   0.373   2.456
 7122SOL     OW22264   6.525   1.218   6.396
 7122SOL    HW122265   6.555   1.219   6.491
 7122SOL    HW222266   6.453   1.287   6.383
 7123SOL     OW22267   3.254   5.045   1.385
 7123SOL    HW122268   3.162   5.083   1.374
 7123SOL    HW222269   3.301   5.045   1.296
 7124SOL     OW22270   0.738   3.294   0.517
 7124SOL    HW122271   0.749   3.346   0.601
 7124SOL    HW222272   0.645   3.258   0.511
 7125SOL     OW22273   6.776   6.315   1.372
 7125SOL    HW122274   6.798   6.412   1.362
 7125SOL    HW222275   6.825   6.262   1.302
 7126SOL     OW22276   2.921   4.680   6.806
 7126SOL    HW122277   3.013   4.707   6.777
 7126SOL    HW222278   2.865   4.662   6.725
 7127SOL     OW22279   2.799   5.908   4.322
 7127SOL    HW122280   2.804   5.948   4.230
 7127SOL    HW222281   2.807   5.809   4.315
 7128SOL     OW22282   2.562   5.209   0.248
 7128SOL    HW122283   2.503   5.146   0.297
 7128SOL    HW222284   2.604   5.163   0.170
 7129SOL     OW22285   3.535   0.760   0.488
 7129SOL    HW122286   3.576   0.670   0.475
 7129SOL    HW222287   3.560   0.796   0.578
 7130SOL     OW22288   3.095   4.931   4.697
 7130SOL    HW122289   3.180   4.915   4.648
 7130SOL    HW222290   3.024   4.871   4.661
 7131SOL     OW22291   2.736   1.385   0.379
 7131SOL    HW122292   2.809   1.446   0.408
 7131SOL    HW222293   2.752   1.356   0.284
 7132SOL     OW22294   3.273   4.138   1.345
 7132SOL    HW122295   3.197   4.202   1.340
 7132SOL    HW222296   3.247   4.051   1.303
 7133SOL     OW22297   5.369   4.754   3.429
 7133SOL    HW122298   5.289   4.786   3.379
 7133SOL    HW222299   5.433   4.830   3.443
 7134SOL     OW22300   6.411   5.514   2.747
 7134SOL    HW122301   6.371   5.525   2.656
 7134SOL    HW222302   6.511   5.507   2.739
 7135SOL     OW22303   1.817   1.975   3.378
 7135SOL    HW122304   1.829   1.888   3.331
 7135SOL    HW222305   1.825   2.051   3.313
 7136SOL     OW22306   2.037   2.460   0.812
 7136SOL    HW122307   1.963   2.454   0.745
 7136SOL    HW222308   2.039   2.551   0.853
 7137SOL     OW22309   5.355   0.730   5.751
 7137SOL    HW122310   5.400   0.745   5.663
 7137SOL    HW222311   5.414   0.676   5.810
 7138SOL     OW22312   2.716   2.484   0.765
 7138SOL    HW122313   2.748   2.506   0.857
 7138SOL    HW222314   2.616   2.472   0.766
 7139SOL     OW22315   4.875   3.087   2.215
 7139SOL    HW122316   4.922   3.007   2.254
 7139SOL    HW222317   4.813   3.057   2.143
 7140SOL     OW22318   6.478   2.940   5.009
 7140SOL    HW122319   6.378   2.937   5.004
 7140SOL    HW222320   6.507   3.032   5.034
 7141SOL     OW22321   3.726   6.572   0.708
 7141SOL    HW122322   3.642   6.626   0.713
 7141SOL    HW222323   3.703   6.475   0.714
 7142SOL     OW22324   4.668   6.729   3.011
 7142SOL    HW122325   4.691   6.768   2.922
 7142SOL    HW222326   4.583   6.677   3.004
 7143SOL     OW22327   1.152   2.733   6.380
 7143SOL    HW122328   1.107   2.715   6.292
 7143SOL    HW222329   1.232   2.791   6.365
 7144SOL     OW22330   1.400   1.732   3.633
 7144SOL    HW122331   1.388   1.798   3.559
 7144SOL    HW222332   1.450   1.652   3.599
 7145SOL     OW22333   4.355   6.415   5.942
 7145SOL    HW122334   4.275   6.443   5.994
 7145SOL    HW222335   4.331   6.339   5.881
 7146SOL     OW22336   2.021   0.361   6.949
 7146SOL    HW122337   2.117   0.338   6.936
 7146SOL    HW222338   2.010   0.460   6.954
 7147SOL     OW22339   6.355   6.540   3.269
 7147SOL    HW122340   6.358   6.470   3.340
 7147SOL    HW222341   6.268   6.533   3.219
 7148SOL     OW22342   0.060   5.817   1.811
 7148SOL    HW122343   0.046   5.785   1.905
 7148SOL    HW222344   0.030   5.747   1.746
 7149SOL     OW22345   6.614   6.878   3.096
 7149SOL    HW122346   6.627   6.976   3.080
 7149SOL    HW222347   6.701   6.837   3.123
 7150SOL     OW22348   4.715   2.555   1.702
 7150SOL    HW122349   4.698   2.644   1.746
 7150SOL    HW222350   4.812   2.533   1.709
 7151SOL     OW22351   0.761   5.496   1.183
 7151SOL    HW122352   0.717   5.468   1.098
 7151SOL    HW222353   0.832   5.431   1.208
 7152SOL     OW22354   0.735   2.614   5.308
 7152SOL    HW122355   0.636   2.628   5.305
 7152SOL    HW222356   0.778   2.694   5.351
 7153SOL     OW22357   3.835   5.949   3.229
 7153SOL    HW122358   3.860   6.031   3.281
 7153SOL    HW222359   3.818   5.975   3.134
 7154SOL     OW22360   3.818   6.874   4.659
 7154SOL    HW122361   3.741   6.929   4.692
 7154SOL    HW222362   3.846   6.810   4.731
 7155SOL     OW22363   1.671   5.991   1.615
 7155SOL    HW122364   1.761   5.953   1.590
 7155SOL    HW222365   1.675   6.029   1.707
 7156SOL     OW22366   0.843   4.703   4.375
 7156SOL    HW122367   0.862   4.605   4.364
 7156SOL    HW222368   0.753   4.724   4.337
 7157SOL     OW22369   6.194   4.652   0.986
 7157SOL    HW122370   6.104   4.616   1.008
 7157SOL    HW222371   6.240   4.681   1.070
 7158SOL     OW22372   0.603   6.803   2.900
 7158SOL    HW122373   0.665   6.739   2.947
 7158SOL    HW222374   0.652   6.846   2.823
 7159SOL     OW22375   0.498   4.471   2.687
 7159SOL    HW122376   0.434   4.397   2.663
 7159SOL    HW222377   0.456   4.529   2.757
 7160SOL     OW22378   6.639   0.107   3.082
 7160SOL    HW122379   6.578   0.185   3.070
 7160SOL    HW222380   6.677   0.108   3.174
 7161SOL     OW22381   3.348   4.245   5.203
 7161SOL    HW122382   3.284   4.284   5.270
 7161SOL    HW222383   3.442   4.267   5.230
 7162SOL     OW22384   2.981   6.220   6.009
 7162SOL    HW122385   3.055   6.283   5.984
 7162SOL    HW222386   2.926   6.200   5.929
 7163SOL     OW22387   3.226   6.598   3.925
 7163SOL    HW122388   3.160   6.669   3.901
 7163SOL    HW222389   3.228   6.528   3.854
 7164SOL     OW22390   2.106   1.745   2.993
 7164SOL    HW122391   2.126   1.836   2.958
 7164SOL    HW222392   2.123   1.677   2.921
 7165SOL     OW22393   6.233   0.897   1.227
 7165SOL    HW122394   6.266   0.966   1.291
 7165SOL    HW222395   6.212   0.813   1.276
 7166SOL     OW22396   5.010   3.595   0.534
 7166SOL    HW122397   5.101   3.636   0.540
 7166SOL    HW222398   4.951   3.635   0.604
 7167SOL     OW22399   5.208   3.929   5.162
 7167SOL    HW122400   5.151   3.868   5.217
 7167SOL    HW222401   5.302   3.895   5.162
 7168SOL     OW22402   0.993   2.208   3.722
 7168SOL    HW122403   0.964   2.258   3.804
 7168SOL    HW222404   1.075   2.156   3.743
 7169SOL     OW22405   0.589   3.112   5.012
 7169SOL    HW122406   0.612   3.115   5.109
 7169SOL    HW222407   0.610   3.200   4.970
 7170SOL     OW22408   4.130   5.687   3.904
 7170SOL    HW122409   4.134   5.685   4.004
 7170SOL    HW222410   4.130   5.594   3.868
 7171SOL     OW22411   5.688   3.943   6.385
 7171SOL    HW122412   5.739   3.965   6.302
 7171SOL    HW222413   5.660   3.847   6.382
 7172SOL     OW22414   1.313   0.314   5.231
 7172SOL    HW122415   1.286   0.225   5.269
 7172SOL    HW222416   1.240   0.380   5.248
 7173SOL     OW22417   7.004   4.989   5.576
 7173SOL    HW122418   7.001   4.891   5.556
 7173SOL    HW222419   0.003   5.002   5.671
 7174SOL     OW22420   1.211   5.481   6.645
 7174SOL    HW122421   1.125   5.523   6.614
 7174SOL    HW222422   1.240   5.523   6.730
 7175SOL     OW22423   5.395   3.439   0.520
 7175SOL    HW122424   5.339   3.400   0.593
 7175SOL    HW222425   5.482   3.390   0.515
 7176SOL     OW22426   0.550   5.266   2.784
 7176SOL    HW122427   0.616   5.241   2.713
 7176SOL    HW222428   0.472   5.312   2.741
 7177SOL     OW22429   2.658   6.985   3.994
 7177SOL    HW122430   2.714   6.908   3.964
 7177SOL    HW222431   2.710   0.012   4.058
 7178SOL     OW22432   2.611   3.102   5.690
 7178SOL    HW122433   2.644   3.113   5.596
 7178SOL    HW222434   2.546   3.026   5.694
 7179SOL     OW22435   1.377   3.368   4.894
 7179SOL    HW122436   1.350   3.430   4.968
 7179SOL    HW222437   1.448   3.306   4.927
 7180SOL     OW22438   1.301   5.450   6.174
 7180SOL    HW122439   1.219   5.507   6.171
 7180SOL    HW222440   1.346   5.451   6.084
 7181SOL     OW22441   3.221   6.617   0.660
 7181SOL    HW122442   3.190   6.523   0.679
 7181SOL    HW222443   3.143   6.679   0.664
 7182SOL     OW22444   1.824   3.389   5.555
 7182SOL    HW122445   1.837   3.417   5.650
 7182SOL    HW222446   1.758   3.314   5.551
 7183SOL     OW22447   1.762   5.038   1.270
 7183SOL    HW122448   1.854   5.061   1.239
 7183SOL    HW222449   1.759   5.040   1.369
 7184SOL     OW22450   0.766   6.969   3.139
 7184SOL    HW122451   0.754   0.035   3.162
 7184SOL    HW222452   0.686   6.917   3.170
 7185SOL     OW22453   4.986   1.532   5.342
 7185SOL    HW122454   5.000   1.530   5.441
 7185SOL    HW222455   4.978   1.439   5.307
 7186SOL     OW22456   7.027   0.034   5.807
 7186SOL    HW122457   0.054   6.986   5.830
 7186SOL    HW222458   0.029   0.115   5.855
 7187SOL     OW22459   1.882   4.687   0.852
 7187SOL    HW122460   1.941   4.730   0.921
 7187SOL    HW222461   1.902   4.726   0.762
 7188SOL     OW22462   5.294   0.019   0.368
 7188SOL    HW122463   5.340   0.076   0.436
 7188SOL    HW222464   5.328   6.955   0.376
 7189SOL     OW22465   6.199   1.208   6.507
 7189SOL    HW122466   6.248   1.265   6.441
 7189SOL    HW222467   6.218   1.240   6.599
 7190SOL     OW22468   5.309   2.999   2.753
 7190SOL    HW122469   5.220   3.018   2.795
 7190SOL    HW222470   5.363   3.083   2.750
 7191SOL     OW22471   0.355   4.300   2.352
 7191SOL    HW122472   0.452   4.321   2.364
 7191SOL    HW222473   0.343   4.238   2.275
 7192SOL     OW22474   1.879   5.476   5.070
 7192SOL    HW122475   1.877   5.456   5.168
 7192SOL    HW222476   1.820   5.412   5.021
 7193SOL     OW22477   2.612   1.745   2.992
 7193SOL    HW122478   2.652   1.794   2.914
 7193SOL    HW222479   2.568   1.662   2.959
 7194SOL     OW22480   2.640   2.648   1.201
 7194SOL    HW122481   2.661   2.665   1.298
 7194SOL    HW222482   2.606   2.732   1.159
 7195SOL     OW22483   0.570   5.363   6.523
 7195SOL    HW122484   0.636   5.414   6.468
 7195SOL    HW222485   0.601   5.361   6.618
 7196SOL     OW22486   3.049   3.960   2.195
 7196SOL    HW122487   2.995   3.995   2.118
 7196SOL    HW222488   3.100   4.034   2.237
 7197SOL     OW22489   6.801   2.304   6.115
 7197SOL    HW122490   6.858   2.223   6.097
 7197SOL    HW222491   6.816   2.334   6.209
 7198SOL     OW22492   1.155   0.889   5.618
 7198SOL    HW122493   1.078   0.825   5.611
 7198SOL    HW222494   1.128   0.978   5.580
 7199SOL     OW22495   2.203   0.611   2.067
 7199SOL    HW122496   2.144   0.641   2.143
 7199SOL    HW222497   2.146   0.594   1.986
 7200SOL     OW22498   2.393   0.841   7.022
 7200SOL    HW122499   2.370   0.744   7.021
 7200SOL    HW222500   2.480   0.854   0.039
 7201SOL     OW22501   1.615   5.618   3.526
 7201SOL    HW122502   1.691   5.668   3.483
 7201SOL    HW222503   1.553   5.586   3.455
 7202SOL     OW22504   4.120   6.755   6.217
 7202SOL    HW122505   4.066   6.698   6.156
 7202SOL    HW222506   4.198   6.794   6.167
 7203SOL     OW22507   6.900   1.452   0.863
 7203SOL    HW122508   6.892   1.358   0.896
 7203SOL    HW222509   6.919   1.451   0.765
 7204SOL     OW22510   6.033   6.871   4.858
 7204SOL    HW122511   6.069   6.935   4.926
 7204SOL    HW222512   5.960   6.915   4.806
 7205SOL     OW22513   2.076   6.015   3.131
 7205SOL    HW122514   2.120   6.085   3.074
 7205SOL    HW222515   2.086   5.926   3.087
 7206SOL     OW22516   1.829   0.482   1.623
 7206SOL    HW122517   1.780   0.463   1.537
 7206SOL    HW222518   1.920   0.441   1.619
 7207SOL     OW22519   3.394   6.663   1.279
 7207SOL    HW122520   3.353   6.704   1.361
 7207SOL    HW222521   3.374   6.721   1.200
 7208SOL     OW22522   4.406   6.536   4.635
 7208SOL    HW122523   4.475   6.530   4.708
 7208SOL    HW222524   4.416   6.459   4.573
 7209SOL     OW22525   3.195   3.265   2.827
 7209SOL    HW122526   3.266   3.200   2.798
 7209SOL    HW222527   3.120   3.216   2.869
 7210SOL     OW22528   4.777   6.748   3.652
 7210SOL    HW122529   4.762   6.722   3.557
 7210SOL    HW222530   4.874   6.738   3.674
 7211SOL     OW22531   2.035   5.557   3.839
 7211SOL    HW122532   2.117   5.600   3.877
 7211SOL    HW222533   2.059   5.471   3.796
 7212SOL     OW22534   0.839   6.282   3.394
 7212SOL    HW122535   0.879   6.373   3.405
 7212SOL    HW222536   0.910   6.217   3.368
 7213SOL     OW22537   5.899   0.247   6.169
 7213SOL    HW122538   5.897   0.334   6.120
 7213SOL    HW222539   5.855   0.176   6.114
 7214SOL     OW22540   2.178   5.799   4.196
 7214SOL    HW122541   2.079   5.792   4.193
 7214SOL    HW222542   2.205   5.894   4.205
 7215SOL     OW22543   0.292   3.271   4.014
 7215SOL    HW122544   0.293   3.194   4.077
 7215SOL    HW222545   0.382   3.282   3.973
 7216SOL     OW22546   2.337   5.978   6.783
 7216SOL    HW122547   2.284   5.903   6.821
 7216SOL    HW222548   2.358   6.044   6.856
 7217SOL     OW22549   2.020   4.361   1.832
 7217SOL    HW122550   2.091   4.388   1.767
 7217SOL    HW222551   2.041   4.400   1.922
 7218SOL     OW22552   4.469   2.946   5.453
 7218SOL    HW122553   4.372   2.941   5.480
 7218SOL    HW222554   4.520   2.998   5.521
 7219SOL     OW22555   5.275   5.264   3.486
 7219SOL    HW122556   5.256   5.227   3.577
 7219SOL    HW222557   5.369   5.297   3.483
 7220SOL     OW22558   7.018   5.324   3.674
 7220SOL    HW122559   0.010   5.388   3.600
 7220SOL    HW222560   0.062   5.324   3.741
 7221SOL     OW22561   5.197   5.046   5.225
 7221SOL    HW122562   5.278   5.042   5.285
 7221SOL    HW222563   5.139   4.967   5.243
 7222SOL     OW22564   6.189   6.891   0.454
 7222SOL    HW122565   6.223   6.804   0.418
 7222SOL    HW222566   6.106   6.875   0.508
 7223SOL     OW22567   2.822   1.901   1.805
 7223SOL    HW122568   2.908   1.874   1.762
 7223SOL    HW222569   2.823   1.999   1.825
 7224SOL     OW22570   5.792   2.067   4.740
 7224SOL    HW122571   5.720   2.133   4.720
 7224SOL    HW222572   5.804   2.006   4.662
 7225SOL     OW22573   1.456   5.775   6.327
 7225SOL    HW122574   1.370   5.825   6.320
 7225SOL    HW222575   1.436   5.677   6.338
 7226SOL     OW22576   0.660   0.539   0.346
 7226SOL    HW122577   0.739   0.525   0.286
 7226SOL    HW222578   0.691   0.541   0.441
 7227SOL     OW22579   0.880   2.078   0.763
 7227SOL    HW122580   0.807   2.059   0.698
 7227SOL    HW222581   0.843   2.082   0.856
 7228SOL     OW22582   0.083   0.934   2.057
 7228SOL    HW122583   0.086   1.034   2.060
 7228SOL    HW222584   0.106   0.903   1.965
 7229SOL     OW22585   1.229   0.826   4.009
 7229SOL    HW122586   1.252   0.868   4.097
 7229SOL    HW222587   1.162   0.753   4.023
 7230SOL     OW22588   4.746   5.876   4.881
 7230SOL    HW122589   4.663   5.916   4.842
 7230SOL    HW222590   4.792   5.943   4.939
 7231SOL     OW22591   4.682   0.186   0.236
 7231SOL    HW122592   4.781   0.201   0.230
 7231SOL    HW222593   4.660   0.096   0.199
 7232SOL     OW22594   3.599   4.965   3.587
 7232SOL    HW122595   3.524   4.930   3.530
 7232SOL    HW222596   3.573   5.055   3.623
 7233SOL     OW22597   0.327   3.168   5.020
 7233SOL    HW122598   0.316   3.116   4.936
 7233SOL    HW222599   0.424   3.167   5.047
 7234SOL     OW22600   6.399   2.661   2.578
 7234SOL    HW122601   6.322   2.630   2.522
 7234SOL    HW222602   6.364   2.721   2.651
 7235SOL     OW22603   6.090   4.457   3.232
 7235SOL    HW122604   6.099   4.430   3.328
 7235SOL    HW222605   6.002   4.503   3.218
 7236SOL     OW22606   3.238   1.772   2.513
 7236SOL    HW122607   3.181   1.705   2.465
 7236SOL    HW222608   3.205   1.782   2.607
 7237SOL     OW22609   6.510   6.540   5.103
 7237SOL    HW122610   6.429   6.552   5.047
 7237SOL    HW222611   6.485   6.497   5.190
 7238SOL     OW22612   2.191   2.449   1.113
 7238SOL    HW122613   2.218   2.355   1.090
 7238SOL    HW222614   2.177   2.456   1.212
 7239SOL     OW22615   2.768   1.819   3.480
 7239SOL    HW122616   2.711   1.831   3.398
 7239SOL    HW222617   2.815   1.731   3.475
 7240SOL     OW22618   2.558   4.334   6.797
 7240SOL    HW122619   2.528   4.251   6.844
 7240SOL    HW222620   2.479   4.394   6.784
 7241SOL     OW22621   3.161   0.499   6.430
 7241SOL    HW122622   3.141   0.446   6.347
 7241SOL    HW222623   3.079   0.551   6.456
 7242SOL     OW22624   6.109   4.476   6.852
 7242SOL    HW122625   6.076   4.516   6.766
 7242SOL    HW222626   6.187   4.529   6.886
 7243SOL     OW22627   0.784   4.456   6.772
 7243SOL    HW122628   0.862   4.484   6.717
 7243SOL    HW222629   0.816   4.412   6.856
 7244SOL     OW22630   4.423   0.398   1.430
 7244SOL    HW122631   4.377   0.467   1.374
 7244SOL    HW222632   4.356   0.356   1.492
 7245SOL     OW22633   0.586   2.609   5.030
 7245SOL    HW122634   0.559   2.563   4.946
 7245SOL    HW222635   0.506   2.651   5.073
 7246SOL     OW22636   6.614   6.717   4.577
 7246SOL    HW122637   6.667   6.665   4.644
 7246SOL    HW222638   6.532   6.666   4.552
 7247SOL     OW22639   2.631   7.002   2.729
 7247SOL    HW122640   2.612   6.926   2.791
 7247SOL    HW222641   2.670   0.048   2.781
 7248SOL     OW22642   3.201   1.079   3.880
 7248SOL    HW122643   3.188   1.010   3.810
 7248SOL    HW222644   3.232   1.164   3.838
 7249SOL     OW22645   5.800   4.800   1.949
 7249SOL    HW122646   5.814   4.755   2.037
 7249SOL    HW222647   5.705   4.789   1.919
 7250SOL     OW22648   2.489   4.813   6.509
 7250SOL    HW122649   2.546   4.861   6.576
 7250SOL    HW222650   2.497   4.714   6.522
 7251SOL     OW22651   7.025   6.610   5.318
 7251SOL    HW122652   7.014   6.515   5.290
 7251SOL    HW222653   6.946   6.663   5.289
 7252SOL     OW22654   3.322   3.126   4.804
 7252SOL    HW122655   3.237   3.091   4.842
 7252SOL    HW222656   3.399   3.072   4.838
 7253SOL     OW22657   1.565   6.431   0.478
 7253SOL    HW122658   1.501   6.428   0.401
 7253SOL    HW222659   1.589   6.337   0.504
 7254SOL     OW22660   3.764   5.534   4.822
 7254SOL    HW122661   3.755   5.564   4.727
 7254SOL    HW222662   3.814   5.448   4.826
 7255SOL     OW22663   3.558   3.755   1.942
 7255SOL    HW122664   3.553   3.840   1.994
 7255SOL    HW222665   3.465   3.721   1.925
 7256SOL     OW22666   4.784   4.901   4.658
 7256SOL    HW122667   4.800   4.832   4.729
 7256SOL    HW222668   4.831   4.986   4.684
 7257SOL     OW22669   6.294   3.127   3.058
 7257SOL    HW122670   6.196   3.120   3.041
 7257SOL    HW222671   6.334   3.195   2.997
 7258SOL     OW22672   4.197   0.254   4.694
 7258SOL    HW122673   4.209   0.332   4.756
 7258SOL    HW222674   4.102   0.249   4.665
 7259SOL     OW22675   2.998   4.195   0.644
 7259SOL    HW122676   3.083   4.143   0.640
 7259SOL    HW222677   3.019   4.293   0.655
 7260SOL     OW22678   3.298   1.490   3.093
 7260SOL    HW122679   3.368   1.506   3.024
 7260SOL    HW222680   3.256   1.576   3.119
 7261SOL     OW22681   2.620   2.967   1.719
 7261SOL    HW122682   2.617   2.984   1.620
 7261SOL    HW222683   2.542   2.911   1.746
 7262SOL     OW22684   6.046   2.433   4.168
 7262SOL    HW122685   6.008   2.512   4.215
 7262SOL    HW222686   6.115   2.463   4.103
 7263SOL     OW22687   1.210   5.318   1.993
 7263SOL    HW122688   1.221   5.387   1.921
 7263SOL    HW222689   1.132   5.260   1.971
 7264SOL     OW22690   0.047   1.612   6.694
 7264SOL    HW122691   0.069   1.567   6.608
 7264SOL    HW222692   0.128   1.661   6.728
 7265SOL     OW22693   5.921   5.202   6.191
 7265SOL    HW122694   5.923   5.126   6.256
 7265SOL    HW222695   5.948   5.286   6.238
 7266SOL     OW22696   4.149   0.634   0.993
 7266SOL    HW122697   4.161   0.540   1.026
 7266SOL    HW222698   4.158   0.697   1.069
 7267SOL     OW22699   6.314   4.616   5.290
 7267SOL    HW122700   6.281   4.678   5.219
 7267SOL    HW222701   6.236   4.583   5.344
 7268SOL     OW22702   4.243   5.031   2.754
 7268SOL    HW122703   4.184   4.951   2.756
 7268SOL    HW222704   4.330   5.009   2.799
 7269SOL     OW22705   0.651   5.658   1.595
 7269SOL    HW122706   0.732   5.689   1.644
 7269SOL    HW222707   0.657   5.686   1.499
 7270SOL     OW22708   2.482   2.072   3.227
 7270SOL    HW122709   2.523   1.983   3.247
 7270SOL    HW222710   2.525   2.111   3.145
 7271SOL     OW22711   0.444   4.209   2.889
 7271SOL    HW122712   0.412   4.119   2.920
 7271SOL    HW222713   0.543   4.207   2.876
 7272SOL     OW22714   5.449   2.696   2.932
 7272SOL    HW122715   5.460   2.749   2.848
 7272SOL    HW222716   5.375   2.629   2.920
 7273SOL     OW22717   5.467   4.098   1.602
 7273SOL    HW122718   5.566   4.109   1.593
 7273SOL    HW222719   5.425   4.187   1.617
 7274SOL     OW22720   6.861   5.254   6.374
 7274SOL    HW122721   6.825   5.211   6.458
 7274SOL    HW222722   6.814   5.215   6.295
 7275SOL     OW22723   6.291   0.564   0.425
 7275SOL    HW122724   6.266   0.588   0.331
 7275SOL    HW222725   6.212   0.574   0.484
 7276SOL     OW22726   2.837   1.564   3.419
 7276SOL    HW122727   2.772   1.540   3.347
 7276SOL    HW222728   2.930   1.544   3.388
 7277SOL     OW22729   4.595   1.104   5.529
 7277SOL    HW122730   4.660   1.037   5.565
 7277SOL    HW222731   4.588   1.181   5.593
 7278SOL     OW22732   3.870   1.894   3.351
 7278SOL    HW122733   3.935   1.917   3.423
 7278SOL    HW222734   3.918   1.850   3.275
 7279SOL     OW22735   3.964   4.125   0.919
 7279SOL    HW122736   4.047   4.177   0.937
 7279SOL    HW222737   3.903   4.131   0.999
 7280SOL     OW22738   5.252   2.476   5.398
 7280SOL    HW122739   5.324   2.478   5.328
 7280SOL    HW222740   5.188   2.551   5.382
 7281SOL     OW22741   3.372   0.076   0.603
 7281SOL    HW122742   3.287   0.118   0.634
 7281SOL    HW222743   3.379   0.082   0.504
 7282SOL     OW22744   6.766   5.709   1.919
 7282SOL    HW122745   6.801   5.714   1.826
 7282SOL    HW222746   6.834   5.744   1.983
 7283SOL     OW22747   2.681   6.494   2.382
 7283SOL    HW122748   2.742   6.532   2.313
 7283SOL    HW222749   2.635   6.568   2.431
 7284SOL     OW22750   6.639   2.563   3.962
 7284SOL    HW122751   6.610   2.653   3.929
 7284SOL    HW222752   6.686   2.514   3.888
 7285SOL     OW22753   4.983   3.067   1.187
 7285SOL    HW122754   4.968   3.164   1.206
 7285SOL    HW222755   5.062   3.058   1.126
 7286SOL     OW22756   0.649   1.296   0.545
 7286SOL    HW122757   0.556   1.333   0.553
 7286SOL    HW222758   0.653   1.208   0.593
 7287SOL     OW22759   0.012   2.505   3.993
 7287SOL    HW122760   6.993   2.472   3.912
 7287SOL    HW222761   6.977   2.545   4.057
 7288SOL     OW22762   2.770   2.324   2.938
 7288SOL    HW122763   2.744   2.394   2.871
 7288SOL    HW222764   2.777   2.366   3.029
 7289SOL     OW22765   5.207   2.521   1.864
 7289SOL    HW122766   5.248   2.464   1.936
 7289SOL    HW222767   5.269   2.525   1.786
 7290SOL     OW22768   4.485   0.747   5.981
 7290SOL    HW122769   4.434   0.724   6.064
 7290SOL    HW222770   4.517   0.842   5.987
 7291SOL     OW22771   3.017   0.111   6.937
 7291SOL    HW122772   3.090   0.160   6.985
 7291SOL    HW222773   2.929   0.151   6.960
 7292SOL     OW22774   1.706   6.936   3.152
 7292SOL    HW122775   1.634   6.951   3.085
 7292SOL    HW222776   1.784   6.890   3.109
 7293SOL     OW22777   1.088   1.336   5.346
 7293SOL    HW122778   1.136   1.290   5.420
 7293SOL    HW222779   1.003   1.287   5.325
 7294SOL     OW22780   2.995   4.636   1.631
 7294SOL    HW122781   2.958   4.572   1.698
 7294SOL    HW222782   3.095   4.633   1.634
 7295SOL     OW22783   6.197   5.009   1.615
 7295SOL    HW122784   6.164   4.920   1.583
 7295SOL    HW222785   6.119   5.067   1.637
 7296SOL     OW22786   3.414   4.961   3.051
 7296SOL    HW122787   3.508   4.948   3.018
 7296SOL    HW222788   3.405   5.052   3.092
 7297SOL     OW22789   2.908   6.282   2.014
 7297SOL    HW122790   2.967   6.296   1.935
 7297SOL    HW222791   2.958   6.305   2.098
 7298SOL     OW22792   4.615   6.288   6.628
 7298SOL    HW122793   4.518   6.265   6.635
 7298SOL    HW222794   4.626   6.387   6.629
 7299SOL     OW22795   1.124   2.887   6.958
 7299SOL    HW122796   1.047   2.832   6.990
 7299SOL    HW222797   1.090   2.972   6.919
 7300SOL     OW22798   0.829   4.902   2.148
 7300SOL    HW122799   0.852   4.913   2.051
 7300SOL    HW222800   0.781   4.983   2.181
 7301SOL     OW22801   6.191   0.474   5.952
 7301SOL    HW122802   6.217   0.518   6.038
 7301SOL    HW222803   6.208   0.536   5.876
 7302SOL     OW22804   5.594   2.896   6.065
 7302SOL    HW122805   5.505   2.870   6.103
 7302SOL    HW222806   5.582   2.970   6.000
 7303SOL     OW22807   3.265   1.396   0.631
 7303SOL    HW122808   3.332   1.322   0.646
 7303SOL    HW222809   3.291   1.449   0.551
 7304SOL     OW22810   2.203   5.040   1.928
 7304SOL    HW122811   2.132   5.108   1.912
 7304SOL    HW222812   2.285   5.086   1.963
 7305SOL     OW22813   5.801   2.256   0.237
 7305SOL    HW122814   5.762   2.167   0.217
 7305SOL    HW222815   5.752   2.297   0.315
 7306SOL     OW22816   3.598   1.827   1.184
 7306SOL    HW122817   3.690   1.866   1.180
 7306SOL    HW222818   3.545   1.860   1.106
 7307SOL     OW22819   3.395   6.484   1.870
 7307SOL    HW122820   3.339   6.510   1.791
 7307SOL    HW222821   3.340   6.428   1.932
 7308SOL     OW22822   6.154   1.258   1.793
 7308SOL    HW122823   6.078   1.197   1.816
 7308SOL    HW222824   6.234   1.232   1.847
 7309SOL     OW22825   2.736   5.946   3.257
 7309SOL    HW122826   2.644   5.910   3.269
 7309SOL    HW222827   2.732   6.037   3.215
 7310SOL     OW22828   1.488   3.194   0.532
 7310SOL    HW122829   1.538   3.279   0.545
 7310SOL    HW222830   1.552   3.120   0.510
 7311SOL     OW22831   0.712   0.581   0.626
 7311SOL    HW122832   0.785   0.524   0.663
 7311SOL    HW222833   0.750   0.670   0.600
 7312SOL     OW22834   0.119   1.975   5.358
 7312SOL    HW122835   0.218   1.983   5.350
 7312SOL    HW222836   0.082   1.928   5.278
 7313SOL     OW22837   2.779   0.722   0.986
 7313SOL    HW122838   2.788   0.811   0.941
 7313SOL    HW222839   2.847   0.659   0.948
 7314SOL     OW22840   6.929   4.277   0.112
 7314SOL    HW122841   6.959   4.182   0.109
 7314SOL    HW222842   7.008   4.337   0.125
 7315SOL     OW22843   6.579   5.485   2.511
 7315SOL    HW122844   6.539   5.472   2.420
 7315SOL    HW222845   6.678   5.491   2.504
 7316SOL     OW22846   3.265   2.431   6.258
 7316SOL    HW122847   3.350   2.440   6.206
 7316SOL    HW222848   3.193   2.483   6.213
 7317SOL     OW22849   3.367   1.697   1.752
 7317SOL    HW122850   3.378   1.640   1.833
 7317SOL    HW222851   3.278   1.679   1.710
 7318SOL     OW22852   3.844   6.629   2.322
 7318SOL    HW122853   3.773   6.690   2.285
 7318SOL    HW222854   3.881   6.669   2.406
 7319SOL     OW22855   6.867   3.906   6.941
 7319SOL    HW122856   6.844   3.921   6.845
 7319SOL    HW222857   6.950   3.958   6.964
 7320SOL     OW22858   0.113   4.065   1.251
 7320SOL    HW122859   0.120   4.007   1.170
 7320SOL    HW222860   0.193   4.051   1.309
 7321SOL     OW22861   1.864   6.145   6.332
 7321SOL    HW122862   1.821   6.056   6.346
 7321SOL    HW222863   1.944   6.135   6.273
 7322SOL     OW22864   1.039   1.345   3.049
 7322SOL    HW122865   0.969   1.414   3.032
 7322SOL    HW222866   1.052   1.335   3.148
 7323SOL     OW22867   2.109   1.133   1.747
 7323SOL    HW122868   2.064   1.085   1.822
 7323SOL    HW222869   2.155   1.214   1.783
 7324SOL     OW22870   5.727   4.397   2.602
 7324SOL    HW122871   5.675   4.317   2.573
 7324SOL    HW222872   5.779   4.375   2.685
 7325SOL     OW22873   3.515   0.624   5.626
 7325SOL    HW122874   3.615   0.622   5.625
 7325SOL    HW222875   3.482   0.702   5.573
 7326SOL     OW22876   3.194   0.633   6.065
 7326SOL    HW122877   3.222   0.610   5.971
 7326SOL    HW222878   3.180   0.549   6.117
 7327SOL     OW22879   5.742   3.187   3.085
 7327SOL    HW122880   5.689   3.111   3.123
 7327SOL    HW222881   5.751   3.259   3.154
 7328SOL     OW22882   3.637   5.262   5.705
 7328SOL    HW122883   3.612   5.193   5.773
 7328SOL    HW222884   3.558   5.321   5.687
 7329SOL     OW22885   1.619   2.899   6.951
 7329SOL    HW122886   1.614   2.808   6.909
 7329SOL    HW222887   1.601   2.892   0.018
 7330SOL     OW22888   3.045   3.202   1.265
 7330SOL    HW122889   3.122   3.143   1.242
 7330SOL    HW222890   2.993   3.161   1.339
 7331SOL     OW22891   5.099   0.375   1.947
 7331SOL    HW122892   5.076   0.278   1.948
 7331SOL    HW222893   5.103   0.410   2.041
 7332SOL     OW22894   4.221   4.000   0.041
 7332SOL    HW122895   4.311   4.041   0.022
 7332SOL    HW222896   4.162   4.011   6.992
 7333SOL     OW22897   6.395   3.276   2.841
 7333SOL    HW122898   6.317   3.303   2.786
 7333SOL    HW222899   6.467   3.240   2.781
 7334SOL     OW22900   2.716   6.446   5.884
 7334SOL    HW122901   2.762   6.516   5.940
 7334SOL    HW222902   2.774   6.365   5.878
 7335SOL     OW22903   6.604   3.837   2.883
 7335SOL    HW122904   6.637   3.753   2.840
 7335SOL    HW222905   6.546   3.888   2.820
 7336SOL     OW22906   1.763   6.146   0.824
 7336SOL    HW122907   1.742   6.130   0.921
 7336SOL    HW222908   1.733   6.238   0.799
 7337SOL     OW22909   3.585   2.587   1.734
 7337SOL    HW122910   3.630   2.671   1.764
 7337SOL    HW222911   3.613   2.511   1.793
 7338SOL     OW22912   5.291   2.834   1.363
 7338SOL    HW122913   5.343   2.908   1.320
 7338SOL    HW222914   5.253   2.866   1.450
 7339SOL     OW22915   6.958   6.358   4.983
 7339SOL    HW122916   6.977   6.262   4.961
 7339SOL    HW222917   7.029   6.416   4.945
 7340SOL     OW22918   3.560   1.417   0.221
 7340SOL    HW122919   3.623   1.363   0.276
 7340SOL    HW222920   3.611   1.477   0.159
 7341SOL     OW22921   0.348   4.837   3.656
 7341SOL    HW122922   0.381   4.790   3.738
 7341SOL    HW222923   0.425   4.875   3.605
 7342SOL     OW22924   6.548   0.662   0.493
 7342SOL    HW122925   6.575   0.702   0.581
 7342SOL    HW222926   6.449   0.653   0.490
 7343SOL     OW22927   6.013   4.122   1.916
 7343SOL    HW122928   6.050   4.178   1.991
 7343SOL    HW222929   5.914   4.138   1.909
 7344SOL     OW22930   1.524   6.713   6.546
 7344SOL    HW122931   1.615   6.672   6.557
 7344SOL    HW222932   1.525   6.777   6.468
 7345SOL     OW22933   4.339   4.974   5.928
 7345SOL    HW122934   4.402   5.044   5.964
 7345SOL    HW222935   4.355   4.887   5.975
 7346SOL     OW22936   3.229   4.497   1.425
 7346SOL    HW122937   3.244   4.595   1.428
 7346SOL    HW222938   3.282   4.452   1.497
 7347SOL     OW22939   6.141   2.335   1.949
 7347SOL    HW122940   6.232   2.313   1.914
 7347SOL    HW222941   6.072   2.288   1.894
 7348SOL     OW22942   1.242   3.176   3.829
 7348SOL    HW122943   1.272   3.101   3.887
 7348SOL    HW222944   1.321   3.230   3.801
 7349SOL     OW22945   3.229   2.233   1.386
 7349SOL    HW122946   3.287   2.194   1.457
 7349SOL    HW222947   3.258   2.200   1.296
 7350SOL     OW22948   0.248   2.453   3.685
 7350SOL    HW122949   0.343   2.421   3.685
 7350SOL    HW222950   0.192   2.390   3.630
 7351SOL     OW22951   4.007   4.633   6.610
 7351SOL    HW122952   4.096   4.645   6.655
 7351SOL    HW222953   4.021   4.598   6.518
 7352SOL     OW22954   1.618   1.507   2.911
 7352SOL    HW122955   1.710   1.528   2.942
 7352SOL    HW222956   1.622   1.446   2.832
 7353SOL     OW22957   6.659   2.010   5.196
 7353SOL    HW122958   6.693   1.998   5.102
 7353SOL    HW222959   6.729   1.980   5.261
 7354SOL     OW22960   6.626   0.986   5.752
 7354SOL    HW122961   6.680   1.032   5.681
 7354SOL    HW222962   6.596   1.053   5.820
 7355SOL     OW22963   1.628   6.079   1.069
 7355SOL    HW122964   1.532   6.054   1.065
 7355SOL    HW222965   1.665   6.059   1.160
 7356SOL     OW22966   5.772   2.548   6.412
 7356SOL    HW122967   5.841   2.484   6.446
 7356SOL    HW222968   5.816   2.630   6.377
 7357SOL     OW22969   4.942   0.908   1.204
 7357SOL    HW122970   4.853   0.929   1.165
 7357SOL    HW222971   4.934   0.832   1.268
 7358SOL     OW22972   3.528   2.101   3.254
 7358SOL    HW122973   3.430   2.118   3.259
 7358SOL    HW222974   3.568   2.108   3.345
 7359SOL     OW22975   3.365   2.745   1.933
 7359SOL    HW122976   3.371   2.748   2.033
 7359SOL    HW222977   3.446   2.699   1.896
 7360SOL     OW22978   1.467   2.803   5.076
 7360SOL    HW122979   1.476   2.838   5.170
 7360SOL    HW222980   1.557   2.799   5.033
 7361SOL     OW22981   4.891   0.083   1.109
 7361SOL    HW122982   4.835   0.162   1.137
 7361SOL    HW222983   4.946   0.108   1.030
 7362SOL     OW22984   1.269   0.059   5.013
 7362SOL    HW122985   1.207   0.135   4.997
 7362SOL    HW222986   1.281   0.044   5.111
 7363SOL     OW22987   5.634   2.429   0.397
 7363SOL    HW122988   5.634   2.356   0.466
 7363SOL    HW222989   5.687   2.506   0.430
 7364SOL     OW22990   4.187   6.643   1.025
 7364SOL    HW122991   4.123   6.605   0.958
 7364SOL    HW222992   4.169   6.604   1.115
 7365SOL     OW22993   3.438   6.559   2.360
 7365SOL    HW122994   3.466   6.481   2.417
 7365SOL    HW222995   3.477   6.548   2.268
 7366SOL     OW22996   1.035   5.385   6.952
 7366SOL    HW122997   1.085   5.468   6.928
 7366SOL    HW222998   1.099   5.315   6.984
 7367SOL     OW22999   4.123   4.200   1.291
 7367SOL    HW123000   4.029   4.175   1.264
 7367SOL    HW223001   4.179   4.117   1.294
 7368SOL     OW23002   2.950   3.644   4.438
 7368SOL    HW123003   2.924   3.711   4.507
 7368SOL    HW223004   2.985   3.562   4.484
 7369SOL     OW23005   4.843   3.488   1.223
 7369SOL    HW123006   4.778   3.455   1.154
 7369SOL    HW223007   4.826   3.442   1.310
 7370SOL     OW23008   1.676   0.534   6.683
 7370SOL    HW123009   1.631   0.514   6.596
 7370SOL    HW223010   1.738   0.458   6.706
 7371SOL     OW23011   2.893   5.535   3.873
 7371SOL    HW123012   2.877   5.447   3.917
 7371SOL    HW223013   2.806   5.578   3.850
 7372SOL     OW23014   3.640   6.990   5.737
 7372SOL    HW123015   3.725   0.004   5.766
 7372SOL    HW223016   3.588   6.962   5.817
 7373SOL     OW23017   4.793   1.184   3.249
 7373SOL    HW123018   4.725   1.168   3.177
 7373SOL    HW223019   4.777   1.274   3.291
 7374SOL     OW23020   2.160   2.887   5.151
 7374SOL    HW123021   2.152   2.798   5.196
 7374SOL    HW223022   2.253   2.897   5.114
 7375SOL     OW23023   1.262   1.675   4.108
 7375SOL    HW123024   1.271   1.766   4.148
 7375SOL    HW223025   1.250   1.684   4.009
 7376SOL     OW23026   3.084   2.861   6.973
 7376SOL    HW123027   3.014   2.790   6.967
 7376SOL    HW223028   3.056   2.929   0.010
 7377SOL     OW23029   4.488   5.476   2.221
 7377SOL    HW123030   4.450   5.553   2.171
 7377SOL    HW223031   4.588   5.485   2.226
 7378SOL     OW23032   6.325   2.350   4.412
 7378SOL    HW123033   6.295   2.445   4.422
 7378SOL    HW223034   6.358   2.334   4.319
 7379SOL     OW23035   4.335   0.973   2.715
 7379SOL    HW123036   4.352   1.028   2.633
 7379SOL    HW223037   4.399   0.896   2.718
 7380SOL     OW23038   6.985   3.616   6.078
 7380SOL    HW123039   0.040   3.608   6.026
 7380SOL    HW223040   6.976   3.537   6.139
 7381SOL     OW23041   4.911   2.651   2.420
 7381SOL    HW123042   4.967   2.718   2.373
 7381SOL    HW223043   4.858   2.696   2.492
 7382SOL     OW23044   0.391   4.905   4.771
 7382SOL    HW123045   0.393   4.923   4.869
 7382SOL    HW223046   0.370   4.809   4.755
 7383SOL     OW23047   6.898   6.847   2.422
 7383SOL    HW123048   6.868   6.792   2.345
 7383SOL    HW223049   6.886   6.796   2.507
 7384SOL     OW23050   5.380   0.747   2.438
 7384SOL    HW123051   5.442   0.743   2.360
 7384SOL    HW223052   5.433   0.742   2.523
 7385SOL     OW23053   4.266   5.351   2.449
 7385SOL    HW123054   4.297   5.344   2.354
 7385SOL    HW223055   4.333   5.403   2.502
 7386SOL     OW23056   0.801   2.844   5.416
 7386SOL    HW123057   0.775   2.931   5.458
 7386SOL    HW223058   0.884   2.809   5.461
 7387SOL     OW23059   4.039   6.016   4.433
 7387SOL    HW123060   3.960   6.043   4.377
 7387SOL    HW223061   4.040   6.070   4.517
 7388SOL     OW23062   6.842   5.851   4.127
 7388SOL    HW123063   6.802   5.942   4.138
 7388SOL    HW223064   6.829   5.820   4.033
 7389SOL     OW23065   1.350   4.731   6.881
 7389SOL    HW123066   1.281   4.800   6.901
 7389SOL    HW223067   1.311   4.662   6.819
 7390SOL     OW23068   1.102   1.844   6.538
 7390SOL    HW123069   1.042   1.831   6.459
 7390SOL    HW223070   1.128   1.940   6.544
 7391SOL     OW23071   4.960   4.157   5.788
 7391SOL    HW123072   4.938   4.082   5.850
 7391SOL    HW223073   5.058   4.155   5.768
 7392SOL     OW23074   1.544   5.918   5.677
 7392SOL    HW123075   1.584   5.973   5.604
 7392SOL    HW223076   1.554   5.821   5.655
 7393SOL     OW23077   5.971   5.240   1.538
 7393SOL    HW123078   5.913   5.189   1.474
 7393SOL    HW223079   6.046   5.283   1.488
 7394SOL     OW23080   3.947   3.205   5.988
 7394SOL    HW123081   4.014   3.136   6.012
 7394SOL    HW223082   3.983   3.296   6.010
 7395SOL     OW23083   0.652   0.513   6.370
 7395SOL    HW123084   0.686   0.602   6.402
 7395SOL    HW223085   0.553   0.517   6.362
 7396SOL     OW23086   1.879   1.019   6.401
 7396SOL    HW123087   1.823   0.939   6.421
 7396SOL    HW223088   1.855   1.056   6.312
 7397SOL     OW23089   6.183   4.817   4.246
 7397SOL    HW123090   6.259   4.770   4.290
 7397SOL    HW223091   6.098   4.792   4.291
 7398SOL     OW23092   3.510   5.285   4.087
 7398SOL    HW123093   3.467   5.354   4.029
 7398SOL    HW223094   3.494   5.307   4.183
 7399SOL     OW23095   0.415   4.132   5.532
 7399SOL    HW123096   0.400   4.055   5.594
 7399SOL    HW223097   0.512   4.138   5.509
 7400SOL     OW23098   3.396   4.225   6.833
 7400SOL    HW123099   3.317   4.170   6.806
 7400SOL    HW223100   3.430   4.194   6.922
 7401SOL     OW23101   0.319   1.150   3.527
 7401SOL    HW123102   0.278   1.230   3.483
 7401SOL    HW223103   0.259   1.071   3.513
 7402SOL     OW23104   2.215   0.120   3.661
 7402SOL    HW123105   2.174   0.100   3.572
 7402SOL    HW223106   2.315   0.126   3.651
 7403SOL     OW23107   2.384   2.729   3.549
 7403SOL    HW123108   2.409   2.712   3.645
 7403SOL    HW223109   2.374   2.827   3.535
 7404SOL     OW23110   2.340   0.403   1.239
 7404SOL    HW123111   2.414   0.401   1.306
 7404SOL    HW223112   2.365   0.463   1.163
 7405SOL     OW23113   1.272   4.875   4.433
 7405SOL    HW123114   1.230   4.790   4.403
 7405SOL    HW223115   1.223   4.910   4.513
 7406SOL     OW23116   1.667   3.866   2.575
 7406SOL    HW123117   1.744   3.873   2.511
 7406SOL    HW223118   1.615   3.783   2.555
 7407SOL     OW23119   0.133   6.305   4.493
 7407SOL    HW123120   0.143   6.216   4.449
 7407SOL    HW223121   0.207   6.318   4.559
 7408SOL     OW23122   1.444   4.322   5.683
 7408SOL    HW123123   1.498   4.308   5.599
 7408SOL    HW223124   1.466   4.412   5.721
 7409SOL     OW23125   0.770   0.721   4.743
 7409SOL    HW123126   0.693   0.746   4.802
 7409SOL    HW223127   0.805   0.631   4.770
 7410SOL     OW23128   6.956   4.827   1.322
 7410SOL    HW123129   6.910   4.741   1.301
 7410SOL    HW223130   6.974   4.877   1.237
 7411SOL     OW23131   2.689   6.954   4.339
 7411SOL    HW123132   2.604   6.949   4.392
 7411SOL    HW223133   2.680   7.025   4.269
 7412SOL     OW23134   2.938   0.950   1.171
 7412SOL    HW123135   2.864   0.885   1.157
 7412SOL    HW223136   2.996   0.919   1.246
 7413SOL     OW23137   0.406   4.143   3.506
 7413SOL    HW123138   0.389   4.057   3.554
 7413SOL    HW223139   0.443   4.210   3.569
 7414SOL     OW23140   7.023   0.447   2.613
 7414SOL    HW123141   6.931   0.479   2.637
 7414SOL    HW223142   0.024   0.382   2.683
 7415SOL     OW23143   0.555   3.204   3.527
 7415SOL    HW123144   0.521   3.116   3.561
 7415SOL    HW223145   0.635   3.232   3.580
 7416SOL     OW23146   3.302   1.099   4.155
 7416SOL    HW123147   3.292   1.198   4.158
 7416SOL    HW223148   3.273   1.065   4.066
 7417SOL     OW23149   1.085   6.613   5.795
 7417SOL    HW123150   1.016   6.672   5.835
 7417SOL    HW223151   1.133   6.564   5.867
 7418SOL     OW23152   3.446   4.562   1.230
 7418SOL    HW123153   3.404   4.526   1.147
 7418SOL    HW223154   3.383   4.551   1.307
 7419SOL     OW23155   6.046   2.046   4.824
 7419SOL    HW123156   5.955   2.042   4.784
 7419SOL    HW223157   6.040   2.034   4.923
 7420SOL     OW23158   6.501   6.920   2.486
 7420SOL    HW123159   6.554   6.842   2.520
 7420SOL    HW223160   6.456   6.965   2.563
 7421SOL     OW23161   2.612   3.287   1.016
 7421SOL    HW123162   2.688   3.351   1.002
 7421SOL    HW223163   2.637   3.223   1.089
 7422SOL     OW23164   6.936   3.224   2.269
 7422SOL    HW123165   6.838   3.220   2.246
 7422SOL    HW223166   6.985   3.153   2.218
 7423SOL     OW23167   0.614   4.617   6.045
 7423SOL    HW123168   0.699   4.669   6.056
 7423SOL    HW223169   0.542   4.678   6.011
 7424SOL     OW23170   6.103   1.359   4.245
 7424SOL    HW123171   6.070   1.438   4.194
 7424SOL    HW223172   6.062   1.276   4.208
 7425SOL     OW23173   3.848   4.954   6.979
 7425SOL    HW123174   3.946   4.936   6.968
 7425SOL    HW223175   3.797   4.902   6.911
 7426SOL     OW23176   0.522   2.278   6.537
 7426SOL    HW123177   0.568   2.199   6.577
 7426SOL    HW223178   0.490   2.338   6.610
 7427SOL     OW23179   3.064   5.939   4.450
 7427SOL    HW123180   3.112   6.027   4.449
 7427SOL    HW223181   2.966   5.954   4.445
 7428SOL     OW23182   3.943   1.716   5.462
 7428SOL    HW123183   4.027   1.768   5.480
 7428SOL    HW223184   3.958   1.620   5.485
 7429SOL     OW23185   6.261   6.877   2.852
 7429SOL    HW123186   6.195   6.815   2.809
 7429SOL    HW223187   6.224   6.910   2.939
 7430SOL     OW23188   0.127   4.568   5.495
 7430SOL    HW123189   0.189   4.609   5.562
 7430SOL    HW223190   0.036   4.561   5.534
 7431SOL     OW23191   0.984   3.760   2.177
 7431SOL    HW123192   0.947   3.751   2.084
 7431SOL    HW223193   1.019   3.672   2.207
 7432SOL     OW23194   0.356   6.276   4.207
 7432SOL    HW123195   0.405   6.300   4.291
 7432SOL    HW223196   0.403   6.315   4.128
 7433SOL     OW23197   6.347   4.918   0.737
 7433SOL    HW123198   6.256   4.939   0.774
 7433SOL    HW223199   6.352   4.821   0.714
 7434SOL     OW23200   3.090   1.056   6.719
 7434SOL    HW123201   3.089   1.027   6.815
 7434SOL    HW223202   3.184   1.076   6.691
 7435SOL     OW23203   3.275   6.346   6.309
 7435SOL    HW123204   3.344   6.356   6.381
 7435SOL    HW223205   3.190   6.312   6.349
 7436SOL     OW23206   6.407   2.951   6.590
 7436SOL    HW123207   6.327   3.010   6.591
 7436SOL    HW223208   6.409   2.898   6.505
 7437SOL     OW23209   6.754   5.126   6.727
 7437SOL    HW123210   6.854   5.133   6.734
 7437SOL    HW223211   6.717   5.093   6.814
 7438SOL     OW23212   1.520   3.931   1.315
 7438SOL    HW123213   1.541   3.883   1.230
 7438SOL    HW223214   1.560   4.023   1.311
 7439SOL     OW23215   2.966   6.739   3.912
 7439SOL    HW123216   2.889   6.770   3.856
 7439SOL    HW223217   2.984   6.806   3.984
 7440SOL     OW23218   0.590   3.318   4.839
 7440SOL    HW123219   0.639   3.384   4.896
 7440SOL    HW223220   0.609   3.337   4.742
 7441SOL     OW23221   6.097   6.476   3.824
 7441SOL    HW123222   6.057   6.433   3.905
 7441SOL    HW223223   6.024   6.515   3.768
 7442SOL     OW23224   1.003   0.519   6.449
 7442SOL    HW123225   0.917   0.468   6.436
 7442SOL    HW223226   0.982   0.615   6.467
 7443SOL     OW23227   6.914   1.730   0.799
 7443SOL    HW123228   6.921   1.632   0.817
 7443SOL    HW223229   6.825   1.763   0.830
 7444SOL     OW23230   0.357   3.209   6.346
 7444SOL    HW123231   0.435   3.246   6.295
 7444SOL    HW223232   0.373   3.112   6.365
 7445SOL     OW23233   4.330   1.091   1.513
 7445SOL    HW123234   4.286   1.165   1.463
 7445SOL    HW223235   4.366   1.126   1.600
 7446SOL     OW23236   5.759   4.486   0.016
 7446SOL    HW123237   5.743   4.558   6.979
 7446SOL    HW223238   5.840   4.433   7.021
 7447SOL     OW23239   2.767   4.464   6.223
 7447SOL    HW123240   2.731   4.512   6.143
 7447SOL    HW223241   2.748   4.366   6.215
 7448SOL     OW23242   5.528   6.813   5.756
 7448SOL    HW123243   5.562   6.882   5.692
 7448SOL    HW223244   5.602   6.752   5.782
 7449SOL     OW23245   4.899   2.390   2.349
 7449SOL    HW123246   4.802   2.376   2.329
 7449SOL    HW223247   4.916   2.488   2.365
 7450SOL     OW23248   5.041   2.854   3.967
 7450SOL    HW123249   4.972   2.924   3.949
 7450SOL    HW223250   5.131   2.897   3.973
 7451SOL     OW23251   1.402   0.405   3.263
 7451SOL    HW123252   1.325   0.466   3.282
 7451SOL    HW223253   1.473   0.417   3.331
 7452SOL     OW23254   1.674   0.254   4.735
 7452SOL    HW123255   1.771   0.278   4.730
 7452SOL    HW223256   1.619   0.327   4.695
 7453SOL     OW23257   5.351   6.096   5.030
 7453SOL    HW123258   5.404   6.103   4.946
 7453SOL    HW223259   5.402   6.135   5.106
 7454SOL     OW23260   1.123   3.167   1.644
 7454SOL    HW123261   1.100   3.159   1.547
 7454SOL    HW223262   1.041   3.187   1.697
 7455SOL     OW23263   6.552   1.530   1.740
 7455SOL    HW123264   6.632   1.478   1.711
 7455SOL    HW223265   6.476   1.510   1.678
 7456SOL     OW23266   1.473   2.386   4.809
 7456SOL    HW123267   1.534   2.388   4.730
 7456SOL    HW223268   1.495   2.308   4.866
 7457SOL     OW23269   5.157   0.308   6.110
 7457SOL    HW123270   5.202   0.367   6.043
 7457SOL    HW223271   5.148   0.357   6.197
 7458SOL     OW23272   1.950   6.665   6.803
 7458SOL    HW123273   1.968   6.763   6.802
 7458SOL    HW223274   2.034   6.615   6.827
 7459SOL     OW23275   4.237   0.139   0.245
 7459SOL    HW123276   4.286   0.225   0.262
 7459SOL    HW223277   4.228   0.125   0.146
 7460SOL     OW23278   1.704   5.363   0.228
 7460SOL    HW123279   1.759   5.281   0.239
 7460SOL    HW223280   1.757   5.433   0.179
 7461SOL     OW23281   5.305   1.190   5.352
 7461SOL    HW123282   5.230   1.146   5.303
 7461SOL    HW223283   5.334   1.132   5.428
 7462SOL     OW23284   1.563   2.405   1.614
 7462SOL    HW123285   1.648   2.453   1.636
 7462SOL    HW223286   1.582   2.309   1.593
 7463SOL     OW23287   3.831   3.507   1.571
 7463SOL    HW123288   3.926   3.475   1.573
 7463SOL    HW223289   3.770   3.431   1.592
 7464SOL     OW23290   3.806   6.155   6.598
 7464SOL    HW123291   3.777   6.234   6.652
 7464SOL    HW223292   3.860   6.094   6.657
 7465SOL     OW23293   1.892   0.184   1.112
 7465SOL    HW123294   1.878   0.279   1.084
 7465SOL    HW223295   1.987   0.158   1.094
 7466SOL     OW23296   0.475   0.168   6.390
 7466SOL    HW123297   0.475   0.267   6.408
 7466SOL    HW223298   0.473   0.152   6.292
 7467SOL     OW23299   6.096   2.346   1.267
 7467SOL    HW123300   6.077   2.336   1.169
 7467SOL    HW223301   6.125   2.440   1.285
 7468SOL     OW23302   5.082   2.207   2.287
 7468SOL    HW123303   5.019   2.284   2.291
 7468SOL    HW223304   5.156   2.220   2.352
 7469SOL     OW23305   1.300   0.110   6.881
 7469SOL    HW123306   1.298   0.209   6.894
 7469SOL    HW223307   1.394   0.081   6.866
 7470SOL     OW23308   0.314   2.811   3.312
 7470SOL    HW123309   0.263   2.882   3.360
 7470SOL    HW223310   0.334   2.841   3.219
 7471SOL     OW23311   5.841   6.662   4.369
 7471SOL    HW123312   5.882   6.577   4.337
 7471SOL    HW223313   5.808   6.651   4.463
 7472SOL     OW23314   5.136   6.467   4.238
 7472SOL    HW123315   5.114   6.563   4.227
 7472SOL    HW223316   5.121   6.440   4.333
 7473SOL     OW23317   7.016   4.301   3.112
 7473SOL    HW123318   6.989   4.214   3.152
 7473SOL    HW223319   6.968   4.376   3.159
 7474SOL     OW23320   2.784   1.207   4.771
 7474SOL    HW123321   2.717   1.177   4.702
 7474SOL    HW223322   2.801   1.304   4.760
 7475SOL     OW23323   4.583   1.348   2.460
 7475SOL    HW123324   4.492   1.391   2.461
 7475SOL    HW223325   4.641   1.391   2.529
 7476SOL     OW23326   4.053   6.526   4.475
 7476SOL    HW123327   4.110   6.458   4.427
 7476SOL    HW223328   3.958   6.518   4.443
 7477SOL     OW23329   4.809   0.998   4.047
 7477SOL    HW123330   4.819   0.924   4.113
 7477SOL    HW223331   4.898   1.022   4.009
 7478SOL     OW23332   3.864   3.956   6.475
 7478SOL    HW123333   3.847   3.983   6.380
 7478SOL    HW223334   3.783   3.976   6.530
 7479SOL     OW23335   3.551   1.890   0.520
 7479SOL    HW123336   3.590   1.801   0.544
 7479SOL    HW223337   3.613   1.938   0.458
 7480SOL     OW23338   6.022   5.261   1.066
 7480SOL    HW123339   5.956   5.251   0.992
 7480SOL    HW223340   6.103   5.309   1.032
 7481SOL     OW23341   5.535   5.336   1.549
 7481SOL    HW123342   5.593   5.414   1.525
 7481SOL    HW223343   5.579   5.284   1.622
 7482SOL     OW23344   4.187   1.608   2.122
 7482SOL    HW123345   4.243   1.655   2.054
 7482SOL    HW223346   4.175   1.668   2.202
 7483SOL     OW23347   4.088   2.036   4.987
 7483SOL    HW123348   4.161   2.012   4.922
 7483SOL    HW223349   4.026   2.102   4.944
 7484SOL     OW23350   7.026   6.984   2.035
 7484SOL    HW123351   6.962   7.018   2.104
 7484SOL    HW223352   6.996   7.015   1.944
 7485SOL     OW23353   2.757   6.418   5.392
 7485SOL    HW123354   2.697   6.396   5.315
 7485SOL    HW223355   2.828   6.348   5.400
 7486SOL     OW23356   2.103   6.792   5.454
 7486SOL    HW123357   2.053   6.782   5.367
 7486SOL    HW223358   2.123   6.701   5.492
 7487SOL     OW23359   2.357   6.805   2.346
 7487SOL    HW123360   2.319   6.866   2.415
 7487SOL    HW223361   2.293   6.729   2.331
 7488SOL     OW23362   2.218   6.552   4.963
 7488SOL    HW123363   2.120   6.531   4.959
 7488SOL    HW223364   2.236   6.631   4.904
 7489SOL     OW23365   4.793   2.246   5.107
 7489SOL    HW123366   4.777   2.220   5.012
 7489SOL    HW223367   4.891   2.246   5.126
 7490SOL     OW23368   0.860   1.246   1.135
 7490SOL    HW123369   0.873   1.238   1.036
 7490SOL    HW223370   0.943   1.285   1.176
 7491SOL     OW23371   0.639   5.255   7.011
 7491SOL    HW123372   0.678   5.250   0.073
 7491SOL    HW223373   0.593   5.343   6.999
 7492SOL     OW23374   2.761   1.641   5.101
 7492SOL    HW123375   2.663   1.647   5.121
 7492SOL    HW223376   2.805   1.579   5.166
 7493SOL     OW23377   6.055   4.323   6.562
 7493SOL    HW123378   6.003   4.312   6.646
 7493SOL    HW223379   5.997   4.301   6.484
 7494SOL     OW23380   5.863   0.849   2.448
 7494SOL    HW123381   5.795   0.808   2.509
 7494SOL    HW223382   5.915   0.918   2.499
 7495SOL     OW23383   2.458   1.197   1.537
 7495SOL    HW123384   2.523   1.211   1.463
 7495SOL    HW223385   2.383   1.263   1.528
 7496SOL     OW23386   0.907   4.420   6.044
 7496SOL    HW123387   0.840   4.390   5.976
 7496SOL    HW223388   0.865   4.485   6.107
 7497SOL     OW23389   2.766   4.995   1.328
 7497SOL    HW123390   2.836   5.033   1.389
 7497SOL    HW223391   2.807   4.977   1.239
 7498SOL     OW23392   2.654   1.194   4.059
 7498SOL    HW123393   2.741   1.157   4.093
 7498SOL    HW223394   2.672   1.262   3.988
 7499SOL     OW23395   6.223   0.467   3.102
 7499SOL    HW123396   6.276   0.547   3.132
 7499SOL    HW223397   6.149   0.498   3.042
 7500SOL     OW23398   4.138   6.032   2.650
 7500SOL    HW123399   4.173   6.011   2.741
 7500SOL    HW223400   4.161   6.126   2.626
 7501SOL     OW23401   6.386   4.466   4.477
 7501SOL    HW123402   6.432   4.393   4.426
 7501SOL    HW223403   6.292   4.474   4.445
 7502SOL     OW23404   0.962   1.954   5.161
 7502SOL    HW123405   1.028   1.883   5.137
 7502SOL    HW223406   1.002   2.015   5.228
 7503SOL     OW23407   2.614   1.108   6.695
 7503SOL    HW123408   2.584   1.062   6.611
 7503SOL    HW223409   2.714   1.112   6.697
 7504SOL     OW23410   3.710   6.939   3.385
 7504SOL    HW123411   3.734   6.906   3.294
 7504SOL    HW223412   3.639   6.880   3.424
 7505SOL     OW23413   2.667   0.967   5.340
 7505SOL    HW123414   2.585   0.931   5.384
 7505SOL    HW223415   2.703   1.044   5.394
 7506SOL     OW23416   4.477   0.717   2.780
 7506SOL    HW123417   4.564   0.725   2.829
 7506SOL    HW223418   4.421   0.645   2.822
 7507SOL     OW23419   6.997   6.841   0.494
 7507SOL    HW123420   0.016   6.873   0.413
 7507SOL    HW223421   6.899   6.850   0.478
 7508SOL     OW23422   5.425   6.545   2.705
 7508SOL    HW123423   5.451   6.620   2.766
 7508SOL    HW223424   5.336   6.564   2.665
 7509SOL     OW23425   4.922   4.679   0.565
 7509SOL    HW123426   5.015   4.676   0.603
 7509SOL    HW223427   4.908   4.600   0.505
 7510SOL     OW23428   2.814   3.969   5.296
 7510SOL    HW123429   2.837   3.928   5.208
 7510SOL    HW223430   2.722   4.007   5.292
 7511SOL     OW23431   1.734   0.757   2.554
 7511SOL    HW123432   1.663   0.752   2.483
 7511SOL    HW223433   1.810   0.812   2.521
 7512SOL     OW23434   3.003   4.195   1.282
 7512SOL    HW123435   2.997   4.293   1.262
 7512SOL    HW223436   2.920   4.165   1.327
 7513SOL     OW23437   1.567   2.110   0.778
 7513SOL    HW123438   1.617   2.194   0.799
 7513SOL    HW223439   1.612   2.032   0.819
 7514SOL     OW23440   2.683   5.935   2.259
 7514SOL    HW123441   2.651   6.012   2.205
 7514SOL    HW223442   2.670   5.850   2.208
 7515SOL     OW23443   0.829   6.811   2.675
 7515SOL    HW123444   0.770   6.830   2.597
 7515SOL    HW223445   0.842   6.895   2.728
 7516SOL     OW23446   6.896   5.651   4.470
 7516SOL    HW123447   6.883   5.555   4.446
 7516SOL    HW223448   6.981   5.662   4.522
 7517SOL     OW23449   6.598   3.285   1.638
 7517SOL    HW123450   6.672   3.271   1.704
 7517SOL    HW223451   6.575   3.382   1.634
 7518SOL     OW23452   3.878   5.715   3.729
 7518SOL    HW123453   3.975   5.706   3.706
 7518SOL    HW223454   3.835   5.782   3.668
 7519SOL     OW23455   0.054   6.815   3.690
 7519SOL    HW123456   0.040   6.829   3.788
 7519SOL    HW223457   0.146   6.845   3.665
 7520SOL     OW23458   2.589   0.396   1.716
 7520SOL    HW123459   2.514   0.385   1.782
 7520SOL    HW223460   2.656   0.461   1.752
 7521SOL     OW23461   4.466   4.640   5.428
 7521SOL    HW123462   4.410   4.722   5.444
 7521SOL    HW223463   4.549   4.646   5.483
 7522SOL     OW23464   2.607   0.772   6.385
 7522SOL    HW123465   2.593   0.871   6.395
 7522SOL    HW223466   2.636   0.752   6.292
 7523SOL     OW23467   5.648   1.417   5.784
 7523SOL    HW123468   5.680   1.507   5.754
 7523SOL    HW223469   5.630   1.418   5.882
 7524SOL     OW23470   0.603   2.568   5.625
 7524SOL    HW123471   0.593   2.596   5.529
 7524SOL    HW223472   0.524   2.512   5.651
 7525SOL     OW23473   2.498   0.119   6.110
 7525SOL    HW123474   2.471   0.048   6.174
 7525SOL    HW223475   2.432   0.123   6.034
 7526SOL     OW23476   3.943   3.036   3.065
 7526SOL    HW123477   3.880   3.093   3.013
 7526SOL    HW223478   3.921   2.940   3.052
 7527SOL     OW23479   4.756   5.066   3.036
 7527SOL    HW123480   4.735   4.970   3.016
 7527SOL    HW223481   4.694   5.098   3.108
 7528SOL     OW23482   4.802   2.545   0.256
 7528SOL    HW123483   4.876   2.491   0.296
 7528SOL    HW223484   4.714   2.510   0.286
 7529SOL     OW23485   5.391   1.315   4.307
 7529SOL    HW123486   5.339   1.394   4.274
 7529SOL    HW223487   5.474   1.347   4.354
 7530SOL     OW23488   6.587   3.260   2.628
 7530SOL    HW123489   6.576   3.298   2.536
 7530SOL    HW223490   6.684   3.262   2.653
 7531SOL     OW23491   4.442   2.464   4.455
 7531SOL    HW123492   4.489   2.513   4.382
 7531SOL    HW223493   4.505   2.449   4.531
 7532SOL     OW23494   5.396   5.778   1.638
 7532SOL    HW123495   5.420   5.733   1.724
 7532SOL    HW223496   5.383   5.709   1.567
 7533SOL     OW23497   1.846   1.295   3.148
 7533SOL    HW123498   1.763   1.309   3.202
 7533SOL    HW223499   1.877   1.383   3.112
 7534SOL     OW23500   3.754   6.413   4.880
 7534SOL    HW123501   3.676   6.468   4.853
 7534SOL    HW223502   3.758   6.330   4.823
 7535SOL     OW23503   3.075   1.143   5.713
 7535SOL    HW123504   3.059   1.226   5.768
 7535SOL    HW223505   3.074   1.167   5.616
 7536SOL     OW23506   5.189   5.037   4.645
 7536SOL    HW123507   5.095   5.071   4.649
 7536SOL    HW223508   5.192   4.940   4.669
 7537SOL     OW23509   1.783   4.453   5.322
 7537SOL    HW123510   1.822   4.368   5.288
 7537SOL    HW223511   1.795   4.458   5.421
 7538SOL     OW23512   3.257   3.486   2.493
 7538SOL    HW123513   3.235   3.411   2.556
 7538SOL    HW223514   3.173   3.531   2.465
 7539SOL     OW23515   2.783   2.439   5.171
 7539SOL    HW123516   2.704   2.482   5.215
 7539SOL    HW223517   2.859   2.436   5.236
 7540SOL     OW23518   3.621   1.120   5.963
 7540SOL    HW123519   3.550   1.190   5.967
 7540SOL    HW223520   3.584   1.037   5.923
 7541SOL     OW23521   6.574   3.685   5.269
 7541SOL    HW123522   6.642   3.636   5.214
 7541SOL    HW223523   6.594   3.671   5.366
 7542SOL     OW23524   0.445   6.377   6.359
 7542SOL    HW123525   0.458   6.472   6.328
 7542SOL    HW223526   0.390   6.327   6.292
 7543SOL     OW23527   4.625   1.977   0.701
 7543SOL    HW123528   4.544   2.036   0.701
 7543SOL    HW223529   4.700   2.024   0.655
 7544SOL     OW23530   0.412   1.894   3.552
 7544SOL    HW123531   0.428   1.941   3.465
 7544SOL    HW223532   0.373   1.804   3.534
 7545SOL     OW23533   4.944   6.605   3.088
 7545SOL    HW123534   4.869   6.561   3.136
 7545SOL    HW223535   4.914   6.692   3.051
 7546SOL     OW23536   4.410   0.619   1.229
 7546SOL    HW123537   4.484   0.663   1.280
 7546SOL    HW223538   4.329   0.678   1.230
 7547SOL     OW23539   3.807   6.365   0.340
 7547SOL    HW123540   3.839   6.437   0.400
 7547SOL    HW223541   3.711   6.381   0.316
 7548SOL     OW23542   2.746   1.797   0.341
 7548SOL    HW123543   2.783   1.747   0.419
 7548SOL    HW223544   2.818   1.809   0.272
 7549SOL     OW23545   5.519   1.721   1.688
 7549SOL    HW123546   5.548   1.681   1.775
 7549SOL    HW223547   5.431   1.768   1.700
 7550SOL     OW23548   2.766   5.015   2.536
 7550SOL    HW123549   2.795   5.039   2.629
 7550SOL    HW223550   2.813   5.074   2.471
 7551SOL     OW23551   4.780   3.957   0.029
 7551SOL    HW123552   4.751   3.994   0.117
 7551SOL    HW223553   4.851   4.015   7.020
 7552SOL     OW23554   1.862   5.800   3.837
 7552SOL    HW123555   1.776   5.750   3.832
 7552SOL    HW223556   1.939   5.737   3.826
 7553SOL     OW23557   3.354   4.843   6.016
 7553SOL    HW123558   3.266   4.883   6.040
 7553SOL    HW223559   3.423   4.871   6.084
 7554SOL     OW23560   5.145   1.233   0.963
 7554SOL    HW123561   5.088   1.168   0.914
 7554SOL    HW223562   5.101   1.257   1.050
 7555SOL     OW23563   1.389   5.186   4.756
 7555SOL    HW123564   1.452   5.166   4.830
 7555SOL    HW223565   1.295   5.180   4.789
 7556SOL     OW23566   0.367   2.411   5.677
 7556SOL    HW123567   0.303   2.483   5.651
 7556SOL    HW223568   0.321   2.345   5.737
 7557SOL     OW23569   5.314   3.194   5.759
 7557SOL    HW123570   5.364   3.281   5.751
 7557SOL    HW223571   5.296   3.175   5.855
 7558SOL     OW23572   2.359   2.756   3.824
 7558SOL    HW123573   2.405   2.679   3.868
 7558SOL    HW223574   2.345   2.829   3.890
 7559SOL     OW23575   6.592   5.339   1.445
 7559SOL    HW123576   6.521   5.271   1.463
 7559SOL    HW223577   6.593   5.406   1.520
 7560SOL     OW23578   4.969   6.491   7.012
 7560SOL    HW123579   4.980   6.393   7.026
 7560SOL    HW223580   4.958   6.510   6.915
 7561SOL     OW23581   0.619   3.308   0.002
 7561SOL    HW123582   0.703   3.333   6.984
 7561SOL    HW223583   0.637   3.232   0.064
 7562SOL     OW23584   4.465   6.086   4.927
 7562SOL    HW123585   4.454   5.986   4.930
 7562SOL    HW223586   4.385   6.127   4.882
 7563SOL     OW23587   2.837   0.204   0.628
 7563SOL    HW123588   2.784   0.158   0.557
 7563SOL    HW223589   2.791   0.288   0.656
 7564SOL     OW23590   5.296   1.115   3.279
 7564SOL    HW123591   5.234   1.193   3.276
 7564SOL    HW223592   5.318   1.086   3.186
 7565SOL     OW23593   5.134   4.257   6.406
 7565SOL    HW123594   5.172   4.186   6.465
 7565SOL    HW223595   5.038   4.272   6.429
 7566SOL     OW23596   0.791   4.830   3.584
 7566SOL    HW123597   0.820   4.743   3.543
 7566SOL    HW223598   0.864   4.865   3.642
 7567SOL     OW23599   1.468   2.744   5.533
 7567SOL    HW123600   1.393   2.771   5.595
 7567SOL    HW223601   1.438   2.756   5.438
 7568SOL     OW23602   5.869   5.965   4.149
 7568SOL    HW123603   5.805   5.964   4.072
 7568SOL    HW223604   5.959   5.935   4.119
 7569SOL     OW23605   4.211   5.436   6.203
 7569SOL    HW123606   4.207   5.337   6.221
 7569SOL    HW223607   4.143   5.459   6.133
 7570SOL     OW23608   5.412   4.917   5.542
 7570SOL    HW123609   5.334   4.951   5.595
 7570SOL    HW223610   5.495   4.921   5.599
 7571SOL     OW23611   5.104   4.942   1.965
 7571SOL    HW123612   5.069   4.980   2.050
 7571SOL    HW223613   5.109   4.842   1.973
 7572SOL     OW23614   5.124   0.537   3.758
 7572SOL    HW123615   5.033   0.573   3.781
 7572SOL    HW223616   5.188   0.557   3.832
 7573SOL     OW23617   5.638   5.467   4.427
 7573SOL    HW123618   5.735   5.485   4.410
 7573SOL    HW223619   5.598   5.542   4.479
 7574SOL     OW23620   6.601   1.297   4.732
 7574SOL    HW123621   6.550   1.299   4.646
 7574SOL    HW223622   6.560   1.363   4.796
 7575SOL     OW23623   4.768   0.622   5.727
 7575SOL    HW123624   4.774   0.582   5.818
 7575SOL    HW223625   4.860   0.643   5.693
 7576SOL     OW23626   6.295   5.396   0.147
 7576SOL    HW123627   6.374   5.335   0.138
 7576SOL    HW223628   6.259   5.389   0.240
 7577SOL     OW23629   6.831   6.786   5.271
 7577SOL    HW123630   6.891   6.856   5.231
 7577SOL    HW223631   6.762   6.831   5.328
 7578SOL     OW23632   1.788   6.564   3.582
 7578SOL    HW123633   1.795   6.530   3.488
 7578SOL    HW223634   1.876   6.551   3.628
 7579SOL     OW23635   4.177   1.791   2.359
 7579SOL    HW123636   4.275   1.812   2.367
 7579SOL    HW223637   4.131   1.811   2.445
 7580SOL     OW23638   1.197   3.727   4.017
 7580SOL    HW123639   1.262   3.782   3.966
 7580SOL    HW223640   1.243   3.644   4.051
 7581SOL     OW23641   4.604   0.787   1.308
 7581SOL    HW123642   4.592   0.870   1.254
 7581SOL    HW223643   4.676   0.802   1.376
 7582SOL     OW23644   3.743   1.295   0.354
 7582SOL    HW123645   3.826   1.351   0.357
 7582SOL    HW223646   3.762   1.212   0.300
 7583SOL     OW23647   6.347   3.795   1.876
 7583SOL    HW123648   6.441   3.827   1.875
 7583SOL    HW223649   6.298   3.838   1.951
 7584SOL     OW23650   2.988   6.392   1.254
 7584SOL    HW123651   2.965   6.454   1.329
 7584SOL    HW223652   2.926   6.313   1.257
 7585SOL     OW23653   1.650   2.887   5.947
 7585SOL    HW123654   1.726   2.883   6.012
 7585SOL    HW223655   1.630   2.982   5.924
 7586SOL     OW23656   3.508   0.871   3.041
 7586SOL    HW123657   3.579   0.933   3.007
 7586SOL    HW223658   3.438   0.924   3.089
 7587SOL     OW23659   3.467   1.776   6.685
 7587SOL    HW123660   3.454   1.688   6.730
 7587SOL    HW223661   3.406   1.782   6.605
 7588SOL     OW23662   0.511   3.322   2.156
 7588SOL    HW123663   0.428   3.361   2.196
 7588SOL    HW223664   0.500   3.224   2.144
 7589SOL     OW23665   6.107   6.587   0.440
 7589SOL    HW123666   6.066   6.511   0.389
 7589SOL    HW223667   6.036   6.638   0.487
 7590SOL     OW23668   2.957   1.808   6.343
 7590SOL    HW123669   2.986   1.880   6.406
 7590SOL    HW223670   2.882   1.756   6.385
 7591SOL     OW23671   0.412   5.239   0.742
 7591SOL    HW123672   0.331   5.298   0.738
 7591SOL    HW223673   0.487   5.284   0.695
 7592SOL     OW23674   0.352   5.005   6.734
 7592SOL    HW123675   0.321   4.944   6.662
 7592SOL    HW223676   0.446   5.034   6.715
 7593SOL     OW23677   5.982   2.282   6.848
 7593SOL    HW123678   6.022   2.200   6.890
 7593SOL    HW223679   5.884   2.268   6.836
 7594SOL     OW23680   0.294   4.860   2.101
 7594SOL    HW123681   0.277   4.783   2.039
 7594SOL    HW223682   0.362   4.834   2.169
 7595SOL     OW23683   0.368   2.674   5.989
 7595SOL    HW123684   0.330   2.679   5.897
 7595SOL    HW223685   0.321   2.740   6.048
 7596SOL     OW23686   4.756   5.417   2.780
 7596SOL    HW123687   4.791   5.509   2.761
 7596SOL    HW223688   4.694   5.421   2.859
 7597SOL     OW23689   2.995   5.606   1.775
 7597SOL    HW123690   2.895   5.611   1.784
 7597SOL    HW223691   3.035   5.588   1.864
 7598SOL     OW23692   6.437   0.877   2.677
 7598SOL    HW123693   6.534   0.898   2.669
 7598SOL    HW223694   6.386   0.963   2.688
 7599SOL     OW23695   5.223   0.728   3.553
 7599SOL    HW123696   5.308   0.765   3.590
 7599SOL    HW223697   5.177   0.673   3.623
 7600SOL     OW23698   1.988   0.666   2.222
 7600SOL    HW123699   1.974   0.630   2.314
 7600SOL    HW223700   1.935   0.750   2.211
 7601SOL     OW23701   1.664   5.364   2.901
 7601SOL    HW123702   1.691   5.441   2.958
 7601SOL    HW223703   1.581   5.322   2.937
 7602SOL     OW23704   1.977   3.664   5.608
 7602SOL    HW123705   2.062   3.692   5.652
 7602SOL    HW223706   1.997   3.630   5.516
 7603SOL     OW23707   1.234   6.073   6.186
 7603SOL    HW123708   1.215   5.986   6.139
 7603SOL    HW223709   1.149   6.126   6.192
 7604SOL     OW23710   2.396   5.669   4.103
 7604SOL    HW123711   2.310   5.701   4.142
 7604SOL    HW223712   2.387   5.663   4.004
 7605SOL     OW23713   1.592   6.182   0.554
 7605SOL    HW123714   1.636   6.108   0.503
 7605SOL    HW223715   1.613   6.173   0.651
 7606SOL     OW23716   0.073   2.448   2.477
 7606SOL    HW123717   0.006   2.382   2.511
 7606SOL    HW223718   0.135   2.475   2.551
 7607SOL     OW23719   4.163   6.449   0.282
 7607SOL    HW123720   4.079   6.500   0.268
 7607SOL    HW223721   4.191   6.405   0.197
 7608SOL     OW23722   3.319   3.533   3.577
 7608SOL    HW123723   3.330   3.574   3.667
 7608SOL    HW223724   3.363   3.443   3.576
 7609SOL     OW23725   6.764   4.033   3.292
 7609SOL    HW123726   6.857   4.021   3.258
 7609SOL    HW223727   6.699   4.015   3.217
 7610SOL     OW23728   5.915   0.489   0.036
 7610SOL    HW123729   5.905   0.570   7.009
 7610SOL    HW223730   5.997   0.439   0.010
 7611SOL     OW23731   0.658   2.033   0.084
 7611SOL    HW123732   0.665   1.971   0.162
 7611SOL    HW223733   0.750   2.065   0.059
 7612SOL     OW23734   4.249   1.985   4.785
 7612SOL    HW123735   4.289   2.063   4.736
 7612SOL    HW223736   4.225   1.914   4.719
 7613SOL     OW23737   5.082   1.747   1.916
 7613SOL    HW123738   5.075   1.839   1.954
 7613SOL    HW223739   5.038   1.682   1.979
 7614SOL     OW23740   4.710   2.534   1.397
 7614SOL    HW123741   4.696   2.533   1.496
 7614SOL    HW223742   4.807   2.542   1.376
 7615SOL     OW23743   5.228   4.301   5.946
 7615SOL    HW123744   5.236   4.239   5.869
 7615SOL    HW223745   5.138   4.344   5.946
 7616SOL     OW23746   0.232   4.643   4.098
 7616SOL    HW123747   0.170   4.565   4.110
 7616SOL    HW223748   0.230   4.673   4.003
 7617SOL     OW23749   2.951   5.995   2.718
 7617SOL    HW123750   2.904   6.004   2.630
 7617SOL    HW223751   2.903   6.050   2.787
 7618SOL     OW23752   0.729   2.453   0.075
 7618SOL    HW123753   0.754   2.358   0.088
 7618SOL    HW223754   0.759   2.484   7.016
 7619SOL     OW23755   6.142   3.300   4.407
 7619SOL    HW123756   6.113   3.223   4.465
 7619SOL    HW223757   6.140   3.384   4.461
 7620SOL     OW23758   4.134   5.539   0.072
 7620SOL    HW123759   4.042   5.555   0.037
 7620SOL    HW223760   4.201   5.589   0.016
 7621SOL     OW23761   0.667   1.497   0.703
 7621SOL    HW123762   0.645   1.410   0.659
 7621SOL    HW223763   0.623   1.500   0.793
 7622SOL     OW23764   5.267   4.583   1.841
 7622SOL    HW123765   5.223   4.653   1.784
 7622SOL    HW223766   5.212   4.568   1.924
 7623SOL     OW23767   4.405   4.741   6.415
 7623SOL    HW123768   4.497   4.704   6.407
 7623SOL    HW223769   4.340   4.674   6.379
 7624SOL     OW23770   0.410   2.772   4.489
 7624SOL    HW123771   0.458   2.739   4.570
 7624SOL    HW223772   0.461   2.847   4.448
 7625SOL     OW23773   4.313   0.634   1.740
 7625SOL    HW123774   4.299   0.727   1.774
 7625SOL    HW223775   4.336   0.637   1.643
 7626SOL     OW23776   6.968   6.348   5.283
 7626SOL    HW123777   6.990   6.337   5.186
 7626SOL    HW223778   6.872   6.325   5.298
 7627SOL     OW23779   5.754   3.466   6.972
 7627SOL    HW123780   5.837   3.419   7.002
 7627SOL    HW223781   5.779   3.538   6.906
 7628SOL     OW23782   3.341   0.759   1.251
 7628SOL    HW123783   3.378   0.667   1.259
 7628SOL    HW223784   3.411   0.825   1.279
 7629SOL     OW23785   6.154   6.671   2.727
 7629SOL    HW123786   6.209   6.594   2.762
 7629SOL    HW223787   6.181   6.691   2.633
 7630SOL     OW23788   5.821   6.290   1.791
 7630SOL    HW123789   5.834   6.208   1.848
 7630SOL    HW223790   5.762   6.355   1.839
 7631SOL     OW23791   0.593   1.889   5.463
 7631SOL    HW123792   0.590   1.892   5.563
 7631SOL    HW223793   0.660   1.955   5.430
 7632SOL     OW23794   3.604   2.320   1.586
 7632SOL    HW123795   3.672   2.341   1.516
 7632SOL    HW223796   3.638   2.349   1.676
 7633SOL     OW23797   5.115   2.688   0.235
 7633SOL    HW123798   5.099   2.592   0.213
 7633SOL    HW223799   5.205   2.715   0.200
 7634SOL     OW23800   1.186   1.100   2.145
 7634SOL    HW123801   1.260   1.154   2.186
 7634SOL    HW223802   1.143   1.153   2.072
 7635SOL     OW23803   2.610   5.048   5.261
 7635SOL    HW123804   2.627   4.987   5.183
 7635SOL    HW223805   2.511   5.053   5.278
 7636SOL     OW23806   1.034   1.345   3.343
 7636SOL    HW123807   1.017   1.249   3.366
 7636SOL    HW223808   1.024   1.401   3.426
 7637SOL     OW23809   2.316   6.397   2.327
 7637SOL    HW123810   2.379   6.341   2.273
 7637SOL    HW223811   2.278   6.469   2.269
 7638SOL     OW23812   4.555   6.087   2.045
 7638SOL    HW123813   4.498   6.008   2.065
 7638SOL    HW223814   4.573   6.138   2.129
 7639SOL     OW23815   1.394   2.157   0.486
 7639SOL    HW123816   1.386   2.059   0.502
 7639SOL    HW223817   1.465   2.175   0.417
 7640SOL     OW23818   3.359   2.580   0.280
 7640SOL    HW123819   3.293   2.512   0.312
 7640SOL    HW223820   3.443   2.573   0.334
 7641SOL     OW23821   0.570   4.301   1.423
 7641SOL    HW123822   0.600   4.396   1.414
 7641SOL    HW223823   0.507   4.293   1.500
 7642SOL     OW23824   2.261   1.327   2.920
 7642SOL    HW123825   2.303   1.349   3.008
 7642SOL    HW223826   2.254   1.228   2.910
 7643SOL     OW23827   4.697   1.828   3.906
 7643SOL    HW123828   4.719   1.800   4.000
 7643SOL    HW223829   4.744   1.769   3.842
 7644SOL     OW23830   6.130   1.779   2.520
 7644SOL    HW123831   6.214   1.800   2.569
 7644SOL    HW223832   6.056   1.763   2.586
 7645SOL     OW23833   4.635   4.052   5.913
 7645SOL    HW123834   4.678   4.093   5.994
 7645SOL    HW223835   4.695   4.065   5.833
 7646SOL     OW23836   2.165   2.322   2.290
 7646SOL    HW123837   2.125   2.365   2.210
 7646SOL    HW223838   2.180   2.390   2.361
 7647SOL     OW23839   0.842   2.997   1.423
 7647SOL    HW123840   0.808   2.923   1.365
 7647SOL    HW223841   0.941   3.008   1.407
 7648SOL     OW23842   4.142   2.256   3.827
 7648SOL    HW123843   4.107   2.319   3.758
 7648SOL    HW223844   4.231   2.222   3.799
 7649SOL     OW23845   1.243   1.004   2.647
 7649SOL    HW123846   1.337   1.036   2.632
 7649SOL    HW223847   1.234   0.971   2.741
 7650SOL     OW23848   5.757   3.666   1.541
 7650SOL    HW123849   5.857   3.668   1.546
 7650SOL    HW223850   5.721   3.622   1.623
 7651SOL     OW23851   2.623   6.956   4.706
 7651SOL    HW123852   2.545   6.899   4.732
 7651SOL    HW223853   2.639   6.947   4.607
 7652SOL     OW23854   0.069   4.399   4.064
 7652SOL    HW123855   0.076   4.416   3.966
 7652SOL    HW223856   0.146   4.342   4.093
 7653SOL     OW23857   2.529   1.832   0.858
 7653SOL    HW123858   2.479   1.746   0.868
 7653SOL    HW223859   2.618   1.813   0.814
 7654SOL     OW23860   5.031   3.326   3.496
 7654SOL    HW123861   5.119   3.314   3.449
 7654SOL    HW223862   5.038   3.290   3.589
 7655SOL     OW23863   3.875   0.215   3.655
 7655SOL    HW123864   3.851   0.183   3.564
 7655SOL    HW223865   3.973   0.234   3.659
 7656SOL     OW23866   1.312   5.619   5.883
 7656SOL    HW123867   1.393   5.563   5.863
 7656SOL    HW223868   1.277   5.658   5.798
 7657SOL     OW23869   2.745   2.424   3.184
 7657SOL    HW123870   2.658   2.473   3.189
 7657SOL    HW223871   2.740   2.342   3.242
 7658SOL     OW23872   3.954   6.352   5.285
 7658SOL    HW123873   3.953   6.448   5.260
 7658SOL    HW223874   3.977   6.296   5.205
 7659SOL     OW23875   5.520   5.801   6.791
 7659SOL    HW123876   5.514   5.702   6.803
 7659SOL    HW223877   5.598   5.824   6.733
 7660SOL     OW23878   6.105   5.879   4.359
 7660SOL    HW123879   6.070   5.803   4.415
 7660SOL    HW223880   6.054   5.962   4.380
 7661SOL     OW23881   6.070   2.319   4.796
 7661SOL    HW123882   6.070   2.222   4.817
 7661SOL    HW223883   6.096   2.333   4.700
 7662SOL     OW23884   0.613   2.330   2.832
 7662SOL    HW123885   0.661   2.333   2.919
 7662SOL    HW223886   0.562   2.244   2.825
 7663SOL     OW23887   6.212   6.749   6.294
 7663SOL    HW123888   6.280   6.712   6.356
 7663SOL    HW223889   6.134   6.783   6.346
 7664SOL     OW23890   3.991   1.267   2.458
 7664SOL    HW123891   3.927   1.312   2.396
 7664SOL    HW223892   4.053   1.335   2.498
 7665SOL     OW23893   4.103   0.436   4.150
 7665SOL    HW123894   4.191   0.437   4.197
 7665SOL    HW223895   4.071   0.530   4.138
 7666SOL     OW23896   0.518   6.824   1.009
 7666SOL    HW123897   0.553   6.738   0.972
 7666SOL    HW223898   0.593   6.891   1.014
 7667SOL     OW23899   4.445   6.066   1.296
 7667SOL    HW123900   4.430   5.969   1.314
 7667SOL    HW223901   4.436   6.083   1.197
 7668SOL     OW23902   2.888   4.526   0.810
 7668SOL    HW123903   2.849   4.593   0.874
 7668SOL    HW223904   2.927   4.450   0.861
 7669SOL     OW23905   5.205   1.748   5.403
 7669SOL    HW123906   5.124   1.698   5.371
 7669SOL    HW223907   5.288   1.704   5.369
 7670SOL     OW23908   1.430   5.956   5.921
 7670SOL    HW123909   1.494   5.981   5.993
 7670SOL    HW223910   1.479   5.943   5.835
 7671SOL     OW23911   4.373   1.000   4.845
 7671SOL    HW123912   4.444   0.971   4.909
 7671SOL    HW223913   4.320   0.921   4.815
 7672SOL     OW23914   5.710   6.244   3.778
 7672SOL    HW123915   5.782   6.176   3.788
 7672SOL    HW223916   5.643   6.232   3.851
 7673SOL     OW23917   2.127   5.387   0.428
 7673SOL    HW123918   2.038   5.396   0.473
 7673SOL    HW223919   2.128   5.440   0.344
 7674SOL     OW23920   6.464   2.442   4.128
 7674SOL    HW123921   6.413   2.374   4.077
 7674SOL    HW223922   6.515   2.501   4.065
 7675SOL     OW23923   4.990   0.938   2.977
 7675SOL    HW123924   4.923   0.864   2.987
 7675SOL    HW223925   5.047   0.919   2.896
 7676SOL     OW23926   1.590   2.141   0.278
 7676SOL    HW123927   1.666   2.167   0.337
 7676SOL    HW223928   1.605   2.050   0.241
 7677SOL     OW23929   0.461   3.856   1.912
 7677SOL    HW123930   0.501   3.880   2.001
 7677SOL    HW223931   0.504   3.772   1.879
 7678SOL     OW23932   1.801   1.319   5.687
 7678SOL    HW123933   1.765   1.270   5.608
 7678SOL    HW223934   1.815   1.254   5.762
 7679SOL     OW23935   1.674   6.419   5.255
 7679SOL    HW123936   1.753   6.478   5.269
 7679SOL    HW223937   1.696   6.326   5.285
 7680SOL     OW23938   1.833   2.528   0.200
 7680SOL    HW123939   1.813   2.625   0.211
 7680SOL    HW223940   1.747   2.477   0.188
 7681SOL     OW23941   2.951   6.956   0.342
 7681SOL    HW123942   2.940   6.882   0.275
 7681SOL    HW223943   3.010   6.924   0.417
 7682SOL     OW23944   3.128   0.227   1.911
 7682SOL    HW123945   3.146   0.290   1.986
 7682SOL    HW223946   3.096   0.279   1.831
 7683SOL     OW23947   6.599   1.880   4.382
 7683SOL    HW123948   6.584   1.956   4.318
 7683SOL    HW223949   6.571   1.795   4.339
 7684SOL     OW23950   5.149   2.084   0.645
 7684SOL    HW123951   5.074   2.141   0.679
 7684SOL    HW223952   5.202   2.135   0.577
 7685SOL     OW23953   3.466   3.274   0.092
 7685SOL    HW123954   3.377   3.234   0.111
 7685SOL    HW223955   3.511   3.300   0.178
 7686SOL     OW23956   5.041   0.460   3.522
 7686SOL    HW123957   4.964   0.399   3.538
 7686SOL    HW223958   5.077   0.493   3.609
 7687SOL     OW23959   5.846   5.501   5.471
 7687SOL    HW123960   5.940   5.469   5.476
 7687SOL    HW223961   5.802   5.465   5.389
 7688SOL     OW23962   0.087   0.690   5.873
 7688SOL    HW123963   0.074   0.701   5.775
 7688SOL    HW223964   0.183   0.708   5.896
 7689SOL     OW23965   5.464   5.585   3.390
 7689SOL    HW123966   5.546   5.641   3.375
 7689SOL    HW223967   5.487   5.508   3.450
 7690SOL     OW23968   6.084   5.011   1.154
 7690SOL    HW123969   5.995   4.970   1.133
 7690SOL    HW223970   6.074   5.110   1.161
 7691SOL     OW23971   5.273   2.642   4.477
 7691SOL    HW123972   5.243   2.735   4.455
 7691SOL    HW223973   5.230   2.577   4.414
 7692SOL     OW23974   0.929   6.855   1.540
 7692SOL    HW123975   0.928   6.758   1.514
 7692SOL    HW223976   0.900   6.911   1.462
 7693SOL     OW23977   4.441   6.647   0.869
 7693SOL    HW123978   4.376   6.634   0.943
 7693SOL    HW223979   4.521   6.698   0.902
 7694SOL     OW23980   6.831   4.347   4.140
 7694SOL    HW123981   6.773   4.427   4.127
 7694SOL    HW223982   6.916   4.358   4.089
 7695SOL     OW23983   3.766   0.033   0.495
 7695SOL    HW123984   3.729   0.059   0.584
 7695SOL    HW223985   3.753   0.108   0.431
 7696SOL     OW23986   6.839   1.831   4.986
 7696SOL    HW123987   6.798   1.794   4.903
 7696SOL    HW223988   6.821   1.930   4.991
 7697SOL     OW23989   2.968   0.701   2.546
 7697SOL    HW123990   3.005   0.746   2.465
 7697SOL    HW223991   3.017   0.734   2.627
 7698SOL     OW23992   0.042   3.046   4.561
 7698SOL    HW123993   0.031   2.951   4.593
 7698SOL    HW223994   6.992   3.072   4.507
 7699SOL     OW23995   4.153   5.524   6.771
 7699SOL    HW123996   4.191   5.513   6.679
 7699SOL    HW223997   4.068   5.578   6.766
 7700SOL     OW23998   4.617   6.419   5.432
 7700SOL    HW123999   4.599   6.506   5.478
 7700SOL    HW224000   4.532   6.369   5.420
 7701SOL     OW24001   6.674   1.852   6.576
 7701SOL    HW124002   6.667   1.942   6.534
 7701SOL    HW224003   6.649   1.858   6.673
 7702SOL     OW24004   3.327   6.559   5.963
 7702SOL    HW124005   3.348   6.627   5.892
 7702SOL    HW224006   3.352   6.596   6.052
 7703SOL     OW24007   0.114   1.590   4.818
 7703SOL    HW124008   0.154   1.521   4.759
 7703SOL    HW224009   0.032   1.553   4.863
 7704SOL     OW24010   5.038   4.898   5.396
 7704SOL    HW124011   4.948   4.853   5.398
 7704SOL    HW224012   5.072   4.907   5.489
 7705SOL     OW24013   3.460   5.146   6.133
 7705SOL    HW124014   3.361   5.142   6.120
 7705SOL    HW224015   3.496   5.226   6.086
 7706SOL     OW24016   4.985   1.430   5.598
 7706SOL    HW124017   5.056   1.365   5.624
 7706SOL    HW224018   4.946   1.471   5.681
 7707SOL     OW24019   1.162   6.119   6.620
 7707SOL    HW124020   1.256   6.140   6.593
 7707SOL    HW224021   1.145   6.153   6.712
 7708SOL     OW24022   4.961   5.996   5.410
 7708SOL    HW124023   4.955   5.996   5.310
 7708SOL    HW224024   4.894   6.061   5.447
 7709SOL     OW24025   5.503   3.908   2.020
 7709SOL    HW124026   5.523   3.861   1.934
 7709SOL    HW224027   5.575   3.888   2.086
 7710SOL     OW24028   2.811   0.960   0.849
 7710SOL    HW124029   2.890   0.941   0.790
 7710SOL    HW224030   2.821   1.052   0.889
 7711SOL     OW24031   6.143   6.232   5.414
 7711SOL    HW124032   6.069   6.175   5.378
 7711SOL    HW224033   6.163   6.205   5.508
 7712SOL     OW24034   6.413   3.868   1.440
 7712SOL    HW124035   6.467   3.941   1.482
 7712SOL    HW224036   6.372   3.811   1.511
 7713SOL     OW24037   1.653   4.437   0.188
 7713SOL    HW124038   1.643   4.536   0.181
 7713SOL    HW224039   1.675   4.399   0.098
 7714SOL     OW24040   6.568   5.777   5.171
 7714SOL    HW124041   6.586   5.707   5.240
 7714SOL    HW224042   6.617   5.861   5.194
 7715SOL     OW24043   4.920   1.566   1.127
 7715SOL    HW124044   4.831   1.610   1.143
 7715SOL    HW224045   4.925   1.482   1.181
 7716SOL     OW24046   6.148   3.619   3.627
 7716SOL    HW124047   6.228   3.672   3.601
 7716SOL    HW224048   6.100   3.663   3.703
 7717SOL     OW24049   2.416   1.204   4.970
 7717SOL    HW124050   2.328   1.155   4.971
 7717SOL    HW224051   2.416   1.274   5.041
 7718SOL     OW24052   2.100   1.978   2.810
 7718SOL    HW124053   2.003   1.960   2.793
 7718SOL    HW224054   2.117   2.076   2.804
 7719SOL     OW24055   6.949   4.011   3.591
 7719SOL    HW124056   6.935   4.068   3.672
 7719SOL    HW224057   6.861   3.984   3.553
 7720SOL     OW24058   6.833   0.025   0.165
 7720SOL    HW124059   6.744   7.017   0.143
 7720SOL    HW224060   6.822   0.100   0.231
 7721SOL     OW24061   1.468   4.587   2.763
 7721SOL    HW124062   1.444   4.518   2.695
 7721SOL    HW224063   1.558   4.565   2.802
 7722SOL     OW24064   0.499   5.292   2.335
 7722SOL    HW124065   0.490   5.352   2.414
 7722SOL    HW224066   0.433   5.218   2.342
 7723SOL     OW24067   6.716   4.104   6.980
 7723SOL    HW124068   6.743   4.154   6.897
 7723SOL    HW224069   6.759   4.014   6.980
 7724SOL     OW24070   2.168   4.118   1.933
 7724SOL    HW124071   2.253   4.168   1.949
 7724SOL    HW224072   2.104   4.176   1.883
 7725SOL     OW24073   5.210   2.586   3.238
 7725SOL    HW124074   5.307   2.577   3.217
 7725SOL    HW224075   5.198   2.587   3.338
 7726SOL     OW24076   0.123   5.503   4.227
 7726SOL    HW124077   0.078   5.455   4.151
 7726SOL    HW224078   0.080   5.592   4.241
 7727SOL     OW24079   6.772   1.424   2.800
 7727SOL    HW124080   6.748   1.499   2.861
 7727SOL    HW224081   6.871   1.422   2.786
 7728SOL     OW24082   1.203   4.064   3.486
 7728SOL    HW124083   1.155   4.042   3.571
 7728SOL    HW224084   1.281   4.123   3.506
 7729SOL     OW24085   6.181   3.196   1.925
 7729SOL    HW124086   6.125   3.248   1.860
 7729SOL    HW224087   6.135   3.110   1.948
 7730SOL     OW24088   5.773   5.479   1.718
 7730SOL    HW124089   5.683   5.511   1.749
 7730SOL    HW224090   5.788   5.509   1.624
 7731SOL     OW24091   6.386   0.993   0.699
 7731SOL    HW124092   6.358   1.069   0.758
 7731SOL    HW224093   6.315   0.923   0.698
 7732SOL     OW24094   4.583   6.001   0.862
 7732SOL    HW124095   4.668   6.045   0.893
 7732SOL    HW224096   4.505   6.052   0.898
 7733SOL     OW24097   4.549   6.432   2.314
 7733SOL    HW124098   4.489   6.512   2.313
 7733SOL    HW224099   4.578   6.411   2.221
 7734SOL     OW24100   2.005   4.022   3.838
 7734SOL    HW124101   2.080   4.081   3.868
 7734SOL    HW224102   2.032   3.973   3.755
 7735SOL     OW24103   3.834   5.650   6.253
 7735SOL    HW124104   3.824   5.572   6.314
 7735SOL    HW224105   3.762   5.717   6.272
 7736SOL     OW24106   4.918   4.434   6.778
 7736SOL    HW124107   4.851   4.494   6.822
 7736SOL    HW224108   4.928   4.350   6.832
 7737SOL     OW24109   4.165   0.758   1.271
 7737SOL    HW124110   4.188   0.796   1.360
 7737SOL    HW224111   4.069   0.731   1.270
 7738SOL     OW24112   1.725   5.730   6.950
 7738SOL    HW124113   1.784   5.727   6.869
 7738SOL    HW224114   1.716   5.825   6.981
 7739SOL     OW24115   0.310   1.392   1.979
 7739SOL    HW124116   0.365   1.321   1.936
 7739SOL    HW224117   0.356   1.480   1.970
 7740SOL     OW24118   1.150   0.736   3.108
 7740SOL    HW124119   1.206   0.804   3.061
 7740SOL    HW224120   1.102   0.679   3.041
 7741SOL     OW24121   1.088   6.020   4.268
 7741SOL    HW124122   1.149   6.099   4.261
 7741SOL    HW224123   1.000   6.042   4.225
 7742SOL     OW24124   6.610   2.213   3.420
 7742SOL    HW124125   6.630   2.153   3.343
 7742SOL    HW224126   6.565   2.296   3.387
 7743SOL     OW24127   4.613   2.371   6.358
 7743SOL    HW124128   4.545   2.317   6.308
 7743SOL    HW224129   4.704   2.356   6.318
 7744SOL     OW24130   0.587   6.113   4.233
 7744SOL    HW124131   0.526   6.049   4.187
 7744SOL    HW224132   0.540   6.199   4.251
 7745SOL     OW24133   3.428   1.925   5.873
 7745SOL    HW124134   3.436   1.829   5.900
 7745SOL    HW224135   3.461   1.936   5.779
 7746SOL     OW24136   2.538   6.796   6.967
 7746SOL    HW124137   2.559   6.891   6.989
 7746SOL    HW224138   2.452   6.770   7.009
 7747SOL     OW24139   4.166   5.848   1.257
 7747SOL    HW124140   4.133   5.936   1.290
 7747SOL    HW224141   4.210   5.859   1.168
 7748SOL     OW24142   2.992   4.264   5.770
 7748SOL    HW124143   2.954   4.270   5.678
 7748SOL    HW224144   2.951   4.335   5.828
 7749SOL     OW24145   3.812   3.639   6.097
 7749SOL    HW124146   3.804   3.624   5.999
 7749SOL    HW224147   3.750   3.577   6.145
 7750SOL     OW24148   0.298   6.066   1.524
 7750SOL    HW124149   0.382   6.084   1.473
 7750SOL    HW224150   0.233   6.018   1.465
 7751SOL     OW24151   1.211   1.354   2.530
 7751SOL    HW124152   1.254   1.344   2.620
 7751SOL    HW224153   1.222   1.270   2.478
 7752SOL     OW24154   4.903   0.056   5.531
 7752SOL    HW124155   4.848   0.096   5.458
 7752SOL    HW224156   4.899   0.116   5.611
 7753SOL     OW24157   2.339   1.492   4.976
 7753SOL    HW124158   2.341   1.584   4.937
 7753SOL    HW224159   2.328   1.425   4.902
 7754SOL     OW24160   3.620   6.129   1.527
 7754SOL    HW124161   3.540   6.164   1.479
 7754SOL    HW224162   3.700   6.182   1.501
 7755SOL     OW24163   1.128   3.129   6.365
 7755SOL    HW124164   1.067   3.087   6.299
 7755SOL    HW224165   1.105   3.098   6.457
 7756SOL     OW24166   3.299   6.127   1.711
 7756SOL    HW124167   3.295   6.155   1.614
 7756SOL    HW224168   3.272   6.032   1.719
 7757SOL     OW24169   6.924   4.544   1.239
 7757SOL    HW124170   6.995   4.479   1.266
 7757SOL    HW224171   6.835   4.499   1.240
 7758SOL     OW24172   1.755   6.597   6.429
 7758SOL    HW124173   1.694   6.531   6.384
 7758SOL    HW224174   1.730   6.690   6.401
 7759SOL     OW24175   3.117   2.255   5.863
 7759SOL    HW124176   3.141   2.179   5.923
 7759SOL    HW224177   3.028   2.292   5.890
 7760SOL     OW24178   5.118   1.979   2.067
 7760SOL    HW124179   5.208   1.943   2.045
 7760SOL    HW224180   5.127   2.073   2.102
 7761SOL     OW24181   5.742   6.272   4.593
 7761SOL    HW124182   5.776   6.180   4.614
 7761SOL    HW224183   5.642   6.270   4.587
 7762SOL     OW24184   1.745   0.761   3.692
 7762SOL    HW124185   1.677   0.742   3.621
 7762SOL    HW224186   1.760   0.860   3.698
 7763SOL     OW24187   2.333   6.922   5.385
 7763SOL    HW124188   2.247   6.884   5.421
 7763SOL    HW224189   2.345   7.015   5.420
 7764SOL     OW24190   2.917   4.708   5.792
 7764SOL    HW124191   2.909   4.611   5.814
 7764SOL    HW224192   2.974   4.718   5.710
 7765SOL     OW24193   6.562   3.453   4.532
 7765SOL    HW124194   6.646   3.479   4.581
 7765SOL    HW224195   6.567   3.488   4.438
 7766SOL     OW24196   0.782   4.122   6.796
 7766SOL    HW124197   0.716   4.062   6.841
 7766SOL    HW224198   0.733   4.185   6.734
 7767SOL     OW24199   4.526   6.915   2.528
 7767SOL    HW124200   4.457   6.966   2.580
 7767SOL    HW224201   4.529   6.949   2.434
 7768SOL     OW24202   4.734   4.358   3.344
 7768SOL    HW124203   4.690   4.445   3.322
 7768SOL    HW224204   4.764   4.359   3.439
 7769SOL     OW24205   3.885   1.567   5.088
 7769SOL    HW124206   3.804   1.624   5.099
 7769SOL    HW224207   3.966   1.625   5.086
 7770SOL     OW24208   7.008   3.554   4.835
 7770SOL    HW124209   7.026   3.599   4.922
 7770SOL    HW224210   0.056   3.497   4.810
 7771SOL     OW24211   2.751   2.126   6.562
 7771SOL    HW124212   2.764   2.126   6.463
 7771SOL    HW224213   2.663   2.085   6.584
 7772SOL     OW24214   4.803   1.033   0.815
 7772SOL    HW124215   4.726   0.972   0.829
 7772SOL    HW224216   4.793   1.114   0.873
 7773SOL     OW24217   2.235   5.763   6.248
 7773SOL    HW124218   2.243   5.666   6.225
 7773SOL    HW224219   2.324   5.798   6.275
 7774SOL     OW24220   4.781   2.372   4.330
 7774SOL    HW124221   4.769   2.276   4.305
 7774SOL    HW224222   4.734   2.430   4.264
 7775SOL     OW24223   3.731   0.381   6.823
 7775SOL    HW124224   3.677   0.377   6.907
 7775SOL    HW224225   3.772   0.472   6.815
 7776SOL     OW24226   0.051   6.539   6.292
 7776SOL    HW124227   0.069   6.603   6.366
 7776SOL    HW224228   7.003   6.571   6.239
 7777SOL     OW24229   6.048   5.460   4.681
 7777SOL    HW124230   5.970   5.433   4.738
 7777SOL    HW224231   6.123   5.395   4.695
 7778SOL     OW24232   6.036   4.226   2.596
 7778SOL    HW124233   6.004   4.280   2.673
 7778SOL    HW224234   6.052   4.132   2.626
 7779SOL     OW24235   3.386   0.494   2.881
 7779SOL    HW124236   3.390   0.486   2.781
 7779SOL    HW224237   3.293   0.515   2.908
 7780SOL     OW24238   0.029   6.138   6.033
 7780SOL    HW124239   6.971   6.186   6.036
 7780SOL    HW224240   0.055   6.121   5.938
 7781SOL     OW24241   1.594   4.023   0.271
 7781SOL    HW124242   1.665   4.042   0.203
 7781SOL    HW224243   1.559   4.109   0.307
 7782SOL     OW24244   5.841   4.624   3.240
 7782SOL    HW124245   5.761   4.664   3.194
 7782SOL    HW224246   5.811   4.551   3.301
 7783SOL     OW24247   0.305   0.043   5.694
 7783SOL    HW124248   0.296   7.027   5.782
 7783SOL    HW224249   0.346   7.010   5.628
 7784SOL     OW24250   2.913   2.439   1.630
 7784SOL    HW124251   2.815   2.418   1.625
 7784SOL    HW224252   2.945   2.423   1.724
 7785SOL     OW24253   1.413   6.438   3.557
 7785SOL    HW124254   1.409   6.537   3.568
 7785SOL    HW224255   1.476   6.415   3.483
 7786SOL     OW24256   4.591   1.206   6.944
 7786SOL    HW124257   4.611   1.128   7.003
 7786SOL    HW224258   4.542   1.175   6.863
 7787SOL     OW24259   2.269   3.067   0.991
 7787SOL    HW124260   2.206   2.998   0.955
 7787SOL    HW224261   2.300   3.126   0.917
 7788SOL     OW24262   1.420   6.277   2.131
 7788SOL    HW124263   1.341   6.329   2.098
 7788SOL    HW224264   1.428   6.287   2.230
 7789SOL     OW24265   3.333   6.907   6.002
 7789SOL    HW124266   3.363   7.000   5.980
 7789SOL    HW224267   3.239   6.894   5.972
 7790SOL     OW24268   6.501   4.851   2.411
 7790SOL    HW124269   6.541   4.933   2.452
 7790SOL    HW224270   6.544   4.770   2.450
 7791SOL     OW24271   2.153   5.619   1.623
 7791SOL    HW124272   2.083   5.548   1.613
 7791SOL    HW224273   2.145   5.685   1.549
 7792SOL     OW24274   0.588   1.019   2.637
 7792SOL    HW124275   0.548   0.993   2.725
 7792SOL    HW224276   0.554   0.959   2.566
 7793SOL     OW24277   5.012   1.131   6.471
 7793SOL    HW124278   4.982   1.067   6.541
 7793SOL    HW224279   5.103   1.104   6.438
 7794SOL     OW24280   0.519   5.411   2.082
 7794SOL    HW124281   0.479   5.363   2.160
 7794SOL    HW224282   0.473   5.499   2.070
 7795SOL     OW24283   3.225   5.477   5.406
 7795SOL    HW124284   3.149   5.419   5.378
 7795SOL    HW224285   3.192   5.570   5.421
 7796SOL     OW24286   3.997   3.707   5.851
 7796SOL    HW124287   4.031   3.736   5.762
 7796SOL    HW224288   3.901   3.679   5.843
 7797SOL     OW24289   1.470   5.140   1.852
 7797SOL    HW124290   1.372   5.153   1.866
 7797SOL    HW224291   1.486   5.091   1.766
 7798SOL     OW24292   0.964   1.325   1.995
 7798SOL    HW124293   0.912   1.392   2.048
 7798SOL    HW224294   1.037   1.372   1.945
 7799SOL     OW24295   2.791   6.078   2.956
 7799SOL    HW124296   2.756   5.989   2.925
 7799SOL    HW224297   2.868   6.064   3.018
 7800SOL     OW24298   0.676   5.906   1.996
 7800SOL    HW124299   0.676   5.861   2.085
 7800SOL    HW224300   0.586   5.946   1.978
 7801SOL     OW24301   1.843   1.939   2.774
 7801SOL    HW124302   1.805   2.024   2.738
 7801SOL    HW224303   1.770   1.884   2.815
 7802SOL     OW24304   6.891   4.774   6.668
 7802SOL    HW124305   6.968   4.789   6.730
 7802SOL    HW224306   6.924   4.731   6.583
 7803SOL     OW24307   5.423   2.056   0.021
 7803SOL    HW124308   5.482   2.127   7.012
 7803SOL    HW224309   5.340   2.047   6.996
 7804SOL     OW24310   3.232   1.687   4.048
 7804SOL    HW124311   3.245   1.767   4.107
 7804SOL    HW224312   3.150   1.700   3.992
 7805SOL     OW24313   5.144   2.937   1.892
 7805SOL    HW124314   5.096   2.861   1.936
 7805SOL    HW224315   5.077   3.001   1.853
 7806SOL     OW24316   6.660   2.428   6.348
 7806SOL    HW124317   6.634   2.468   6.436
 7806SOL    HW224318   6.619   2.482   6.274
 7807SOL     OW24319   1.361   4.449   6.079
 7807SOL    HW124320   1.342   4.363   6.126
 7807SOL    HW224321   1.453   4.447   6.040
 7808SOL     OW24322   4.595   4.433   2.479
 7808SOL    HW124323   4.628   4.501   2.414
 7808SOL    HW224324   4.565   4.352   2.429
 7809SOL     OW24325   4.960   5.412   4.791
 7809SOL    HW124326   4.968   5.405   4.890
 7809SOL    HW224327   4.867   5.442   4.768
 7810SOL     OW24328   3.873   0.287   4.670
 7810SOL    HW124329   3.878   0.208   4.609
 7810SOL    HW224330   3.816   0.264   4.749
 7811SOL     OW24331   1.301   5.543   2.918
 7811SOL    HW124332   1.347   5.519   2.833
 7811SOL    HW224333   1.366   5.591   2.978
 7812SOL     OW24334   2.369   3.204   5.377
 7812SOL    HW124335   2.401   3.295   5.405
 7812SOL    HW224336   2.440   3.158   5.325
 7813SOL     OW24337   4.580   2.701   1.210
 7813SOL    HW124338   4.633   2.784   1.228
 7813SOL    HW224339   4.597   2.634   1.282
 7814SOL     OW24340   6.850   3.207   2.719
 7814SOL    HW124341   6.873   3.265   2.797
 7814SOL    HW224342   6.914   3.130   2.715
 7815SOL     OW24343   5.507   2.025   5.298
 7815SOL    HW124344   5.478   2.097   5.362
 7815SOL    HW224345   5.560   1.956   5.347
 7816SOL     OW24346   0.076   1.531   5.813
 7816SOL    HW124347   0.175   1.540   5.810
 7816SOL    HW224348   0.045   1.520   5.908
 7817SOL     OW24349   3.952   4.044   5.601
 7817SOL    HW124350   4.016   4.108   5.644
 7817SOL    HW224351   3.995   3.954   5.593
 7818SOL     OW24352   4.709   1.433   2.217
 7818SOL    HW124353   4.664   1.434   2.306
 7818SOL    HW224354   4.666   1.500   2.157
 7819SOL     OW24355   0.462   3.825   4.350
 7819SOL    HW124356   0.391   3.761   4.319
 7819SOL    HW224357   0.432   3.918   4.330
 7820SOL     OW24358   1.795   1.040   5.597
 7820SOL    HW124359   1.848   1.092   5.530
 7820SOL    HW224360   1.699   1.068   5.593
 7821SOL     OW24361   5.987   5.693   0.536
 7821SOL    HW124362   6.080   5.716   0.505
 7821SOL    HW224363   5.923   5.762   0.503
 7822SOL     OW24364   0.939   1.693   5.865
 7822SOL    HW124365   0.906   1.685   5.771
 7822SOL    HW224366   0.865   1.726   5.923
 7823SOL     OW24367   1.387   4.197   6.176
 7823SOL    HW124368   1.435   4.122   6.130
 7823SOL    HW224369   1.386   4.181   6.274
 7824SOL     OW24370   5.862   0.815   4.304
 7824SOL    HW124371   5.874   0.745   4.375
 7824SOL    HW224372   5.940   0.877   4.305
 7825SOL     OW24373   2.360   2.885   1.808
 7825SOL    HW124374   2.292   2.866   1.738
 7825SOL    HW224375   2.315   2.909   1.894
 7826SOL     OW24376   5.565   1.559   0.033
 7826SOL    HW124377   5.645   1.518   7.018
 7826SOL    HW224378   5.484   1.543   7.007
 7827SOL     OW24379   3.693   4.659   1.426
 7827SOL    HW124380   3.771   4.600   1.406
 7827SOL    HW224381   3.626   4.652   1.352
 7828SOL     OW24382   0.814   5.695   0.965
 7828SOL    HW124383   0.716   5.692   0.981
 7828SOL    HW224384   0.851   5.602   0.966
 7829SOL     OW24385   2.631   3.593   1.405
 7829SOL    HW124386   2.718   3.609   1.452
 7829SOL    HW224387   2.579   3.678   1.401
 7830SOL     OW24388   5.791   3.865   6.136
 7830SOL    HW124389   5.868   3.841   6.076
 7830SOL    HW224390   5.750   3.782   6.173
 7831SOL     OW24391   1.246   4.397   6.902
 7831SOL    HW124392   1.246   4.432   6.996
 7831SOL    HW224393   1.190   4.456   6.844
 7832SOL     OW24394   3.257   1.402   5.065
 7832SOL    HW124395   3.221   1.487   5.026
 7832SOL    HW224396   3.215   1.324   5.018
 7833SOL     OW24397   1.214   0.685   0.620
 7833SOL    HW124398   1.219   0.684   0.520
 7833SOL    HW224399   1.262   0.765   0.656
 7834SOL     OW24400   0.162   1.601   2.198
 7834SOL    HW124401   0.102   1.545   2.141
 7834SOL    HW224402   0.206   1.543   2.267
 7835SOL     OW24403   2.377   2.753   4.643
 7835SOL    HW124404   2.432   2.697   4.705
 7835SOL    HW224405   2.283   2.720   4.642
 7836SOL     OW24406   2.903   0.416   6.670
 7836SOL    HW124407   2.911   0.425   6.571
 7836SOL    HW224408   2.994   0.412   6.711
 7837SOL     OW24409   5.940   6.695   1.792
 7837SOL    HW124410   5.891   6.626   1.844
 7837SOL    HW224411   5.906   6.786   1.815
 7838SOL     OW24412   4.569   6.553   5.856
 7838SOL    HW124413   4.651   6.534   5.910
 7838SOL    HW224414   4.491   6.503   5.896
 7839SOL     OW24415   6.542   4.202   4.622
 7839SOL    HW124416   6.528   4.239   4.530
 7839SOL    HW224417   6.574   4.108   4.616
 7840SOL     OW24418   4.672   2.469   4.063
 7840SOL    HW124419   4.714   2.558   4.047
 7840SOL    HW224420   4.741   2.397   4.050
 7841SOL     OW24421   5.368   2.239   6.437
 7841SOL    HW124422   5.378   2.272   6.343
 7841SOL    HW224423   5.289   2.285   6.479
 7842SOL     OW24424   1.192   1.043   3.565
 7842SOL    HW124425   1.270   0.984   3.548
 7842SOL    HW224426   1.111   0.987   3.583
 7843SOL     OW24427   5.743   4.139   1.550
 7843SOL    HW124428   5.733   4.107   1.456
 7843SOL    HW224429   5.820   4.203   1.555
 7844SOL     OW24430   4.316   0.651   3.881
 7844SOL    HW124431   4.244   0.594   3.840
 7844SOL    HW224432   4.294   0.669   3.977
 7845SOL     OW24433   1.047   1.020   3.894
 7845SOL    HW124434   0.991   0.938   3.878
 7845SOL    HW224435   1.141   0.993   3.914
 7846SOL     OW24436   2.585   0.967   1.346
 7846SOL    HW124437   2.533   0.956   1.430
 7846SOL    HW224438   2.632   1.056   1.347
 7847SOL     OW24439   0.390   1.223   0.859
 7847SOL    HW124440   0.338   1.308   0.847
 7847SOL    HW224441   0.350   1.152   0.801
 7848SOL     OW24442   3.304   4.512   0.985
 7848SOL    HW124443   3.281   4.419   1.012
 7848SOL    HW224444   3.287   4.525   0.887
 7849SOL     OW24445   5.343   3.607   3.717
 7849SOL    HW124446   5.344   3.525   3.774
 7849SOL    HW224447   5.339   3.581   3.621
 7850SOL     OW24448   0.227   1.035   3.944
 7850SOL    HW124449   0.227   1.025   4.043
 7850SOL    HW224450   0.309   0.993   3.906
 7851SOL     OW24451   6.118   6.351   0.289
 7851SOL    HW124452   6.204   6.347   0.339
 7851SOL    HW224453   6.095   6.261   0.253
 7852SOL     OW24454   2.953   6.342   6.918
 7852SOL    HW124455   2.987   6.434   6.902
 7852SOL    HW224456   2.990   6.280   6.848
 7853SOL     OW24457   3.285   1.785   0.282
 7853SOL    HW124458   3.231   1.736   0.213
 7853SOL    HW224459   3.352   1.843   0.235
 7854SOL     OW24460   3.788   3.737   0.906
 7854SOL    HW124461   3.712   3.794   0.938
 7854SOL    HW224462   3.751   3.654   0.863
 7855SOL     OW24463   4.487   6.138   6.344
 7855SOL    HW124464   4.392   6.164   6.366
 7855SOL    HW224465   4.539   6.221   6.323
 7856SOL     OW24466   6.165   4.457   4.290
 7856SOL    HW124467   6.170   4.368   4.243
 7856SOL    HW224468   6.081   4.504   4.262
 7857SOL     OW24469   6.612   2.498   5.981
 7857SOL    HW124470   6.599   2.472   5.886
 7857SOL    HW224471   6.655   2.423   6.031
 7858SOL     OW24472   5.230   4.628   3.202
 7858SOL    HW124473   5.196   4.580   3.284
 7858SOL    HW224474   5.158   4.688   3.167
 7859SOL     OW24475   0.342   3.705   6.086
 7859SOL    HW124476   0.417   3.771   6.090
 7859SOL    HW224477   0.271   3.732   6.151
 7860SOL     OW24478   3.931   6.268   2.746
 7860SOL    HW124479   3.896   6.341   2.804
 7860SOL    HW224480   3.859   6.200   2.731
 7861SOL     OW24481   4.397   5.412   1.605
 7861SOL    HW124482   4.418   5.388   1.510
 7861SOL    HW224483   4.470   5.379   1.664
 7862SOL     OW24484   2.987   4.253   1.746
 7862SOL    HW124485   2.972   4.340   1.793
 7862SOL    HW224486   2.906   4.230   1.692
 7863SOL     OW24487   6.604   5.807   3.205
 7863SOL    HW124488   6.627   5.841   3.113
 7863SOL    HW224489   6.579   5.711   3.200
 7864SOL     OW24490   6.861   5.913   5.821
 7864SOL    HW124491   6.849   6.004   5.782
 7864SOL    HW224492   6.833   5.913   5.917
 7865SOL     OW24493   4.351   6.740   4.085
 7865SOL    HW124494   4.264   6.732   4.134
 7865SOL    HW224495   4.339   6.795   4.003
 7866SOL     OW24496   2.283   1.668   2.108
 7866SOL    HW124497   2.248   1.582   2.072
 7866SOL    HW224498   2.373   1.687   2.069
 7867SOL     OW24499   5.352   5.215   2.234
 7867SOL    HW124500   5.284   5.165   2.182
 7867SOL    HW224501   5.339   5.197   2.332
 7868SOL     OW24502   5.059   6.813   2.166
 7868SOL    HW124503   5.001   6.732   2.164
 7868SOL    HW224504   5.007   6.889   2.206
 7869SOL     OW24505   6.277   3.945   0.983
 7869SOL    HW124506   6.216   4.017   0.950
 7869SOL    HW224507   6.288   3.954   1.082
 7870SOL     OW24508   5.940   5.082   3.483
 7870SOL    HW124509   5.869   5.012   3.496
 7870SOL    HW224510   5.988   5.096   3.570
 7871SOL     OW24511   5.453   4.076   3.193
 7871SOL    HW124512   5.474   3.978   3.190
 7871SOL    HW224513   5.483   4.119   3.108
 7872SOL     OW24514   0.983   4.530   2.052
 7872SOL    HW124515   0.934   4.588   2.117
 7872SOL    HW224516   1.020   4.451   2.100
 7873SOL     OW24517   6.699   0.495   5.563
 7873SOL    HW124518   6.618   0.547   5.591
 7873SOL    HW224519   6.717   0.422   5.628
 7874SOL     OW24520   6.474   1.465   6.717
 7874SOL    HW124521   6.390   1.518   6.716
 7874SOL    HW224522   6.528   1.486   6.635
 7875SOL     OW24523   4.715   4.136   6.674
 7875SOL    HW124524   4.622   4.123   6.709
 7875SOL    HW224525   4.767   4.052   6.686
 7876SOL     OW24526   6.658   0.355   4.689
 7876SOL    HW124527   6.560   0.343   4.703
 7876SOL    HW224528   6.685   0.311   4.603
 7877SOL     OW24529   0.252   2.790   2.370
 7877SOL    HW124530   0.152   2.793   2.369
 7877SOL    HW224531   0.283   2.769   2.463
 7878SOL     OW24532   4.863   4.529   3.047
 7878SOL    HW124533   4.937   4.579   3.091
 7878SOL    HW224534   4.863   4.434   3.078
 7879SOL     OW24535   4.467   5.661   3.291
 7879SOL    HW124536   4.387   5.702   3.336
 7879SOL    HW224537   4.471   5.691   3.196
 7880SOL     OW24538   0.087   6.302   0.732
 7880SOL    HW124539   0.009   6.365   0.736
 7880SOL    HW224540   0.155   6.339   0.668
 7881SOL     OW24541   0.389   4.106   4.399
 7881SOL    HW124542   0.327   4.053   4.457
 7881SOL    HW224543   0.476   4.117   4.446
 7882SOL     OW24544   1.767   2.265   2.456
 7882SOL    HW124545   1.850   2.234   2.503
 7882SOL    HW224546   1.761   2.365   2.462
 7883SOL     OW24547   1.910   0.737   1.612
 7883SOL    HW124548   1.892   0.642   1.634
 7883SOL    HW224549   1.924   0.747   1.513
 7884SOL     OW24550   1.597   4.402   3.484
 7884SOL    HW124551   1.646   4.384   3.569
 7884SOL    HW224552   1.592   4.318   3.429
 7885SOL     OW24553   5.830   5.600   3.078
 7885SOL    HW124554   5.810   5.636   2.986
 7885SOL    HW224555   5.745   5.592   3.130
 7886SOL     OW24556   6.010   4.034   1.382
 7886SOL    HW124557   5.940   4.079   1.327
 7886SOL    HW224558   5.986   4.042   1.479
 7887SOL     OW24559   3.161   2.720   5.335
 7887SOL    HW124560   3.168   2.642   5.273
 7887SOL    HW224561   3.200   2.695   5.424
 7888SOL     OW24562   0.229   1.373   4.299
 7888SOL    HW124563   0.155   1.389   4.234
 7888SOL    HW224564   0.308   1.334   4.251
 7889SOL     OW24565   0.485   5.483   6.976
 7889SOL    HW124566   0.448   5.491   6.883
 7889SOL    HW224567   0.473   5.570   7.024
 7890SOL     OW24568   1.525   2.679   3.912
 7890SOL    HW124569   1.526   2.687   3.813
 7890SOL    HW224570   1.523   2.770   3.953
 7891SOL     OW24571   1.007   3.012   4.100
 7891SOL    HW124572   1.069   2.944   4.063
 7891SOL    HW224573   1.039   3.103   4.077
 7892SOL     OW24574   1.260   1.926   4.221
 7892SOL    HW124575   1.274   1.904   4.317
 7892SOL    HW224576   1.168   1.963   4.208
 7893SOL     OW24577   5.764   6.200   1.528
 7893SOL    HW124578   5.772   6.222   1.626
 7893SOL    HW224579   5.753   6.102   1.517
 7894SOL     OW24580   2.493   1.380   0.557
 7894SOL    HW124581   2.550   1.393   0.476
 7894SOL    HW224582   2.550   1.347   0.632
 7895SOL     OW24583   3.619   6.209   4.272
 7895SOL    HW124584   3.533   6.165   4.296
 7895SOL    HW224585   3.695   6.147   4.292
 7896SOL     OW24586   4.831   3.295   1.506
 7896SOL    HW124587   4.839   3.200   1.477
 7896SOL    HW224588   4.920   3.328   1.539
 7897SOL     OW24589   3.801   3.713   6.754
 7897SOL    HW124590   3.859   3.717   6.672
 7897SOL    HW224591   3.754   3.625   6.757
 7898SOL     OW24592   4.752   7.018   4.119
 7898SOL    HW124593   4.714   0.005   4.210
 7898SOL    HW224594   4.719   6.930   4.085
 7899SOL     OW24595   5.251   6.639   1.719
 7899SOL    HW124596   5.312   6.559   1.719
 7899SOL    HW224597   5.156   6.608   1.718
 7900SOL     OW24598   0.753   3.614   0.615
 7900SOL    HW124599   0.670   3.564   0.641
 7900SOL    HW224600   0.791   3.576   0.531
 7901SOL     OW24601   5.401   1.590   5.951
 7901SOL    HW124602   5.355   1.603   6.039
 7901SOL    HW224603   5.345   1.531   5.892
 7902SOL     OW24604   0.015   6.383   3.311
 7902SOL    HW124605   0.055   6.474   3.325
 7902SOL    HW224606   0.027   6.354   3.216
 7903SOL     OW24607   4.108   1.653   3.631
 7903SOL    HW124608   4.058   1.731   3.594
 7903SOL    HW224609   4.203   1.679   3.648
 7904SOL     OW24610   5.794   0.045   3.442
 7904SOL    HW124611   5.893   0.041   3.428
 7904SOL    HW224612   5.749   0.057   3.353
 7905SOL     OW24613   5.392   0.934   0.465
 7905SOL    HW124614   5.320   0.941   0.535
 7905SOL    HW224615   5.475   0.977   0.499
 7906SOL     OW24616   1.121   5.227   1.049
 7906SOL    HW124617   1.176   5.265   0.974
 7906SOL    HW224618   1.181   5.209   1.128
 7907SOL     OW24619   6.443   0.840   3.021
 7907SOL    HW124620   6.355   0.888   3.023
 7907SOL    HW224621   6.478   0.839   2.927
 7908SOL     OW24622   1.170   2.169   6.498
 7908SOL    HW124623   1.178   2.176   6.598
 7908SOL    HW224624   1.168   2.261   6.458
 7909SOL     OW24625   4.952   4.264   3.087
 7909SOL    HW124626   5.036   4.215   3.062
 7909SOL    HW224627   4.884   4.198   3.121
 7910SOL     OW24628   1.651   2.937   1.392
 7910SOL    HW124629   1.635   2.971   1.299
 7910SOL    HW224630   1.666   3.015   1.453
 7911SOL     OW24631   0.725   3.874   1.461
 7911SOL    HW124632   0.736   3.907   1.555
 7911SOL    HW224633   0.719   3.952   1.399
 7912SOL     OW24634   5.410   4.889   0.503
 7912SOL    HW124635   5.428   4.878   0.601
 7912SOL    HW224636   5.370   4.805   0.467
 7913SOL     OW24637   1.804   4.247   0.933
 7913SOL    HW124638   1.856   4.260   0.848
 7913SOL    HW224639   1.773   4.336   0.967
 7914SOL     OW24640   0.125   5.272   7.004
 7914SOL    HW124641   0.103   5.331   0.052
 7914SOL    HW224642   0.222   5.246   7.008
 7915SOL     OW24643   4.262   1.028   3.023
 7915SOL    HW124644   4.192   1.099   3.035
 7915SOL    HW224645   4.284   1.019   2.926
 7916SOL     OW24646   0.797   0.455   4.802
 7916SOL    HW124647   0.896   0.468   4.787
 7916SOL    HW224648   0.773   0.359   4.786
 7917SOL     OW24649   4.073   2.475   5.795
 7917SOL    HW124650   4.033   2.566   5.807
 7917SOL    HW224651   4.167   2.485   5.762
 7918SOL     OW24652   0.817   1.656   5.197
 7918SOL    HW124653   0.872   1.590   5.147
 7918SOL    HW224654   0.872   1.737   5.218
 7919SOL     OW24655   1.148   4.926   2.764
 7919SOL    HW124656   1.056   4.953   2.792
 7919SOL    HW224657   1.204   4.907   2.845
 7920SOL     OW24658   4.990   1.069   2.156
 7920SOL    HW124659   5.033   0.990   2.114
 7920SOL    HW224660   4.894   1.050   2.173
 7921SOL     OW24661   5.898   1.168   1.490
 7921SOL    HW124662   5.905   1.126   1.399
 7921SOL    HW224663   5.897   1.097   1.559
 7922SOL     OW24664   0.603   6.284   6.691
 7922SOL    HW124665   0.517   6.330   6.669
 7922SOL    HW224666   0.614   6.278   6.790
 7923SOL     OW24667   3.002   2.496   6.834
 7923SOL    HW124668   2.938   2.422   6.855
 7923SOL    HW224669   3.096   2.464   6.847
 7924SOL     OW24670   5.075   6.674   1.265
 7924SOL    HW124671   5.159   6.627   1.293
 7924SOL    HW224672   5.064   6.758   1.319
 7925SOL     OW24673   1.815   6.475   0.895
 7925SOL    HW124674   1.755   6.478   0.975
 7925SOL    HW224675   1.778   6.535   0.824
 7926SOL     OW24676   5.528   1.245   6.597
 7926SOL    HW124677   5.466   1.185   6.546
 7926SOL    HW224678   5.598   1.190   6.642
 7927SOL     OW24679   5.273   0.363   1.752
 7927SOL    HW124680   5.262   0.270   1.716
 7927SOL    HW224681   5.221   0.371   1.837
 7928SOL     OW24682   6.871   1.153   3.254
 7928SOL    HW124683   6.917   1.066   3.236
 7928SOL    HW224684   6.775   1.147   3.226
 7929SOL     OW24685   4.652   3.781   6.244
 7929SOL    HW124686   4.587   3.788   6.168
 7929SOL    HW224687   4.667   3.872   6.282
 7930SOL     OW24688   3.001   5.357   5.927
 7930SOL    HW124689   2.948   5.296   5.986
 7930SOL    HW224690   2.957   5.363   5.837
 7931SOL     OW24691   3.487   2.831   0.518
 7931SOL    HW124692   3.421   2.861   0.449
 7931SOL    HW224693   3.567   2.791   0.472
 7932SOL     OW24694   0.245   4.893   1.447
 7932SOL    HW124695   0.229   4.904   1.349
 7932SOL    HW224696   0.192   4.816   1.481
 7933SOL     OW24697   6.742   0.586   5.846
 7933SOL    HW124698   6.835   0.608   5.819
 7933SOL    HW224699   6.678   0.625   5.779
 7934SOL     OW24700   1.344   4.962   0.492
 7934SOL    HW124701   1.418   4.952   0.425
 7934SOL    HW224702   1.324   4.873   0.533
 7935SOL     OW24703   4.821   4.234   2.700
 7935SOL    HW124704   4.773   4.192   2.623
 7935SOL    HW224705   4.824   4.170   2.776
 7936SOL     OW24706   3.033   5.592   3.129
 7936SOL    HW124707   3.090   5.658   3.078
 7936SOL    HW224708   3.038   5.503   3.084
 7937SOL     OW24709   2.138   5.132   4.041
 7937SOL    HW124710   2.052   5.182   4.033
 7937SOL    HW224711   2.132   5.068   4.118
 7938SOL     OW24712   5.243   6.923   5.217
 7938SOL    HW124713   5.248   6.980   5.135
 7938SOL    HW224714   5.228   6.981   5.297
 7939SOL     OW24715   0.361   1.818   5.697
 7939SOL    HW124716   0.453   1.845   5.726
 7939SOL    HW224717   0.360   1.719   5.679
 7940SOL     OW24718   3.589   1.778   2.237
 7940SOL    HW124719   3.610   1.872   2.209
 7940SOL    HW224720   3.614   1.714   2.165
 7941SOL     OW24721   4.766   6.458   3.259
 7941SOL    HW124722   4.826   6.425   3.331
 7941SOL    HW224723   4.672   6.465   3.293
 7942SOL     OW24724   0.571   2.594   2.744
 7942SOL    HW124725   0.605   2.500   2.747
 7942SOL    HW224726   0.562   2.630   2.837
 7943SOL     OW24727   1.068   4.507   5.667
 7943SOL    HW124728   1.112   4.436   5.612
 7943SOL    HW224729   1.094   4.497   5.763
 7944SOL     OW24730   0.602   2.284   1.690
 7944SOL    HW124731   0.670   2.297   1.762
 7944SOL    HW224732   0.511   2.301   1.728
 7945SOL     OW24733   6.401   5.102   2.715
 7945SOL    HW124734   6.401   5.007   2.746
 7945SOL    HW224735   6.307   5.130   2.693
 7946SOL     OW24736   4.113   7.012   5.966
 7946SOL    HW124737   4.116   6.916   5.939
 7946SOL    HW224738   4.032   0.025   5.927
 7947SOL     OW24739   2.427   1.966   5.316
 7947SOL    HW124740   2.410   1.931   5.223
 7947SOL    HW224741   2.503   2.031   5.313
 7948SOL     OW24742   1.079   4.687   1.224
 7948SOL    HW124743   0.993   4.738   1.236
 7948SOL    HW224744   1.097   4.676   1.126
 7949SOL     OW24745   4.254   3.888   5.840
 7949SOL    HW124746   4.290   3.972   5.883
 7949SOL    HW224747   4.164   3.868   5.878
 7950SOL     OW24748   5.138   6.264   4.967
 7950SOL    HW124749   5.192   6.224   5.041
 7950SOL    HW224750   5.131   6.198   4.892
 7951SOL     OW24751   1.968   4.914   2.877
 7951SOL    HW124752   1.893   4.849   2.885
 7951SOL    HW224753   1.932   5.007   2.875
 7952SOL     OW24754   6.731   3.351   6.889
 7952SOL    HW124755   6.719   3.291   6.968
 7952SOL    HW224756   6.828   3.367   6.874
 7953SOL     OW24757   4.696   2.123   1.730
 7953SOL    HW124758   4.694   2.117   1.630
 7953SOL    HW224759   4.694   2.031   1.769
 7954SOL     OW24760   4.224   3.697   6.318
 7954SOL    HW124761   4.179   3.729   6.234
 7954SOL    HW224762   4.261   3.606   6.304
 7955SOL     OW24763   2.449   1.724   6.450
 7955SOL    HW124764   2.474   1.643   6.396
 7955SOL    HW224765   2.364   1.705   6.499
 7956SOL     OW24766   6.242   1.554   1.813
 7956SOL    HW124767   6.203   1.580   1.901
 7956SOL    HW224768   6.230   1.455   1.799
 7957SOL     OW24769   3.588   0.750   6.284
 7957SOL    HW124770   3.582   0.850   6.289
 7957SOL    HW224771   3.518   0.710   6.343
 7958SOL     OW24772   5.457   4.173   6.003
 7958SOL    HW124773   5.393   4.249   6.012
 7958SOL    HW224774   5.468   4.128   6.092
 7959SOL     OW24775   5.204   0.789   6.461
 7959SOL    HW124776   5.270   0.846   6.510
 7959SOL    HW224777   5.199   0.699   6.505
 7960SOL     OW24778   0.599   1.519   6.098
 7960SOL    HW124779   0.508   1.480   6.083
 7960SOL    HW224780   0.667   1.446   6.098
 7961SOL     OW24781   6.544   7.020   0.732
 7961SOL    HW124782   6.507   7.000   0.641
 7961SOL    HW224783   6.641   0.012   0.724
 7962SOL     OW24784   0.024   1.734   5.643
 7962SOL    HW124785   0.099   1.798   5.624
 7962SOL    HW224786   0.059   1.656   5.695
 7963SOL     OW24787   6.719   5.394   3.905
 7963SOL    HW124788   6.620   5.394   3.900
 7963SOL    HW224789   6.754   5.306   3.872
 7964SOL     OW24790   6.445   2.551   1.784
 7964SOL    HW124791   6.444   2.643   1.745
 7964SOL    HW224792   6.539   2.517   1.784
 7965SOL     OW24793   3.809   2.221   6.447
 7965SOL    HW124794   3.792   2.240   6.351
 7965SOL    HW224795   3.832   2.124   6.459
 7966SOL     OW24796   3.834   3.926   6.164
 7966SOL    HW124797   3.891   3.964   6.091
 7966SOL    HW224798   3.828   3.827   6.155
 7967SOL     OW24799   2.288   5.211   2.217
 7967SOL    HW124800   2.244   5.276   2.280
 7967SOL    HW224801   2.386   5.208   2.236
 7968SOL     OW24802   6.062   2.179   5.376
 7968SOL    HW124803   5.984   2.239   5.355
 7968SOL    HW224804   6.080   2.121   5.297
 7969SOL     OW24805   5.149   6.178   0.307
 7969SOL    HW124806   5.116   6.211   0.395
 7969SOL    HW224807   5.200   6.252   0.261
 7970SOL     OW24808   6.051   2.795   2.851
 7970SOL    HW124809   6.129   2.787   2.788
 7970SOL    HW224810   6.038   2.890   2.876
 7971SOL     OW24811   2.857   0.966   1.580
 7971SOL    HW124812   2.884   0.874   1.552
 7971SOL    HW224813   2.861   1.027   1.501
 7972SOL     OW24814   3.399   4.008   1.561
 7972SOL    HW124815   3.385   4.053   1.473
 7972SOL    HW224816   3.493   3.974   1.566
 7973SOL     OW24817   5.412   4.172   4.536
 7973SOL    HW124818   5.407   4.203   4.441
 7973SOL    HW224819   5.323   4.134   4.564
 7974SOL     OW24820   6.138   0.859   5.089
 7974SOL    HW124821   6.206   0.796   5.128
 7974SOL    HW224822   6.081   0.895   5.163
 7975SOL     OW24823   4.717   0.713   0.698
 7975SOL    HW124824   4.675   0.622   0.690
 7975SOL    HW224825   4.742   0.747   0.607
 7976SOL     OW24826   0.987   6.865   5.625
 7976SOL    HW124827   0.917   6.879   5.695
 7976SOL    HW224828   1.038   6.950   5.612
 7977SOL     OW24829   5.365   5.969   1.979
 7977SOL    HW124830   5.344   5.961   1.882
 7977SOL    HW224831   5.436   6.038   1.992
 7978SOL     OW24832   0.474   2.961   6.387
 7978SOL    HW124833   0.495   2.914   6.473
 7978SOL    HW224834   0.539   2.932   6.316
 7979SOL     OW24835   2.033   4.383   5.920
 7979SOL    HW124836   2.090   4.376   5.838
 7979SOL    HW224837   1.948   4.431   5.897
 7980SOL     OW24838   2.970   5.668   6.508
 7980SOL    HW124839   2.963   5.622   6.597
 7980SOL    HW224840   3.025   5.611   6.446
 7981SOL     OW24841   0.958   4.859   1.856
 7981SOL    HW124842   0.900   4.780   1.838
 7981SOL    HW224843   0.950   4.925   1.782
 7982SOL     OW24844   1.670   1.922   6.356
 7982SOL    HW124845   1.593   1.982   6.381
 7982SOL    HW224846   1.652   1.881   6.266
 7983SOL     OW24847   6.334   1.103   1.374
 7983SOL    HW124848   6.275   1.160   1.431
 7983SOL    HW224849   6.427   1.104   1.410
 7984SOL     OW24850   0.736   1.785   0.650
 7984SOL    HW124851   0.832   1.759   0.642
 7984SOL    HW224852   0.681   1.704   0.671
 7985SOL     OW24853   2.072   2.252   4.369
 7985SOL    HW124854   2.117   2.308   4.300
 7985SOL    HW224855   2.088   2.292   4.459
 7986SOL     OW24856   3.763   1.077   5.442
 7986SOL    HW124857   3.772   1.018   5.361
 7986SOL    HW224858   3.666   1.091   5.462
 7987SOL     OW24859   2.409   3.518   0.762
 7987SOL    HW124860   2.488   3.568   0.800
 7987SOL    HW224861   2.331   3.529   0.823
 7988SOL     OW24862   0.748   1.158   1.879
 7988SOL    HW124863   0.827   1.213   1.907
 7988SOL    HW224864   0.774   1.099   1.803
 7989SOL     OW24865   2.041   4.112   0.338
 7989SOL    HW124866   2.060   4.209   0.321
 7989SOL    HW224867   1.970   4.080   0.275
 7990SOL     OW24868   2.546   5.873   4.450
 7990SOL    HW124869   2.499   5.797   4.405
 7990SOL    HW224870   2.610   5.916   4.387
 7991SOL     OW24871   5.817   1.505   4.601
 7991SOL    HW124872   5.848   1.441   4.672
 7991SOL    HW224873   5.831   1.599   4.633
 7992SOL     OW24874   1.874   0.222   0.107
 7992SOL    HW124875   1.847   0.132   0.073
 7992SOL    HW224876   1.931   0.268   0.039
 7993SOL     OW24877   0.651   0.190   1.476
 7993SOL    HW124878   0.583   0.121   1.454
 7993SOL    HW224879   0.672   0.186   1.574
 7994SOL     OW24880   5.186   0.555   3.113
 7994SOL    HW124881   5.186   0.470   3.165
 7994SOL    HW224882   5.181   0.632   3.176
 7995SOL     OW24883   5.572   4.816   2.881
 7995SOL    HW124884   5.639   4.836   2.953
 7995SOL    HW224885   5.571   4.718   2.862
 7996SOL     OW24886   4.124   6.685   4.215
 7996SOL    HW124887   4.051   6.689   4.147
 7996SOL    HW224888   4.119   6.598   4.264
 7997SOL     OW24889   0.230   1.796   0.424
 7997SOL    HW124890   0.192   1.871   0.478
 7997SOL    HW224891   0.304   1.831   0.367
 7998SOL     OW24892   2.831   6.363   0.132
 7998SOL    HW124893   2.840   6.422   0.212
 7998SOL    HW224894   2.913   6.370   0.075
 7999SOL     OW24895   1.334   1.773   6.103
 7999SOL    HW124896   1.325   1.762   6.004
 7999SOL    HW224897   1.431   1.784   6.126
 8000SOL     OW24898   5.839   6.997   6.319
 8000SOL    HW124899   5.795   0.057   6.311
 8000SOL    HW224900   5.932   7.008   6.353
 8001SOL     OW24901   4.303   6.288   1.376
 8001SOL    HW124902   4.362   6.342   1.437
 8001SOL    HW224903   4.356   6.212   1.338
 8002SOL     OW24904   0.889   1.369   5.690
 8002SOL    HW124905   0.840   1.447   5.652
 8002SOL    HW224906   0.854   1.284   5.651
 8003SOL     OW24907   1.626   5.849   1.879
 8003SOL    HW124908   1.716   5.817   1.908
 8003SOL    HW224909   1.581   5.777   1.825
 8004SOL     OW24910   1.866   3.377   3.262
 8004SOL    HW124911   1.876   3.343   3.355
 8004SOL    HW224912   1.856   3.476   3.263
 8005SOL     OW24913   2.965   0.502   3.183
 8005SOL    HW124914   2.881   0.556   3.172
 8005SOL    HW224915   2.941   0.405   3.186
 8006SOL     OW24916   2.559   5.754   5.489
 8006SOL    HW124917   2.523   5.663   5.511
 8006SOL    HW224918   2.653   5.744   5.454
 8007SOL     OW24919   5.611   2.371   5.994
 8007SOL    HW124920   5.656   2.326   6.071
 8007SOL    HW224921   5.614   2.471   6.007
 8008SOL     OW24922   3.224   5.574   6.948
 8008SOL    HW124923   3.209   5.485   6.991
 8008SOL    HW224924   3.152   5.637   6.977
 8009SOL     OW24925   4.522   1.306   0.538
 8009SOL    HW124926   4.562   1.319   0.629
 8009SOL    HW224927   4.424   1.324   0.542
 8010SOL     OW24928   2.962   2.415   5.385
 8010SOL    HW124929   3.050   2.432   5.342
 8010SOL    HW224930   2.973   2.414   5.484
 8011SOL     OW24931   3.408   2.119   1.553
 8011SOL    HW124932   3.407   2.079   1.645
 8011SOL    HW224933   3.469   2.198   1.552
 8012SOL     OW24934   0.987   3.021   6.159
 8012SOL    HW124935   0.954   2.929   6.142
 8012SOL    HW224936   1.074   3.035   6.112
 8013SOL     OW24937   1.156   3.242   3.580
 8013SOL    HW124938   1.177   3.211   3.673
 8013SOL    HW224939   1.064   3.280   3.578
 8014SOL     OW24940   1.895   0.442   4.381
 8014SOL    HW124941   1.859   0.355   4.347
 8014SOL    HW224942   1.831   0.515   4.358
 8015SOL     OW24943   1.958   0.233   6.070
 8015SOL    HW124944   2.014   0.152   6.057
 8015SOL    HW224945   1.863   0.206   6.088
 8016SOL     OW24946   3.935   1.462   5.515
 8016SOL    HW124947   3.905   1.423   5.428
 8016SOL    HW224948   3.924   1.394   5.588
 8017SOL     OW24949   6.584   0.128   6.629
 8017SOL    HW124950   6.498   0.140   6.679
 8017SOL    HW224951   6.628   0.217   6.616
 8018SOL     OW24952   3.561   2.690   6.409
 8018SOL    HW124953   3.479   2.748   6.419
 8018SOL    HW224954   3.634   2.727   6.465
 8019SOL     OW24955   1.997   3.943   0.935
 8019SOL    HW124956   1.970   3.857   0.894
 8019SOL    HW224957   1.992   4.016   0.867
 8020SOL     OW24958   6.168   0.990   6.036
 8020SOL    HW124959   6.089   0.938   6.068
 8020SOL    HW224960   6.244   0.979   6.100
 8021SOL     OW24961   1.828   2.837   1.153
 8021SOL    HW124962   1.744   2.884   1.179
 8021SOL    HW224963   1.830   2.746   1.195
 8022SOL     OW24964   5.948   0.451   1.528
 8022SOL    HW124965   6.031   0.409   1.564
 8022SOL    HW224966   5.972   0.533   1.476
 8023SOL     OW24967   5.973   5.118   2.560
 8023SOL    HW124968   5.887   5.166   2.576
 8023SOL    HW224969   5.991   5.114   2.461
 8024SOL     OW24970   1.190   5.724   5.626
 8024SOL    HW124971   1.207   5.820   5.605
 8024SOL    HW224972   1.092   5.705   5.616
 8025SOL     OW24973   1.946   4.916   1.041
 8025SOL    HW124974   1.948   5.013   1.019
 8025SOL    HW224975   1.851   4.884   1.041
 8026SOL     OW24976   0.056   4.290   0.881
 8026SOL    HW124977   0.077   4.264   0.787
 8026SOL    HW224978   0.021   4.211   0.931
 8027SOL     OW24979   3.349   6.402   5.367
 8027SOL    HW124980   3.260   6.407   5.321
 8027SOL    HW224981   3.338   6.360   5.457
 8028SOL     OW24982   2.692   5.801   4.664
 8028SOL    HW124983   2.635   5.779   4.743
 8028SOL    HW224984   2.634   5.824   4.586
 8029SOL     OW24985   4.867   2.309   1.804
 8029SOL    HW124986   4.921   2.357   1.735
 8029SOL    HW224987   4.805   2.245   1.759
 8030SOL     OW24988   6.207   5.290   0.371
 8030SOL    HW124989   6.264   5.287   0.452
 8030SOL    HW224990   6.128   5.229   0.383
 8031SOL     OW24991   6.396   6.500   2.827
 8031SOL    HW124992   6.426   6.440   2.902
 8031SOL    HW224993   6.457   6.579   2.822
 8032SOL     OW24994   5.381   3.743   1.425
 8032SOL    HW124995   5.407   3.676   1.356
 8032SOL    HW224996   5.319   3.702   1.492
 8033SOL     OW24997   4.838   3.569   0.221
 8033SOL    HW124998   4.846   3.470   0.231
 8033SOL    HW224999   4.743   3.593   0.201
 8034SOL     OW25000   5.838   0.043   5.994
 8034SOL    HW125001   5.875   0.021   5.904
 8034SOL    HW225002   5.804   6.991   6.038
 8035SOL     OW25003   4.922   1.321   2.078
 8035SOL    HW125004   4.945   1.228   2.108
 8035SOL    HW225005   4.844   1.354   2.130
 8036SOL     OW25006   7.024   3.387   3.654
 8036SOL    HW125007   0.073   3.421   3.704
 8036SOL    HW225008   6.942   3.397   3.711
 8037SOL     OW25009   1.997   3.373   6.814
 8037SOL    HW125010   1.915   3.327   6.848
 8037SOL    HW225011   2.054   3.402   6.891
 8038SOL     OW25012   4.826   6.420   2.317
 8038SOL    HW125013   4.734   6.455   2.330
 8038SOL    HW225014   4.873   6.414   2.405
 8039SOL     OW25015   0.280   2.537   4.769
 8039SOL    HW125016   0.211   2.499   4.831
 8039SOL    HW225017   0.371   2.518   4.806
 8040SOL     OW25018   2.170   6.309   6.905
 8040SOL    HW125019   2.157   6.298   6.807
 8040SOL    HW225020   2.178   6.406   6.927
 8041SOL     OW25021   3.101   1.045   2.759
 8041SOL    HW125022   3.094   0.947   2.743
 8041SOL    HW225023   3.096   1.063   2.858
 8042SOL     OW25024   4.582   4.104   5.275
 8042SOL    HW125025   4.623   4.155   5.350
 8042SOL    HW225026   4.491   4.071   5.302
 8043SOL     OW25027   3.717   4.263   0.114
 8043SOL    HW125028   3.698   4.213   0.198
 8043SOL    HW225029   3.801   4.316   0.125
 8044SOL     OW25030   3.407   3.279   0.603
 8044SOL    HW125031   3.327   3.218   0.604
 8044SOL    HW225032   3.383   3.364   0.554
 8045SOL     OW25033   6.757   2.012   2.708
 8045SOL    HW125034   6.835   2.075   2.705
 8045SOL    HW225035   6.741   1.984   2.803
 8046SOL     OW25036   0.551   4.975   2.037
 8046SOL    HW125037   0.594   4.894   1.998
 8046SOL    HW225038   0.454   4.959   2.050
 8047SOL     OW25039   4.299   6.608   6.780
 8047SOL    HW125040   4.276   6.616   6.683
 8047SOL    HW225041   4.218   6.628   6.835
 8048SOL     OW25042   3.251   2.857   6.764
 8048SOL    HW125043   3.185   2.886   6.833
 8048SOL    HW225044   3.286   2.766   6.788
 8049SOL     OW25045   0.993   6.813   6.906
 8049SOL    HW125046   1.081   6.849   6.938
 8049SOL    HW225047   1.009   6.756   6.825
 8050SOL     OW25048   2.124   3.184   4.502
 8050SOL    HW125049   2.087   3.275   4.486
 8050SOL    HW225050   2.122   3.163   4.600
 8051SOL     OW25051   4.632   5.660   4.538
 8051SOL    HW125052   4.604   5.752   4.511
 8051SOL    HW225053   4.716   5.636   4.491
 8052SOL     OW25054   2.514   2.104   1.581
 8052SOL    HW125055   2.503   2.005   1.587
 8052SOL    HW225056   2.490   2.146   1.669
 8053SOL     OW25057   2.931   2.892   5.412
 8053SOL    HW125058   3.026   2.868   5.393
 8053SOL    HW225059   2.882   2.810   5.444
 8054SOL     OW25060   6.154   3.852   4.579
 8054SOL    HW125061   6.111   3.911   4.512
 8054SOL    HW225062   6.120   3.873   4.670
 8055SOL     OW25063   6.833   0.878   5.465
 8055SOL    HW125064   6.772   0.803   5.494
 8055SOL    HW225065   6.841   0.876   5.366
 8056SOL     OW25066   3.478   0.003   3.525
 8056SOL    HW125067   3.464   6.936   3.508
 8056SOL    HW225068   3.442   0.055   3.448
 8057SOL     OW25069   2.904   2.098   2.536
 8057SOL    HW125070   2.873   2.004   2.524
 8057SOL    HW225071   3.004   2.100   2.545
 8058SOL     OW25072   3.481   6.286   2.969
 8058SOL    HW125073   3.448   6.325   3.055
 8058SOL    HW225074   3.427   6.322   2.893
 8059SOL     OW25075   3.224   0.830   5.766
 8059SOL    HW125076   3.162   0.876   5.829
 8059SOL    HW225077   3.219   0.874   5.676
 8060SOL     OW25078   0.251   1.985   6.154
 8060SOL    HW125079   0.269   1.968   6.057
 8060SOL    HW225080   0.206   1.905   6.194
 8061SOL     OW25081   0.644   0.640   2.691
 8061SOL    HW125082   0.606   0.623   2.600
 8061SOL    HW225083   0.678   0.734   2.696
 8062SOL     OW25084   3.920   5.557   5.196
 8062SOL    HW125085   3.880   5.620   5.263
 8062SOL    HW225086   3.859   5.479   5.183
 8063SOL     OW25087   2.712   1.098   3.213
 8063SOL    HW125088   2.636   1.083   3.277
 8063SOL    HW225089   2.688   1.060   3.124
 8064SOL     OW25090   6.431   2.930   0.320
 8064SOL    HW125091   6.366   2.862   0.286
 8064SOL    HW225092   6.382   3.011   0.351
 8065SOL     OW25093   3.422   6.770   4.297
 8065SOL    HW125094   3.474   6.770   4.382
 8065SOL    HW225095   3.345   6.833   4.306
 8066SOL     OW25096   6.425   0.032   4.373
 8066SOL    HW125097   6.419   6.970   4.410
 8066SOL    HW225098   6.480   0.089   4.433
 8067SOL     OW25099   4.736   2.348   3.690
 8067SOL    HW125100   4.757   2.281   3.761
 8067SOL    HW225101   4.717   2.300   3.604
 8068SOL     OW25102   0.552   4.559   0.854
 8068SOL    HW125103   0.624   4.626   0.871
 8068SOL    HW225104   0.521   4.520   0.941
 8069SOL     OW25105   2.134   4.768   1.954
 8069SOL    HW125106   2.126   4.735   2.048
 8069SOL    HW225107   2.135   4.868   1.954
 8070SOL     OW25108   4.252   2.813   0.254
 8070SOL    HW125109   4.186   2.743   0.228
 8070SOL    HW225110   4.239   2.838   0.350
 8071SOL     OW25111   3.401   6.572   5.060
 8071SOL    HW125112   3.467   6.607   4.994
 8071SOL    HW225113   3.323   6.635   5.065
 8072SOL     OW25114   3.327   2.445   0.648
 8072SOL    HW125115   3.363   2.370   0.704
 8072SOL    HW225116   3.247   2.485   0.693
 8073SOL     OW25117   2.595   5.583   5.192
 8073SOL    HW125118   2.504   5.557   5.163
 8073SOL    HW225119   2.593   5.676   5.228
 8074SOL     OW25120   2.664   1.165   1.015
 8074SOL    HW125121   2.570   1.167   1.048
 8074SOL    HW225122   2.725   1.205   1.083
 8075SOL     OW25123   0.298   0.301   0.290
 8075SOL    HW125124   0.324   0.210   0.257
 8075SOL    HW225125   0.251   0.350   0.216
 8076SOL     OW25126   6.753   0.345   5.310
 8076SOL    HW125127   6.756   0.395   5.397
 8076SOL    HW225128   6.845   0.312   5.288
 8077SOL     OW25129   4.155   6.334   2.613
 8077SOL    HW125130   4.116   6.312   2.523
 8077SOL    HW225131   4.082   6.331   2.682
 8078SOL     OW25132   0.860   1.569   1.039
 8078SOL    HW125133   0.825   1.502   0.974
 8078SOL    HW225134   0.792   1.641   1.052
 8079SOL     OW25135   6.568   1.631   3.738
 8079SOL    HW125136   6.623   1.665   3.661
 8079SOL    HW225137   6.626   1.573   3.796
 8080SOL     OW25138   1.244   2.591   2.400
 8080SOL    HW125139   1.171   2.546   2.451
 8080SOL    HW225140   1.304   2.521   2.360
 8081SOL     OW25141   6.232   5.435   6.004
 8081SOL    HW125142   6.318   5.405   5.964
 8081SOL    HW225143   6.180   5.489   5.936
 8082SOL     OW25144   3.529   0.671   2.047
 8082SOL    HW125145   3.430   0.680   2.035
 8082SOL    HW225146   3.572   0.653   1.959
 8083SOL     OW25147   5.186   2.618   4.066
 8083SOL    HW125148   5.114   2.687   4.059
 8083SOL    HW225149   5.168   2.544   4.001
 8084SOL     OW25150   2.442   0.602   6.723
 8084SOL    HW125151   2.473   0.564   6.635
 8084SOL    HW225152   2.473   0.696   6.731
 8085SOL     OW25153   6.219   5.749   2.977
 8085SOL    HW125154   6.297   5.758   2.915
 8085SOL    HW225155   6.172   5.663   2.958
 8086SOL     OW25156   0.451   1.231   1.129
 8086SOL    HW125157   0.516   1.160   1.154
 8086SOL    HW225158   0.426   1.221   1.033
 8087SOL     OW25159   1.965   0.497   6.373
 8087SOL    HW125160   1.972   0.454   6.463
 8087SOL    HW225161   2.055   0.524   6.341
 8088SOL     OW25162   5.654   0.540   6.934
 8088SOL    HW125163   5.689   0.512   7.024
 8088SOL    HW225164   5.577   0.481   6.909
 8089SOL     OW25165   5.892   3.065   6.653
 8089SOL    HW125166   5.833   3.140   6.680
 8089SOL    HW225167   5.856   3.022   6.570
 8090SOL     OW25168   3.941   1.046   6.389
 8090SOL    HW125169   3.973   0.952   6.371
 8090SOL    HW225170   3.893   1.049   6.476
 8091SOL     OW25171   1.289   4.009   5.318
 8091SOL    HW125172   1.244   3.940   5.262
 8091SOL    HW225173   1.370   3.969   5.362
 8092SOL     OW25174   4.789   1.931   5.397
 8092SOL    HW125175   4.742   1.941   5.309
 8092SOL    HW225176   4.770   1.840   5.434
 8093SOL     OW25177   2.649   5.596   3.405
 8093SOL    HW125178   2.669   5.511   3.356
 8093SOL    HW225179   2.721   5.663   3.385
 8094SOL     OW25180   0.316   3.048   5.549
 8094SOL    HW125181   0.379   3.039   5.471
 8094SOL    HW225182   0.231   3.091   5.518
 8095SOL     OW25183   0.842   4.333   4.959
 8095SOL    HW125184   0.928   4.364   5.000
 8095SOL    HW225185   0.846   4.347   4.860
 8096SOL     OW25186   2.450   0.717   2.367
 8096SOL    HW125187   2.542   0.749   2.388
 8096SOL    HW225188   2.435   0.720   2.268
 8097SOL     OW25189   4.215   6.930   4.608
 8097SOL    HW125190   4.229   6.867   4.531
 8097SOL    HW225191   4.190   7.020   4.574
 8098SOL     OW25192   2.531   6.315   4.088
 8098SOL    HW125193   2.495   6.223   4.070
 8098SOL    HW225194   2.463   6.369   4.137
 8099SOL     OW25195   4.735   6.606   4.416
 8099SOL    HW125196   4.658   6.651   4.370
 8099SOL    HW225197   4.703   6.565   4.502
 8100SOL     OW25198   6.786   1.447   7.024
 8100SOL    HW125199   6.833   1.522   6.977
 8100SOL    HW225200   6.742   1.388   6.956
 8101SOL     OW25201   1.289   5.810   0.838
 8101SOL    HW125202   1.376   5.792   0.792
 8101SOL    HW225203   1.260   5.904   0.818
 8102SOL     OW25204   0.679   4.077   3.091
 8102SOL    HW125205   0.582   4.087   3.112
 8102SOL    HW225206   0.691   4.067   2.992
 8103SOL     OW25207   3.806   0.418   2.047
 8103SOL    HW125208   3.828   0.514   2.065
 8103SOL    HW225209   3.872   0.381   1.981
 8104SOL     OW25210   1.500   0.541   6.167
 8104SOL    HW125211   1.600   0.548   6.162
 8104SOL    HW225212   1.461   0.567   6.079
 8105SOL     OW25213   7.014   2.663   2.339
 8105SOL    HW125214   0.021   2.630   2.253
 8105SOL    HW225215   0.005   2.597   2.412
 8106SOL     OW25216   2.859   6.425   3.115
 8106SOL    HW125217   2.908   6.377   3.042
 8106SOL    HW225218   2.862   6.523   3.098
 8107SOL     OW25219   1.297   5.896   4.041
 8107SOL    HW125220   1.381   5.947   4.055
 8107SOL    HW225221   1.317   5.798   4.041
 8108SOL     OW25222   6.951   2.504   6.608
 8108SOL    HW125223   6.901   2.559   6.542
 8108SOL    HW225224   6.907   2.414   6.616
 8109SOL     OW25225   0.249   3.570   6.599
 8109SOL    HW125226   0.175   3.583   6.532
 8109SOL    HW225227   0.332   3.543   6.552
 8110SOL     OW25228   3.802   5.290   2.168
 8110SOL    HW125229   3.768   5.207   2.213
 8110SOL    HW225230   3.820   5.360   2.237
 8111SOL     OW25231   5.017   1.098   4.539
 8111SOL    HW125232   5.030   1.153   4.456
 8111SOL    HW225233   5.037   1.155   4.620
 8112SOL     OW25234   2.437   2.349   4.791
 8112SOL    HW125235   2.461   2.330   4.696
 8112SOL    HW225236   2.514   2.393   4.837
 8113SOL     OW25237   6.797   3.624   0.809
 8113SOL    HW125238   6.866   3.696   0.806
 8113SOL    HW225239   6.842   3.534   0.809
 8114SOL     OW25240   1.904   3.801   2.396
 8114SOL    HW125241   1.857   3.727   2.347
 8114SOL    HW225242   2.003   3.791   2.385
 8115SOL     OW25243   2.906   6.304   6.295
 8115SOL    HW125244   2.886   6.258   6.208
 8115SOL    HW225245   2.955   6.241   6.355
 8116SOL     OW25246   3.992   4.532   0.025
 8116SOL    HW125247   3.893   4.542   0.015
 8116SOL    HW225248   4.026   4.476   6.980
 8117SOL     OW25249   1.853   0.326   3.103
 8117SOL    HW125250   1.948   0.307   3.130
 8117SOL    HW225251   1.838   0.425   3.100
 8118SOL     OW25252   5.413   3.906   5.916
 8118SOL    HW125253   5.507   3.878   5.897
 8118SOL    HW225254   5.412   4.001   5.948
 8119SOL     OW25255   5.409   6.537   6.365
 8119SOL    HW125256   5.490   6.482   6.385
 8119SOL    HW225257   5.358   6.551   6.450
 8120SOL     OW25258   2.984   4.988   0.903
 8120SOL    HW125259   3.042   5.064   0.932
 8120SOL    HW225260   2.968   4.927   0.981
 8121SOL     OW25261   0.656   4.561   1.383
 8121SOL    HW125262   0.709   4.539   1.302
 8121SOL    HW225263   0.607   4.647   1.369
 8122SOL     OW25264   0.670   4.741   2.843
 8122SOL    HW125265   0.572   4.726   2.854
 8122SOL    HW225266   0.713   4.658   2.808
 8123SOL     OW25267   0.133   1.921   6.814
 8123SOL    HW125268   0.229   1.899   6.796
 8123SOL    HW225269   0.096   1.975   6.739
 8124SOL     OW25270   5.328   5.726   2.722
 8124SOL    HW125271   5.391   5.796   2.756
 8124SOL    HW225272   5.234   5.759   2.731
 8125SOL     OW25273   1.203   1.048   3.210
 8125SOL    HW125274   1.120   1.024   3.260
 8125SOL    HW225275   1.282   1.004   3.252
 8126SOL     OW25276   5.392   4.854   3.085
 8126SOL    HW125277   5.361   4.774   3.135
 8126SOL    HW225278   5.445   4.826   3.005
 8127SOL     OW25279   3.022   3.213   6.433
 8127SOL    HW125280   2.952   3.177   6.371
 8127SOL    HW225281   3.111   3.210   6.388
 8128SOL     OW25282   2.961   2.118   2.155
 8128SOL    HW125283   3.043   2.156   2.197
 8128SOL    HW225284   2.912   2.190   2.106
 8129SOL     OW25285   3.845   1.926   6.316
 8129SOL    HW125286   3.787   1.863   6.264
 8129SOL    HW225287   3.820   1.922   6.413
 8130SOL     OW25288   0.714   5.764   6.635
 8130SOL    HW125289   0.754   5.711   6.710
 8130SOL    HW225290   0.719   5.862   6.657
 8131SOL     OW25291   3.086   1.663   1.754
 8131SOL    HW125292   3.110   1.727   1.826
 8131SOL    HW225293   3.075   1.712   1.668
 8132SOL     OW25294   5.646   0.027   4.981
 8132SOL    HW125295   5.721   0.014   5.044
 8132SOL    HW225296   5.576   0.086   5.023
 8133SOL     OW25297   3.389   5.167   2.540
 8133SOL    HW125298   3.440   5.198   2.620
 8133SOL    HW225299   3.406   5.069   2.526
 8134SOL     OW25300   0.278   1.745   6.384
 8134SOL    HW125301   0.286   1.680   6.460
 8134SOL    HW225302   0.365   1.751   6.336
 8135SOL     OW25303   2.455   0.921   1.591
 8135SOL    HW125304   2.476   1.011   1.628
 8135SOL    HW225305   2.360   0.897   1.612
 8136SOL     OW25306   5.065   5.362   2.007
 8136SOL    HW125307   5.107   5.451   2.019
 8136SOL    HW225308   4.965   5.373   2.002
 8137SOL     OW25309   3.328   0.684   4.864
 8137SOL    HW125310   3.334   0.621   4.942
 8137SOL    HW225311   3.286   0.637   4.787
 8138SOL     OW25312   5.472   1.204   1.538
 8138SOL    HW125313   5.488   1.198   1.439
 8138SOL    HW225314   5.548   1.252   1.581
 8139SOL     OW25315   0.380   0.955   1.817
 8139SOL    HW125316   0.391   0.874   1.760
 8139SOL    HW225317   0.371   0.928   1.913
 8140SOL     OW25318   5.681   0.257   5.820
 8140SOL    HW125319   5.723   0.207   5.896
 8140SOL    HW225320   5.618   0.197   5.772
 8141SOL     OW25321   4.357   5.267   5.987
 8141SOL    HW125322   4.331   5.296   6.080
 8141SOL    HW225323   4.329   5.337   5.922
 8142SOL     OW25324   6.734   5.138   0.643
 8142SOL    HW125325   6.827   5.169   0.624
 8142SOL    HW225326   6.696   5.192   0.719
 8143SOL     OW25327   6.579   4.374   0.409
 8143SOL    HW125328   6.602   4.277   0.404
 8143SOL    HW225329   6.637   4.418   0.477
 8144SOL     OW25330   5.871   6.189   6.729
 8144SOL    HW125331   5.936   6.115   6.748
 8144SOL    HW225332   5.914   6.277   6.747
 8145SOL     OW25333   5.491   5.992   1.314
 8145SOL    HW125334   5.409   5.946   1.349
 8145SOL    HW225335   5.562   5.923   1.297
 8146SOL     OW25336   3.468   1.055   5.228
 8146SOL    HW125337   3.369   1.049   5.213
 8146SOL    HW225338   3.492   1.151   5.245
 8147SOL     OW25339   5.962   2.426   3.280
 8147SOL    HW125340   6.020   2.494   3.325
 8147SOL    HW225341   5.942   2.352   3.344
 8148SOL     OW25342   5.432   4.202   2.093
 8148SOL    HW125343   5.425   4.275   2.024
 8148SOL    HW225344   5.461   4.117   2.049
 8149SOL     OW25345   2.479   5.739   2.230
 8149SOL    HW125346   2.460   5.653   2.279
 8149SOL    HW225347   2.476   5.815   2.295
 8150SOL     OW25348   0.371   5.424   0.238
 8150SOL    HW125349   0.429   5.467   0.307
 8150SOL    HW225350   0.425   5.404   0.156
 8151SOL     OW25351   6.662   2.382   2.566
 8151SOL    HW125352   6.675   2.481   2.568
 8151SOL    HW225353   6.634   2.351   2.657
 8152SOL     OW25354   0.759   2.346   2.525
 8152SOL    HW125355   0.663   2.352   2.497
 8152SOL    HW225356   0.780   2.419   2.590
 8153SOL     OW25357   3.744   0.542   3.122
 8153SOL    HW125358   3.774   0.496   3.206
 8153SOL    HW225359   3.697   0.476   3.063
 8154SOL     OW25360   2.541   6.204   3.710
 8154SOL    HW125361   2.504   6.119   3.673
 8154SOL    HW225362   2.465   6.265   3.735
 8155SOL     OW25363   2.664   3.442   1.750
 8155SOL    HW125364   2.665   3.405   1.657
 8155SOL    HW225365   2.570   3.443   1.784
 8156SOL     OW25366   5.461   6.833   6.251
 8156SOL    HW125367   5.472   6.912   6.191
 8156SOL    HW225368   5.437   6.753   6.198
 8157SOL     OW25369   5.927   5.608   6.297
 8157SOL    HW125370   5.950   5.513   6.318
 8157SOL    HW225371   5.946   5.627   6.200
 8158SOL     OW25372   0.658   5.397   0.968
 8158SOL    HW125373   0.569   5.351   0.974
 8158SOL    HW225374   0.695   5.387   0.876
 8159SOL     OW25375   2.873   6.020   2.451
 8159SOL    HW125376   2.810   6.014   2.373
 8159SOL    HW225377   2.881   6.116   2.479
 8160SOL     OW25378   4.509   1.687   1.630
 8160SOL    HW125379   4.561   1.633   1.564
 8160SOL    HW225380   4.484   1.775   1.589
 8161SOL     OW25381   5.172   0.634   0.676
 8161SOL    HW125382   5.119   0.573   0.734
 8161SOL    HW225383   5.253   0.665   0.726
 8162SOL     OW25384   6.301   6.829   6.049
 8162SOL    HW125385   6.290   6.829   6.148
 8162SOL    HW225386   6.224   6.877   6.007
 8163SOL     OW25387   2.226   4.015   5.837
 8163SOL    HW125388   2.295   4.013   5.764
 8163SOL    HW225389   2.138   3.985   5.801
 8164SOL     OW25390   5.664   3.851   0.644
 8164SOL    HW125391   5.594   3.908   0.599
 8164SOL    HW225392   5.740   3.836   0.581
 8165SOL     OW25393   1.262   4.495   0.115
 8165SOL    HW125394   1.186   4.536   0.165
 8165SOL    HW225395   1.345   4.549   0.129
 8166SOL     OW25396   2.624   1.270   2.231
 8166SOL    HW125397   2.552   1.283   2.163
 8166SOL    HW225398   2.712   1.300   2.192
 8167SOL     OW25399   5.650   1.402   4.387
 8167SOL    HW125400   5.670   1.420   4.483
 8167SOL    HW225401   5.656   1.487   4.335
 8168SOL     OW25402   3.334   1.239   2.493
 8168SOL    HW125403   3.267   1.306   2.524
 8168SOL    HW225404   3.420   1.253   2.542
 8169SOL     OW25405   4.908   3.204   0.940
 8169SOL    HW125406   4.917   3.104   0.932
 8169SOL    HW225407   4.975   3.247   0.879
 8170SOL     OW25408   1.811   6.036   3.183
 8170SOL    HW125409   1.787   6.082   3.268
 8170SOL    HW225410   1.911   6.028   3.176
 8171SOL     OW25411   0.925   1.822   6.751
 8171SOL    HW125412   0.909   1.919   6.769
 8171SOL    HW225413   0.988   1.812   6.674
 8172SOL     OW25414   0.581   0.563   1.341
 8172SOL    HW125415   0.569   0.572   1.440
 8172SOL    HW225416   0.652   0.628   1.310
 8173SOL     OW25417   3.527   2.463   0.476
 8173SOL    HW125418   3.541   2.364   0.474
 8173SOL    HW225419   3.456   2.485   0.543
 8174SOL     OW25420   5.273   1.841   1.279
 8174SOL    HW125421   5.288   1.929   1.326
 8174SOL    HW225422   5.319   1.768   1.330
 8175SOL     OW25423   0.309   2.901   6.155
 8175SOL    HW125424   0.349   2.873   6.242
 8175SOL    HW225425   0.328   2.997   6.139
 8176SOL     OW25426   2.955   5.910   1.997
 8176SOL    HW125427   2.888   5.978   1.967
 8176SOL    HW225428   3.046   5.953   2.002
 8177SOL     OW25429   1.274   6.154   3.671
 8177SOL    HW125430   1.206   6.226   3.656
 8177SOL    HW225431   1.297   6.150   3.768
 8178SOL     OW25432   1.496   0.292   6.628
 8178SOL    HW125433   1.417   0.334   6.583
 8178SOL    HW225434   1.474   0.197   6.652
 8179SOL     OW25435   3.622   3.328   0.449
 8179SOL    HW125436   3.539   3.321   0.505
 8179SOL    HW225437   3.647   3.424   0.438
 8180SOL     OW25438   6.408   6.984   3.861
 8180SOL    HW125439   6.463   6.965   3.943
 8180SOL    HW225440   6.348   6.907   3.843
 8181SOL     OW25441   2.217   1.558   2.790
 8181SOL    HW125442   2.228   1.477   2.848
 8181SOL    HW225443   2.282   1.554   2.714
 8182SOL     OW25444   3.705   1.556   6.751
 8182SOL    HW125445   3.774   1.628   6.750
 8182SOL    HW225446   3.641   1.570   6.676
 8183SOL     OW25447   0.327   2.851   5.213
 8183SOL    HW125448   0.411   2.894   5.246
 8183SOL    HW225449   0.250   2.912   5.229
 8184SOL     OW25450   5.908   1.537   6.104
 8184SOL    HW125451   5.823   1.584   6.126
 8184SOL    HW225452   5.893   1.438   6.107
 8185SOL     OW25453   2.785   0.511   0.416
 8185SOL    HW125454   2.812   0.414   0.414
 8185SOL    HW225455   2.814   0.552   0.502
 8186SOL     OW25456   3.276   6.276   5.907
 8186SOL    HW125457   3.354   6.219   5.935
 8186SOL    HW225458   3.291   6.370   5.937
 8187SOL     OW25459   1.402   1.923   5.118
 8187SOL    HW125460   1.365   1.999   5.066
 8187SOL    HW225461   1.462   1.957   5.190
 8188SOL     OW25462   5.050   1.626   2.375
 8188SOL    HW125463   5.067   1.600   2.470
 8188SOL    HW225464   5.023   1.723   2.371
 8189SOL     OW25465   5.066   4.166   2.130
 8189SOL    HW125466   5.097   4.107   2.204
 8189SOL    HW225467   4.967   4.154   2.116
 8190SOL     OW25468   5.106   4.695   4.109
 8190SOL    HW125469   5.028   4.742   4.151
 8190SOL    HW225470   5.190   4.744   4.130
 8191SOL     OW25471   1.897   5.366   3.645
 8191SOL    HW125472   1.801   5.382   3.666
 8191SOL    HW225473   1.942   5.453   3.627
 8192SOL     OW25474   2.628   5.624   0.308
 8192SOL    HW125475   2.533   5.595   0.314
 8192SOL    HW225476   2.642   5.706   0.364
 8193SOL     OW25477   5.787   6.497   4.869
 8193SOL    HW125478   5.751   6.562   4.936
 8193SOL    HW225479   5.866   6.450   4.908
 8194SOL     OW25480   6.359   2.572   6.873
 8194SOL    HW125481   6.267   2.561   6.837
 8194SOL    HW225482   6.380   2.670   6.882
 8195SOL     OW25483   0.363   0.733   0.745
 8195SOL    HW125484   0.429   0.668   0.782
 8195SOL    HW225485   0.275   0.687   0.731
 8196SOL     OW25486   3.850   6.362   5.564
 8196SOL    HW125487   3.863   6.378   5.466
 8196SOL    HW225488   3.901   6.430   5.616
 8197SOL     OW25489   6.085   1.471   6.334
 8197SOL    HW125490   6.028   1.519   6.267
 8197SOL    HW225491   6.146   1.408   6.286
 8198SOL     OW25492   3.265   6.388   2.076
 8198SOL    HW125493   3.357   6.383   2.114
 8198SOL    HW225494   3.198   6.372   2.149
 8199SOL     OW25495   0.045   3.989   0.117
 8199SOL    HW125496   7.005   3.935   0.163
 8199SOL    HW225497   0.099   3.929   0.058
 8200SOL     OW25498   4.103   4.876   1.271
 8200SOL    HW125499   4.149   4.814   1.207
 8200SOL    HW225500   4.151   4.964   1.272
 8201SOL     OW25501   5.116   0.687   4.433
 8201SOL    HW125502   5.136   0.638   4.518
 8201SOL    HW225503   5.021   0.670   4.406
 8202SOL     OW25504   1.351   5.415   4.225
 8202SOL    HW125505   1.380   5.498   4.273
 8202SOL    HW225506   1.419   5.343   4.237
 8203SOL     OW25507   4.735   3.556   0.716
 8203SOL    HW125508   4.703   3.631   0.658
 8203SOL    HW225509   4.807   3.589   0.777
 8204SOL     OW25510   3.421   6.435   1.060
 8204SOL    HW125511   3.397   6.509   1.123
 8204SOL    HW225512   3.507   6.394   1.088
 8205SOL     OW25513   5.516   5.122   1.364
 8205SOL    HW125514   5.509   5.191   1.436
 8205SOL    HW225515   5.467   5.040   1.392
 8206SOL     OW25516   2.954   2.720   6.003
 8206SOL    HW125517   2.888   2.733   5.929
 8206SOL    HW225518   2.948   2.797   6.067
 8207SOL     OW25519   3.331   4.761   5.244
 8207SOL    HW125520   3.250   4.765   5.187
 8207SOL    HW225521   3.407   4.806   5.197
 8208SOL     OW25522   2.913   6.117   1.581
 8208SOL    HW125523   2.942   6.034   1.628
 8208SOL    HW225524   2.827   6.150   1.621
 8209SOL     OW25525   1.497   1.327   5.375
 8209SOL    HW125526   1.437   1.249   5.359
 8209SOL    HW225527   1.589   1.294   5.396
 8210SOL     OW25528   2.823   0.909   0.441
 8210SOL    HW125529   2.754   0.981   0.447
 8210SOL    HW225530   2.854   0.900   0.346
 8211SOL     OW25531   3.640   4.149   4.644
 8211SOL    HW125532   3.671   4.054   4.637
 8211SOL    HW225533   3.653   4.181   4.738
 8212SOL     OW25534   2.454   0.134   0.719
 8212SOL    HW125535   2.426   0.111   0.812
 8212SOL    HW225536   2.536   0.081   0.695
 8213SOL     OW25537   4.388   5.180   3.360
 8213SOL    HW125538   4.318   5.190   3.289
 8213SOL    HW225539   4.355   5.117   3.431
 8214SOL     OW25540   2.458   6.052   4.002
 8214SOL    HW125541   2.500   5.966   4.030
 8214SOL    HW225542   2.442   6.051   3.903
 8215SOL     OW25543   4.329   6.328   0.059
 8215SOL    HW125544   4.260   6.328   7.017
 8215SOL    HW225545   4.403   6.391   0.035
 8216SOL     OW25546   5.174   6.679   2.654
 8216SOL    HW125547   5.177   6.682   2.754
 8216SOL    HW225548   5.104   6.742   2.621
 8217SOL     OW25549   2.222   4.267   2.740
 8217SOL    HW125550   2.252   4.296   2.830
 8217SOL    HW225551   2.189   4.173   2.743
 8218SOL     OW25552   1.979   0.256   4.866
 8218SOL    HW125553   1.927   0.172   4.858
 8218SOL    HW225554   2.073   0.235   4.892
 8219SOL     OW25555   3.038   4.052   1.928
 8219SOL    HW125556   3.012   4.111   1.852
 8219SOL    HW225557   3.079   3.968   1.893
 8220SOL     OW25558   3.612   4.303   5.238
 8220SOL    HW125559   3.647   4.391   5.206
 8220SOL    HW225560   3.626   4.296   5.337
 8221SOL     OW25561   5.688   4.309   2.919
 8221SOL    HW125562   5.757   4.246   2.955
 8221SOL    HW225563   5.614   4.257   2.876
 8222SOL     OW25564   5.858   3.091   1.275
 8222SOL    HW125565   5.798   3.106   1.353
 8222SOL    HW225566   5.891   2.997   1.275
 8223SOL     OW25567   6.928   5.204   5.128
 8223SOL    HW125568   6.881   5.277   5.079
 8223SOL    HW225569   7.017   5.187   5.087
 8224SOL     OW25570   5.018   1.406   0.555
 8224SOL    HW125571   4.933   1.458   0.545
 8224SOL    HW225572   5.094   1.470   0.565
 8225SOL     OW25573   3.595   0.127   0.124
 8225SOL    HW125574   3.669   0.096   0.066
 8225SOL    HW225575   3.629   0.199   0.186
 8226SOL     OW25576   3.680   0.752   0.209
 8226SOL    HW125577   3.674   0.692   0.289
 8226SOL    HW225578   3.693   0.697   0.127
 8227SOL     OW25579   5.726   1.455   2.821
 8227SOL    HW125580   5.659   1.384   2.840
 8227SOL    HW225581   5.709   1.533   2.881
 8228SOL     OW25582   0.893   1.222   5.154
 8228SOL    HW125583   0.878   1.278   5.073
 8228SOL    HW225584   0.938   1.137   5.127
 8229SOL     OW25585   3.858   4.683   0.972
 8229SOL    HW125586   3.850   4.753   1.042
 8229SOL    HW225587   3.921   4.714   0.901
 8230SOL     OW25588   4.245   0.320   5.389
 8230SOL    HW125589   4.289   0.408   5.408
 8230SOL    HW225590   4.152   0.321   5.425
 8231SOL     OW25591   3.488   1.551   1.983
 8231SOL    HW125592   3.436   1.480   1.935
 8231SOL    HW225593   3.425   1.606   2.038
 8232SOL     OW25594   4.247   1.365   2.241
 8232SOL    HW125595   4.203   1.276   2.233
 8232SOL    HW225596   4.209   1.428   2.173
 8233SOL     OW25597   0.602   0.914   5.827
 8233SOL    HW125598   0.642   0.912   5.735
 8233SOL    HW225599   0.633   0.834   5.879
 8234SOL     OW25600   2.960   3.643   0.031
 8234SOL    HW125601   3.013   3.646   0.115
 8234SOL    HW225602   2.975   3.555   7.015
 8235SOL     OW25603   6.695   4.918   6.548
 8235SOL    HW125604   6.754   4.838   6.563
 8235SOL    HW225605   6.724   4.992   6.609
 8236SOL     OW25606   0.431   5.943   5.751
 8236SOL    HW125607   0.354   5.882   5.730
 8236SOL    HW225608   0.461   5.928   5.845
 8237SOL     OW25609   4.586   5.583   6.709
 8237SOL    HW125610   4.607   5.669   6.662
 8237SOL    HW225611   4.518   5.600   6.780
 8238SOL     OW25612   1.946   5.760   0.234
 8238SOL    HW125613   1.974   5.838   0.178
 8238SOL    HW225614   1.911   5.688   0.175
 8239SOL     OW25615   0.674   1.779   4.812
 8239SOL    HW125616   0.764   1.790   4.854
 8239SOL    HW225617   0.677   1.809   4.717
 8240SOL     OW25618   3.684   2.997   3.591
 8240SOL    HW125619   3.664   2.977   3.494
 8240SOL    HW225620   3.776   3.037   3.598
 8241SOL     OW25621   1.516   3.368   6.789
 8241SOL    HW125622   1.585   3.437   6.766
 8241SOL    HW225623   1.497   3.312   6.708
 8242SOL     OW25624   0.874   3.869   4.347
 8242SOL    HW125625   0.823   3.955   4.358
 8242SOL    HW225626   0.933   3.876   4.267
 8243SOL     OW25627   0.497   4.892   5.877
 8243SOL    HW125628   0.529   4.986   5.866
 8243SOL    HW225629   0.448   4.863   5.795
 8244SOL     OW25630   0.559   0.241   3.235
 8244SOL    HW125631   0.470   0.277   3.210
 8244SOL    HW225632   0.605   0.204   3.154
 8245SOL     OW25633   4.848   1.347   3.801
 8245SOL    HW125634   4.802   1.382   3.883
 8245SOL    HW225635   4.808   1.389   3.720
 8246SOL     OW25636   1.354   4.148   6.492
 8246SOL    HW125637   1.312   4.066   6.530
 8246SOL    HW225638   1.442   4.164   6.536
 8247SOL     OW25639   3.155   5.003   3.648
 8247SOL    HW125640   3.234   4.997   3.587
 8247SOL    HW225641   3.072   5.009   3.593
 8248SOL     OW25642   0.973   5.728   3.258
 8248SOL    HW125643   0.963   5.676   3.173
 8248SOL    HW225644   1.069   5.749   3.274
 8249SOL     OW25645   2.286   2.474   5.301
 8249SOL    HW125646   2.218   2.406   5.272
 8249SOL    HW225647   2.251   2.524   5.380
 8250SOL     OW25648   2.511   1.859   0.467
 8250SOL    HW125649   2.595   1.880   0.417
 8250SOL    HW225650   2.506   1.760   0.483
 8251SOL     OW25651   0.034   2.322   4.584
 8251SOL    HW125652   0.005   2.402   4.530
 8251SOL    HW225653   0.110   2.277   4.538
 8252SOL     OW25654   2.490   2.176   6.978
 8252SOL    HW125655   2.408   2.229   6.958
 8252SOL    HW225656   2.571   2.226   6.945
 8253SOL     OW25657   3.197   5.921   6.326
 8253SOL    HW125658   3.190   5.884   6.419
 8253SOL    HW225659   3.135   5.871   6.266
 8254SOL     OW25660   6.086   4.828   6.959
 8254SOL    HW125661   6.163   4.888   6.977
 8254SOL    HW225662   6.075   4.763   0.003
 8255SOL     OW25663   0.429   0.119   6.140
 8255SOL    HW125664   0.383   0.165   6.064
 8255SOL    HW225665   0.483   0.043   6.104
 8256SOL     OW25666   1.190   6.488   2.361
 8256SOL    HW125667   1.153   6.573   2.399
 8256SOL    HW225668   1.114   6.431   2.329
 8257SOL     OW25669   5.541   4.045   4.107
 8257SOL    HW125670   5.623   4.088   4.143
 8257SOL    HW225671   5.460   4.094   4.139
 8258SOL     OW25672   5.585   2.634   1.788
 8258SOL    HW125673   5.508   2.586   1.747
 8258SOL    HW225674   5.661   2.636   1.724
 8259SOL     OW25675   4.075   2.248   4.704
 8259SOL    HW125676   4.017   2.173   4.672
 8259SOL    HW225677   4.092   2.311   4.629
 8260SOL     OW25678   2.526   6.935   0.312
 8260SOL    HW125679   2.471   6.863   0.354
 8260SOL    HW225680   2.601   6.893   0.259
 8261SOL     OW25681   5.805   5.769   2.865
 8261SOL    HW125682   5.895   5.790   2.828
 8261SOL    HW225683   5.735   5.818   2.811
 8262SOL     OW25684   0.371   4.713   0.638
 8262SOL    HW125685   0.404   4.793   0.587
 8262SOL    HW225686   0.438   4.689   0.709
 8263SOL     OW25687   6.892   2.707   6.435
 8263SOL    HW125688   6.975   2.760   6.453
 8263SOL    HW225689   6.817   2.769   6.412
 8264SOL     OW25690   2.126   0.034   1.565
 8264SOL    HW125691   2.199   0.046   1.632
 8264SOL    HW225692   2.044   0.001   1.612
 8265SOL     OW25693   4.221   0.259   1.547
 8265SOL    HW125694   4.126   0.228   1.536
 8265SOL    HW225695   4.240   0.274   1.644
 8266SOL     OW25696   2.822   0.348   3.967
 8266SOL    HW125697   2.898   0.325   4.028
 8266SOL    HW225698   2.771   0.425   4.005
 8267SOL     OW25699   1.303   4.733   2.570
 8267SOL    HW125700   1.318   4.711   2.667
 8267SOL    HW225701   1.262   4.654   2.524
 8268SOL     OW25702   3.104   3.636   6.539
 8268SOL    HW125703   3.163   3.639   6.619
 8268SOL    HW225704   3.051   3.721   6.533
 8269SOL     OW25705   4.304   2.379   3.098
 8269SOL    HW125706   4.305   2.465   3.149
 8269SOL    HW225707   4.227   2.323   3.127
 8270SOL     OW25708   3.626   6.900   6.008
 8270SOL    HW125709   3.530   6.880   6.030
 8270SOL    HW225710   3.660   6.970   6.070
 8271SOL     OW25711   5.494   6.173   4.268
 8271SOL    HW125712   5.399   6.154   4.293
 8271SOL    HW225713   5.528   6.249   4.323
 8272SOL     OW25714   0.687   0.213   2.252
 8272SOL    HW125715   0.653   0.254   2.336
 8272SOL    HW225716   0.669   0.274   2.175
 8273SOL     OW25717   2.570   0.044   7.018
 8273SOL    HW125718   2.543   0.097   0.068
 8273SOL    HW225719   2.557   0.098   6.935
 8274SOL     OW25720   4.815   5.262   6.928
 8274SOL    HW125721   4.765   5.318   6.993
 8274SOL    HW225722   4.812   5.166   6.957
 8275SOL     OW25723   6.937   0.192   4.235
 8275SOL    HW125724   6.957   0.105   4.281
 8275SOL    HW225725   7.022   0.234   4.205
 8276SOL     OW25726   6.940   2.506   5.534
 8276SOL    HW125727   6.979   2.460   5.455
 8276SOL    HW225728   6.878   2.444   5.582
 8277SOL     OW25729   1.409   6.111   5.386
 8277SOL    HW125730   1.504   6.114   5.418
 8277SOL    HW225731   1.359   6.190   5.423
 8278SOL     OW25732   3.683   1.930   6.549
 8278SOL    HW125733   3.619   1.868   6.593
 8278SOL    HW225734   3.726   1.988   6.618
 8279SOL     OW25735   4.608   5.820   6.600
 8279SOL    HW125736   4.656   5.864   6.525
 8279SOL    HW225737   4.522   5.868   6.619
 8280SOL     OW25738   5.564   2.841   0.620
 8280SOL    HW125739   5.592   2.936   0.603
 8280SOL    HW225740   5.493   2.816   0.555
 8281SOL     OW25741   1.178   5.139   0.584
 8281SOL    HW125742   1.243   5.076   0.541
 8281SOL    HW225743   1.135   5.195   0.514
 8282SOL     OW25744   2.485   2.807   1.503
 8282SOL    HW125745   2.465   2.723   1.553
 8282SOL    HW225746   2.402   2.841   1.459
 8283SOL     OW25747   0.525   4.787   3.905
 8283SOL    HW125748   0.453   4.798   3.973
 8283SOL    HW225749   0.573   4.874   3.892
 8284SOL     OW25750   2.768   2.356   2.630
 8284SOL    HW125751   2.823   2.274   2.613
 8284SOL    HW225752   2.793   2.427   2.564
 8285SOL     OW25753   2.866   4.446   5.913
 8285SOL    HW125754   2.938   4.428   5.980
 8285SOL    HW225755   2.777   4.441   5.958
 8286SOL     OW25756   5.710   0.823   4.574
 8286SOL    HW125757   5.720   0.730   4.610
 8286SOL    HW225758   5.666   0.821   4.484
 8287SOL     OW25759   1.340   0.124   3.451
 8287SOL    HW125760   1.314   0.162   3.362
 8287SOL    HW225761   1.280   0.046   3.472
 8288SOL     OW25762   2.140   1.892   2.138
 8288SOL    HW125763   2.172   1.943   2.218
 8288SOL    HW225764   2.199   1.813   2.123
 8289SOL     OW25765   5.775   1.708   5.344
 8289SOL    HW125766   5.730   1.750   5.422
 8289SOL    HW225767   5.705   1.674   5.280
 8290SOL     OW25768   3.590   2.638   1.462
 8290SOL    HW125769   3.647   2.569   1.417
 8290SOL    HW225770   3.584   2.617   1.559
 8291SOL     OW25771   5.649   6.577   6.762
 8291SOL    HW125772   5.713   6.565   6.686
 8291SOL    HW225773   5.576   6.509   6.755
 8292SOL     OW25774   0.769   5.213   5.539
 8292SOL    HW125775   0.736   5.119   5.537
 8292SOL    HW225776   0.866   5.213   5.564
 8293SOL     OW25777   2.088   4.702   2.229
 8293SOL    HW125778   2.172   4.717   2.282
 8293SOL    HW225779   2.081   4.606   2.205
 8294SOL     OW25780   0.278   3.765   5.488
 8294SOL    HW125781   0.252   3.844   5.543
 8294SOL    HW225782   0.335   3.703   5.543
 8295SOL     OW25783   5.073   3.757   2.757
 8295SOL    HW125784   5.101   3.853   2.752
 8295SOL    HW225785   5.031   3.740   2.846
 8296SOL     OW25786   3.391   5.451   0.335
 8296SOL    HW125787   3.487   5.454   0.363
 8296SOL    HW225788   3.359   5.544   0.316
 8297SOL     OW25789   6.898   4.540   2.652
 8297SOL    HW125790   6.857   4.629   2.671
 8297SOL    HW225791   6.926   4.497   2.739
 8298SOL     OW25792   0.745   0.916   6.717
 8298SOL    HW125793   0.832   0.934   6.762
 8298SOL    HW225794   0.672   0.916   6.786
 8299SOL     OW25795   0.092   3.789   2.318
 8299SOL    HW125796   0.111   3.702   2.364
 8299SOL    HW225797   0.178   3.837   2.302
 8300SOL     OW25798   6.211   5.418   4.012
 8300SOL    HW125799   6.270   5.499   4.012
 8300SOL    HW225800   6.260   5.342   4.054
 8301SOL     OW25801   3.848   0.082   0.004
 8301SOL    HW125802   3.887   0.045   0.089
 8301SOL    HW225803   3.910   0.062   6.958
 8302SOL     OW25804   3.569   6.356   4.058
 8302SOL    HW125805   3.506   6.433   4.068
 8302SOL    HW225806   3.586   6.315   4.148
 8303SOL     OW25807   6.355   0.217   1.935
 8303SOL    HW125808   6.395   0.309   1.924
 8303SOL    HW225809   6.420   0.149   1.902
 8304SOL     OW25810   5.645   3.283   3.896
 8304SOL    HW125811   5.629   3.289   3.798
 8304SOL    HW225812   5.672   3.373   3.931
 8305SOL     OW25813   4.681   5.250   3.947
 8305SOL    HW125814   4.593   5.212   3.918
 8305SOL    HW225815   4.704   5.214   4.038
 8306SOL     OW25816   6.767   0.749   2.149
 8306SOL    HW125817   6.748   0.754   2.051
 8306SOL    HW225818   6.720   0.670   2.189
 8307SOL     OW25819   1.284   4.803   1.634
 8307SOL    HW125820   1.237   4.823   1.720
 8307SOL    HW225821   1.239   4.725   1.590
 8308SOL     OW25822   0.811   4.823   0.107
 8308SOL    HW125823   0.764   4.751   0.057
 8308SOL    HW225824   0.814   4.801   0.204
 8309SOL     OW25825   6.577   4.672   4.760
 8309SOL    HW125826   6.618   4.612   4.692
 8309SOL    HW225827   6.605   4.645   4.852
 8310SOL     OW25828   0.127   6.685   0.655
 8310SOL    HW125829   0.087   6.747   0.587
 8310SOL    HW225830   0.128   6.730   0.744
 8311SOL     OW25831   5.548   6.258   4.009
 8311SOL    HW125832   5.527   6.241   4.105
 8311SOL    HW225833   5.483   6.324   3.972
 8312SOL     OW25834   5.039   6.892   0.043
 8312SOL    HW125835   5.086   6.816   0.087
 8312SOL    HW225836   5.091   6.976   0.055
 8313SOL     OW25837   4.170   6.946   5.247
 8313SOL    HW125838   4.133   6.988   5.165
 8313SOL    HW225839   4.126   6.986   5.328
 8314SOL     OW25840   5.142   6.225   6.171
 8314SOL    HW125841   5.110   6.183   6.257
 8314SOL    HW225842   5.242   6.218   6.167
 8315SOL     OW25843   3.627   3.213   4.564
 8315SOL    HW125844   3.701   3.205   4.631
 8315SOL    HW225845   3.580   3.125   4.556
 8316SOL     OW25846   0.847   3.201   0.271
 8316SOL    HW125847   0.769   3.143   0.249
 8316SOL    HW225848   0.831   3.247   0.358
 8317SOL     OW25849   2.086   1.775   5.063
 8317SOL    HW125850   2.087   1.684   5.104
 8317SOL    HW225851   2.027   1.774   4.982
 8318SOL     OW25852   3.981   0.402   6.493
 8318SOL    HW125853   3.989   0.430   6.589
 8318SOL    HW225854   4.061   0.435   6.442
 8319SOL     OW25855   1.191   0.067   6.052
 8319SOL    HW125856   1.154   0.123   5.978
 8319SOL    HW225857   1.195   0.121   6.136
 8320SOL     OW25858   3.122   4.056   4.474
 8320SOL    HW125859   3.221   4.068   4.472
 8320SOL    HW225860   3.088   4.069   4.567
 8321SOL     OW25861   0.207   0.413   0.055
 8321SOL    HW125862   0.128   0.458   0.099
 8321SOL    HW225863   0.279   0.480   0.040
 8322SOL     OW25864   0.180   1.199   0.455
 8322SOL    HW125865   0.088   1.229   0.481
 8322SOL    HW225866   0.248   1.252   0.505
 8323SOL     OW25867   4.785   4.689   1.015
 8323SOL    HW125868   4.736   4.703   0.929
 8323SOL    HW225869   4.759   4.600   1.054
 8324SOL     OW25870   6.015   0.369   6.648
 8324SOL    HW125871   5.970   0.284   6.621
 8324SOL    HW225872   5.947   0.430   6.689
 8325SOL     OW25873   1.598   5.298   4.569
 8325SOL    HW125874   1.521   5.234   4.576
 8325SOL    HW225875   1.645   5.285   4.482
 8326SOL     OW25876   2.394   3.964   0.052
 8326SOL    HW125877   2.355   3.958   0.144
 8326SOL    HW225878   2.435   3.876   0.028
 8327SOL     OW25879   0.696   0.944   5.555
 8327SOL    HW125880   0.764   0.870   5.555
 8327SOL    HW225881   0.715   1.007   5.479
 8328SOL     OW25882   0.581   6.050   5.536
 8328SOL    HW125883   0.522   5.989   5.588
 8328SOL    HW225884   0.566   6.036   5.438
 8329SOL     OW25885   0.798   2.931   5.165
 8329SOL    HW125886   0.813   2.896   5.257
 8329SOL    HW225887   0.706   2.909   5.135
 8330SOL     OW25888   4.084   0.993   6.649
 8330SOL    HW125889   4.028   1.069   6.616
 8330SOL    HW225890   4.141   1.024   6.725
 8331SOL     OW25891   2.314   1.817   0.657
 8331SOL    HW125892   2.281   1.737   0.606
 8331SOL    HW225893   2.382   1.866   0.603
 8332SOL     OW25894   5.201   4.982   1.695
 8332SOL    HW125895   5.201   5.003   1.792
 8332SOL    HW225896   5.295   4.967   1.664
 8333SOL     OW25897   1.646   4.870   1.066
 8333SOL    HW125898   1.596   4.783   1.064
 8333SOL    HW225899   1.676   4.889   1.159
 8334SOL     OW25900   3.277   2.391   6.816
 8334SOL    HW125901   3.308   2.482   6.788
 8334SOL    HW225902   3.292   2.326   6.741
 8335SOL     OW25903   4.615   3.087   6.909
 8335SOL    HW125904   4.620   3.005   6.852
 8335SOL    HW225905   4.604   3.061   7.005
 8336SOL     OW25906   1.578   3.329   2.799
 8336SOL    HW125907   1.626   3.297   2.717
 8336SOL    HW225908   1.583   3.259   2.870
 8337SOL     OW25909   0.668   1.456   4.894
 8337SOL    HW125910   0.674   1.440   4.795
 8337SOL    HW225911   0.604   1.531   4.911
 8338SOL     OW25912   3.754   4.855   2.188
 8338SOL    HW125913   3.834   4.844   2.128
 8338SOL    HW225914   3.671   4.846   2.133
 8339SOL     OW25915   7.021   0.642   0.381
 8339SOL    HW125916   6.963   0.692   0.446
 8339SOL    HW225917   0.073   0.696   0.361
 8340SOL     OW25918   5.313   2.618   1.008
 8340SOL    HW125919   5.327   2.641   0.912
 8340SOL    HW225920   5.223   2.651   1.037
 8341SOL     OW25921   3.284   0.176   6.999
 8341SOL    HW125922   3.316   0.085   7.025
 8341SOL    HW225923   3.270   0.231   0.051
 8342SOL     OW25924   3.665   6.509   0.101
 8342SOL    HW125925   3.627   6.424   0.065
 8342SOL    HW225926   3.699   6.565   0.026
 8343SOL     OW25927   6.541   4.679   3.680
 8343SOL    HW125928   6.528   4.618   3.601
 8343SOL    HW225929   6.454   4.724   3.701
 8344SOL     OW25930   0.637   4.790   4.239
 8344SOL    HW125931   0.627   4.741   4.153
 8344SOL    HW225932   0.659   4.886   4.220
 8345SOL     OW25933   5.512   0.843   3.338
 8345SOL    HW125934   5.419   0.880   3.341
 8345SOL    HW225935   5.576   0.917   3.316
 8346SOL     OW25936   4.514   3.205   6.104
 8346SOL    HW125937   4.544   3.299   6.088
 8346SOL    HW225938   4.440   3.205   6.170
 8347SOL     OW25939   2.440   6.849   5.884
 8347SOL    HW125940   2.504   6.840   5.808
 8347SOL    HW225941   2.429   6.761   5.928
 8348SOL     OW25942   3.852   6.718   1.138
 8348SOL    HW125943   3.784   6.748   1.070
 8348SOL    HW225944   3.832   6.763   1.226
 8349SOL     OW25945   0.366   6.608   2.309
 8349SOL    HW125946   0.453   6.613   2.259
 8349SOL    HW225947   0.296   6.659   2.259
 8350SOL     OW25948   2.755   6.896   6.316
 8350SOL    HW125949   2.754   6.981   6.369
 8350SOL    HW225950   2.732   6.915   6.221
 8351SOL     OW25951   6.457   5.295   4.327
 8351SOL    HW125952   6.463   5.311   4.426
 8351SOL    HW225953   6.440   5.382   4.280
 8352SOL     OW25954   2.362   6.274   1.945
 8352SOL    HW125955   2.414   6.188   1.946
 8352SOL    HW225956   2.423   6.349   1.970
 8353SOL     OW25957   1.079   3.871   1.804
 8353SOL    HW125958   1.118   3.868   1.712
 8353SOL    HW225959   1.150   3.897   1.869
 8354SOL     OW25960   3.748   6.331   3.853
 8354SOL    HW125961   3.652   6.330   3.880
 8354SOL    HW225962   3.802   6.379   3.922
 8355SOL     OW25963   1.276   6.882   6.343
 8355SOL    HW125964   1.369   6.850   6.323
 8355SOL    HW225965   1.216   6.804   6.358
 8356SOL     OW25966   1.256   5.749   1.740
 8356SOL    HW125967   1.301   5.753   1.829
 8356SOL    HW225968   1.245   5.653   1.712
 8357SOL     OW25969   4.233   5.457   5.832
 8357SOL    HW125970   4.273   5.547   5.849
 8357SOL    HW225971   4.182   5.459   5.746
 8358SOL     OW25972   1.641   2.714   5.752
 8358SOL    HW125973   1.644   2.797   5.807
 8358SOL    HW225974   1.575   2.726   5.678
 8359SOL     OW25975   2.727   0.707   4.764
 8359SOL    HW125976   2.805   0.696   4.704
 8359SOL    HW225977   2.752   0.764   4.842
 8360SOL     OW25978   4.791   6.586   0.802
 8360SOL    HW125979   4.783   6.626   0.711
 8360SOL    HW225980   4.886   6.591   0.833
 8361SOL     OW25981   2.113   0.114   6.504
 8361SOL    HW125982   2.062   0.158   6.578
 8361SOL    HW225983   2.192   0.066   6.542
 8362SOL     OW25984   6.897   2.862   0.402
 8362SOL    HW125985   6.885   2.959   0.419
 8362SOL    HW225986   6.808   2.821   0.379
 8363SOL     OW25987   4.158   2.207   0.539
 8363SOL    HW125988   4.068   2.231   0.576
 8363SOL    HW225989   4.224   2.278   0.563
 8364SOL     OW25990   0.194   2.708   3.622
 8364SOL    HW125991   0.204   2.792   3.675
 8364SOL    HW225992   0.202   2.629   3.683
 8365SOL     OW25993   1.713   2.475   1.957
 8365SOL    HW125994   1.651   2.397   1.956
 8365SOL    HW225995   1.734   2.502   1.863
 8366SOL     OW25996   4.259   5.858   0.996
 8366SOL    HW125997   4.220   5.907   0.918
 8366SOL    HW225998   4.275   5.763   0.971
 8367SOL     OW25999   2.971   5.184   4.661
 8367SOL    HW126000   3.009   5.096   4.687
 8367SOL    HW226001   2.872   5.183   4.677
 8368SOL     OW26002   0.618   6.277   6.955
 8368SOL    HW126003   0.596   6.346   7.024
 8368SOL    HW226004   0.625   6.187   7.000
 8369SOL     OW26005   1.149   1.561   0.903
 8369SOL    HW126006   1.055   1.557   0.938
 8369SOL    HW226007   1.146   1.570   0.803
 8370SOL     OW26008   2.918   2.100   6.782
 8370SOL    HW126009   2.874   2.103   6.693
 8370SOL    HW226010   2.891   2.180   6.835
 8371SOL     OW26011   1.661   3.185   5.518
 8371SOL    HW126012   1.733   3.147   5.462
 8371SOL    HW226013   1.666   3.146   5.610
 8372SOL     OW26014   2.528   6.508   2.014
 8372SOL    HW126015   2.595   6.573   2.049
 8372SOL    HW226016   2.437   6.549   2.013
 8373SOL     OW26017   0.847   1.931   4.601
 8373SOL    HW126018   0.809   2.022   4.617
 8373SOL    HW226019   0.782   1.877   4.548
 8374SOL     OW26020   1.402   0.685   3.831
 8374SOL    HW126021   1.407   0.598   3.879
 8374SOL    HW226022   1.356   0.753   3.890
 8375SOL     OW26023   4.505   1.018   6.015
 8375SOL    HW126024   4.419   1.062   5.992
 8375SOL    HW226025   4.540   1.057   6.101
 8376SOL     OW26026   1.399   0.920   3.481
 8376SOL    HW126027   1.415   0.939   3.384
 8376SOL    HW226028   1.450   0.985   3.537
 8377SOL     OW26029   5.266   5.453   0.190
 8377SOL    HW126030   5.178   5.427   0.151
 8377SOL    HW226031   5.255   5.471   0.288
 8378SOL     OW26032   5.387   5.263   3.171
 8378SOL    HW126033   5.320   5.337   3.177
 8378SOL    HW226034   5.456   5.285   3.102
 8379SOL     OW26035   4.873   1.866   1.632
 8379SOL    HW126036   4.794   1.870   1.693
 8379SOL    HW226037   4.950   1.915   1.673
 8380SOL     OW26038   6.951   6.668   7.022
 8380SOL    HW126039   7.000   6.728   6.959
 8380SOL    HW226040   7.016   6.629   0.057
 8381SOL     OW26041   0.263   2.428   2.711
 8381SOL    HW126042   0.203   2.349   2.722
 8381SOL    HW226043   0.352   2.408   2.752
 8382SOL     OW26044   2.557   0.466   0.057
 8382SOL    HW126045   2.614   0.486   7.008
 8382SOL    HW226046   2.594   0.388   0.107
 8383SOL     OW26047   2.558   0.380   4.963
 8383SOL    HW126048   2.546   0.478   4.948
 8383SOL    HW226049   2.639   0.365   5.021
 8384SOL     OW26050   6.610   1.695   1.358
 8384SOL    HW126051   6.672   1.773   1.347
 8384SOL    HW226052   6.550   1.711   1.436
 8385SOL     OW26053   4.457   3.454   1.087
 8385SOL    HW126054   4.550   3.440   1.053
 8385SOL    HW226055   4.425   3.371   1.132
 8386SOL     OW26056   1.932   6.352   1.214
 8386SOL    HW126057   1.990   6.417   1.166
 8386SOL    HW226058   1.836   6.382   1.207
 8387SOL     OW26059   2.242   1.737   1.666
 8387SOL    HW126060   2.194   1.800   1.726
 8387SOL    HW226061   2.187   1.719   1.584
 8388SOL     OW26062   1.706   6.954   0.268
 8388SOL    HW126063   1.730   0.009   0.314
 8388SOL    HW226064   1.713   6.878   0.332
 8389SOL     OW26065   1.651   3.292   4.164
 8389SOL    HW126066   1.745   3.283   4.130
 8389SOL    HW226067   1.652   3.308   4.263
 8390SOL     OW26068   2.826   0.594   6.274
 8390SOL    HW126069   2.872   0.649   6.343
 8390SOL    HW226070   2.777   0.654   6.210
 8391SOL     OW26071   5.119   5.668   1.449
 8391SOL    HW126072   5.163   5.735   1.390
 8391SOL    HW226073   5.179   5.588   1.459
 8392SOL     OW26074   6.289   6.050   5.063
 8392SOL    HW126075   6.295   6.048   5.163
 8392SOL    HW226076   6.198   6.079   5.036
 8393SOL     OW26077   0.223   0.117   3.676
 8393SOL    HW126078   0.139   0.114   3.622
 8393SOL    HW226079   0.275   0.033   3.662
 8394SOL     OW26080   0.773   1.447   2.586
 8394SOL    HW126081   0.867   1.475   2.567
 8394SOL    HW226082   0.733   1.404   2.505
 8395SOL     OW26083   0.490   6.319   4.431
 8395SOL    HW126084   0.443   6.309   4.518
 8395SOL    HW226085   0.584   6.349   4.446
 8396SOL     OW26086   4.064   4.838   2.715
 8396SOL    HW126087   4.103   4.820   2.625
 8396SOL    HW226088   3.967   4.861   2.705
 8397SOL     OW26089   2.533   0.077   2.490
 8397SOL    HW126090   2.449   0.024   2.480
 8397SOL    HW226091   2.577   0.054   2.577
 8398SOL     OW26092   4.124   1.688   0.222
 8398SOL    HW126093   4.190   1.657   0.290
 8398SOL    HW226094   4.170   1.701   0.134
 8399SOL     OW26095   5.913   5.900   0.813
 8399SOL    HW126096   5.995   5.849   0.838
 8399SOL    HW226097   5.874   5.862   0.729
 8400SOL     OW26098   0.365   0.118   2.912
 8400SOL    HW126099   0.327   0.045   2.968
 8400SOL    HW226100   0.376   0.085   2.818
 8401SOL     OW26101   4.459   3.163   5.842
 8401SOL    HW126102   4.383   3.228   5.836
 8401SOL    HW226103   4.490   3.157   5.937
 8402SOL     OW26104   3.463   1.938   5.585
 8402SOL    HW126105   3.507   1.861   5.539
 8402SOL    HW226106   3.363   1.928   5.577
 8403SOL     OW26107   0.764   1.286   3.207
 8403SOL    HW126108   0.845   1.293   3.266
 8403SOL    HW226109   0.705   1.212   3.240
 8404SOL     OW26110   5.778   6.558   6.491
 8404SOL    HW126111   5.727   6.480   6.455
 8404SOL    HW226112   5.736   6.643   6.461
 8405SOL     OW26113   1.948   2.259   0.131
 8405SOL    HW126114   1.986   2.351   0.141
 8405SOL    HW226115   1.869   2.262   0.070
 8406SOL     OW26116   4.539   1.443   0.783
 8406SOL    HW126117   4.518   1.541   0.783
 8406SOL    HW226118   4.456   1.391   0.763
 8407SOL     OW26119   5.992   4.721   4.458
 8407SOL    HW126120   6.036   4.793   4.510
 8407SOL    HW226121   5.924   4.761   4.396
 8408SOL     OW26122   5.440   0.331   3.909
 8408SOL    HW126123   5.406   0.327   3.815
 8408SOL    HW226124   5.363   0.342   3.972
 8409SOL     OW26125   0.616   2.040   3.679
 8409SOL    HW126126   0.550   1.972   3.648
 8409SOL    HW226127   0.603   2.125   3.629
 8410SOL     OW26128   4.483   1.034   1.279
 8410SOL    HW126129   4.428   1.084   1.213
 8410SOL    HW226130   4.437   1.033   1.368
 8411SOL     OW26131   1.342   5.240   3.559
 8411SOL    HW126132   1.392   5.158   3.531
 8411SOL    HW226133   1.265   5.254   3.497
 8412SOL     OW26134   4.682   1.952   0.966
 8412SOL    HW126135   4.778   1.947   0.993
 8412SOL    HW226136   4.676   1.988   0.873
 8413SOL     OW26137   4.015   5.361   0.719
 8413SOL    HW126138   4.038   5.270   0.755
 8413SOL    HW226139   3.917   5.366   0.702
 8414SOL     OW26140   3.729   0.522   2.483
 8414SOL    HW126141   3.699   0.596   2.423
 8414SOL    HW226142   3.824   0.537   2.510
 8415SOL     OW26143   0.149   5.132   3.910
 8415SOL    HW126144   0.163   5.178   3.823
 8415SOL    HW226145   0.138   5.034   3.895
 8416SOL     OW26146   5.211   3.991   2.754
 8416SOL    HW126147   5.185   4.063   2.690
 8416SOL    HW226148   5.273   3.927   2.709
 8417SOL     OW26149   2.269   6.142   5.291
 8417SOL    HW126150   2.183   6.093   5.304
 8417SOL    HW226151   2.258   6.211   5.220
 8418SOL     OW26152   5.384   5.451   1.754
 8418SOL    HW126153   5.290   5.479   1.730
 8418SOL    HW226154   5.426   5.406   1.675
 8419SOL     OW26155   4.728   1.067   2.228
 8419SOL    HW126156   4.700   1.097   2.319
 8419SOL    HW226157   4.686   0.979   2.207
 8420SOL     OW26158   4.060   6.803   0.724
 8420SOL    HW126159   4.017   6.731   0.779
 8420SOL    HW226160   4.092   6.876   0.785
 8421SOL     OW26161   2.683   6.452   0.901
 8421SOL    HW126162   2.598   6.494   0.931
 8421SOL    HW226163   2.761   6.496   0.945
 8422SOL     OW26164   5.678   6.194   1.066
 8422SOL    HW126165   5.709   6.127   1.134
 8422SOL    HW226166   5.730   6.181   0.981
 8423SOL     OW26167   3.798   4.840   6.671
 8423SOL    HW126168   3.888   4.798   6.665
 8423SOL    HW226169   3.730   4.779   6.632
 8424SOL     OW26170   3.179   2.181   2.571
 8424SOL    HW126171   3.111   2.214   2.637
 8424SOL    HW226172   3.241   2.117   2.616
 8425SOL     OW26173   6.940   5.486   0.824
 8425SOL    HW126174   6.954   5.444   0.914
 8425SOL    HW226175   6.901   5.419   0.762
 8426SOL     OW26176   3.939   3.121   3.609
 8426SOL    HW126177   3.997   3.195   3.644
 8426SOL    HW226178   3.959   3.106   3.512
 8427SOL     OW26179   1.738   3.918   5.740
 8427SOL    HW126180   1.769   3.864   5.819
 8427SOL    HW226181   1.653   3.878   5.705
 8428SOL     OW26182   6.829   4.402   1.979
 8428SOL    HW126183   6.812   4.444   2.068
 8428SOL    HW226184   6.747   4.354   1.948
 8429SOL     OW26185   2.121   4.714   4.780
 8429SOL    HW126186   2.179   4.688   4.703
 8429SOL    HW226187   2.178   4.731   4.860
 8430SOL     OW26188   4.415   5.226   3.058
 8430SOL    HW126189   4.464   5.217   2.972
 8430SOL    HW226190   4.480   5.239   3.133
 8431SOL     OW26191   2.388   5.179   1.481
 8431SOL    HW126192   2.437   5.094   1.497
 8431SOL    HW226193   2.360   5.218   1.569
 8432SOL     OW26194   3.929   5.178   5.744
 8432SOL    HW126195   3.946   5.131   5.831
 8432SOL    HW226196   3.831   5.196   5.735
 8433SOL     OW26197   0.777   2.971   6.962
 8433SOL    HW126198   0.702   3.025   7.001
 8433SOL    HW226199   0.795   2.892   7.021
 8434SOL     OW26200   3.292   6.972   5.322
 8434SOL    HW126201   3.379   7.006   5.359
 8434SOL    HW226202   3.228   0.017   5.312
 8435SOL     OW26203   5.116   1.664   1.498
 8435SOL    HW126204   5.076   1.574   1.514
 8435SOL    HW226205   5.044   1.733   1.495
 8436SOL     OW26206   3.966   6.358   3.644
 8436SOL    HW126207   4.002   6.437   3.695
 8436SOL    HW226208   3.894   6.315   3.698
 8437SOL     OW26209   1.009   0.485   1.791
 8437SOL    HW126210   1.015   0.550   1.868
 8437SOL    HW226211   1.101   0.469   1.754
 8438SOL     OW26212   2.979   4.836   2.365
 8438SOL    HW126213   3.053   4.845   2.432
 8438SOL    HW226214   2.916   4.913   2.374
 8439SOL     OW26215   6.751   5.940   1.466
 8439SOL    HW126216   6.790   5.848   1.455
 8439SOL    HW226217   6.764   5.971   1.560
 8440SOL     OW26218   6.694   0.958   2.737
 8440SOL    HW126219   6.662   1.044   2.776
 8440SOL    HW226220   6.769   0.921   2.791
 8441SOL     OW26221   5.825   6.158   0.820
 8441SOL    HW126222   5.854   6.064   0.806
 8441SOL    HW226223   5.775   6.190   0.739
 8442SOL     OW26224   4.012   3.276   6.924
 8442SOL    HW126225   3.914   3.287   6.938
 8442SOL    HW226226   4.033   3.284   6.827
 8443SOL     OW26227   1.094   7.010   2.782
 8443SOL    HW126228   1.125   7.000   2.687
 8443SOL    HW226229   1.125   6.932   2.836
 8444SOL     OW26230   3.167   6.197   3.278
 8444SOL    HW126231   3.249   6.245   3.249
 8444SOL    HW226232   3.101   6.262   3.316
 8445SOL     OW26233   2.864   5.148   2.344
 8445SOL    HW126234   2.954   5.177   2.375
 8445SOL    HW226235   2.858   5.156   2.245
 8446SOL     OW26236   4.700   5.607   1.803
 8446SOL    HW126237   4.685   5.696   1.760
 8446SOL    HW226238   4.728   5.541   1.733
 8447SOL     OW26239   5.873   2.174   2.681
 8447SOL    HW126240   5.867   2.149   2.584
 8447SOL    HW226241   5.793   2.227   2.707
 8448SOL     OW26242   0.190   4.279   5.610
 8448SOL    HW126243   0.160   4.358   5.558
 8448SOL    HW226244   0.273   4.241   5.569
 8449SOL     OW26245   6.976   3.256   4.029
 8449SOL    HW126246   7.029   3.271   4.112
 8449SOL    HW226247   7.019   3.182   3.976
 8450SOL     OW26248   1.959   5.643   2.413
 8450SOL    HW126249   2.017   5.668   2.490
 8450SOL    HW226250   1.870   5.611   2.447
 8451SOL     OW26251   4.096   2.651   1.013
 8451SOL    HW126252   4.112   2.749   1.008
 8451SOL    HW226253   4.167   2.603   0.962
 8452SOL     OW26254   0.098   0.009   1.160
 8452SOL    HW126255   0.096   0.089   1.220
 8452SOL    HW226256   0.172   6.978   1.189
 8453SOL     OW26257   6.781   5.055   6.066
 8453SOL    HW126258   6.854   5.003   6.021
 8453SOL    HW226259   6.778   5.030   6.163
 8454SOL     OW26260   1.532   5.920   2.129
 8454SOL    HW126261   1.470   5.888   2.200
 8454SOL    HW226262   1.528   5.859   2.050
 8455SOL     OW26263   5.141   1.715   1.083
 8455SOL    HW126264   5.080   1.642   1.114
 8455SOL    HW226265   5.175   1.765   1.163
 8456SOL     OW26266   6.058   5.642   3.425
 8456SOL    HW126267   5.971   5.661   3.470
 8456SOL    HW226268   6.053   5.554   3.378
 8457SOL     OW26269   6.932   6.641   5.600
 8457SOL    HW126270   6.963   6.646   5.505
 8457SOL    HW226271   6.908   6.732   5.633
 8458SOL     OW26272   1.945   1.145   6.647
 8458SOL    HW126273   1.876   1.135   6.720
 8458SOL    HW226274   1.906   1.114   6.560
 8459SOL     OW26275   3.560   6.651   1.700
 8459SOL    HW126276   3.548   6.593   1.620
 8459SOL    HW226277   3.510   6.613   1.778
 8460SOL     OW26278   4.053   2.887   6.322
 8460SOL    HW126279   4.076   2.792   6.304
 8460SOL    HW226280   3.961   2.893   6.361
 8461SOL     OW26281   0.620   3.061   1.260
 8461SOL    HW126282   0.684   3.064   1.338
 8461SOL    HW226283   0.544   3.124   1.277
 8462SOL     OW26284   3.748   2.738   6.697
 8462SOL    HW126285   3.785   2.790   6.620
 8462SOL    HW226286   3.680   2.793   6.745
 8463SOL     OW26287   7.011   1.878   0.022
 8463SOL    HW126288   0.024   1.953   0.071
 8463SOL    HW226289   0.022   1.869   6.962
 8464SOL     OW26290   6.968   4.236   5.197
 8464SOL    HW126291   0.023   4.261   5.244
 8464SOL    HW226292   6.966   4.138   5.181
 8465SOL     OW26293   2.692   2.219   1.030
 8465SOL    HW126294   2.634   2.300   1.037
 8465SOL    HW226295   2.638   2.137   1.047
 8466SOL     OW26296   6.654   0.122   5.475
 8466SOL    HW126297   6.709   0.159   5.549
 8466SOL    HW226298   6.651   0.187   5.399
 8467SOL     OW26299   3.978   0.989   0.901
 8467SOL    HW126300   4.037   1.020   0.976
 8467SOL    HW226301   3.903   1.054   0.890
 8468SOL     OW26302   6.299   3.219   6.626
 8468SOL    HW126303   6.371   3.215   6.695
 8468SOL    HW226304   6.297   3.309   6.583
 8469SOL     OW26305   2.878   3.094   5.761
 8469SOL    HW126306   2.781   3.099   5.736
 8469SOL    HW226307   2.929   3.163   5.710
 8470SOL     OW26308   0.879   4.810   0.373
 8470SOL    HW126309   0.880   4.909   0.357
 8470SOL    HW226310   0.811   4.788   0.443
 8471SOL     OW26311   3.349   0.431   5.538
 8471SOL    HW126312   3.349   0.339   5.578
 8471SOL    HW226313   3.435   0.478   5.560
 8472SOL     OW26314   5.557   1.803   5.480
 8472SOL    HW126315   5.494   1.796   5.558
 8472SOL    HW226316   5.519   1.754   5.402
 8473SOL     OW26317   4.550   4.884   0.582
 8473SOL    HW126318   4.572   4.973   0.622
 8473SOL    HW226319   4.463   4.890   0.532
 8474SOL     OW26320   3.087   3.817   2.406
 8474SOL    HW126321   3.076   3.867   2.319
 8474SOL    HW226322   3.029   3.736   2.405
 8475SOL     OW26323   6.929   3.014   2.045
 8475SOL    HW126324   6.974   2.925   2.033
 8475SOL    HW226325   6.925   3.061   1.957
 8476SOL     OW26326   0.053   0.896   1.764
 8476SOL    HW126327   7.016   0.843   1.712
 8476SOL    HW226328   0.145   0.874   1.731
 8477SOL     OW26329   4.842   6.230   2.107
 8477SOL    HW126330   4.756   6.220   2.056
 8477SOL    HW226331   4.829   6.299   2.179
 8478SOL     OW26332   1.127   1.482   5.813
 8478SOL    HW126333   1.072   1.435   5.744
 8478SOL    HW226334   1.077   1.561   5.848
 8479SOL     OW26335   1.092   2.835   1.738
 8479SOL    HW126336   1.047   2.765   1.682
 8479SOL    HW226337   1.162   2.881   1.684
 8480SOL     OW26338   4.929   2.879   6.993
 8480SOL    HW126339   4.908   2.786   7.026
 8480SOL    HW226340   4.883   2.946   0.021
 8481SOL     OW26341   4.157   2.114   5.238
 8481SOL    HW126342   4.126   2.076   5.151
 8481SOL    HW226343   4.235   2.061   5.271
 8482SOL     OW26344   4.254   0.180   1.275
 8482SOL    HW126345   4.257   0.201   1.373
 8482SOL    HW226346   4.216   0.088   1.262
 8483SOL     OW26347   2.235   5.581   3.141
 8483SOL    HW126348   2.188   5.495   3.123
 8483SOL    HW226349   2.284   5.610   3.059
 8484SOL     OW26350   7.018   5.871   4.765
 8484SOL    HW126351   6.937   5.847   4.820
 8484SOL    HW226352   0.024   5.788   4.723
 8485SOL     OW26353   3.904   2.326   0.586
 8485SOL    HW126354   3.935   2.380   0.508
 8485SOL    HW226355   3.882   2.387   0.662
 8486SOL     OW26356   1.512   1.055   2.987
 8486SOL    HW126357   1.429   1.102   2.957
 8486SOL    HW226358   1.537   0.985   2.921
 8487SOL     OW26359   5.365   2.038   6.033
 8487SOL    HW126360   5.347   2.120   5.979
 8487SOL    HW226361   5.458   2.005   6.013
 8488SOL     OW26362   5.574   5.524   3.097
 8488SOL    HW126363   5.522   5.519   3.012
 8488SOL    HW226364   5.517   5.494   3.173
 8489SOL     OW26365   0.019   0.475   1.260
 8489SOL    HW126366   0.047   0.547   1.196
 8489SOL    HW226367   0.090   0.463   1.329
 8490SOL     OW26368   3.336   6.679   5.672
 8490SOL    HW126369   3.429   6.645   5.686
 8490SOL    HW226370   3.306   6.658   5.580
 8491SOL     OW26371   2.140   6.049   2.549
 8491SOL    HW126372   2.106   6.088   2.635
 8491SOL    HW226373   2.089   6.087   2.472
 8492SOL     OW26374   6.121   5.034   4.034
 8492SOL    HW126375   6.124   4.961   4.102
 8492SOL    HW226376   6.180   5.109   4.062
 8493SOL     OW26377   2.489   1.303   0.061
 8493SOL    HW126378   2.445   1.392   0.072
 8493SOL    HW226379   2.448   1.255   7.013
 8494SOL     OW26380   4.733   5.171   2.344
 8494SOL    HW126381   4.700   5.230   2.270
 8494SOL    HW226382   4.745   5.078   2.310
 8495SOL     OW26383   0.185   5.410   0.746
 8495SOL    HW126384   0.104   5.443   0.697
 8495SOL    HW226385   0.212   5.479   0.814
 8496SOL     OW26386   5.511   1.373   2.171
 8496SOL    HW126387   5.460   1.331   2.096
 8496SOL    HW226388   5.600   1.406   2.136
 8497SOL     OW26389   0.803   0.234   3.393
 8497SOL    HW126390   0.711   0.235   3.353
 8497SOL    HW226391   0.809   0.162   3.462
 8498SOL     OW26392   5.677   6.446   3.259
 8498SOL    HW126393   5.656   6.353   3.290
 8498SOL    HW226394   5.776   6.459   3.258
 8499SOL     OW26395   0.655   4.599   7.028
 8499SOL    HW126396   0.703   4.527   6.977
 8499SOL    HW226397   0.583   4.638   6.971
 8500SOL     OW26398   1.715   6.554   5.988
 8500SOL    HW126399   1.813   6.572   5.996
 8500SOL    HW226400   1.676   6.537   6.078
 8501SOL     OW26401   0.755   2.578   6.844
 8501SOL    HW126402   0.724   2.483   6.838
 8501SOL    HW226403   0.743   2.622   6.755
 8502SOL     OW26404   0.841   2.903   0.762
 8502SOL    HW126405   0.915   2.913   0.828
 8502SOL    HW226406   0.757   2.941   0.800
 8503SOL     OW26407   6.303   6.018   5.322
 8503SOL    HW126408   6.374   5.952   5.298
 8503SOL    HW226409   6.243   5.978   5.391
 8504SOL     OW26410   1.625   5.167   2.070
 8504SOL    HW126411   1.560   5.139   1.999
 8504SOL    HW226412   1.629   5.266   2.075
 8505SOL     OW26413   5.426   3.354   2.777
 8505SOL    HW126414   5.359   3.381   2.708
 8505SOL    HW226415   5.486   3.431   2.797
 8506SOL     OW26416   0.951   0.753   0.045
 8506SOL    HW126417   0.921   0.782   0.136
 8506SOL    HW226418   0.978   0.833   7.022
 8507SOL     OW26419   3.941   0.066   4.517
 8507SOL    HW126420   3.904   7.028   4.580
 8507SOL    HW226421   3.998   0.020   4.449
 8508SOL     OW26422   4.106   1.613   5.729
 8508SOL    HW126423   4.041   1.555   5.679
 8508SOL    HW226424   4.158   1.669   5.664
 8509SOL     OW26425   5.666   6.652   3.807
 8509SOL    HW126426   5.671   6.575   3.744
 8509SOL    HW226427   5.658   6.618   3.901
 8510SOL     OW26428   5.638   3.572   3.454
 8510SOL    HW126429   5.681   3.627   3.525
 8510SOL    HW226430   5.707   3.544   3.387
 8511SOL     OW26431   0.204   2.965   2.178
 8511SOL    HW126432   0.204   3.056   2.217
 8511SOL    HW226433   0.229   2.898   2.248
 8512SOL     OW26434   2.338   0.282   2.601
 8512SOL    HW126435   2.254   0.245   2.562
 8512SOL    HW226436   2.412   0.216   2.589
 8513SOL     OW26437   7.017   5.742   0.922
 8513SOL    HW126438   6.935   5.769   0.971
 8513SOL    HW226439   7.007   5.650   0.886
 8514SOL     OW26440   3.369   0.051   3.083
 8514SOL    HW126441   3.374   0.042   2.984
 8514SOL    HW226442   3.371   6.991   3.125
 8515SOL     OW26443   4.689   2.308   0.871
 8515SOL    HW126444   4.596   2.274   0.858
 8515SOL    HW226445   4.687   2.391   0.927
 8516SOL     OW26446   6.791   2.076   2.354
 8516SOL    HW126447   6.707   2.131   2.353
 8516SOL    HW226448   6.769   1.982   2.330
 8517SOL     OW26449   1.033   2.700   6.111
 8517SOL    HW126450   1.125   2.734   6.092
 8517SOL    HW226451   1.007   2.632   6.042
 8518SOL     OW26452   4.041   4.674   0.493
 8518SOL    HW126453   4.083   4.583   0.494
 8518SOL    HW226454   3.988   4.684   0.409
 8519SOL     OW26455   1.945   5.828   2.184
 8519SOL    HW126456   1.978   5.803   2.275
 8519SOL    HW226457   1.875   5.898   2.192
 8520SOL     OW26458   4.149   1.209   0.405
 8520SOL    HW126459   4.097   1.231   0.323
 8520SOL    HW226460   4.151   1.110   0.419
 8521SOL     OW26461   1.292   6.322   5.525
 8521SOL    HW126462   1.284   6.421   5.516
 8521SOL    HW226463   1.346   6.300   5.606
 8522SOL     OW26464   1.728   5.412   2.393
 8522SOL    HW126465   1.806   5.386   2.337
 8522SOL    HW226466   1.683   5.492   2.352
 8523SOL     OW26467   2.156   0.320   5.812
 8523SOL    HW126468   2.237   0.267   5.837
 8523SOL    HW226469   2.147   0.323   5.712
 8524SOL     OW26470   1.349   2.953   4.566
 8524SOL    HW126471   1.283   3.016   4.524
 8524SOL    HW226472   1.374   2.882   4.500
 8525SOL     OW26473   6.238   3.892   2.875
 8525SOL    HW126474   6.211   3.893   2.971
 8525SOL    HW226475   6.283   3.805   2.853
 8526SOL     OW26476   2.855   3.668   1.778
 8526SOL    HW126477   2.808   3.581   1.762
 8526SOL    HW226478   2.913   3.660   1.859
 8527SOL     OW26479   3.934   0.691   4.344
 8527SOL    HW126480   3.922   0.641   4.430
 8527SOL    HW226481   4.027   0.727   4.339
 8528SOL     OW26482   4.915   3.883   6.202
 8528SOL    HW126483   4.829   3.833   6.208
 8528SOL    HW226484   4.987   3.831   6.248
 8529SOL     OW26485   1.140   6.220   0.271
 8529SOL    HW126486   1.098   6.153   0.209
 8529SOL    HW226487   1.231   6.188   0.297
 8530SOL     OW26488   1.251   5.101   5.250
 8530SOL    HW126489   1.301   5.015   5.258
 8530SOL    HW226490   1.281   5.164   5.321
 8531SOL     OW26491   5.535   4.537   2.900
 8531SOL    HW126492   5.594   4.460   2.878
 8531SOL    HW226493   5.458   4.505   2.954
 8532SOL     OW26494   4.262   4.802   4.906
 8532SOL    HW126495   4.342   4.859   4.885
 8532SOL    HW226496   4.292   4.710   4.929
 8533SOL     OW26497   2.345   1.291   5.495
 8533SOL    HW126498   2.353   1.201   5.537
 8533SOL    HW226499   2.380   1.288   5.401
 8534SOL     OW26500   0.561   4.831   2.581
 8534SOL    HW126501   0.610   4.803   2.663
 8534SOL    HW226502   0.603   4.791   2.500
 8535SOL     OW26503   0.706   2.132   4.733
 8535SOL    HW126504   0.610   2.154   4.716
 8535SOL    HW226505   0.725   2.139   4.830
 8536SOL     OW26506   6.498   2.453   5.015
 8536SOL    HW126507   6.507   2.370   5.070
 8536SOL    HW226508   6.514   2.432   4.918
 8537SOL     OW26509   6.048   1.487   0.560
 8537SOL    HW126510   6.146   1.493   0.543
 8537SOL    HW226511   6.013   1.402   0.521
 8538SOL     OW26512   0.192   0.744   5.050
 8538SOL    HW126513   0.236   0.805   5.116
 8538SOL    HW226514   0.107   0.784   5.019
 8539SOL     OW26515   6.579   2.278   2.897
 8539SOL    HW126516   6.526   2.311   2.819
 8539SOL    HW226517   6.520   2.223   2.957
 8540SOL     OW26518   3.282   1.443   0.982
 8540SOL    HW126519   3.235   1.359   0.956
 8540SOL    HW226520   3.298   1.444   1.081
 8541SOL     OW26521   2.993   1.702   5.294
 8541SOL    HW126522   3.063   1.774   5.290
 8541SOL    HW226523   2.924   1.720   5.223
 8542SOL     OW26524   2.966   4.207   6.462
 8542SOL    HW126525   2.975   4.220   6.363
 8542SOL    HW226526   3.056   4.201   6.503
 8543SOL     OW26527   2.536   2.081   5.677
 8543SOL    HW126528   2.523   2.042   5.768
 8543SOL    HW226529   2.446   2.098   5.635
 8544SOL     OW26530   5.181   3.600   5.195
 8544SOL    HW126531   5.234   3.532   5.246
 8544SOL    HW226532   5.164   3.566   5.103
 8545SOL     OW26533   3.339   6.779   4.744
 8545SOL    HW126534   3.302   6.845   4.679
 8545SOL    HW226535   3.271   6.709   4.763
 8546SOL     OW26536   5.454   0.434   1.034
 8546SOL    HW126537   5.357   0.410   1.029
 8546SOL    HW226538   5.464   0.525   1.075
 8547SOL     OW26539   6.965   7.007   5.151
 8547SOL    HW126540   0.011   7.001   5.087
 8547SOL    HW226541   6.984   0.047   5.219
 8548SOL     OW26542   0.090   3.174   5.445
 8548SOL    HW126543   0.111   3.269   5.423
 8548SOL    HW226544   0.075   3.122   5.361
 8549SOL     OW26545   1.276   2.176   3.785
 8549SOL    HW126546   1.276   2.240   3.708
 8549SOL    HW226547   1.365   2.131   3.791
 8550SOL     OW26548   0.612   4.389   6.394
 8550SOL    HW126549   0.708   4.391   6.424
 8550SOL    HW226550   0.609   4.380   6.295
 8551SOL     OW26551   2.080   2.432   6.541
 8551SOL    HW126552   2.054   2.477   6.455
 8551SOL    HW226553   2.138   2.494   6.594
 8552SOL     OW26554   3.161   0.634   1.680
 8552SOL    HW126555   3.148   0.655   1.776
 8552SOL    HW226556   3.258   0.627   1.660
 8553SOL     OW26557   3.654   3.541   0.737
 8553SOL    HW126558   3.656   3.442   0.750
 8553SOL    HW226559   3.725   3.567   0.672
 8554SOL     OW26560   0.893   0.005   1.321
 8554SOL    HW126561   0.983   0.003   1.277
 8554SOL    HW226562   0.823   7.018   1.252
 8555SOL     OW26563   4.158   1.391   3.645
 8555SOL    HW126564   4.157   1.346   3.556
 8555SOL    HW226565   4.135   1.488   3.633
 8556SOL     OW26566   1.599   6.435   6.234
 8556SOL    HW126567   1.612   6.355   6.175
 8556SOL    HW226568   1.508   6.431   6.275
 8557SOL     OW26569   6.648   0.867   0.714
 8557SOL    HW126570   6.706   0.927   0.769
 8557SOL    HW226571   6.554   0.903   0.713
 8558SOL     OW26572   2.180   4.393   3.480
 8558SOL    HW126573   2.090   4.394   3.523
 8558SOL    HW226574   2.170   4.408   3.382
 8559SOL     OW26575   0.468   6.436   2.697
 8559SOL    HW126576   0.563   6.466   2.684
 8559SOL    HW226577   0.466   6.338   2.716
 8560SOL     OW26578   1.674   5.330   1.406
 8560SOL    HW126579   1.773   5.325   1.408
 8560SOL    HW226580   1.646   5.410   1.352
 8561SOL     OW26581   4.194   0.604   2.900
 8561SOL    HW126582   4.182   0.612   2.999
 8561SOL    HW226583   4.149   0.680   2.855
 8562SOL     OW26584   4.003   1.221   0.155
 8562SOL    HW126585   4.027   1.292   0.089
 8562SOL    HW226586   3.928   1.166   0.119
 8563SOL     OW26587   1.342   5.982   2.546
 8563SOL    HW126588   1.291   6.068   2.534
 8563SOL    HW226589   1.351   5.963   2.644
 8564SOL     OW26590   3.822   6.073   6.340
 8564SOL    HW126591   3.749   6.022   6.295
 8564SOL    HW226592   3.798   6.088   6.436
 8565SOL     OW26593   3.623   5.378   1.685
 8565SOL    HW126594   3.675   5.354   1.766
 8565SOL    HW226595   3.525   5.365   1.703
 8566SOL     OW26596   2.668   0.865   2.634
 8566SOL    HW126597   2.763   0.880   2.662
 8566SOL    HW226598   2.664   0.860   2.534
 8567SOL     OW26599   1.629   1.765   1.776
 8567SOL    HW126600   1.614   1.681   1.828
 8567SOL    HW226601   1.599   1.751   1.681
 8568SOL     OW26602   6.934   1.500   0.569
 8568SOL    HW126603   6.937   1.400   0.561
 8568SOL    HW226604   6.865   1.537   0.508
 8569SOL     OW26605   5.083   2.122   5.879
 8569SOL    HW126606   5.150   2.048   5.869
 8569SOL    HW226607   5.091   2.183   5.800
 8570SOL     OW26608   1.581   1.656   4.643
 8570SOL    HW126609   1.503   1.694   4.594
 8570SOL    HW226610   1.649   1.728   4.658
 8571SOL     OW26611   1.546   1.495   4.857
 8571SOL    HW126612   1.575   1.550   4.778
 8571SOL    HW226613   1.525   1.402   4.827
 8572SOL     OW26614   2.676   4.164   5.590
 8572SOL    HW126615   2.730   4.247   5.575
 8572SOL    HW226616   2.653   4.123   5.501
 8573SOL     OW26617   2.796   6.019   6.894
 8573SOL    HW126618   2.744   5.936   6.912
 8573SOL    HW226619   2.734   6.091   6.863
 8574SOL     OW26620   6.608   6.802   6.284
 8574SOL    HW126621   6.610   6.862   6.364
 8574SOL    HW226622   6.580   6.854   6.203
 8575SOL     OW26623   3.431   0.986   2.330
 8575SOL    HW126624   3.367   1.063   2.328
 8575SOL    HW226625   3.474   0.977   2.240
 8576SOL     OW26626   1.136   4.201   4.392
 8576SOL    HW126627   1.188   4.153   4.462
 8576SOL    HW226628   1.194   4.218   4.312
 8577SOL     OW26629   1.794   1.093   6.146
 8577SOL    HW126630   1.727   1.161   6.177
 8577SOL    HW226631   1.748   1.006   6.131
 8578SOL     OW26632   6.464   6.273   5.584
 8578SOL    HW126633   6.376   6.247   5.543
 8578SOL    HW226634   6.449   6.332   5.662
 8579SOL     OW26635   2.266   6.360   2.615
 8579SOL    HW126636   2.340   6.296   2.638
 8579SOL    HW226637   2.240   6.349   2.519
 8580SOL     OW26638   0.899   6.255   1.103
 8580SOL    HW126639   0.868   6.189   1.171
 8580SOL    HW226640   0.997   6.244   1.087
 8581SOL     OW26641   4.026   5.291   1.723
 8581SOL    HW126642   4.079   5.376   1.724
 8581SOL    HW226643   4.037   5.246   1.634
 8582SOL     OW26644   4.431   4.714   5.780
 8582SOL    HW126645   4.422   4.747   5.874
 8582SOL    HW226646   4.416   4.790   5.717
 8583SOL     OW26647   4.212   0.336   3.176
 8583SOL    HW126648   4.194   0.433   3.160
 8583SOL    HW226649   4.306   0.325   3.209
 8584SOL     OW26650   6.967   0.977   4.449
 8584SOL    HW126651   6.921   1.039   4.512
 8584SOL    HW226652   0.036   0.984   4.462
 8585SOL     OW26653   5.873   2.123   1.019
 8585SOL    HW126654   5.808   2.073   0.962
 8585SOL    HW226655   5.870   2.088   1.112
 8586SOL     OW26656   5.291   6.509   1.306
 8586SOL    HW126657   5.339   6.515   1.394
 8586SOL    HW226658   5.357   6.497   1.232
 8587SOL     OW26659   1.182   2.011   4.678
 8587SOL    HW126660   1.127   1.928   4.670
 8587SOL    HW226661   1.122   2.088   4.701
 8588SOL     OW26662   4.293   1.124   0.033
 8588SOL    HW126663   4.204   1.144   0.073
 8588SOL    HW226664   4.338   1.052   0.086
 8589SOL     OW26665   6.819   2.899   4.825
 8589SOL    HW126666   6.847   2.834   4.754
 8589SOL    HW226667   6.872   2.882   4.908
 8590SOL     OW26668   0.087   6.984   3.089
 8590SOL    HW126669   0.120   6.917   3.156
 8590SOL    HW226670   0.085   0.045   3.131
 8591SOL     OW26671   6.334   4.444   0.276
 8591SOL    HW126672   6.416   4.443   0.333
 8591SOL    HW226673   6.256   4.412   0.330
 8592SOL     OW26674   0.364   2.479   0.412
 8592SOL    HW126675   0.264   2.469   0.413
 8592SOL    HW226676   0.397   2.475   0.318
 8593SOL     OW26677   2.708   0.741   6.671
 8593SOL    HW126678   2.741   0.836   6.665
 8593SOL    HW226679   2.674   0.712   6.582
 8594SOL     OW26680   6.201   2.732   5.793
 8594SOL    HW126681   6.293   2.764   5.813
 8594SOL    HW226682   6.188   2.641   5.832
 8595SOL     OW26683   5.419   0.349   3.633
 8595SOL    HW126684   5.432   0.443   3.601
 8595SOL    HW226685   5.488   0.290   3.591
 8596SOL     OW26686   1.187   3.829   3.346
 8596SOL    HW126687   1.183   3.752   3.410
 8596SOL    HW226688   1.181   3.915   3.397
 8597SOL     OW26689   6.265   2.731   0.551
 8597SOL    HW126690   6.286   2.654   0.492
 8597SOL    HW226691   6.349   2.764   0.595
 8598SOL     OW26692   5.789   0.440   5.197
 8598SOL    HW126693   5.873   0.433   5.143
 8598SOL    HW226694   5.775   0.534   5.226
 8599SOL     OW26695   1.627   2.882   3.757
 8599SOL    HW126696   1.703   2.834   3.801
 8599SOL    HW226697   1.642   2.885   3.658
 8600SOL     OW26698   5.049   3.762   1.272
 8600SOL    HW126699   4.980   3.690   1.257
 8600SOL    HW226700   5.012   3.830   1.334
 8601SOL     OW26701   6.986   1.055   3.693
 8601SOL    HW126702   0.051   1.082   3.704
 8601SOL    HW226703   6.944   1.042   3.783
 8602SOL     OW26704   2.464   6.891   3.265
 8602SOL    HW126705   2.535   6.955   3.294
 8602SOL    HW226706   2.506   6.804   3.238
 8603SOL     OW26707   5.937   1.119   6.275
 8603SOL    HW126708   5.923   1.187   6.348
 8603SOL    HW226709   5.950   1.167   6.188
 8604SOL     OW26710   0.704   2.879   6.251
 8604SOL    HW126711   0.740   2.893   6.159
 8604SOL    HW226712   0.666   2.787   6.258
 8605SOL     OW26713   1.243   4.593   4.311
 8605SOL    HW126714   1.176   4.555   4.375
 8605SOL    HW226715   1.333   4.553   4.330
 8606SOL     OW26716   3.295   2.277   0.029
 8606SOL    HW126717   3.232   2.199   0.029
 8606SOL    HW226718   3.282   2.330   6.975
 8607SOL     OW26719   2.182   4.848   0.248
 8607SOL    HW126720   2.182   4.938   0.204
 8607SOL    HW226721   2.247   4.788   0.202
 8608SOL     OW26722   2.144   4.789   2.674
 8608SOL    HW126723   2.070   4.725   2.652
 8608SOL    HW226724   2.118   4.844   2.753
 8609SOL     OW26725   4.856   0.639   3.873
 8609SOL    HW126726   4.885   0.731   3.898
 8609SOL    HW226727   4.758   0.630   3.890
 8610SOL     OW26728   6.929   6.638   3.037
 8610SOL    HW126729   6.969   6.691   2.963
 8610SOL    HW226730   6.985   6.558   3.055
 8611SOL     OW26731   2.818   0.983   4.392
 8611SOL    HW126732   2.877   0.932   4.454
 8611SOL    HW226733   2.837   1.080   4.400
 8612SOL     OW26734   2.913   3.398   2.274
 8612SOL    HW126735   2.921   3.299   2.258
 8612SOL    HW226736   2.909   3.445   2.187
 8613SOL     OW26737   2.414   2.649   1.964
 8613SOL    HW126738   2.374   2.713   1.899
 8613SOL    HW226739   2.509   2.629   1.938
 8614SOL     OW26740   1.167   2.659   2.951
 8614SOL    HW126741   1.137   2.570   2.917
 8614SOL    HW226742   1.154   2.727   2.879
 8615SOL     OW26743   4.508   1.684   5.215
 8615SOL    HW126744   4.472   1.746   5.145
 8615SOL    HW226745   4.557   1.737   5.284
 8616SOL     OW26746   2.517   4.578   2.181
 8616SOL    HW126747   2.512   4.561   2.083
 8616SOL    HW226748   2.597   4.635   2.201
 8617SOL     OW26749   5.793   0.536   4.060
 8617SOL    HW126750   5.837   0.472   3.997
 8617SOL    HW226751   5.745   0.606   4.008
 8618SOL     OW26752   6.557   4.091   0.605
 8618SOL    HW126753   6.656   4.101   0.610
 8618SOL    HW226754   6.523   4.047   0.688
 8619SOL     OW26755   4.447   4.889   2.939
 8619SOL    HW126756   4.378   4.917   3.005
 8619SOL    HW226757   4.531   4.862   2.987
 8620SOL     OW26758   1.795   0.190   4.317
 8620SOL    HW126759   1.800   0.182   4.218
 8620SOL    HW226760   1.701   0.212   4.343
 8621SOL     OW26761   4.761   2.763   2.119
 8621SOL    HW126762   4.722   2.752   2.211
 8621SOL    HW226763   4.735   2.852   2.082
 8622SOL     OW26764   6.105   5.276   1.899
 8622SOL    HW126765   6.120   5.186   1.940
 8622SOL    HW226766   6.187   5.332   1.912
 8623SOL     OW26767   6.891   3.307   4.982
 8623SOL    HW126768   6.896   3.329   4.884
 8623SOL    HW226769   6.980   3.323   5.024
 8624SOL     OW26770   3.376   3.926   6.259
 8624SOL    HW126771   3.322   3.850   6.220
 8624SOL    HW226772   3.456   3.942   6.202
 8625SOL     OW26773   4.799   1.141   6.008
 8625SOL    HW126774   4.769   1.091   5.926
 8625SOL    HW226775   4.740   1.117   6.085
 8626SOL     OW26776   3.925   2.924   0.404
 8626SOL    HW126777   3.890   3.005   0.450
 8626SOL    HW226778   3.956   2.949   0.312
 8627SOL     OW26779   2.249   1.884   2.574
 8627SOL    HW126780   2.213   1.881   2.667
 8627SOL    HW226781   2.198   1.820   2.517
 8628SOL     OW26782   6.719   6.827   0.413
 8628SOL    HW126783   6.756   6.799   0.325
 8628SOL    HW226784   6.634   6.879   0.399
 8629SOL     OW26785   1.026   6.894   4.620
 8629SOL    HW126786   1.094   6.885   4.693
 8629SOL    HW226787   0.979   6.806   4.609
 8630SOL     OW26788   4.891   3.665   3.549
 8630SOL    HW126789   4.875   3.582   3.604
 8630SOL    HW226790   4.895   3.744   3.610
 8631SOL     OW26791   1.998   6.527   6.060
 8631SOL    HW126792   2.016   6.481   6.147
 8631SOL    HW226793   2.056   6.488   5.989
 8632SOL     OW26794   4.132   4.433   5.364
 8632SOL    HW126795   4.121   4.488   5.447
 8632SOL    HW226796   4.208   4.470   5.310
 8633SOL     OW26797   5.873   3.581   5.965
 8633SOL    HW126798   5.775   3.565   5.970
 8633SOL    HW226799   5.922   3.505   6.009
 8634SOL     OW26800   5.099   4.684   0.003
 8634SOL    HW126801   5.165   4.760   0.003
 8634SOL    HW226802   5.087   4.651   6.940
 8635SOL     OW26803   6.265   2.506   0.109
 8635SOL    HW126804   6.174   2.470   0.133
 8635SOL    HW226805   6.278   2.499   0.010
 8636SOL     OW26806   4.057   5.609   0.783
 8636SOL    HW126807   4.024   5.515   0.775
 8636SOL    HW226808   4.021   5.649   0.867
 8637SOL     OW26809   2.184   1.447   6.111
 8637SOL    HW126810   2.279   1.478   6.102
 8637SOL    HW226811   2.168   1.417   6.205
 8638SOL     OW26812   3.960   2.769   5.330
 8638SOL    HW126813   3.997   2.686   5.287
 8638SOL    HW226814   3.942   2.751   5.426
 8639SOL     OW26815   4.851   3.582   6.771
 8639SOL    HW126816   4.837   3.681   6.774
 8639SOL    HW226817   4.915   3.556   6.843
 8640SOL     OW26818   4.305   3.261   1.195
 8640SOL    HW126819   4.217   3.269   1.148
 8640SOL    HW226820   4.314   3.168   1.232
 8641SOL     OW26821   4.182   5.133   3.758
 8641SOL    HW126822   4.166   5.172   3.668
 8641SOL    HW226823   4.112   5.164   3.822
 8642SOL     OW26824   0.092   6.967   3.390
 8642SOL    HW126825   0.099   0.026   3.345
 8642SOL    HW226826   0.049   6.977   3.479
 8643SOL     OW26827   1.759   0.162   0.384
 8643SOL    HW126828   1.794   0.178   0.476
 8643SOL    HW226829   1.812   0.215   0.318
 8644SOL     OW26830   6.516   2.274   6.634
 8644SOL    HW126831   6.435   2.219   6.656
 8644SOL    HW226832   6.574   2.282   6.715
 8645SOL     OW26833   4.711   5.320   1.539
 8645SOL    HW126834   4.704   5.378   1.458
 8645SOL    HW226835   4.683   5.227   1.516
 8646SOL     OW26836   0.680   1.711   6.701
 8646SOL    HW126837   0.779   1.707   6.715
 8646SOL    HW226838   0.635   1.728   6.789
 8647SOL     OW26839   2.800   5.354   0.908
 8647SOL    HW126840   2.857   5.349   0.990
 8647SOL    HW226841   2.753   5.266   0.895
 8648SOL     OW26842   5.748   6.520   0.856
 8648SOL    HW126843   5.825   6.494   0.797
 8648SOL    HW226844   5.771   6.497   0.951
 8649SOL     OW26845   4.656   6.390   6.940
 8649SOL    HW126846   4.649   6.344   6.852
 8649SOL    HW226847   4.665   6.488   6.927
 8650SOL     OW26848   1.723   6.686   4.078
 8650SOL    HW126849   1.781   6.620   4.125
 8650SOL    HW226850   1.748   6.779   4.106
 8651SOL     OW26851   2.790   1.850   0.773
 8651SOL    HW126852   2.835   1.868   0.860
 8651SOL    HW226853   2.794   1.931   0.715
 8652SOL     OW26854   1.008   4.741   3.901
 8652SOL    HW126855   0.974   4.820   3.850
 8652SOL    HW226856   0.985   4.752   3.998
 8653SOL     OW26857   6.354   1.534   5.335
 8653SOL    HW126858   6.311   1.484   5.410
 8653SOL    HW226859   6.449   1.507   5.327
 8654SOL     OW26860   0.808   4.805   1.269
 8654SOL    HW126861   0.847   4.892   1.299
 8654SOL    HW226862   0.734   4.823   1.204
 8655SOL     OW26863   6.496   1.303   5.152
 8655SOL    HW126864   6.577   1.321   5.096
 8655SOL    HW226865   6.525   1.277   5.245
 8656SOL     OW26866   5.483   0.390   2.219
 8656SOL    HW126867   5.424   0.333   2.277
 8656SOL    HW226868   5.518   0.335   2.143
 8657SOL     OW26869   5.849   6.162   0.383
 8657SOL    HW126870   5.855   6.160   0.283
 8657SOL    HW226871   5.936   6.132   0.422
 8658SOL     OW26872   5.640   5.571   0.502
 8658SOL    HW126873   5.597   5.631   0.434
 8658SOL    HW226874   5.667   5.485   0.459
 8659SOL     OW26875   4.495   2.405   2.923
 8659SOL    HW126876   4.559   2.473   2.960
 8659SOL    HW226877   4.410   2.407   2.976
 8660SOL     OW26878   0.498   2.405   2.103
 8660SOL    HW126879   0.553   2.334   2.148
 8660SOL    HW226880   0.458   2.465   2.171
 8661SOL     OW26881   6.060   3.425   2.554
 8661SOL    HW126882   6.106   3.450   2.640
 8661SOL    HW226883   5.990   3.357   2.573
 8662SOL     OW26884   3.396   6.132   2.241
 8662SOL    HW126885   3.493   6.130   2.263
 8662SOL    HW226886   3.383   6.119   2.142
 8663SOL     OW26887   2.462   5.451   2.908
 8663SOL    HW126888   2.370   5.423   2.882
 8663SOL    HW226889   2.528   5.410   2.845
 8664SOL     OW26890   2.679   5.832   2.879
 8664SOL    HW126891   2.609   5.776   2.924
 8664SOL    HW226892   2.701   5.792   2.790
 8665SOL     OW26893   6.603   5.522   5.301
 8665SOL    HW126894   6.632   5.441   5.251
 8665SOL    HW226895   6.552   5.495   5.382
 8666SOL     OW26896   5.556   0.062   4.656
 8666SOL    HW126897   5.562   7.000   4.692
 8666SOL    HW226898   5.626   0.119   4.697
 8667SOL     OW26899   5.471   1.149   4.530
 8667SOL    HW126900   5.418   1.111   4.605
 8667SOL    HW226901   5.424   1.133   4.443
 8668SOL     OW26902   5.286   3.062   4.574
 8668SOL    HW126903   5.352   2.990   4.592
 8668SOL    HW226904   5.299   3.137   4.640
 8669SOL     OW26905   6.615   6.867   6.967
 8669SOL    HW126906   6.529   6.917   6.978
 8669SOL    HW226907   6.663   6.902   6.886
 8670SOL     OW26908   5.462   5.094   6.032
 8670SOL    HW126909   5.514   5.104   6.117
 8670SOL    HW226910   5.487   5.167   5.969
 8671SOL     OW26911   0.642   1.597   2.289
 8671SOL    HW126912   0.641   1.502   2.319
 8671SOL    HW226913   0.558   1.618   2.240
 8672SOL     OW26914   0.567   6.985   3.715
 8672SOL    HW126915   0.562   0.010   3.798
 8672SOL    HW226916   0.658   6.992   3.676
 8673SOL     OW26917   7.017   1.437   0.276
 8673SOL    HW126918   0.006   1.533   0.255
 8673SOL    HW226919   6.919   1.419   0.263
 8674SOL     OW26920   6.643   4.276   3.259
 8674SOL    HW126921   6.674   4.185   3.286
 8674SOL    HW226922   6.677   4.343   3.325
 8675SOL     OW26923   4.286   0.954   6.216
 8675SOL    HW126924   4.304   1.041   6.262
 8675SOL    HW226925   4.214   0.966   6.148
 8676SOL     OW26926   5.586   1.042   1.261
 8676SOL    HW126927   5.632   1.088   1.185
 8676SOL    HW226928   5.494   1.079   1.272
 8677SOL     OW26929   1.439   6.202   5.711
 8677SOL    HW126930   1.447   6.104   5.693
 8677SOL    HW226931   1.416   6.217   5.807
 8678SOL     OW26932   0.463   6.896   0.589
 8678SOL    HW126933   0.437   6.981   0.635
 8678SOL    HW226934   0.562   6.884   0.595
 8679SOL     OW26935   1.657   1.372   4.092
 8679SOL    HW126936   1.576   1.420   4.058
 8679SOL    HW226937   1.739   1.423   4.067
 8680SOL     OW26938   6.558   2.619   6.572
 8680SOL    HW126939   6.536   2.528   6.608
 8680SOL    HW226940   6.592   2.676   6.647
 8681SOL     OW26941   4.649   5.405   1.278
 8681SOL    HW126942   4.699   5.492   1.272
 8681SOL    HW226943   4.649   5.362   1.188
 8682SOL     OW26944   0.126   0.188   0.953
 8682SOL    HW126945   0.030   0.211   0.935
 8682SOL    HW226946   0.131   0.128   1.034
 8683SOL     OW26947   1.509   3.026   4.804
 8683SOL    HW126948   1.437   2.991   4.744
 8683SOL    HW226949   1.581   2.958   4.813
 8684SOL     OW26950   0.229   3.968   4.621
 8684SOL    HW126951   0.237   3.924   4.711
 8684SOL    HW226952   0.141   4.015   4.615
 8685SOL     OW26953   5.509   2.686   6.371
 8685SOL    HW126954   5.488   2.741   6.452
 8685SOL    HW226955   5.591   2.631   6.389
 8686SOL     OW26956   5.917   6.702   2.836
 8686SOL    HW126957   5.858   6.657   2.770
 8686SOL    HW226958   6.011   6.704   2.802
 8687SOL     OW26959   5.969   4.348   2.824
 8687SOL    HW126960   5.986   4.308   2.914
 8687SOL    HW226961   6.011   4.439   2.820
 8688SOL     OW26962   1.924   4.336   6.645
 8688SOL    HW126963   1.990   4.384   6.588
 8688SOL    HW226964   1.918   4.241   6.616
 8689SOL     OW26965   4.668   3.060   0.632
 8689SOL    HW126966   4.699   3.043   0.726
 8689SOL    HW226967   4.642   3.156   0.622
 8690SOL     OW26968   0.551   2.699   3.023
 8690SOL    HW126969   0.484   2.773   3.029
 8690SOL    HW226970   0.611   2.701   3.104
 8691SOL     OW26971   3.497   1.350   5.269
 8691SOL    HW126972   3.404   1.371   5.239
 8691SOL    HW226973   3.562   1.397   5.209
 8692SOL     OW26974   3.670   1.478   5.783
 8692SOL    HW126975   3.711   1.560   5.743
 8692SOL    HW226976   3.735   1.402   5.776
 8693SOL     OW26977   6.715   1.545   6.541
 8693SOL    HW126978   6.726   1.637   6.502
 8693SOL    HW226979   6.775   1.481   6.494
 8694SOL     OW26980   5.665   2.094   4.992
 8694SOL    HW126981   5.630   2.009   5.032
 8694SOL    HW226982   5.712   2.073   4.906
 8695SOL     OW26983   4.514   3.359   6.415
 8695SOL    HW126984   4.594   3.344   6.474
 8695SOL    HW226985   4.467   3.271   6.401
 8696SOL     OW26986   2.424   6.305   4.770
 8696SOL    HW126987   2.429   6.279   4.674
 8696SOL    HW226988   2.504   6.270   4.818
 8697SOL     OW26989   1.143   4.498   5.930
 8697SOL    HW126990   1.060   4.488   5.986
 8697SOL    HW226991   1.224   4.488   5.988
 8698SOL     OW26992   5.161   5.891   6.065
 8698SOL    HW126993   5.171   5.959   6.138
 8698SOL    HW226994   5.239   5.829   6.067
 8699SOL     OW26995   2.299   3.551   6.246
 8699SOL    HW126996   2.254   3.541   6.335
 8699SOL    HW226997   2.265   3.480   6.183
 8700SOL     OW26998   1.237   1.200   5.536
 8700SOL    HW126999   1.323   1.149   5.545
 8700SOL    HW227000   1.251   1.294   5.566
 8701SOL     OW27001   1.790   1.171   6.896
 8701SOL    HW127002   1.742   1.097   6.942
 8701SOL    HW227003   1.807   1.245   6.962
 8702SOL     OW27004   4.734   5.179   2.027
 8702SOL    HW127005   4.776   5.265   2.056
 8702SOL    HW227006   4.794   5.133   1.961
 8703SOL     OW27007   3.264   4.482   6.596
 8703SOL    HW127008   3.214   4.419   6.655
 8703SOL    HW227009   3.360   4.484   6.622
 8704SOL     OW27010   6.974   2.953   3.990
 8704SOL    HW127011   0.002   2.905   3.923
 8704SOL    HW227012   6.881   2.961   3.954
 8705SOL     OW27013   4.519   2.209   6.569
 8705SOL    HW127014   4.480   2.299   6.585
 8705SOL    HW227015   4.607   2.218   6.521
 8706SOL     OW27016   5.983   2.905   0.250
 8706SOL    HW127017   6.031   2.893   0.164
 8706SOL    HW227018   5.985   2.820   0.302
 8707SOL     OW27019   0.732   2.280   3.564
 8707SOL    HW127020   0.751   2.370   3.525
 8707SOL    HW227021   0.816   2.244   3.606
 8708SOL     OW27022   4.429   1.652   4.539
 8708SOL    HW127023   4.495   1.723   4.562
 8708SOL    HW227024   4.474   1.581   4.485
 8709SOL     OW27025   7.010   0.155   6.601
 8709SOL    HW127026   0.016   0.064   6.581
 8709SOL    HW227027   0.050   0.209   6.647
 8710SOL     OW27028   2.080   2.164   3.458
 8710SOL    HW127029   2.104   2.194   3.366
 8710SOL    HW227030   2.057   2.066   3.457
 8711SOL     OW27031   1.391   0.840   1.339
 8711SOL    HW127032   1.426   0.752   1.370
 8711SOL    HW227033   1.402   0.847   1.240
 8712SOL     OW27034   2.926   1.797   4.911
 8712SOL    HW127035   2.860   1.730   4.945
 8712SOL    HW227036   2.885   1.850   4.837
 8713SOL     OW27037   0.397   4.021   1.576
 8713SOL    HW127038   0.402   4.040   1.478
 8713SOL    HW227039   0.323   3.957   1.594
 8714SOL     OW27040   0.720   6.576   0.119
 8714SOL    HW127041   0.744   6.599   0.213
 8714SOL    HW227042   0.757   6.646   0.057
 8715SOL     OW27043   3.221   2.013   7.008
 8715SOL    HW127044   3.294   1.999   0.044
 8715SOL    HW227045   3.260   2.029   6.918
 8716SOL     OW27046   6.732   6.692   0.941
 8716SOL    HW127047   6.778   6.716   0.856
 8716SOL    HW227048   6.785   6.622   0.989
 8717SOL     OW27049   2.355   3.024   6.002
 8717SOL    HW127050   2.354   2.952   6.071
 8717SOL    HW227051   2.445   3.066   5.999
 8718SOL     OW27052   1.337   2.906   6.346
 8718SOL    HW127053   1.428   2.947   6.338
 8718SOL    HW227054   1.268   2.978   6.355
 8719SOL     OW27055   4.294   1.380   0.181
 8719SOL    HW127056   4.232   1.358   0.106
 8719SOL    HW227057   4.359   1.306   0.193
 8720SOL     OW27058   0.300   5.331   5.523
 8720SOL    HW127059   0.283   5.235   5.543
 8720SOL    HW227060   0.221   5.386   5.551
 8721SOL     OW27061   6.392   7.015   6.990
 8721SOL    HW127062   6.356   0.003   6.898
 8721SOL    HW227063   6.320   6.973   0.015
 8722SOL     OW27064   3.204   1.022   0.525
 8722SOL    HW127065   3.256   1.099   0.561
 8722SOL    HW227066   3.124   1.056   0.475
 8723SOL     OW27067   5.436   6.406   2.127
 8723SOL    HW127068   5.421   6.492   2.177
 8723SOL    HW227069   5.507   6.353   2.173
 8724SOL     OW27070   5.103   0.003   4.170
 8724SOL    HW127071   5.114   6.934   4.182
 8724SOL    HW227072   5.006   0.027   4.177
 8725SOL     OW27073   0.367   6.277   4.692
 8725SOL    HW127074   0.356   6.329   4.777
 8725SOL    HW227075   0.412   6.190   4.712
 8726SOL     OW27076   6.961   1.235   0.574
 8726SOL    HW127077   6.864   1.214   0.585
 8726SOL    HW227078   7.016   1.160   0.611
 8727SOL     OW27079   5.775   7.027   7.013
 8727SOL    HW127080   5.748   6.996   0.074
 8727SOL    HW227081   5.803   6.948   6.958
 8728SOL     OW27082   5.410   1.070   2.759
 8728SOL    HW127083   5.378   1.028   2.674
 8728SOL    HW227084   5.485   1.134   2.738
 8729SOL     OW27085   3.050   5.722   5.386
 8729SOL    HW127086   3.126   5.783   5.410
 8729SOL    HW227087   2.968   5.776   5.368
 8730SOL     OW27088   5.053   4.395   3.323
 8730SOL    HW127089   4.990   4.337   3.272
 8730SOL    HW227090   5.012   4.486   3.335
 8731SOL     OW27091   0.354   3.112   2.764
 8731SOL    HW127092   0.436   3.082   2.814
 8731SOL    HW227093   0.310   3.186   2.813
 8732SOL     OW27094   5.034   4.360   1.107
 8732SOL    HW127095   5.049   4.433   1.173
 8732SOL    HW227096   5.042   4.271   1.152
 8733SOL     OW27097   0.459   5.455   1.460
 8733SOL    HW127098   0.506   5.367   1.450
 8733SOL    HW227099   0.523   5.525   1.491
 8734SOL     OW27100   7.019   3.340   2.540
 8734SOL    HW127101   7.000   3.302   2.450
 8734SOL    HW227102   6.981   3.281   2.611
 8735SOL     OW27103   1.087   3.519   5.044
 8735SOL    HW127104   1.035   3.441   5.010
 8735SOL    HW227105   1.053   3.603   5.001
 8736SOL     OW27106   0.762   5.214   2.239
 8736SOL    HW127107   0.745   5.211   2.140
 8736SOL    HW227108   0.675   5.222   2.288
 8737SOL     OW27109   2.563   6.160   6.138
 8737SOL    HW127110   2.593   6.144   6.232
 8737SOL    HW227111   2.595   6.084   6.080
 8738SOL     OW27112   1.589   4.067   3.652
 8738SOL    HW127113   1.578   4.059   3.752
 8738SOL    HW227114   1.528   4.138   3.618
 8739SOL     OW27115   5.341   4.440   4.926
 8739SOL    HW127116   5.279   4.438   4.847
 8739SOL    HW227117   5.341   4.350   4.970
 8740SOL     OW27118   3.869   2.092   2.916
 8740SOL    HW127119   3.965   2.097   2.945
 8740SOL    HW227120   3.859   2.137   2.827
 8741SOL     OW27121   2.750   0.139   2.062
 8741SOL    HW127122   2.730   0.097   2.150
 8741SOL    HW227123   2.699   0.225   2.054
 8742SOL     OW27124   3.848   1.039   2.522
 8742SOL    HW127125   3.752   1.030   2.550
 8742SOL    HW227126   3.868   1.134   2.500
 8743SOL     OW27127   2.154   1.359   2.064
 8743SOL    HW127128   2.159   1.377   1.965
 8743SOL    HW227129   2.088   1.421   2.106
 8744SOL     OW27130   4.888   2.820   0.248
 8744SOL    HW127131   4.986   2.799   0.242
 8744SOL    HW227132   4.836   2.734   0.246
 8745SOL     OW27133   6.867   2.232   6.571
 8745SOL    HW127134   6.829   2.140   6.575
 8745SOL    HW227135   6.923   2.242   6.489
 8746SOL     OW27136   4.764   5.315   4.449
 8746SOL    HW127137   4.852   5.358   4.469
 8746SOL    HW227138   4.747   5.317   4.351
 8747SOL     OW27139   6.825   1.457   2.121
 8747SOL    HW127140   6.910   1.441   2.072
 8747SOL    HW227141   6.795   1.551   2.106
 8748SOL     OW27142   1.038   1.501   3.930
 8748SOL    HW127143   0.981   1.419   3.925
 8748SOL    HW227144   1.133   1.478   3.906
 8749SOL     OW27145   2.381   1.064   5.646
 8749SOL    HW127146   2.308   1.041   5.710
 8749SOL    HW227147   2.470   1.051   5.691
 8750SOL     OW27148   3.980   2.745   5.831
 8750SOL    HW127149   4.055   2.786   5.884
 8750SOL    HW227150   3.909   2.814   5.816
 8751SOL     OW27151   6.586   0.276   0.271
 8751SOL    HW127152   6.673   0.319   0.295
 8751SOL    HW227153   6.518   0.296   0.343
 8752SOL     OW27154   5.431   2.831   6.956
 8752SOL    HW127155   5.503   2.879   6.906
 8752SOL    HW227156   5.399   2.754   6.901
 8753SOL     OW27157   2.378   3.575   6.864
 8753SOL    HW127158   2.360   3.572   6.766
 8753SOL    HW227159   2.308   3.524   6.913
 8754SOL     OW27160   2.757   5.117   6.406
 8754SOL    HW127161   2.780   5.038   6.350
 8754SOL    HW227162   2.759   5.092   6.503
 8755SOL     OW27163   1.126   0.851   0.897
 8755SOL    HW127164   1.186   0.931   0.906
 8755SOL    HW227165   1.033   0.880   0.876
 8756SOL     OW27166   2.247   2.997   3.484
 8756SOL    HW127167   2.189   2.979   3.563
 8756SOL    HW227168   2.235   3.092   3.455
 8757SOL     OW27169   4.975   6.183   5.933
 8757SOL    HW127170   5.027   6.195   5.849
 8757SOL    HW227171   5.036   6.192   6.012
 8758SOL     OW27172   4.300   6.969   3.322
 8758SOL    HW127173   4.208   6.946   3.357
 8758SOL    HW227174   4.351   6.884   3.308
 8759SOL     OW27175   6.306   1.986   6.950
 8759SOL    HW127176   6.220   2.023   6.986
 8759SOL    HW227177   6.296   1.888   6.933
 8760SOL     OW27178   2.260   2.139   3.988
 8760SOL    HW127179   2.220   2.218   4.035
 8760SOL    HW227180   2.205   2.058   4.006
 8761SOL     OW27181   5.512   1.680   1.947
 8761SOL    HW127182   5.580   1.696   2.018
 8761SOL    HW227183   5.426   1.653   1.989
 8762SOL     OW27184   1.606   6.151   3.678
 8762SOL    HW127185   1.516   6.123   3.645
 8762SOL    HW227186   1.606   6.152   3.778
 8763SOL     OW27187   6.740   0.844   4.821
 8763SOL    HW127188   6.642   0.859   4.807
 8763SOL    HW227189   6.785   0.829   4.733
 8764SOL     OW27190   4.136   6.155   6.350
 8764SOL    HW127191   4.168   6.245   6.319
 8764SOL    HW227192   4.038   6.145   6.329
 8765SOL     OW27193   5.699   0.878   5.060
 8765SOL    HW127194   5.620   0.905   5.115
 8765SOL    HW227195   5.740   0.960   5.020
 8766SOL     OW27196   4.390   4.369   5.514
 8766SOL    HW127197   4.303   4.352   5.468
 8766SOL    HW227198   4.419   4.463   5.498
 8767SOL     OW27199   3.484   0.361   3.931
 8767SOL    HW127200   3.493   0.437   3.866
 8767SOL    HW227201   3.547   0.288   3.906
 8768SOL     OW27202   0.876   2.169   0.057
 8768SOL    HW127203   0.923   2.219   7.014
 8768SOL    HW227204   0.942   2.149   0.130
 8769SOL     OW27205   6.795   1.422   1.672
 8769SOL    HW127206   6.871   1.412   1.736
 8769SOL    HW227207   6.828   1.462   1.587
 8770SOL     OW27208   5.528   4.099   2.319
 8770SOL    HW127209   5.531   4.163   2.396
 8770SOL    HW227210   5.469   4.136   2.247
 8771SOL     OW27211   0.649   3.323   6.462
 8771SOL    HW127212   0.671   3.277   6.376
 8771SOL    HW227213   0.695   3.275   6.537
 8772SOL     OW27214   5.199   0.783   5.055
 8772SOL    HW127215   5.244   0.738   4.978
 8772SOL    HW227216   5.100   0.774   5.044
 8773SOL     OW27217   6.125   2.294   3.565
 8773SOL    HW127218   6.032   2.302   3.529
 8773SOL    HW227219   6.124   2.241   3.649
 8774SOL     OW27220   0.644   6.875   6.208
 8774SOL    HW127221   0.629   6.781   6.178
 8774SOL    HW227222   0.577   6.898   6.278
 8775SOL     OW27223   5.453   1.665   5.283
 8775SOL    HW127224   5.450   1.727   5.204
 8775SOL    HW227225   5.449   1.570   5.251
 8776SOL     OW27226   5.059   3.344   1.216
 8776SOL    HW127227   5.094   3.328   1.124
 8776SOL    HW227228   4.992   3.418   1.214
 8777SOL     OW27229   0.656   3.426   2.816
 8777SOL    HW127230   0.713   3.396   2.740
 8777SOL    HW227231   0.697   3.507   2.858
 8778SOL     OW27232   4.379   4.111   5.925
 8778SOL    HW127233   4.365   4.210   5.922
 8778SOL    HW227234   4.477   4.091   5.914
 8779SOL     OW27235   2.622   5.357   2.461
 8779SOL    HW127236   2.634   5.264   2.424
 8779SOL    HW227237   2.710   5.392   2.493
 8780SOL     OW27238   0.174   5.806   2.478
 8780SOL    HW127239   0.103   5.751   2.522
 8780SOL    HW227240   0.263   5.785   2.519
 8781SOL     OW27241   4.234   7.002   3.046
 8781SOL    HW127242   4.279   6.992   3.135
 8781SOL    HW227243   4.213   6.911   3.009
 8782SOL     OW27244   5.961   1.479   2.007
 8782SOL    HW127245   5.908   1.543   1.952
 8782SOL    HW227246   6.035   1.529   2.053
 8783SOL     OW27247   5.598   2.678   4.051
 8783SOL    HW127248   5.697   2.681   4.064
 8783SOL    HW227249   5.569   2.756   3.996
 8784SOL     OW27250   6.373   6.010   0.516
 8784SOL    HW127251   6.447   6.031   0.452
 8784SOL    HW227252   6.398   6.046   0.607
 8785SOL     OW27253   0.741   5.365   6.015
 8785SOL    HW127254   0.679   5.425   6.065
 8785SOL    HW227255   0.748   5.394   5.920
 8786SOL     OW27256   3.993   1.848   2.588
 8786SOL    HW127257   3.912   1.797   2.618
 8786SOL    HW227258   3.965   1.940   2.558
 8787SOL     OW27259   3.936   0.626   1.225
 8787SOL    HW127260   3.908   0.629   1.129
 8787SOL    HW227261   3.938   0.531   1.256
 8788SOL     OW27262   6.877   0.818   5.198
 8788SOL    HW127263   6.782   0.788   5.188
 8788SOL    HW227264   6.912   0.848   5.110
 8789SOL     OW27265   6.932   3.967   5.168
 8789SOL    HW127266   6.841   3.960   5.210
 8789SOL    HW227267   6.998   3.913   5.221
 8790SOL     OW27268   6.461   2.049   0.337
 8790SOL    HW127269   6.462   2.008   0.246
 8790SOL    HW227270   6.383   2.016   0.389
 8791SOL     OW27271   4.451   6.277   5.129
 8791SOL    HW127272   4.440   6.201   5.065
 8791SOL    HW227273   4.376   6.342   5.117
 8792SOL     OW27274   3.495   5.268   2.302
 8792SOL    HW127275   3.523   5.361   2.322
 8792SOL    HW227276   3.448   5.229   2.381
 8793SOL     OW27277   0.945   4.768   4.623
 8793SOL    HW127278   0.920   4.769   4.527
 8793SOL    HW227279   0.872   4.726   4.677
 8794SOL     OW27280   6.028   1.139   3.307
 8794SOL    HW127281   6.041   1.223   3.359
 8794SOL    HW227282   6.038   1.157   3.210
 8795SOL     OW27283   1.449   4.903   5.296
 8795SOL    HW127284   1.468   4.805   5.298
 8795SOL    HW227285   1.481   4.946   5.380
 8796SOL     OW27286   6.211   3.877   3.154
 8796SOL    HW127287   6.219   3.778   3.147
 8796SOL    HW227288   6.208   3.904   3.250
 8797SOL     OW27289   0.423   0.246   4.275
 8797SOL    HW127290   0.330   0.224   4.305
 8797SOL    HW227291   0.480   0.164   4.280
 8798SOL     OW27292   4.652   6.634   5.630
 8798SOL    HW127293   4.751   6.650   5.635
 8798SOL    HW227294   4.619   6.604   5.719
 8799SOL     OW27295   1.776   4.779   2.223
 8799SOL    HW127296   1.868   4.741   2.216
 8799SOL    HW227297   1.716   4.733   2.157
 8800SOL     OW27298   5.908   6.066   5.716
 8800SOL    HW127299   5.982   6.121   5.679
 8800SOL    HW227300   5.907   5.977   5.671
 8801SOL     OW27301   6.033   1.986   5.589
 8801SOL    HW127302   6.060   2.032   5.505
 8801SOL    HW227303   5.943   1.944   5.577
 8802SOL     OW27304   1.302   5.921   5.189
 8802SOL    HW127305   1.205   5.909   5.206
 8802SOL    HW227306   1.336   5.998   5.244
 8803SOL     OW27307   6.858   0.936   0.171
 8803SOL    HW127308   6.921   1.010   0.194
 8803SOL    HW227309   6.773   0.948   0.224
 8804SOL     OW27310   2.203   5.976   1.441
 8804SOL    HW127311   2.284   5.919   1.431
 8804SOL    HW227312   2.200   6.014   1.534
 8805SOL     OW27313   4.273   5.459   3.648
 8805SOL    HW127314   4.263   5.535   3.583
 8805SOL    HW227315   4.368   5.427   3.646
 8806SOL     OW27316   2.444   5.956   0.495
 8806SOL    HW127317   2.426   5.905   0.579
 8806SOL    HW227318   2.361   6.004   0.466
 8807SOL     OW27319   4.738   2.182   0.203
 8807SOL    HW127320   4.719   2.096   0.252
 8807SOL    HW227321   4.704   2.259   0.257
 8808SOL     OW27322   1.363   2.580   0.408
 8808SOL    HW127323   1.311   2.649   0.459
 8808SOL    HW227324   1.319   2.491   0.419
 8809SOL     OW27325   2.178   4.142   3.323
 8809SOL    HW127326   2.121   4.204   3.270
 8809SOL    HW227327   2.205   4.186   3.409
 8810SOL     OW27328   6.069   1.214   5.242
 8810SOL    HW127329   6.149   1.246   5.192
 8810SOL    HW227330   6.008   1.291   5.260
 8811SOL     OW27331   4.869   0.402   2.775
 8811SOL    HW127332   4.805   0.407   2.852
 8811SOL    HW227333   4.817   0.405   2.690
 8812SOL     OW27334   3.358   0.203   6.719
 8812SOL    HW127335   3.389   0.120   6.671
 8812SOL    HW227336   3.320   0.177   6.808
 8813SOL     OW27337   2.265   4.397   2.509
 8813SOL    HW127338   2.241   4.348   2.593
 8813SOL    HW227339   2.328   4.472   2.530
 8814SOL     OW27340   5.533   6.848   0.647
 8814SOL    HW127341   5.518   6.834   0.549
 8814SOL    HW227342   5.499   6.768   0.697
 8815SOL     OW27343   5.717   0.879   0.943
 8815SOL    HW127344   5.816   0.872   0.946
 8815SOL    HW227345   5.676   0.798   0.985
 8816SOL     OW27346   0.074   6.482   6.693
 8816SOL    HW127347   0.141   6.445   6.757
 8816SOL    HW227348   0.119   6.549   6.634
 8817SOL     OW27349   0.617   3.185   4.130
 8817SOL    HW127350   0.604   3.284   4.139
 8817SOL    HW227351   0.656   3.149   4.215
 8818SOL     OW27352   1.511   6.731   3.208
 8818SOL    HW127353   1.572   6.809   3.224
 8818SOL    HW227354   1.513   6.707   3.111
 8819SOL     OW27355   5.739   4.395   5.223
 8819SOL    HW127356   5.717   4.479   5.175
 8819SOL    HW227357   5.750   4.413   5.320
 8820SOL     OW27358   3.219   0.959   4.384
 8820SOL    HW127359   3.134   1.010   4.401
 8820SOL    HW227360   3.255   0.983   4.294
 8821SOL     OW27361   0.842   5.059   0.275
 8821SOL    HW127362   0.836   5.157   0.257
 8821SOL    HW227363   0.814   5.009   0.193
 8822SOL     OW27364   0.064   0.179   3.279
 8822SOL    HW127365   0.138   0.243   3.259
 8822SOL    HW227366   7.007   0.218   3.249
 8823SOL     OW27367   2.508   0.557   2.770
 8823SOL    HW127368   2.606   0.557   2.747
 8823SOL    HW227369   2.458   0.611   2.702
 8824SOL     OW27370   1.630   0.035   1.797
 8824SOL    HW127371   1.674   0.120   1.826
 8824SOL    HW227372   1.541   0.056   1.757
 8825SOL     OW27373   0.473   0.789   1.634
 8825SOL    HW127374   0.407   0.813   1.563
 8825SOL    HW227375   0.529   0.712   1.602
 8826SOL     OW27376   0.700   3.307   0.800
 8826SOL    HW127377   0.739   3.270   0.884
 8826SOL    HW227378   0.617   3.256   0.776
 8827SOL     OW27379   3.912   0.846   2.322
 8827SOL    HW127380   3.888   0.918   2.388
 8827SOL    HW227381   4.010   0.853   2.301
 8828SOL     OW27382   3.992   4.517   6.379
 8828SOL    HW127383   3.915   4.580   6.382
 8828SOL    HW227384   3.967   4.435   6.328
 8829SOL     OW27385   6.182   1.908   1.979
 8829SOL    HW127386   6.244   1.927   1.902
 8829SOL    HW227387   6.201   1.817   2.016
 8830SOL     OW27388   1.881   1.733   1.815
 8830SOL    HW127389   1.788   1.766   1.805
 8830SOL    HW227390   1.942   1.810   1.835
 8831SOL     OW27391   6.649   2.918   2.235
 8831SOL    HW127392   6.634   2.943   2.139
 8831SOL    HW227393   6.564   2.880   2.273
 8832SOL     OW27394   6.871   6.147   4.306
 8832SOL    HW127395   6.960   6.153   4.260
 8832SOL    HW227396   6.868   6.211   4.382
 8833SOL     OW27397   3.684   3.564   1.303
 8833SOL    HW127398   3.695   3.493   1.233
 8833SOL    HW227399   3.750   3.549   1.377
 8834SOL     OW27400   5.904   3.606   5.191
 8834SOL    HW127401   5.977   3.555   5.146
 8834SOL    HW227402   5.821   3.600   5.135
 8835SOL     OW27403   5.717   1.083   5.825
 8835SOL    HW127404   5.759   1.165   5.787
 8835SOL    HW227405   5.789   1.018   5.852
 8836SOL     OW27406   6.337   2.493   0.412
 8836SOL    HW127407   6.260   2.441   0.376
 8836SOL    HW227408   6.417   2.479   0.354
 8837SOL     OW27409   0.367   0.363   1.607
 8837SOL    HW127410   0.281   0.406   1.578
 8837SOL    HW227411   0.356   0.264   1.607
 8838SOL     OW27412   0.848   4.333   2.359
 8838SOL    HW127413   0.873   4.251   2.308
 8838SOL    HW227414   0.926   4.366   2.411
 8839SOL     OW27415   4.969   5.450   2.449
 8839SOL    HW127416   4.980   5.531   2.506
 8839SOL    HW227417   5.055   5.432   2.400
 8840SOL     OW27418   6.188   0.626   2.013
 8840SOL    HW127419   6.222   0.562   1.944
 8840SOL    HW227420   6.240   0.615   2.098
 8841SOL     OW27421   4.119   1.131   2.163
 8841SOL    HW127422   4.021   1.139   2.145
 8841SOL    HW227423   4.135   1.058   2.230
 8842SOL     OW27424   3.222   3.929   3.968
 8842SOL    HW127425   3.175   3.995   4.027
 8842SOL    HW227426   3.192   3.942   3.874
 8843SOL     OW27427   1.705   3.309   4.917
 8843SOL    HW127428   1.672   3.290   4.824
 8843SOL    HW227429   1.786   3.253   4.935
 8844SOL     OW27430   6.771   2.283   5.560
 8844SOL    HW127431   6.840   2.218   5.593
 8844SOL    HW227432   6.725   2.245   5.480
 8845SOL     OW27433   2.126   5.387   1.066
 8845SOL    HW127434   2.166   5.404   0.976
 8845SOL    HW227435   2.059   5.458   1.087
 8846SOL     OW27436   5.389   4.763   4.213
 8846SOL    HW127437   5.423   4.857   4.210
 8846SOL    HW227438   5.393   4.729   4.307
 8847SOL     OW27439   1.393   1.265   2.248
 8847SOL    HW127440   1.442   1.198   2.303
 8847SOL    HW227441   1.397   1.354   2.292
 8848SOL     OW27442   3.090   1.862   1.964
 8848SOL    HW127443   3.026   1.922   2.013
 8848SOL    HW227444   3.123   1.909   1.882
 8849SOL     OW27445   2.495   5.350   3.787
 8849SOL    HW127446   2.493   5.323   3.883
 8849SOL    HW227447   2.511   5.270   3.729
 8850SOL     OW27448   2.677   1.503   0.768
 8850SOL    HW127449   2.627   1.416   0.767
 8850SOL    HW227450   2.752   1.498   0.833
 8851SOL     OW27451   0.999   4.608   2.648
 8851SOL    HW127452   0.916   4.582   2.698
 8851SOL    HW227453   0.991   4.702   2.616
 8852SOL     OW27454   4.961   3.051   6.554
 8852SOL    HW127455   4.996   3.135   6.596
 8852SOL    HW227456   4.861   3.056   6.546
 8853SOL     OW27457   3.591   0.708   4.944
 8853SOL    HW127458   3.505   0.711   4.893
 8853SOL    HW227459   3.643   0.628   4.916
 8854SOL     OW27460   2.139   0.428   6.128
 8854SOL    HW127461   2.063   0.379   6.084
 8854SOL    HW227462   2.115   0.524   6.137
 8855SOL     OW27463   6.247   5.886   6.963
 8855SOL    HW127464   6.255   5.790   6.989
 8855SOL    HW227465   6.207   5.937   0.009
 8856SOL     OW27466   6.837   0.076   4.795
 8856SOL    HW127467   6.746   0.117   4.803
 8856SOL    HW227468   6.888   0.093   4.879
 8857SOL     OW27469   5.989   1.860   3.371
 8857SOL    HW127470   6.000   1.789   3.441
 8857SOL    HW227471   5.897   1.855   3.332
 8858SOL     OW27472   1.500   3.462   5.812
 8858SOL    HW127473   1.476   3.465   5.715
 8858SOL    HW227474   1.529   3.553   5.842
 8859SOL     OW27475   0.976   0.137   5.334
 8859SOL    HW127476   0.934   0.182   5.255
 8859SOL    HW227477   0.907   0.126   5.406
 8860SOL     OW27478   1.984   4.070   2.575
 8860SOL    HW127479   1.956   4.006   2.504
 8860SOL    HW227480   2.083   4.081   2.573
 8861SOL     OW27481   3.672   2.757   6.119
 8861SOL    HW127482   3.587   2.731   6.073
 8861SOL    HW227483   3.744   2.691   6.095
 8862SOL     OW27484   5.985   1.566   4.138
 8862SOL    HW127485   5.939   1.602   4.220
 8862SOL    HW227486   5.919   1.558   4.064
 8863SOL     OW27487   1.977   5.826   4.625
 8863SOL    HW127488   2.022   5.847   4.538
 8863SOL    HW227489   1.880   5.806   4.608
 8864SOL     OW27490   2.537   3.233   6.356
 8864SOL    HW127491   2.594   3.195   6.429
 8864SOL    HW227492   2.441   3.217   6.376
 8865SOL     OW27493   3.062   1.041   4.731
 8865SOL    HW127494   2.983   1.100   4.748
 8865SOL    HW227495   3.035   0.966   4.669
 8866SOL     OW27496   4.201   6.467   3.290
 8866SOL    HW127497   4.297   6.447   3.310
 8866SOL    HW227498   4.155   6.384   3.260
 8867SOL     OW27499   5.479   2.579   3.171
 8867SOL    HW127500   5.559   2.519   3.174
 8867SOL    HW227501   5.479   2.630   3.085
 8868SOL     OW27502   5.203   3.748   0.903
 8868SOL    HW127503   5.302   3.758   0.887
 8868SOL    HW227504   5.182   3.777   0.996
 8869SOL     OW27505   4.232   4.696   3.292
 8869SOL    HW127506   4.265   4.733   3.206
 8869SOL    HW227507   4.228   4.596   3.286
 8870SOL     OW27508   3.162   0.321   1.078
 8870SOL    HW127509   3.160   0.420   1.066
 8870SOL    HW227510   3.074   0.290   1.115
 8871SOL     OW27511   3.209   1.729   3.610
 8871SOL    HW127512   3.289   1.669   3.622
 8871SOL    HW227513   3.141   1.683   3.553
 8872SOL     OW27514   1.530   3.905   4.379
 8872SOL    HW127515   1.467   3.946   4.445
 8872SOL    HW227516   1.480   3.842   4.320
 8873SOL     OW27517   6.525   5.746   2.188
 8873SOL    HW127518   6.618   5.776   2.206
 8873SOL    HW227519   6.521   5.699   2.100
 8874SOL     OW27520   2.322   0.080   1.227
 8874SOL    HW127521   2.289   7.020   1.200
 8874SOL    HW227522   2.248   0.131   1.271
 8875SOL     OW27523   1.299   2.553   4.345
 8875SOL    HW127524   1.289   2.491   4.422
 8875SOL    HW227525   1.342   2.638   4.376
 8876SOL     OW27526   0.275   7.004   4.825
 8876SOL    HW127527   0.200   6.973   4.766
 8876SOL    HW227528   0.286   0.073   4.815
 8877SOL     OW27529   2.630   0.512   4.079
 8877SOL    HW127530   2.666   0.552   4.163
 8877SOL    HW227531   2.536   0.480   4.095
 8878SOL     OW27532   0.535   4.856   1.066
 8878SOL    HW127533   0.459   4.822   1.011
 8878SOL    HW227534   0.611   4.883   1.006
 8879SOL     OW27535   5.594   5.031   0.921
 8879SOL    HW127536   5.553   5.108   0.872
 8879SOL    HW227537   5.554   4.945   0.888
 8880SOL     OW27538   0.482   5.493   4.815
 8880SOL    HW127539   0.495   5.396   4.795
 8880SOL    HW227540   0.550   5.522   4.883
 8881SOL     OW27541   5.986   0.480   3.423
 8881SOL    HW127542   6.029   0.417   3.359
 8881SOL    HW227543   5.979   0.437   3.513
 8882SOL     OW27544   4.989   0.681   0.428
 8882SOL    HW127545   5.039   0.732   0.357
 8882SOL    HW227546   5.047   0.671   0.508
 8883SOL     OW27547   0.492   1.193   6.118
 8883SOL    HW127548   0.509   1.105   6.163
 8883SOL    HW227549   0.413   1.185   6.057
 8884SOL     OW27550   5.645   6.381   6.341
 8884SOL    HW127551   5.619   6.285   6.330
 8884SOL    HW227552   5.691   6.413   6.258
 8885SOL     OW27553   6.348   3.661   1.217
 8885SOL    HW127554   6.351   3.737   1.281
 8885SOL    HW227555   6.269   3.604   1.237
 8886SOL     OW27556   3.134   6.062   5.517
 8886SOL    HW127557   3.092   6.153   5.526
 8886SOL    HW227558   3.132   6.016   5.605
 8887SOL     OW27559   2.892   1.291   1.136
 8887SOL    HW127560   2.862   1.385   1.123
 8887SOL    HW227561   2.959   1.268   1.066
 8888SOL     OW27562   1.215   1.841   1.158
 8888SOL    HW127563   1.139   1.888   1.113
 8888SOL    HW227564   1.283   1.815   1.089
 8889SOL     OW27565   4.980   6.456   5.808
 8889SOL    HW127566   5.020   6.418   5.724
 8889SOL    HW227567   4.950   6.381   5.867
 8890SOL     OW27568   6.530   6.232   4.999
 8890SOL    HW127569   6.443   6.187   5.018
 8890SOL    HW227570   6.561   6.206   4.907
 8891SOL     OW27571   6.131   3.151   5.964
 8891SOL    HW127572   6.042   3.114   5.990
 8891SOL    HW227573   6.140   3.245   5.999
 8892SOL     OW27574   2.962   6.360   3.371
 8892SOL    HW127575   2.934   6.398   3.283
 8892SOL    HW227576   2.910   6.276   3.388
 8893SOL     OW27577   0.550   0.566   2.125
 8893SOL    HW127578   0.585   0.645   2.074
 8893SOL    HW227579   0.582   0.482   2.081
 8894SOL     OW27580   4.051   3.448   6.076
 8894SOL    HW127581   4.033   3.546   6.091
 8894SOL    HW227582   4.095   3.410   6.157
 8895SOL     OW27583   0.164   0.488   1.491
 8895SOL    HW127584   0.083   0.474   1.548
 8895SOL    HW227585   0.180   0.586   1.478
 8896SOL     OW27586   1.028   3.241   4.808
 8896SOL    HW127587   0.980   3.158   4.836
 8896SOL    HW227588   1.124   3.235   4.839
 8897SOL     OW27589   1.359   1.562   2.059
 8897SOL    HW127590   1.394   1.507   2.135
 8897SOL    HW227591   1.396   1.655   2.065
 8898SOL     OW27592   6.334   3.386   4.729
 8898SOL    HW127593   6.389   3.423   4.654
 8898SOL    HW227594   6.349   3.440   4.812
 8899SOL     OW27595   1.801   4.142   6.893
 8899SOL    HW127596   1.790   4.241   6.904
 8899SOL    HW227597   1.716   4.097   6.919
 8900SOL     OW27598   5.500   3.623   2.885
 8900SOL    HW127599   5.458   3.714   2.884
 8900SOL    HW227600   5.542   3.605   2.797
 8901SOL     OW27601   2.471   0.587   3.761
 8901SOL    HW127602   2.553   0.631   3.797
 8901SOL    HW227603   2.390   0.637   3.790
 8902SOL     OW27604   2.864   5.926   6.167
 8902SOL    HW127605   2.889   6.004   6.109
 8902SOL    HW227606   2.820   5.959   6.250
 8903SOL     OW27607   2.272   1.241   4.009
 8903SOL    HW127608   2.353   1.264   4.063
 8903SOL    HW227609   2.257   1.311   3.939
 8904SOL     OW27610   6.819   5.165   3.838
 8904SOL    HW127611   6.912   5.152   3.805
 8904SOL    HW227612   6.759   5.096   3.798
 8905SOL     OW27613   1.757   4.185   4.440
 8905SOL    HW127614   1.702   4.182   4.357
 8905SOL    HW227615   1.737   4.270   4.490
 8906SOL     OW27616   6.768   7.001   6.778
 8906SOL    HW127617   6.818   6.941   6.716
 8906SOL    HW227618   6.711   0.033   6.725
 8907SOL     OW27619   3.218   2.186   5.323
 8907SOL    HW127620   3.167   2.191   5.409
 8907SOL    HW227621   3.200   2.268   5.269
 8908SOL     OW27622   1.348   3.081   0.017
 8908SOL    HW127623   1.389   3.051   0.103
 8908SOL    HW227624   1.261   3.034   0.004
 8909SOL     OW27625   1.867   0.458   5.278
 8909SOL    HW127626   1.776   0.496   5.263
 8909SOL    HW227627   1.879   0.436   5.375
 8910SOL     OW27628   2.102   3.157   6.007
 8910SOL    HW127629   2.074   3.156   6.104
 8910SOL    HW227630   2.184   3.102   5.995
 8911SOL     OW27631   3.477   2.123   4.891
 8911SOL    HW127632   3.424   2.157   4.969
 8911SOL    HW227633   3.535   2.047   4.919
 8912SOL     OW27634   4.243   1.092   6.822
 8912SOL    HW127635   4.333   1.083   6.779
 8912SOL    HW227636   4.253   1.097   6.921
 8913SOL     OW27637   5.013   4.781   1.151
 8913SOL    HW127638   5.040   4.702   1.206
 8913SOL    HW227639   4.931   4.759   1.099
 8914SOL     OW27640   4.685   0.977   5.803
 8914SOL    HW127641   4.605   1.000   5.858
 8914SOL    HW227642   4.693   0.878   5.794
 8915SOL     OW27643   1.460   2.431   4.010
 8915SOL    HW127644   1.366   2.402   3.998
 8915SOL    HW227645   1.472   2.523   3.972
 8916SOL     OW27646   0.733   3.416   2.017
 8916SOL    HW127647   0.792   3.348   1.972
 8916SOL    HW227648   0.662   3.369   2.070
 8917SOL     OW27649   5.967   5.140   5.911
 8917SOL    HW127650   5.978   5.041   5.908
 8917SOL    HW227651   5.940   5.168   6.003
 8918SOL     OW27652   6.853   5.971   0.386
 8918SOL    HW127653   6.909   5.983   0.305
 8918SOL    HW227654   6.899   6.009   0.466
 8919SOL     OW27655   4.375   3.363   0.586
 8919SOL    HW127656   4.471   3.349   0.565
 8919SOL    HW227657   4.319   3.306   0.526
 8920SOL     OW27658   6.838   6.507   6.759
 8920SOL    HW127659   6.931   6.481   6.735
 8920SOL    HW227660   6.839   6.571   6.836
 8921SOL     OW27661   1.803   1.769   3.185
 8921SOL    HW127662   1.828   1.694   3.123
 8921SOL    HW227663   1.714   1.806   3.158
 8922SOL     OW27664   2.364   5.156   0.999
 8922SOL    HW127665   2.458   5.126   0.985
 8922SOL    HW227666   2.301   5.079   0.989
 8923SOL     OW27667   2.243   3.826   6.365
 8923SOL    HW127668   2.311   3.899   6.357
 8923SOL    HW227669   2.255   3.761   6.290
 8924SOL     OW27670   2.846   5.751   5.610
 8924SOL    HW127671   2.788   5.812   5.665
 8924SOL    HW227672   2.937   5.745   5.651
 8925SOL     OW27673   0.960   0.642   2.055
 8925SOL    HW127674   0.880   0.610   2.004
 8925SOL    HW227675   0.938   0.646   2.153
 8926SOL     OW27676   5.738   2.692   0.818
 8926SOL    HW127677   5.725   2.754   0.740
 8926SOL    HW227678   5.668   2.621   0.815
 8927SOL     OW27679   2.340   1.835   5.101
 8927SOL    HW127680   2.371   1.892   5.025
 8927SOL    HW227681   2.240   1.827   5.098
 8928SOL     OW27682   7.002   0.904   4.954
 8928SOL    HW127683   0.040   0.963   4.911
 8928SOL    HW227684   6.917   0.907   4.900
 8929SOL     OW27685   0.450   3.787   3.924
 8929SOL    HW127686   0.497   3.699   3.915
 8929SOL    HW227687   0.357   3.778   3.888
 8930SOL     OW27688   1.822   4.747   5.114
 8930SOL    HW127689   1.818   4.684   5.036
 8930SOL    HW227690   1.885   4.821   5.094
 8931SOL     OW27691   3.747   2.773   0.804
 8931SOL    HW127692   3.797   2.859   0.801
 8931SOL    HW227693   3.680   2.771   0.730
 8932SOL     OW27694   5.232   6.993   6.587
 8932SOL    HW127695   5.244   6.915   6.649
 8932SOL    HW227696   5.317   0.016   6.585
 8933SOL     OW27697   0.921   2.008   5.628
 8933SOL    HW127698   0.997   1.963   5.580
 8933SOL    HW227699   0.852   2.036   5.561
 8934SOL     OW27700   2.620   5.284   3.386
 8934SOL    HW127701   2.539   5.229   3.408
 8934SOL    HW227702   2.674   5.237   3.316
 8935SOL     OW27703   5.058   3.902   1.834
 8935SOL    HW127704   4.972   3.858   1.859
 8935SOL    HW227705   5.112   3.919   1.917
 8936SOL     OW27706   0.278   3.403   0.764
 8936SOL    HW127707   0.217   3.470   0.723
 8936SOL    HW227708   0.236   3.365   0.846
 8937SOL     OW27709   0.544   0.963   4.187
 8937SOL    HW127710   0.480   0.964   4.111
 8937SOL    HW227711   0.638   0.965   4.152
 8938SOL     OW27712   6.324   1.485   0.510
 8938SOL    HW127713   6.410   1.491   0.561
 8938SOL    HW227714   6.326   1.404   0.451
 8939SOL     OW27715   6.478   2.858   4.721
 8939SOL    HW127716   6.569   2.855   4.680
 8939SOL    HW227717   6.484   2.899   4.812
 8940SOL     OW27718   6.558   2.424   0.255
 8940SOL    HW127719   6.640   2.370   0.238
 8940SOL    HW227720   6.504   2.430   0.171
 8941SOL     OW27721   5.090   2.030   1.763
 8941SOL    HW127722   5.058   2.047   1.856
 8941SOL    HW227723   5.178   2.076   1.750
 8942SOL     OW27724   0.411   5.045   4.011
 8942SOL    HW127725   0.323   5.088   3.992
 8942SOL    HW227726   0.467   5.106   4.067
 8943SOL     OW27727   4.233   4.393   0.132
 8943SOL    HW127728   4.147   4.433   0.100
 8943SOL    HW227729   4.233   4.295   0.112
 8944SOL     OW27730   4.710   4.659   4.290
 8944SOL    HW127731   4.733   4.580   4.233
 8944SOL    HW227732   4.794   4.705   4.318
 8945SOL     OW27733   6.721   3.131   4.727
 8945SOL    HW127734   6.758   3.041   4.749
 8945SOL    HW227735   6.794   3.199   4.729
 8946SOL     OW27736   3.745   0.454   4.929
 8946SOL    HW127737   3.695   0.368   4.936
 8946SOL    HW227738   3.833   0.446   4.977
 8947SOL     OW27739   1.628   4.483   6.565
 8947SOL    HW127740   1.645   4.391   6.598
 8947SOL    HW227741   1.699   4.545   6.599
 8948SOL     OW27742   6.756   6.139   4.040
 8948SOL    HW127743   6.805   6.153   4.126
 8948SOL    HW227744   6.703   6.221   4.018
 8949SOL     OW27745   3.782   6.078   0.061
 8949SOL    HW127746   3.851   6.143   0.094
 8949SOL    HW227747   3.762   6.012   0.133
 8950SOL     OW27748   4.777   3.815   1.152
 8950SOL    HW127749   4.788   3.716   1.149
 8950SOL    HW227750   4.692   3.837   1.200
 8951SOL     OW27751   2.302   1.051   4.240
 8951SOL    HW127752   2.283   1.104   4.157
 8951SOL    HW227753   2.337   0.960   4.215
 8952SOL     OW27754   2.080   4.624   4.001
 8952SOL    HW127755   2.133   4.628   3.917
 8952SOL    HW227756   1.984   4.605   3.979
 8953SOL     OW27757   2.473   5.327   1.773
 8953SOL    HW127758   2.469   5.232   1.804
 8953SOL    HW227759   2.555   5.340   1.716
 8954SOL     OW27760   0.913   5.840   4.061
 8954SOL    HW127761   0.973   5.851   3.982
 8954SOL    HW227762   0.955   5.777   4.126
 8955SOL     OW27763   6.954   2.923   2.734
 8955SOL    HW127764   6.918   2.903   2.643
 8955SOL    HW227765   0.015   2.965   2.725
 8956SOL     OW27766   0.788   6.904   6.483
 8956SOL    HW127767   0.781   6.834   6.554
 8956SOL    HW227768   0.759   6.865   6.396
 8957SOL     OW27769   2.147   5.394   1.954
 8957SOL    HW127770   2.235   5.399   1.908
 8957SOL    HW227771   2.138   5.473   2.016
 8958SOL     OW27772   1.716   2.849   4.922
 8958SOL    HW127773   1.746   2.797   4.843
 8958SOL    HW227774   1.794   2.897   4.962
 8959SOL     OW27775   1.011   3.524   2.308
 8959SOL    HW127776   0.920   3.564   2.324
 8959SOL    HW227777   1.005   3.424   2.316
 8960SOL     OW27778   6.378   4.505   4.132
 8960SOL    HW127779   6.371   4.578   4.064
 8960SOL    HW227780   6.295   4.504   4.187
 8961SOL     OW27781   3.054   0.245   4.107
 8961SOL    HW127782   3.100   0.263   4.194
 8961SOL    HW227783   3.113   0.188   4.049
 8962SOL     OW27784   0.863   6.338   1.593
 8962SOL    HW127785   0.814   6.253   1.612
 8962SOL    HW227786   0.957   6.330   1.627
 8963SOL     OW27787   3.558   5.979   4.517
 8963SOL    HW127788   3.652   5.971   4.550
 8963SOL    HW227789   3.495   5.949   4.589
 8964SOL     OW27790   5.757   3.875   3.093
 8964SOL    HW127791   5.820   3.838   3.162
 8964SOL    HW227792   5.663   3.861   3.123
 8965SOL     OW27793   2.988   4.526   0.122
 8965SOL    HW127794   3.084   4.554   0.120
 8965SOL    HW227795   2.964   4.496   0.215
 8966SOL     OW27796   6.679   5.576   6.383
 8966SOL    HW127797   6.631   5.489   6.379
 8966SOL    HW227798   6.766   5.569   6.334
 8967SOL     OW27799   4.132   0.488   3.722
 8967SOL    HW127800   4.063   0.483   3.794
 8967SOL    HW227801   4.155   0.395   3.691
 8968SOL     OW27802   2.666   4.789   1.685
 8968SOL    HW127803   2.586   4.778   1.744
 8968SOL    HW227804   2.743   4.823   1.739
 8969SOL     OW27805   0.355   6.972   3.265
 8969SOL    HW127806   0.281   6.964   3.331
 8969SOL    HW227807   0.374   0.038   3.246
 8970SOL     OW27808   1.711   2.700   6.274
 8970SOL    HW127809   1.747   2.661   6.189
 8970SOL    HW227810   1.728   2.799   6.275
 8971SOL     OW27811   4.658   6.773   1.325
 8971SOL    HW127812   4.680   6.724   1.409
 8971SOL    HW227813   4.740   6.818   1.289
 8972SOL     OW27814   5.717   4.955   0.423
 8972SOL    HW127815   5.749   4.919   0.336
 8972SOL    HW227816   5.621   4.983   0.415
 8973SOL     OW27817   0.456   2.609   2.297
 8973SOL    HW127818   0.375   2.666   2.287
 8973SOL    HW227819   0.538   2.666   2.288
 8974SOL     OW27820   2.157   3.550   4.221
 8974SOL    HW127821   2.202   3.633   4.252
 8974SOL    HW227822   2.107   3.568   4.136
 8975SOL     OW27823   0.425   6.742   6.594
 8975SOL    HW127824   0.456   6.765   6.686
 8975SOL    HW227825   0.453   6.814   6.531
 8976SOL     OW27826   6.298   6.483   1.287
 8976SOL    HW127827   6.269   6.492   1.382
 8976SOL    HW227828   6.295   6.572   1.242
 8977SOL     OW27829   0.029   4.991   6.417
 8977SOL    HW127830   0.077   5.079   6.407
 8977SOL    HW227831   7.030   4.959   6.327
 8978SOL     OW27832   5.379   6.597   4.897
 8978SOL    HW127833   5.335   6.598   4.987
 8978SOL    HW227834   5.315   6.632   4.828
 8979SOL     OW27835   0.868   5.663   5.930
 8979SOL    HW127836   0.944   5.632   5.987
 8979SOL    HW227837   0.900   5.735   5.868
 8980SOL     OW27838   4.532   2.070   5.886
 8980SOL    HW127839   4.440   2.108   5.878
 8980SOL    HW227840   4.529   1.986   5.939
 8981SOL     OW27841   4.696   2.210   5.740
 8981SOL    HW127842   4.678   2.194   5.643
 8981SOL    HW227843   4.639   2.151   5.796
 8982SOL     OW27844   6.366   1.766   1.487
 8982SOL    HW127845   6.372   1.668   1.504
 8982SOL    HW227846   6.396   1.816   1.568
 8983SOL     OW27847   1.223   4.966   1.942
 8983SOL    HW127848   1.165   4.885   1.946
 8983SOL    HW227849   1.303   4.954   2.000
 8984SOL     OW27850   6.042   0.066   4.288
 8984SOL    HW127851   6.082   0.148   4.328
 8984SOL    HW227852   5.950   0.087   4.253
 8985SOL     OW27853   4.833   1.583   0.783
 8985SOL    HW127854   4.848   1.487   0.806
 8985SOL    HW227855   4.874   1.641   0.854
 8986SOL     OW27856   5.167   4.419   2.161
 8986SOL    HW127857   5.118   4.334   2.143
 8986SOL    HW227858   5.246   4.401   2.219
 8987SOL     OW27859   3.140   0.602   1.084
 8987SOL    HW127860   3.191   0.624   1.167
 8987SOL    HW227861   3.192   0.632   1.004
 8988SOL     OW27862   1.744   5.407   1.012
 8988SOL    HW127863   1.717   5.450   1.097
 8988SOL    HW227864   1.758   5.477   0.941
 8989SOL     OW27865   5.030   2.856   2.799
 8989SOL    HW127866   5.055   2.832   2.893
 8989SOL    HW227867   4.935   2.888   2.798
 8990SOL     OW27868   2.705   6.186   0.790
 8990SOL    HW127869   2.667   6.264   0.840
 8990SOL    HW227870   2.747   6.217   0.705
 8991SOL     OW27871   2.271   2.729   1.081
 8991SOL    HW127872   2.339   2.738   1.009
 8991SOL    HW227873   2.254   2.632   1.099
 8992SOL     OW27874   0.350   3.024   0.296
 8992SOL    HW127875   0.374   2.942   0.246
 8992SOL    HW227876   0.252   3.043   0.285
 8993SOL     OW27877   4.794   1.939   3.507
 8993SOL    HW127878   4.835   1.952   3.597
 8993SOL    HW227879   4.860   1.964   3.436
 8994SOL     OW27880   1.663   4.945   4.597
 8994SOL    HW127881   1.721   4.959   4.678
 8994SOL    HW227882   1.581   4.894   4.624
 8995SOL     OW27883   1.051   2.836   5.136
 8995SOL    HW127884   1.051   2.737   5.148
 8995SOL    HW227885   0.957   2.869   5.128
 8996SOL     OW27886   0.613   3.552   0.966
 8996SOL    HW127887   0.528   3.553   1.019
 8996SOL    HW227888   0.616   3.470   0.909
 8997SOL     OW27889   5.158   1.136   5.728
 8997SOL    HW127890   5.089   1.143   5.656
 8997SOL    HW227891   5.114   1.119   5.816
 8998SOL     OW27892   0.114   2.429   4.954
 8998SOL    HW127893   0.120   2.342   5.003
 8998SOL    HW227894   0.021   2.464   4.960
 8999SOL     OW27895   5.310   1.154   6.392
 8999SOL    HW127896   5.368   1.076   6.371
 8999SOL    HW227897   5.288   1.203   6.308
 9000SOL     OW27898   3.107   3.875   6.849
 9000SOL    HW127899   3.014   3.871   6.884
 9000SOL    HW227900   3.166   3.921   6.915
 9001SOL     OW27901   1.392   4.563   3.534
 9001SOL    HW127902   1.413   4.653   3.572
 9001SOL    HW227903   1.476   4.508   3.532
 9002SOL     OW27904   6.804   5.390   5.609
 9002SOL    HW127905   6.803   5.318   5.678
 9002SOL    HW227906   6.817   5.349   5.518
 9003SOL     OW27907   6.792   2.316   0.198
 9003SOL    HW127908   6.829   2.322   0.291
 9003SOL    HW227909   6.828   2.392   0.144
 9004SOL     OW27910   4.997   6.890   1.457
 9004SOL    HW127911   4.972   6.873   1.552
 9004SOL    HW227912   4.956   6.976   1.427
 9005SOL     OW27913   5.130   2.101   4.091
 9005SOL    HW127914   5.202   2.063   4.150
 9005SOL    HW227915   5.086   2.026   4.040
 9006SOL     OW27916   1.291   5.478   1.049
 9006SOL    HW127917   1.277   5.412   1.123
 9006SOL    HW227918   1.314   5.429   0.965
 9007SOL     OW27919   2.944   5.133   3.390
 9007SOL    HW127920   2.893   5.100   3.470
 9007SOL    HW227921   2.913   5.224   3.365
 9008SOL     OW27922   6.611   4.620   2.571
 9008SOL    HW127923   6.705   4.609   2.539
 9008SOL    HW227924   6.608   4.609   2.671
 9009SOL     OW27925   2.919   6.713   0.909
 9009SOL    HW127926   2.948   6.618   0.920
 9009SOL    HW227927   2.839   6.730   0.967
 9010SOL     OW27928   1.003   6.635   4.444
 9010SOL    HW127929   1.087   6.669   4.487
 9010SOL    HW227930   0.974   6.551   4.489
 9011SOL     OW27931   4.078   2.207   1.391
 9011SOL    HW127932   4.041   2.287   1.343
 9011SOL    HW227933   4.010   2.174   1.457
 9012SOL     OW27934   1.543   5.249   0.846
 9012SOL    HW127935   1.588   5.323   0.896
 9012SOL    HW227936   1.574   5.161   0.883
 9013SOL     OW27937   6.372   6.033   4.595
 9013SOL    HW127938   6.466   6.057   4.573
 9013SOL    HW227939   6.362   5.933   4.596
 9014SOL     OW27940   1.809   1.375   0.053
 9014SOL    HW127941   1.711   1.369   0.071
 9014SOL    HW227942   1.848   1.453   0.102
 9015SOL     OW27943   0.140   1.109   6.769
 9015SOL    HW127944   0.103   1.112   6.862
 9015SOL    HW227945   0.174   1.199   6.744
 9016SOL     OW27946   6.748   6.424   5.706
 9016SOL    HW127947   6.650   6.435   5.724
 9016SOL    HW227948   6.795   6.509   5.730
 9017SOL     OW27949   6.159   1.979   3.976
 9017SOL    HW127950   6.195   1.913   3.910
 9017SOL    HW227951   6.122   1.931   4.056
 9018SOL     OW27952   3.862   1.359   5.261
 9018SOL    HW127953   3.884   1.436   5.201
 9018SOL    HW227954   3.797   1.298   5.214
 9019SOL     OW27955   2.334   6.646   6.719
 9019SOL    HW127956   2.305   6.670   6.627
 9019SOL    HW227957   2.434   6.644   6.724
 9020SOL     OW27958   1.791   4.381   2.272
 9020SOL    HW127959   1.714   4.441   2.292
 9020SOL    HW227960   1.759   4.303   2.219
 9021SOL     OW27961   6.667   6.735   4.002
 9021SOL    HW127962   6.636   6.724   3.908
 9021SOL    HW227963   6.648   6.828   4.033
 9022SOL     OW27964   2.371   0.135   0.397
 9022SOL    HW127965   2.440   0.204   0.420
 9022SOL    HW227966   2.417   0.047   0.382
 9023SOL     OW27967   3.304   3.674   3.802
 9023SOL    HW127968   3.230   3.668   3.869
 9023SOL    HW227969   3.350   3.763   3.810
 9024SOL     OW27970   1.648   6.176   6.160
 9024SOL    HW127971   1.625   6.079   6.161
 9024SOL    HW227972   1.704   6.198   6.240
 9025SOL     OW27973   6.350   5.453   1.258
 9025SOL    HW127974   6.403   5.396   1.321
 9025SOL    HW227975   6.353   5.548   1.289
 9026SOL     OW27976   3.694   3.010   4.096
 9026SOL    HW127977   3.614   3.058   4.058
 9026SOL    HW227978   3.762   2.999   4.024
 9027SOL     OW27979   2.901   2.078   3.199
 9027SOL    HW127980   2.834   2.097   3.271
 9027SOL    HW227981   2.900   2.154   3.133
 9028SOL     OW27982   2.061   4.819   6.370
 9028SOL    HW127983   2.132   4.770   6.319
 9028SOL    HW227984   2.060   4.915   6.342
 9029SOL     OW27985   3.572   4.942   4.754
 9029SOL    HW127986   3.566   4.903   4.662
 9029SOL    HW227987   3.483   4.935   4.799
 9030SOL     OW27988   1.931   0.931   2.205
 9030SOL    HW127989   1.837   0.965   2.193
 9030SOL    HW227990   1.995   1.008   2.197
 9031SOL     OW27991   3.275   5.720   5.186
 9031SOL    HW127992   3.240   5.750   5.274
 9031SOL    HW227993   3.217   5.646   5.151
 9032SOL     OW27994   3.117   2.696   1.090
 9032SOL    HW127995   3.038   2.674   1.148
 9032SOL    HW227996   3.084   2.735   1.004
 9033SOL     OW27997   2.170   2.992   4.322
 9033SOL    HW127998   2.157   3.059   4.395
 9033SOL    HW227999   2.244   2.930   4.347
 9034SOL     OW28000   2.672   7.000   5.354
 9034SOL    HW128001   2.591   6.953   5.318
 9034SOL    HW228002   2.718   0.018   5.280
 9035SOL     OW28003   0.571   6.720   5.247
 9035SOL    HW128004   0.570   6.660   5.168
 9035SOL    HW228005   0.506   6.795   5.233
 9036SOL     OW28006   2.038   2.672   5.352
 9036SOL    HW128007   1.973   2.649   5.425
 9036SOL    HW228008   2.076   2.763   5.368
 9037SOL     OW28009   2.475   3.940   6.361
 9037SOL    HW128010   2.553   3.980   6.409
 9037SOL    HW228011   2.508   3.868   6.299
 9038SOL     OW28012   5.617   0.925   6.068
 9038SOL    HW128013   5.651   0.852   6.008
 9038SOL    HW228014   5.517   0.926   6.067
 9039SOL     OW28015   1.839   4.431   5.610
 9039SOL    HW128016   1.791   4.352   5.648
 9039SOL    HW228017   1.849   4.501   5.680
 9040SOL     OW28018   2.640   0.768   2.915
 9040SOL    HW128019   2.622   0.783   2.818
 9040SOL    HW228020   2.591   0.837   2.969
 9041SOL     OW28021   0.568   1.863   2.131
 9041SOL    HW128022   0.486   1.883   2.077
 9041SOL    HW228023   0.545   1.857   2.228
 9042SOL     OW28024   3.014   6.729   3.456
 9042SOL    HW128025   2.957   6.662   3.502
 9042SOL    HW228026   2.977   6.821   3.470
 9043SOL     OW28027   2.088   2.056   6.062
 9043SOL    HW128028   2.165   2.047   6.125
 9043SOL    HW228029   2.072   2.153   6.042
 9044SOL     OW28030   6.143   1.042   0.394
 9044SOL    HW128031   6.178   0.986   0.319
 9044SOL    HW228032   6.073   1.104   0.360
 9045SOL     OW28033   4.074   0.665   3.187
 9045SOL    HW128034   4.052   0.662   3.285
 9045SOL    HW228035   3.990   0.675   3.135
 9046SOL     OW28036   3.727   4.196   5.670
 9046SOL    HW128037   3.810   4.148   5.641
 9046SOL    HW228038   3.751   4.284   5.709
 9047SOL     OW28039   1.891   4.201   5.215
 9047SOL    HW128040   1.989   4.205   5.234
 9047SOL    HW228041   1.865   4.107   5.191
 9048SOL     OW28042   1.868   3.669   5.854
 9048SOL    HW128043   1.953   3.699   5.896
 9048SOL    HW228044   1.876   3.676   5.754
 9049SOL     OW28045   5.094   6.051   6.353
 9049SOL    HW128046   5.070   6.110   6.430
 9049SOL    HW228047   5.062   5.958   6.372
 9050SOL     OW28048   0.888   5.314   0.181
 9050SOL    HW128049   0.939   5.352   0.104
 9050SOL    HW228050   0.854   5.388   0.239
 9051SOL     OW28051   4.230   6.294   0.885
 9051SOL    HW128052   4.301   6.345   0.836
 9051SOL    HW228053   4.156   6.271   0.823
 9052SOL     OW28054   2.649   4.639   4.509
 9052SOL    HW128055   2.655   4.655   4.607
 9052SOL    HW228056   2.702   4.709   4.460
 9053SOL     OW28057   2.463   2.529   3.947
 9053SOL    HW128058   2.537   2.462   3.937
 9053SOL    HW228059   2.388   2.506   3.884
 9054SOL     OW28060   1.821   0.457   2.107
 9054SOL    HW128061   1.850   0.547   2.141
 9054SOL    HW228062   1.787   0.466   2.014
 9055SOL     OW28063   0.724   3.585   3.553
 9055SOL    HW128064   0.807   3.548   3.512
 9055SOL    HW228065   0.741   3.678   3.586
 9056SOL     OW28066   4.959   0.777   1.647
 9056SOL    HW128067   5.004   0.838   1.582
 9056SOL    HW228068   5.022   0.705   1.675
 9057SOL     OW28069   6.014   4.636   6.477
 9057SOL    HW128070   6.098   4.675   6.440
 9057SOL    HW228071   6.002   4.666   6.572
 9058SOL     OW28072   1.765   1.856   4.709
 9058SOL    HW128073   1.707   1.907   4.771
 9058SOL    HW228074   1.841   1.913   4.679
 9059SOL     OW28075   6.366   0.690   3.254
 9059SOL    HW128076   6.425   0.737   3.187
 9059SOL    HW228077   6.424   0.641   3.320
 9060SOL     OW28078   6.885   3.486   2.204
 9060SOL    HW128079   6.943   3.526   2.133
 9060SOL    HW228080   6.912   3.391   2.220
 9061SOL     OW28081   4.627   5.453   3.039
 9061SOL    HW128082   4.577   5.539   3.028
 9061SOL    HW228083   4.616   5.419   3.133
 9062SOL     OW28084   1.251   4.579   1.893
 9062SOL    HW128085   1.320   4.649   1.912
 9062SOL    HW228086   1.161   4.613   1.917
 9063SOL     OW28087   3.113   1.523   2.456
 9063SOL    HW128088   3.018   1.507   2.481
 9063SOL    HW228089   3.166   1.544   2.538
 9064SOL     OW28090   6.551   4.264   4.319
 9064SOL    HW128091   6.612   4.187   4.304
 9064SOL    HW228092   6.528   4.306   4.231
 9065SOL     OW28093   2.628   6.156   5.650
 9065SOL    HW128094   2.609   6.171   5.553
 9065SOL    HW228095   2.543   6.157   5.702
 9066SOL     OW28096   6.580   6.935   6.015
 9066SOL    HW128097   6.490   6.894   6.030
 9066SOL    HW228098   6.591   6.955   5.917
 9067SOL     OW28099   6.663   6.175   4.722
 9067SOL    HW128100   6.642   6.272   4.731
 9067SOL    HW228101   6.738   6.163   4.657
 9068SOL     OW28102   3.832   6.904   5.114
 9068SOL    HW128103   3.911   6.965   5.111
 9068SOL    HW228104   3.750   6.957   5.137
 9069SOL     OW28105   5.263   2.481   2.869
 9069SOL    HW128106   5.218   2.411   2.924
 9069SOL    HW228107   5.194   2.543   2.831
 9070SOL     OW28108   1.669   2.320   6.465
 9070SOL    HW128109   1.683   2.293   6.370
 9070SOL    HW228110   1.750   2.297   6.519
 9071SOL     OW28111   5.326   0.743   6.191
 9071SOL    HW128112   5.332   0.811   6.118
 9071SOL    HW228113   5.274   0.780   6.268
 9072SOL     OW28114   4.972   6.921   1.757
 9072SOL    HW128115   5.053   6.929   1.815
 9072SOL    HW228116   4.916   7.004   1.766
 9073SOL     OW28117   4.231   6.584   0.666
 9073SOL    HW128118   4.199   6.674   0.697
 9073SOL    HW228119   4.320   6.565   0.709
 9074SOL     OW28120   1.775   0.868   1.131
 9074SOL    HW128121   1.716   0.807   1.077
 9074SOL    HW228122   1.720   0.943   1.168
 9075SOL     OW28123   0.091   0.669   2.241
 9075SOL    HW128124   0.108   0.647   2.145
 9075SOL    HW228125   7.029   0.705   2.251
 9076SOL     OW28126   4.653   1.380   3.992
 9076SOL    HW128127   4.625   1.313   4.060
 9076SOL    HW228128   4.605   1.362   3.906
 9077SOL     OW28129   4.746   1.518   6.280
 9077SOL    HW128130   4.651   1.547   6.288
 9077SOL    HW228131   4.763   1.441   6.342
 9078SOL     OW28132   5.633   5.148   6.256
 9078SOL    HW128133   5.678   5.211   6.193
 9078SOL    HW228134   5.562   5.196   6.307
 9079SOL     OW28135   1.486   0.359   5.026
 9079SOL    HW128136   1.581   0.340   5.049
 9079SOL    HW228137   1.427   0.336   5.103
 9080SOL     OW28138   6.405   2.830   6.839
 9080SOL    HW128139   6.410   2.872   6.748
 9080SOL    HW228140   6.379   2.900   6.906
 9081SOL     OW28141   3.460   1.870   1.423
 9081SOL    HW128142   3.505   1.847   1.337
 9081SOL    HW228143   3.426   1.964   1.419
 9082SOL     OW28144   2.878   6.708   4.795
 9082SOL    HW128145   2.829   6.691   4.710
 9082SOL    HW228146   2.813   6.728   4.868
 9083SOL     OW28147   4.515   4.338   6.159
 9083SOL    HW128148   4.612   4.324   6.178
 9083SOL    HW228149   4.463   4.331   6.244
 9084SOL     OW28150   0.891   2.191   6.475
 9084SOL    HW128151   0.861   2.283   6.450
 9084SOL    HW228152   0.988   2.179   6.453
 9085SOL     OW28153   2.471   5.897   1.532
 9085SOL    HW128154   2.564   5.859   1.540
 9085SOL    HW228155   2.461   5.973   1.596
 9086SOL     OW28156   6.199   4.284   0.964
 9086SOL    HW128157   6.297   4.294   0.951
 9086SOL    HW228158   6.177   4.294   1.061
 9087SOL     OW28159   5.611   2.898   2.710
 9087SOL    HW128160   5.600   2.978   2.769
 9087SOL    HW228161   5.524   2.849   2.703
 9088SOL     OW28162   5.522   7.002   1.821
 9088SOL    HW128163   5.532   0.008   1.914
 9088SOL    HW228164   5.440   0.010   1.779
 9089SOL     OW28165   4.142   5.657   5.065
 9089SOL    HW128166   4.065   5.611   5.110
 9089SOL    HW228167   4.227   5.611   5.090
 9090SOL     OW28168   4.976   6.502   4.714
 9090SOL    HW128169   5.018   6.412   4.710
 9090SOL    HW228170   4.878   6.495   4.692
 9091SOL     OW28171   2.950   2.865   0.934
 9091SOL    HW128172   3.043   2.891   0.909
 9091SOL    HW228173   2.923   2.911   1.018
 9092SOL     OW28174   1.480   0.958   6.411
 9092SOL    HW128175   1.560   0.975   6.470
 9092SOL    HW228176   1.408   1.023   6.436
 9093SOL     OW28177   1.721   6.389   7.022
 9093SOL    HW128178   1.723   6.416   6.926
 9093SOL    HW228179   1.636   6.340   0.011
 9094SOL     OW28180   0.877   5.346   3.132
 9094SOL    HW128181   0.880   5.393   3.220
 9094SOL    HW228182   0.940   5.391   3.068
 9095SOL     OW28183   5.317   3.913   6.373
 9095SOL    HW128184   5.264   3.938   6.292
 9095SOL    HW228185   5.329   3.993   6.431
 9096SOL     OW28186   5.163   3.271   2.929
 9096SOL    HW128187   5.127   3.358   2.963
 9096SOL    HW228188   5.254   3.286   2.890
 9097SOL     OW28189   0.210   3.292   0.129
 9097SOL    HW128190   0.232   3.389   0.121
 9097SOL    HW228191   0.117   3.276   0.097
 9098SOL     OW28192   3.704   3.362   1.124
 9098SOL    HW128193   3.725   3.386   1.029
 9098SOL    HW228194   3.650   3.278   1.125
 9099SOL     OW28195   3.455   3.708   0.795
 9099SOL    HW128196   3.537   3.654   0.774
 9099SOL    HW228197   3.392   3.653   0.850
 9100SOL     OW28198   1.148   2.841   2.773
 9100SOL    HW128199   1.107   2.914   2.827
 9100SOL    HW228200   1.077   2.791   2.724
 9101SOL     OW28201   2.191   2.826   2.860
 9101SOL    HW128202   2.131   2.901   2.887
 9101SOL    HW228203   2.241   2.851   2.777
 9102SOL     OW28204   3.553   6.527   1.446
 9102SOL    HW128205   3.515   6.568   1.363
 9102SOL    HW228206   3.648   6.500   1.429
 9103SOL     OW28207   6.645   3.818   0.126
 9103SOL    HW128208   6.556   3.778   0.102
 9103SOL    HW228209   6.691   3.849   0.042
 9104SOL     OW28210   4.074   5.979   2.040
 9104SOL    HW128211   4.083   6.051   1.971
 9104SOL    HW228212   3.981   5.979   2.077
 9105SOL     OW28213   1.181   0.701   0.355
 9105SOL    HW128214   1.174   0.640   0.276
 9105SOL    HW228215   1.155   0.793   0.328
 9106SOL     OW28216   5.605   3.954   6.746
 9106SOL    HW128217   5.573   4.013   6.672
 9106SOL    HW228218   5.703   3.938   6.735
 9107SOL     OW28219   4.213   0.507   6.349
 9107SOL    HW128220   4.206   0.449   6.268
 9107SOL    HW228221   4.270   0.463   6.418
 9108SOL     OW28222   4.816   4.401   5.985
 9108SOL    HW128223   4.822   4.307   6.016
 9108SOL    HW228224   4.744   4.410   5.916
 9109SOL     OW28225   1.411   2.579   2.763
 9109SOL    HW128226   1.454   2.592   2.852
 9109SOL    HW228227   1.314   2.602   2.769
 9110SOL     OW28228   2.012   4.351   4.079
 9110SOL    HW128229   2.045   4.444   4.065
 9110SOL    HW228230   1.970   4.343   4.169
 9111SOL     OW28231   4.423   3.689   0.537
 9111SOL    HW128232   4.420   3.599   0.580
 9111SOL    HW228233   4.351   3.747   0.576
 9112SOL     OW28234   0.577   4.619   4.545
 9112SOL    HW128235   0.541   4.712   4.546
 9112SOL    HW228236   0.542   4.571   4.464
 9113SOL     OW28237   4.486   6.381   0.792
 9113SOL    HW128238   4.481   6.468   0.841
 9113SOL    HW228239   4.562   6.327   0.828
 9114SOL     OW28240   1.759   4.983   1.569
 9114SOL    HW128241   1.839   5.040   1.587
 9114SOL    HW228242   1.755   4.909   1.635
 9115SOL     OW28243   1.201   6.042   5.806
 9115SOL    HW128244   1.237   6.091   5.726
 9115SOL    HW228245   1.277   6.005   5.859
 9116SOL     OW28246   6.526   2.213   0.811
 9116SOL    HW128247   6.602   2.262   0.854
 9116SOL    HW228248   6.516   2.242   0.716
 9117SOL     OW28249   6.139   2.863   0.024
 9117SOL    HW128250   6.196   2.903   6.982
 9117SOL    HW228251   6.193   2.794   0.074
 9118SOL     OW28252   6.629   5.782   0.670
 9118SOL    HW128253   6.646   5.729   0.753
 9118SOL    HW228254   6.648   5.879   0.688
 9119SOL     OW28255   5.379   1.527   2.370
 9119SOL    HW128256   5.437   1.458   2.328
 9119SOL    HW228257   5.348   1.591   2.299
 9120SOL     OW28258   6.001   3.369   5.738
 9120SOL    HW128259   5.950   3.293   5.699
 9120SOL    HW228260   5.989   3.370   5.837
 9121SOL     OW28261   1.848   2.790   6.633
 9121SOL    HW128262   1.852   2.777   6.534
 9121SOL    HW228263   1.818   2.705   6.677
 9122SOL     OW28264   1.706   3.289   2.152
 9122SOL    HW128265   1.702   3.350   2.073
 9122SOL    HW228266   1.708   3.194   2.120
 9123SOL     OW28267   3.800   0.164   4.918
 9123SOL    HW128268   3.858   0.224   4.972
 9123SOL    HW228269   3.836   0.070   4.921
 9124SOL     OW28270   5.648   6.983   5.588
 9124SOL    HW128271   5.688   6.999   5.497
 9124SOL    HW228272   5.602   0.036   5.618
 9125SOL     OW28273   5.225   3.935   2.068
 9125SOL    HW128274   5.213   4.027   2.104
 9125SOL    HW228275   5.318   3.924   2.033
 9126SOL     OW28276   5.563   2.205   2.421
 9126SOL    HW128277   5.532   2.166   2.508
 9126SOL    HW228278   5.590   2.300   2.435
 9127SOL     OW28279   6.620   1.649   6.212
 9127SOL    HW128280   6.676   1.728   6.186
 9127SOL    HW228281   6.580   1.665   6.302
 9128SOL     OW28282   4.245   1.417   5.036
 9128SOL    HW128283   4.168   1.366   4.997
 9128SOL    HW228284   4.218   1.456   5.124
 9129SOL     OW28285   0.382   3.140   1.338
 9129SOL    HW128286   0.318   3.213   1.317
 9129SOL    HW228287   0.338   3.052   1.325
 9130SOL     OW28288   6.723   3.182   0.720
 9130SOL    HW128289   6.679   3.149   0.803
 9130SOL    HW228290   6.768   3.269   0.739
 9131SOL     OW28291   6.996   3.081   5.881
 9131SOL    HW128292   6.910   3.131   5.878
 9131SOL    HW228293   0.042   3.145   5.892
 9132SOL     OW28294   0.154   4.812   4.494
 9132SOL    HW128295   0.144   4.712   4.496
 9132SOL    HW228296   0.249   4.836   4.476
 9133SOL     OW28297   3.793   6.491   1.282
 9133SOL    HW128298   3.847   6.562   1.236
 9133SOL    HW228299   3.739   6.441   1.214
 9134SOL     OW28300   4.127   5.703   0.528
 9134SOL    HW128301   4.088   5.682   0.618
 9134SOL    HW228302   4.207   5.762   0.540
 9135SOL     OW28303   6.494   5.929   1.819
 9135SOL    HW128304   6.590   5.946   1.794
 9135SOL    HW228305   6.488   5.845   1.872
 9136SOL     OW28306   5.495   5.310   5.883
 9136SOL    HW128307   5.552   5.368   5.825
 9136SOL    HW228308   5.399   5.337   5.872
 9137SOL     OW28309   5.336   2.095   1.380
 9137SOL    HW128310   5.339   2.136   1.289
 9137SOL    HW228311   5.256   2.130   1.429
 9138SOL     OW28312   6.477   5.689   5.786
 9138SOL    HW128313   6.547   5.706   5.856
 9138SOL    HW228314   6.513   5.624   5.719
 9139SOL     OW28315   2.329   1.731   4.604
 9139SOL    HW128316   2.417   1.683   4.604
 9139SOL    HW228317   2.278   1.707   4.521
 9140SOL     OW28318   6.135   3.117   2.759
 9140SOL    HW128319   6.230   3.127   2.729
 9140SOL    HW228320   6.075   3.111   2.680
 9141SOL     OW28321   5.826   0.554   6.745
 9141SOL    HW128322   5.746   0.538   6.803
 9141SOL    HW228323   5.797   0.568   6.650
 9142SOL     OW28324   0.997   1.919   0.993
 9142SOL    HW128325   0.943   1.876   0.920
 9142SOL    HW228326   1.043   2.000   0.957
 9143SOL     OW28327   5.578   2.701   1.436
 9143SOL    HW128328   5.610   2.671   1.347
 9143SOL    HW228329   5.508   2.772   1.425
 9144SOL     OW28330   2.547   5.451   5.456
 9144SOL    HW128331   2.568   5.380   5.523
 9144SOL    HW228332   2.632   5.484   5.416
 9145SOL     OW28333   6.715   5.210   0.310
 9145SOL    HW128334   6.725   5.269   0.391
 9145SOL    HW228335   6.629   5.232   0.264
 9146SOL     OW28336   5.110   2.797   3.080
 9146SOL    HW128337   5.137   2.847   3.162
 9146SOL    HW228338   5.108   2.699   3.100
 9147SOL     OW28339   5.985   0.388   3.897
 9147SOL    HW128340   5.985   0.385   3.797
 9147SOL    HW228341   6.059   0.331   3.932
 9148SOL     OW28342   5.090   6.286   0.566
 9148SOL    HW128343   5.089   6.279   0.665
 9148SOL    HW228344   5.006   6.330   0.535
 9149SOL     OW28345   5.655   3.333   3.603
 9149SOL    HW128346   5.663   3.422   3.559
 9149SOL    HW228347   5.631   3.264   3.535
 9150SOL     OW28348   2.879   5.467   2.581
 9150SOL    HW128349   2.858   5.483   2.678
 9150SOL    HW228350   2.978   5.458   2.570
 9151SOL     OW28351   1.822   4.589   3.897
 9151SOL    HW128352   1.786   4.677   3.867
 9151SOL    HW228353   1.814   4.522   3.824
 9152SOL     OW28354   2.295   4.746   4.983
 9152SOL    HW128355   2.235   4.731   5.062
 9152SOL    HW228356   2.303   4.845   4.966
 9153SOL     OW28357   1.062   3.155   0.867
 9153SOL    HW128358   1.146   3.196   0.902
 9153SOL    HW228359   1.060   3.161   0.767
 9154SOL     OW28360   4.285   5.142   6.271
 9154SOL    HW128361   4.312   5.087   6.350
 9154SOL    HW228362   4.227   5.087   6.210
 9155SOL     OW28363   1.631   3.157   1.819
 9155SOL    HW128364   1.622   3.253   1.843
 9155SOL    HW228365   1.541   3.114   1.818
 9156SOL     OW28366   1.136   2.892   0.931
 9156SOL    HW128367   1.153   2.981   0.890
 9156SOL    HW228368   1.172   2.820   0.872
 9157SOL     OW28369   6.605   4.692   5.834
 9157SOL    HW128370   6.600   4.712   5.932
 9157SOL    HW228371   6.605   4.593   5.820
 9158SOL     OW28372   5.960   3.440   4.804
 9158SOL    HW128373   5.980   3.463   4.709
 9158SOL    HW228374   5.928   3.346   4.810
 9159SOL     OW28375   1.930   0.077   2.188
 9159SOL    HW128376   1.853   0.112   2.241
 9159SOL    HW228377   2.008   0.138   2.198
 9160SOL     OW28378   6.525   0.328   5.164
 9160SOL    HW128379   6.614   0.315   5.207
 9160SOL    HW228380   6.475   0.401   5.211
 9161SOL     OW28381   4.658   4.478   4.883
 9161SOL    HW128382   4.568   4.522   4.877
 9161SOL    HW228383   4.688   4.475   4.978
 9162SOL     OW28384   4.273   0.805   4.596
 9162SOL    HW128385   4.275   0.709   4.566
 9162SOL    HW228386   4.293   0.865   4.519
 9163SOL     OW28387   1.625   2.989   4.373
 9163SOL    HW128388   1.619   3.056   4.447
 9163SOL    HW228389   1.714   2.943   4.377
 9164SOL     OW28390   2.818   1.174   6.418
 9164SOL    HW128391   2.880   1.126   6.356
 9164SOL    HW228392   2.839   1.272   6.417
 9165SOL     OW28393   6.041   2.393   5.583
 9165SOL    HW128394   6.071   2.377   5.489
 9165SOL    HW228395   5.945   2.366   5.592
 9166SOL     OW28396   4.180   5.998   0.757
 9166SOL    HW128397   4.233   6.050   0.691
 9166SOL    HW228398   4.083   6.000   0.731
 9167SOL     OW28399   2.128   2.756   6.985
 9167SOL    HW128400   2.069   2.817   6.933
 9167SOL    HW228401   2.099   2.661   6.971
 9168SOL     OW28402   6.917   0.293   6.388
 9168SOL    HW128403   6.983   0.322   6.319
 9168SOL    HW228404   6.964   0.244   6.461
 9169SOL     OW28405   6.016   1.032   4.464
 9169SOL    HW128406   6.077   0.998   4.535
 9169SOL    HW228407   5.926   1.051   4.502
 9170SOL     OW28408   1.463   5.686   7.006
 9170SOL    HW128409   1.561   5.689   6.986
 9170SOL    HW228410   1.441   5.600   0.023
 9171SOL     OW28411   4.280   4.944   0.772
 9171SOL    HW128412   4.213   4.982   0.836
 9171SOL    HW228413   4.303   5.013   0.704
 9172SOL     OW28414   3.708   1.311   3.726
 9172SOL    HW128415   3.643   1.310   3.802
 9172SOL    HW228416   3.716   1.219   3.689
 9173SOL     OW28417   6.167   3.754   5.011
 9173SOL    HW128418   6.148   3.656   5.017
 9173SOL    HW228419   6.265   3.770   5.018
 9174SOL     OW28420   5.470   3.852   1.727
 9174SOL    HW128421   5.380   3.818   1.702
 9174SOL    HW228422   5.498   3.923   1.663
 9175SOL     OW28423   1.026   0.453   5.082
 9175SOL    HW128424   1.089   0.408   5.018
 9175SOL    HW228425   1.005   0.545   5.049
 9176SOL     OW28426   3.202   1.085   5.316
 9176SOL    HW128427   3.177   1.173   5.355
 9176SOL    HW228428   3.197   1.014   5.387
 9177SOL     OW28429   0.788   4.815   5.206
 9177SOL    HW128430   0.708   4.875   5.208
 9177SOL    HW228431   0.814   4.796   5.111
 9178SOL     OW28432   1.585   5.581   0.358
 9178SOL    HW128433   1.576   5.574   0.457
 9178SOL    HW228434   1.607   5.491   0.320
 9179SOL     OW28435   2.362   4.906   4.518
 9179SOL    HW128436   2.445   4.906   4.574
 9179SOL    HW228437   2.386   4.891   4.422
 9180SOL     OW28438   6.559   2.640   3.140
 9180SOL    HW128439   6.591   2.601   3.053
 9180SOL    HW228440   6.463   2.665   3.131
 9181SOL     OW28441   4.381   1.943   5.330
 9181SOL    HW128442   4.462   1.964   5.276
 9181SOL    HW228443   4.382   1.997   5.414
 9182SOL     OW28444   2.784   6.660   2.012
 9182SOL    HW128445   2.807   6.750   1.975
 9182SOL    HW228446   2.867   6.606   2.023
 9183SOL     OW28447   4.946   5.480   0.514
 9183SOL    HW128448   4.857   5.516   0.486
 9183SOL    HW228449   4.937   5.382   0.534
 9184SOL     OW28450   5.035   1.161   0.687
 9184SOL    HW128451   4.957   1.119   0.732
 9184SOL    HW228452   5.010   1.252   0.655
 9185SOL     OW28453   4.294   6.699   4.457
 9185SOL    HW128454   4.200   6.676   4.433
 9185SOL    HW228455   4.331   6.629   4.519
 9186SOL     OW28456   5.585   5.919   4.620
 9186SOL    HW128457   5.652   5.957   4.557
 9186SOL    HW228458   5.544   5.992   4.674
 9187SOL     OW28459   2.553   2.064   0.724
 9187SOL    HW128460   2.651   2.067   0.702
 9187SOL    HW228461   2.532   1.978   0.769
 9188SOL     OW28462   1.158   6.465   1.191
 9188SOL    HW128463   1.062   6.437   1.196
 9188SOL    HW228464   1.203   6.447   1.278
 9189SOL     OW28465   4.274   5.806   1.554
 9189SOL    HW128466   4.236   5.826   1.464
 9189SOL    HW228467   4.372   5.787   1.545
 9190SOL     OW28468   3.138   4.423   6.065
 9190SOL    HW128469   3.227   4.379   6.052
 9190SOL    HW228470   3.129   4.452   6.160
 9191SOL     OW28471   6.227   2.365   6.286
 9191SOL    HW128472   6.273   2.278   6.305
 9191SOL    HW228473   6.255   2.433   6.354
 9192SOL     OW28474   0.823   3.224   6.000
 9192SOL    HW128475   0.913   3.188   5.975
 9192SOL    HW228476   0.790   3.284   5.928
 9193SOL     OW28477   4.718   4.576   6.939
 9193SOL    HW128478   4.636   4.553   6.991
 9193SOL    HW228479   4.751   4.666   6.966
 9194SOL     OW28480   3.157   0.592   3.355
 9194SOL    HW128481   3.248   0.592   3.315
 9194SOL    HW228482   3.090   0.567   3.285
 9195SOL     OW28483   1.776   1.904   3.657
 9195SOL    HW128484   1.786   1.914   3.558
 9195SOL    HW228485   1.830   1.825   3.688
 9196SOL     OW28486   5.188   0.234   2.757
 9196SOL    HW128487   5.166   0.139   2.735
 9196SOL    HW228488   5.198   0.286   2.672
 9197SOL     OW28489   1.964   5.418   1.592
 9197SOL    HW128490   1.874   5.401   1.634
 9197SOL    HW228491   2.019   5.334   1.597
 9198SOL     OW28492   6.152   5.117   6.704
 9198SOL    HW128493   6.071   5.154   6.748
 9198SOL    HW228494   6.127   5.075   6.617
 9199SOL     OW28495   1.005   3.867   5.982
 9199SOL    HW128496   1.034   3.841   6.074
 9199SOL    HW228497   1.008   3.967   5.973
 9200SOL     OW28498   2.544   6.447   0.022
 9200SOL    HW128499   2.567   6.497   6.969
 9200SOL    HW228500   2.612   6.466   0.093
 9201SOL     OW28501   0.077   2.708   0.293
 9201SOL    HW128502   0.120   2.640   0.352
 9201SOL    HW228503   0.002   2.752   0.342
 9202SOL     OW28504   1.408   6.320   2.403
 9202SOL    HW128505   1.373   6.414   2.397
 9202SOL    HW228506   1.335   6.259   2.431
 9203SOL     OW28507   0.687   4.035   6.267
 9203SOL    HW128508   0.771   4.028   6.321
 9203SOL    HW228509   0.679   4.128   6.230
 9204SOL     OW28510   4.916   2.883   6.219
 9204SOL    HW128511   4.956   2.916   6.133
 9204SOL    HW228512   4.849   2.949   6.252
 9205SOL     OW28513   5.817   4.816   3.466
 9205SOL    HW128514   5.806   4.808   3.367
 9205SOL    HW228515   5.752   4.756   3.512
 9206SOL     OW28516   3.865   5.916   2.676
 9206SOL    HW128517   3.952   5.952   2.643
 9206SOL    HW228518   3.804   5.902   2.599
 9207SOL     OW28519   5.240   3.685   5.962
 9207SOL    HW128520   5.191   3.682   5.875
 9207SOL    HW228521   5.293   3.769   5.967
 9208SOL     OW28522   5.724   4.446   3.447
 9208SOL    HW128523   5.634   4.421   3.411
 9208SOL    HW228524   5.712   4.505   3.527
 9209SOL     OW28525   3.993   0.505   6.778
 9209SOL    HW128526   3.981   0.601   6.752
 9209SOL    HW228527   4.027   0.500   6.872
 9210SOL     OW28528   0.029   0.751   2.587
 9210SOL    HW128529   0.023   0.733   2.489
 9210SOL    HW228530   0.029   0.665   2.637
 9211SOL     OW28531   0.940   2.380   6.154
 9211SOL    HW128532   0.987   2.444   6.092
 9211SOL    HW228533   0.953   2.287   6.122
 9212SOL     OW28534   4.763   5.788   4.131
 9212SOL    HW128535   4.825   5.713   4.107
 9212SOL    HW228536   4.795   5.872   4.088
 9213SOL     OW28537   5.521   3.351   5.167
 9213SOL    HW128538   5.506   3.439   5.123
 9213SOL    HW228539   5.549   3.365   5.262
 9214SOL     OW28540   6.501   3.649   6.517
 9214SOL    HW128541   6.499   3.726   6.580
 9214SOL    HW228542   6.582   3.594   6.533
 9215SOL     OW28543   0.694   2.515   1.354
 9215SOL    HW128544   0.637   2.436   1.327
 9215SOL    HW228545   0.744   2.493   1.437
 9216SOL     OW28546   3.429   0.403   2.283
 9216SOL    HW128547   3.465   0.348   2.208
 9216SOL    HW228548   3.378   0.345   2.346
 9217SOL     OW28549   0.217   2.407   7.011
 9217SOL    HW128550   0.134   2.441   0.025
 9217SOL    HW228551   0.195   2.376   6.918
 9218SOL     OW28552   1.859   6.927   0.054
 9218SOL    HW128553   1.808   6.908   7.000
 9218SOL    HW228554   1.797   6.924   0.132
 9219SOL     OW28555   6.240   3.047   1.249
 9219SOL    HW128556   6.321   3.105   1.239
 9219SOL    HW228557   6.267   2.960   1.290
 9220SOL     OW28558   1.505   6.557   1.289
 9220SOL    HW128559   1.566   6.590   1.361
 9220SOL    HW228560   1.414   6.541   1.328
 9221SOL     OW28561   3.474   0.558   3.340
 9221SOL    HW128562   3.558   0.606   3.315
 9221SOL    HW228563   3.497   0.467   3.374
 9222SOL     OW28564   2.600   6.892   6.101
 9222SOL    HW128565   2.596   6.796   6.130
 9222SOL    HW228566   2.514   6.918   6.058
 9223SOL     OW28567   1.165   1.208   4.146
 9223SOL    HW128568   1.085   1.161   4.107
 9223SOL    HW228569   1.137   1.293   4.189
 9224SOL     OW28570   1.296   4.933   4.856
 9224SOL    HW128571   1.376   4.980   4.892
 9224SOL    HW228572   1.244   4.893   4.931
 9225SOL     OW28573   3.020   6.790   6.223
 9225SOL    HW128574   2.956   6.846   6.276
 9225SOL    HW228575   3.101   6.771   6.278
 9226SOL     OW28576   6.151   6.310   0.615
 9226SOL    HW128577   6.192   6.271   0.697
 9226SOL    HW228578   6.221   6.359   0.563
 9227SOL     OW28579   1.156   5.683   0.617
 9227SOL    HW128580   1.189   5.700   0.525
 9227SOL    HW228581   1.212   5.733   0.683
 9228SOL     OW28582   1.342   2.162   5.440
 9228SOL    HW128583   1.287   2.177   5.521
 9228SOL    HW228584   1.395   2.077   5.450
 9229SOL     OW28585   0.895   5.924   4.865
 9229SOL    HW128586   0.969   5.965   4.917
 9229SOL    HW228587   0.864   5.841   4.910
 9230SOL     OW28588   4.495   1.504   3.713
 9230SOL    HW128589   4.466   1.412   3.738
 9230SOL    HW228590   4.593   1.504   3.695
 9231SOL     OW28591   0.396   4.387   4.611
 9231SOL    HW128592   0.467   4.389   4.541
 9231SOL    HW228593   0.427   4.330   4.688
 9232SOL     OW28594   3.872   5.410   0.375
 9232SOL    HW128595   3.921   5.324   0.388
 9232SOL    HW228596   3.784   5.406   0.422
 9233SOL     OW28597   5.546   5.450   1.950
 9233SOL    HW128598   5.515   5.426   2.041
 9233SOL    HW228599   5.475   5.430   1.883
 9234SOL     OW28600   3.426   5.963   5.923
 9234SOL    HW128601   3.422   5.869   5.955
 9234SOL    HW228602   3.341   5.985   5.875
 9235SOL     OW28603   1.509   3.060   3.487
 9235SOL    HW128604   1.600   3.020   3.480
 9235SOL    HW228605   1.441   2.989   3.504
 9236SOL     OW28606   2.696   4.814   5.877
 9236SOL    HW128607   2.789   4.778   5.873
 9236SOL    HW228608   2.684   4.885   5.808
 9237SOL     OW28609   2.143   5.229   4.470
 9237SOL    HW128610   2.212   5.219   4.399
 9237SOL    HW228611   2.107   5.139   4.494
 9238SOL     OW28612   3.682   1.543   7.021
 9238SOL    HW128613   3.683   1.514   6.926
 9238SOL    HW228614   3.645   1.636   7.028
 9239SOL     OW28615   0.029   4.339   0.435
 9239SOL    HW128616   0.091   4.362   0.510
 9239SOL    HW228617   0.074   4.356   0.348
 9240SOL     OW28618   5.628   1.461   1.266
 9240SOL    HW128619   5.557   1.503   1.323
 9240SOL    HW228620   5.585   1.414   1.189
 9241SOL     OW28621   0.727   5.478   5.277
 9241SOL    HW128622   0.759   5.383   5.281
 9241SOL    HW228623   0.635   5.484   5.316
 9242SOL     OW28624   0.556   5.527   0.424
 9242SOL    HW128625   0.569   5.454   0.491
 9242SOL    HW228626   0.568   5.616   0.469
 9243SOL     OW28627   5.421   6.790   1.447
 9243SOL    HW128628   5.391   6.714   1.504
 9243SOL    HW228629   5.516   6.776   1.419
 9244SOL     OW28630   4.277   5.798   6.568
 9244SOL    HW128631   4.205   5.733   6.542
 9244SOL    HW228632   4.239   5.891   6.571
 9245SOL     OW28633   1.330   4.781   3.365
 9245SOL    HW128634   1.262   4.847   3.397
 9245SOL    HW228635   1.316   4.694   3.412
 9246SOL     OW28636   0.201   5.265   2.630
 9246SOL    HW128637   0.122   5.319   2.602
 9246SOL    HW228638   0.192   5.172   2.594
 9247SOL     OW28639   1.352   6.696   2.736
 9247SOL    HW128640   1.280   6.738   2.790
 9247SOL    HW228641   1.406   6.767   2.691
 9248SOL     OW28642   1.622   2.266   5.109
 9248SOL    HW128643   1.612   2.363   5.085
 9248SOL    HW228644   1.541   2.235   5.160
 9249SOL     OW28645   4.406   4.275   0.362
 9249SOL    HW128646   4.403   4.271   0.262
 9249SOL    HW228647   4.480   4.336   0.390
 9250SOL     OW28648   5.677   2.987   4.325
 9250SOL    HW128649   5.775   2.969   4.318
 9250SOL    HW228650   5.659   3.039   4.409
 9251SOL     OW28651   4.155   2.042   2.949
 9251SOL    HW128652   4.201   1.954   2.957
 9251SOL    HW228653   4.158   2.089   3.037
 9252SOL     OW28654   5.987   0.444   4.500
 9252SOL    HW128655   5.898   0.449   4.454
 9252SOL    HW228656   6.059   0.468   4.434
 9253SOL     OW28657   5.701   6.572   5.417
 9253SOL    HW128658   5.613   6.616   5.397
 9253SOL    HW228659   5.754   6.630   5.479
 9254SOL     OW28660   6.227   4.380   3.016
 9254SOL    HW128661   6.213   4.434   2.933
 9254SOL    HW228662   6.182   4.425   3.093
 9255SOL     OW28663   4.990   3.525   7.009
 9255SOL    HW128664   4.933   3.535   0.061
 9255SOL    HW228665   5.084   3.503   0.006
 9256SOL     OW28666   4.191   6.835   2.827
 9256SOL    HW128667   4.237   6.746   2.831
 9256SOL    HW228668   4.092   6.821   2.834
 9257SOL     OW28669   0.922   3.826   2.921
 9257SOL    HW128670   0.950   3.885   2.997
 9257SOL    HW228671   0.898   3.883   2.843
 9258SOL     OW28672   3.404   3.391   4.081
 9258SOL    HW128673   3.427   3.473   4.029
 9258SOL    HW228674   3.309   3.397   4.111
 9259SOL     OW28675   1.290   2.660   6.912
 9259SOL    HW128676   1.353   2.687   6.840
 9259SOL    HW228677   1.242   2.741   6.946
 9260SOL     OW28678   5.150   1.827   4.749
 9260SOL    HW128679   5.221   1.759   4.767
 9260SOL    HW228680   5.194   1.915   4.730
 9261SOL     OW28681   4.839   0.618   6.664
 9261SOL    HW128682   4.781   0.576   6.734
 9261SOL    HW228683   4.783   0.646   6.586
 9262SOL     OW28684   6.976   3.698   5.775
 9262SOL    HW128685   6.969   3.796   5.795
 9262SOL    HW228686   6.991   3.647   5.860
 9263SOL     OW28687   5.522   5.708   1.876
 9263SOL    HW128688   5.478   5.737   1.960
 9263SOL    HW228689   5.540   5.610   1.879
 9264SOL     OW28690   5.739   4.135   0.436
 9264SOL    HW128691   5.766   4.111   0.529
 9264SOL    HW228692   5.651   4.094   0.414
 9265SOL     OW28693   3.947   1.893   0.239
 9265SOL    HW128694   3.934   1.914   0.142
 9265SOL    HW228695   4.001   1.809   0.248
 9266SOL     OW28696   2.563   6.526   1.687
 9266SOL    HW128697   2.578   6.530   1.786
 9266SOL    HW228698   2.599   6.608   1.644
 9267SOL     OW28699   0.949   3.752   5.689
 9267SOL    HW128700   0.942   3.652   5.692
 9267SOL    HW228701   0.970   3.786   5.781
 9268SOL     OW28702   1.506   5.430   1.611
 9268SOL    HW128703   1.515   5.517   1.564
 9268SOL    HW228704   1.580   5.369   1.584
 9269SOL     OW28705   3.092   1.774   5.937
 9269SOL    HW128706   3.090   1.765   5.838
 9269SOL    HW228707   3.092   1.871   5.962
 9270SOL     OW28708   4.393   6.812   5.877
 9270SOL    HW128709   4.419   6.885   5.815
 9270SOL    HW228710   4.431   6.725   5.844
 9271SOL     OW28711   1.205   6.942   0.014
 9271SOL    HW128712   1.245   6.964   0.103
 9271SOL    HW228713   1.245   7.002   6.975
 9272SOL     OW28714   1.748   5.138   5.111
 9272SOL    HW128715   1.713   5.206   5.176
 9272SOL    HW228716   1.827   5.091   5.151
 9273SOL     OW28717   5.455   6.076   3.477
 9273SOL    HW128718   5.375   6.033   3.434
 9273SOL    HW228719   5.423   6.145   3.543
 9274SOL     OW28720   6.648   2.759   0.327
 9274SOL    HW128721   6.567   2.815   0.312
 9274SOL    HW228722   6.621   2.665   0.347
 9275SOL     OW28723   6.660   2.249   6.894
 9275SOL    HW128724   6.751   2.213   6.913
 9275SOL    HW228725   6.598   2.224   6.968
 9276SOL     OW28726   2.005   4.468   2.436
 9276SOL    HW128727   2.097   4.430   2.446
 9276SOL    HW228728   1.946   4.401   2.392
 9277SOL     OW28729   5.285   3.074   0.727
 9277SOL    HW128730   5.262   3.170   0.743
 9277SOL    HW228731   5.206   3.027   0.688
 9278SOL     OW28732   1.115   0.263   5.872
 9278SOL    HW128733   1.078   0.255   5.779
 9278SOL    HW228734   1.106   0.357   5.904
 9279SOL     OW28735   5.288   0.758   1.966
 9279SOL    HW128736   5.382   0.772   1.933
 9279SOL    HW228737   5.247   0.847   1.987
 9280SOL     OW28738   1.357   1.284   3.350
 9280SOL    HW128739   1.349   1.375   3.310
 9280SOL    HW228740   1.268   1.237   3.345
 9281SOL     OW28741   2.984   4.371   1.006
 9281SOL    HW128742   3.067   4.323   0.977
 9281SOL    HW228743   3.004   4.423   1.090
 9282SOL     OW28744   4.849   0.621   4.466
 9282SOL    HW128745   4.837   0.580   4.557
 9282SOL    HW228746   4.762   0.657   4.434
 9283SOL     OW28747   6.065   0.665   4.052
 9283SOL    HW128748   6.052   0.584   3.996
 9283SOL    HW228749   5.982   0.720   4.053
 9284SOL     OW28750   3.178   4.491   6.343
 9284SOL    HW128751   3.090   4.537   6.340
 9284SOL    HW228752   3.220   4.505   6.432
 9285SOL     OW28753   5.145   2.434   1.102
 9285SOL    HW128754   5.183   2.363   1.162
 9285SOL    HW228755   5.219   2.482   1.056
 9286SOL     OW28756   5.163   6.317   6.662
 9286SOL    HW128757   5.195   6.363   6.745
 9286SOL    HW228758   5.070   6.347   6.641
 9287SOL     OW28759   3.229   5.090   6.735
 9287SOL    HW128760   3.270   5.150   6.667
 9287SOL    HW228761   3.301   5.038   6.782
 9288SOL     OW28762   4.000   1.392   4.294
 9288SOL    HW128763   4.069   1.332   4.337
 9288SOL    HW228764   3.941   1.431   4.364
 9289SOL     OW28765   4.224   1.463   2.676
 9289SOL    HW128766   4.279   1.461   2.593
 9289SOL    HW228767   4.209   1.557   2.705
 9290SOL     OW28768   4.956   1.608   3.157
 9290SOL    HW128769   4.954   1.548   3.078
 9290SOL    HW228770   4.891   1.575   3.226
 9291SOL     OW28771   2.078   6.930   3.934
 9291SOL    HW128772   1.996   6.878   3.908
 9291SOL    HW228773   2.154   6.866   3.946
 9292SOL     OW28774   1.186   3.562   7.003
 9292SOL    HW128775   1.231   3.474   6.989
 9292SOL    HW228776   1.232   3.632   6.948
 9293SOL     OW28777   5.602   4.074   0.003
 9293SOL    HW128778   5.692   4.064   0.046
 9293SOL    HW228779   5.609   4.049   6.937
 9294SOL     OW28780   3.418   0.423   4.850
 9294SOL    HW128781   3.441   0.395   4.756
 9294SOL    HW228782   3.472   0.369   4.915
 9295SOL     OW28783   5.656   2.107   4.189
 9295SOL    HW128784   5.740   2.160   4.191
 9295SOL    HW228785   5.608   2.116   4.276
 9296SOL     OW28786   0.407   6.473   6.607
 9296SOL    HW128787   0.410   6.429   6.517
 9296SOL    HW228788   0.408   6.572   6.596
 9297SOL     OW28789   6.663   1.179   0.580
 9297SOL    HW128790   6.640   1.159   0.675
 9297SOL    HW228791   6.602   1.128   0.519
 9298SOL     OW28792   1.678   0.664   4.612
 9298SOL    HW128793   1.730   0.646   4.695
 9298SOL    HW228794   1.708   0.751   4.573
 9299SOL     OW28795   0.905   2.308   3.997
 9299SOL    HW128796   0.823   2.283   3.945
 9299SOL    HW228797   0.883   2.315   4.094
 9300SOL     OW28798   0.791   4.522   5.595
 9300SOL    HW128799   0.775   4.600   5.535
 9300SOL    HW228800   0.883   4.528   5.634
 9301SOL     OW28801   4.572   4.367   3.882
 9301SOL    HW128802   4.571   4.434   3.957
 9301SOL    HW228803   4.480   4.328   3.872
 9302SOL     OW28804   2.370   2.809   4.362
 9302SOL    HW128805   2.432   2.785   4.437
 9302SOL    HW228806   2.396   2.757   4.280
 9303SOL     OW28807   3.301   5.421   0.593
 9303SOL    HW128808   3.334   5.442   0.501
 9303SOL    HW228809   3.302   5.503   0.649
 9304SOL     OW28810   4.643   4.416   2.142
 9304SOL    HW128811   4.566   4.387   2.086
 9304SOL    HW228812   4.701   4.337   2.163
 9305SOL     OW28813   3.509   0.935   1.379
 9305SOL    HW128814   3.484   1.027   1.348
 9305SOL    HW228815   3.602   0.936   1.414
 9306SOL     OW28816   0.137   4.319   4.761
 9306SOL    HW128817   0.225   4.321   4.713
 9306SOL    HW228818   0.107   4.413   4.776
 9307SOL     OW28819   1.199   3.606   1.253
 9307SOL    HW128820   1.105   3.595   1.285
 9307SOL    HW228821   1.261   3.557   1.314
 9308SOL     OW28822   1.515   4.459   0.815
 9308SOL    HW128823   1.512   4.375   0.762
 9308SOL    HW228824   1.592   4.456   0.879
 9309SOL     OW28825   3.158   4.890   5.439
 9309SOL    HW128826   3.115   4.963   5.386
 9309SOL    HW228827   3.203   4.825   5.377
 9310SOL     OW28828   4.460   5.508   6.160
 9310SOL    HW128829   4.456   5.608   6.156
 9310SOL    HW228830   4.367   5.471   6.167
 9311SOL     OW28831   4.185   4.750   2.172
 9311SOL    HW128832   4.227   4.661   2.154
 9311SOL    HW228833   4.093   4.752   2.132
 9312SOL     OW28834   1.005   3.280   1.323
 9312SOL    HW128835   0.933   3.214   1.299
 9312SOL    HW228836   0.966   3.372   1.329
 9313SOL     OW28837   0.204   0.492   0.982
 9313SOL    HW128838   0.291   0.505   1.030
 9313SOL    HW228839   0.181   0.395   0.981
 9314SOL     OW28840   4.739   6.075   5.962
 9314SOL    HW128841   4.696   6.145   6.018
 9314SOL    HW228842   4.833   6.102   5.940
 9315SOL     OW28843   6.577   0.926   5.163
 9315SOL    HW128844   6.541   0.843   5.121
 9315SOL    HW228845   6.612   0.987   5.091
 9316SOL     OW28846   4.051   5.404   5.613
 9316SOL    HW128847   4.036   5.307   5.631
 9316SOL    HW228848   3.970   5.456   5.639
 9317SOL     OW28849   6.689   5.373   3.161
 9317SOL    HW128850   6.740   5.324   3.232
 9317SOL    HW228851   6.623   5.312   3.119
 9318SOL     OW28852   6.615   0.428   6.024
 9318SOL    HW128853   6.582   0.359   5.959
 9318SOL    HW228854   6.657   0.504   5.975
 9319SOL     OW28855   1.350   3.050   0.297
 9319SOL    HW128856   1.385   3.117   0.362
 9319SOL    HW228857   1.250   3.059   0.291
 9320SOL     OW28858   3.774   0.664   5.584
 9320SOL    HW128859   3.793   0.640   5.679
 9320SOL    HW228860   3.830   0.743   5.558
 9321SOL     OW28861   6.077   0.274   3.654
 9321SOL    HW128862   6.070   0.180   3.620
 9321SOL    HW228863   6.168   0.289   3.692
 9322SOL     OW28864   1.182   4.622   6.503
 9322SOL    HW128865   1.136   4.573   6.429
 9322SOL    HW228866   1.281   4.611   6.494
 9323SOL     OW28867   1.410   0.787   5.583
 9323SOL    HW128868   1.320   0.817   5.615
 9323SOL    HW228869   1.478   0.805   5.653
 9324SOL     OW28870   1.185   4.559   0.515
 9324SOL    HW128871   1.275   4.579   0.554
 9324SOL    HW228872   1.172   4.612   0.431
 9325SOL     OW28873   4.803   1.024   6.899
 9325SOL    HW128874   4.768   0.994   6.988
 9325SOL    HW228875   4.765   1.114   6.877
 9326SOL     OW28876   2.104   5.981   0.709
 9326SOL    HW128877   2.149   6.008   0.794
 9326SOL    HW228878   2.093   5.882   0.707
 9327SOL     OW28879   5.218   6.880   3.154
 9327SOL    HW128880   5.214   6.786   3.188
 9327SOL    HW228881   5.314   6.911   3.153
 9328SOL     OW28882   2.987   0.742   5.922
 9328SOL    HW128883   3.049   0.739   6.000
 9328SOL    HW228884   2.947   0.651   5.908
 9329SOL     OW28885   5.936   3.983   1.671
 9329SOL    HW128886   5.853   4.028   1.637
 9329SOL    HW228887   5.953   4.013   1.765
 9330SOL     OW28888   6.287   6.718   6.793
 9330SOL    HW128889   6.216   6.729   6.863
 9330SOL    HW228890   6.346   6.641   6.818
 9331SOL     OW28891   1.587   0.970   7.006
 9331SOL    HW128892   1.637   0.893   0.014
 9331SOL    HW228893   1.525   1.007   0.045
 9332SOL     OW28894   3.928   4.001   1.842
 9332SOL    HW128895   3.973   4.063   1.778
 9332SOL    HW228896   3.883   3.927   1.791
 9333SOL     OW28897   4.080   3.479   1.345
 9333SOL    HW128898   4.045   3.572   1.349
 9333SOL    HW228899   4.063   3.440   1.255
 9334SOL     OW28900   5.408   5.744   3.857
 9334SOL    HW128901   5.497   5.708   3.831
 9334SOL    HW228902   5.420   5.818   3.924
 9335SOL     OW28903   0.870   1.220   6.340
 9335SOL    HW128904   0.944   1.152   6.336
 9335SOL    HW228905   0.887   1.281   6.417
 9336SOL     OW28906   2.992   5.345   5.324
 9336SOL    HW128907   3.044   5.260   5.320
 9336SOL    HW228908   2.921   5.344   5.253
 9337SOL     OW28909   4.781   1.874   4.406
 9337SOL    HW128910   4.706   1.876   4.472
 9337SOL    HW228911   4.867   1.859   4.455
 9338SOL     OW28912   4.632   0.812   2.149
 9338SOL    HW128913   4.570   0.805   2.227
 9338SOL    HW228914   4.693   0.733   2.148
 9339SOL     OW28915   5.872   0.003   1.267
 9339SOL    HW128916   5.799   0.007   1.198
 9339SOL    HW228917   5.920   0.090   1.270
 9340SOL     OW28918   5.877   3.613   4.560
 9340SOL    HW128919   5.877   3.707   4.592
 9340SOL    HW228920   5.787   3.591   4.522
 9341SOL     OW28921   6.805   5.722   0.478
 9341SOL    HW128922   6.840   5.800   0.427
 9341SOL    HW228923   6.739   5.754   0.546
 9342SOL     OW28924   1.793   6.845   3.486
 9342SOL    HW128925   1.760   6.756   3.516
 9342SOL    HW228926   1.842   6.889   3.562
 9343SOL     OW28927   6.064   3.962   2.651
 9343SOL    HW128928   6.088   3.914   2.566
 9343SOL    HW228929   6.117   3.924   2.727
 9344SOL     OW28930   4.539   6.155   2.323
 9344SOL    HW128931   4.510   6.250   2.336
 9344SOL    HW228932   4.460   6.094   2.333
 9345SOL     OW28933   6.244   4.951   2.327
 9345SOL    HW128934   6.321   4.927   2.387
 9345SOL    HW228935   6.202   4.867   2.293
 9346SOL     OW28936   6.325   0.763   0.978
 9346SOL    HW128937   6.391   0.721   1.039
 9346SOL    HW228938   6.275   0.834   1.027
 9347SOL     OW28939   1.639   3.580   0.888
 9347SOL    HW128940   1.656   3.521   0.968
 9347SOL    HW228941   1.587   3.529   0.820
 9348SOL     OW28942   3.828   5.939   2.147
 9348SOL    HW128943   3.803   6.034   2.131
 9348SOL    HW228944   3.776   5.880   2.085
 9349SOL     OW28945   0.277   6.075   3.413
 9349SOL    HW128946   0.377   6.078   3.416
 9349SOL    HW228947   0.245   5.987   3.449
 9350SOL     OW28948   0.678   3.665   5.234
 9350SOL    HW128949   0.589   3.710   5.235
 9350SOL    HW228950   0.747   3.727   5.271
 9351SOL     OW28951   2.554   0.198   6.798
 9351SOL    HW128952   2.544   0.186   6.699
 9351SOL    HW228953   2.601   0.284   6.817
 9352SOL     OW28954   3.646   1.823   6.981
 9352SOL    HW128955   3.716   1.879   7.026
 9352SOL    HW228956   3.625   1.862   6.891
 9353SOL     OW28957   0.409   4.096   0.347
 9353SOL    HW128958   0.506   4.090   0.326
 9353SOL    HW228959   0.378   4.008   0.384
 9354SOL     OW28960   0.059   1.891   6.444
 9354SOL    HW128961   0.080   1.977   6.492
 9354SOL    HW228962   0.144   1.841   6.426
 9355SOL     OW28963   0.312   2.398   4.527
 9355SOL    HW128964   0.255   2.414   4.446
 9355SOL    HW228965   0.280   2.457   4.602
 9356SOL     OW28966   4.742   0.421   1.903
 9356SOL    HW128967   4.665   0.485   1.901
 9356SOL    HW228968   4.818   0.461   1.955
 9357SOL     OW28969   1.382   3.209   5.852
 9357SOL    HW128970   1.359   3.179   5.759
 9357SOL    HW228971   1.419   3.301   5.849
 9358SOL     OW28972   6.410   4.032   2.207
 9358SOL    HW128973   6.368   4.116   2.175
 9358SOL    HW228974   6.504   4.050   2.237
 9359SOL     OW28975   1.177   4.904   6.458
 9359SOL    HW128976   1.229   4.918   6.373
 9359SOL    HW228977   1.189   4.809   6.488
 9360SOL     OW28978   1.334   5.164   6.134
 9360SOL    HW128979   1.335   5.259   6.166
 9360SOL    HW228980   1.362   5.162   6.038
 9361SOL     OW28981   1.621   4.818   3.878
 9361SOL    HW128982   1.695   4.876   3.913
 9361SOL    HW228983   1.554   4.802   3.951
 9362SOL     OW28984   0.968   1.269   2.308
 9362SOL    HW128985   0.986   1.363   2.279
 9362SOL    HW228986   0.970   1.208   2.229
 9363SOL     OW28987   2.845   5.281   2.076
 9363SOL    HW128988   2.883   5.197   2.037
 9363SOL    HW228989   2.920   5.338   2.110
 9364SOL     OW28990   2.553   2.116   0.203
 9364SOL    HW128991   2.531   2.140   0.109
 9364SOL    HW228992   2.590   2.023   0.206
 9365SOL     OW28993   3.239   1.736   3.203
 9365SOL    HW128994   3.161   1.798   3.208
 9365SOL    HW228995   3.308   1.766   3.269
 9366SOL     OW28996   2.903   5.587   0.217
 9366SOL    HW128997   2.950   5.499   0.222
 9366SOL    HW228998   2.809   5.576   0.249
 9367SOL     OW28999   6.323   6.715   2.187
 9367SOL    HW129000   6.257   6.707   2.113
 9367SOL    HW229001   6.360   6.808   2.189
 9368SOL     OW29002   3.269   0.162   2.393
 9368SOL    HW129003   3.337   0.093   2.418
 9368SOL    HW229004   3.185   0.116   2.364
 9369SOL     OW29005   6.622   6.786   3.523
 9369SOL    HW129006   6.577   6.781   3.434
 9369SOL    HW229007   6.557   6.764   3.595
 9370SOL     OW29008   5.319   6.840   4.660
 9370SOL    HW129009   5.390   6.830   4.731
 9370SOL    HW229010   5.346   6.788   4.579
 9371SOL     OW29011   2.803   5.779   0.660
 9371SOL    HW129012   2.769   5.825   0.742
 9371SOL    HW229013   2.773   5.829   0.579
 9372SOL     OW29014   5.035   0.335   1.545
 9372SOL    HW129015   5.100   0.353   1.471
 9372SOL    HW229016   5.085   0.322   1.631
 9373SOL     OW29017   4.938   2.267   0.735
 9373SOL    HW129018   4.853   2.271   0.787
 9373SOL    HW229019   4.976   2.359   0.725
 9374SOL     OW29020   0.525   3.316   6.143
 9374SOL    HW129021   0.549   3.386   6.076
 9374SOL    HW229022   0.609   3.273   6.179
 9375SOL     OW29023   0.227   1.896   0.780
 9375SOL    HW129024   0.324   1.896   0.755
 9375SOL    HW229025   0.174   1.853   0.707
 9376SOL     OW29026   2.232   3.865   1.756
 9376SOL    HW129027   2.137   3.895   1.750
 9376SOL    HW229028   2.254   3.843   1.851
 9377SOL     OW29029   1.489   5.029   3.434
 9377SOL    HW129030   1.579   5.049   3.395
 9377SOL    HW229031   1.442   4.960   3.379
 9378SOL     OW29032   3.860   1.433   3.533
 9378SOL    HW129033   3.867   1.530   3.559
 9378SOL    HW229034   3.800   1.386   3.598
 9379SOL     OW29035   4.846   0.294   4.219
 9379SOL    HW129036   4.836   0.390   4.193
 9379SOL    HW229037   4.837   0.236   4.138
 9380SOL     OW29038   3.760   5.786   5.282
 9380SOL    HW129039   3.701   5.735   5.219
 9380SOL    HW229040   3.843   5.815   5.234
 9381SOL     OW29041   5.273   2.811   5.577
 9381SOL    HW129042   5.296   2.843   5.485
 9381SOL    HW229043   5.189   2.858   5.607
 9382SOL     OW29044   4.186   1.472   3.904
 9382SOL    HW129045   4.207   1.478   3.807
 9382SOL    HW229046   4.190   1.376   3.933
 9383SOL     OW29047   5.456   4.651   4.462
 9383SOL    HW129048   5.459   4.709   4.544
 9383SOL    HW229049   5.517   4.573   4.475
 9384SOL     OW29050   3.596   0.055   2.209
 9384SOL    HW129051   3.671   0.005   2.164
 9384SOL    HW229052   3.575   0.137   2.156
 9385SOL     OW29053   4.390   1.394   4.242
 9385SOL    HW129054   4.378   1.487   4.208
 9385SOL    HW229055   4.479   1.359   4.214
 9386SOL     OW29056   3.174   5.775   4.626
 9386SOL    HW129057   3.158   5.849   4.560
 9386SOL    HW229058   3.095   5.714   4.627
 9387SOL     OW29059   3.187   2.383   1.041
 9387SOL    HW129060   3.227   2.417   0.956
 9387SOL    HW229061   3.192   2.454   1.111
 9388SOL     OW29062   1.702   6.480   3.323
 9388SOL    HW129063   1.777   6.458   3.260
 9388SOL    HW229064   1.640   6.544   3.279
 9389SOL     OW29065   3.075   6.437   2.532
 9389SOL    HW129066   2.995   6.378   2.546
 9389SOL    HW229067   3.154   6.379   2.513
 9390SOL     OW29068   5.849   5.529   6.009
 9390SOL    HW129069   5.871   5.626   6.002
 9390SOL    HW229070   5.913   5.475   5.954
 9391SOL     OW29071   0.014   0.713   5.620
 9391SOL    HW129072   0.009   0.629   5.566
 9391SOL    HW229073   7.027   0.791   5.560
 9392SOL     OW29074   5.214   4.410   4.677
 9392SOL    HW129075   5.190   4.495   4.630
 9392SOL    HW229076   5.243   4.342   4.610
 9393SOL     OW29077   3.009   6.712   5.572
 9393SOL    HW129078   3.068   6.676   5.644
 9393SOL    HW229079   2.913   6.700   5.597
 9394SOL     OW29080   6.596   0.613   1.242
 9394SOL    HW129081   6.676   0.553   1.250
 9394SOL    HW229082   6.520   0.573   1.294
 9395SOL     OW29083   2.345   0.999   0.819
 9395SOL    HW129084   2.275   1.049   0.768
 9395SOL    HW229085   2.403   0.949   0.756
 9396SOL     OW29086   1.629   4.352   5.014
 9396SOL    HW129087   1.665   4.388   5.101
 9396SOL    HW229088   1.573   4.272   5.033
 9397SOL     OW29089   2.728   6.582   5.637
 9397SOL    HW129090   2.726   6.512   5.709
 9397SOL    HW229091   2.740   6.537   5.548
 9398SOL     OW29092   6.052   1.553   5.722
 9398SOL    HW129093   5.960   1.574   5.689
 9398SOL    HW229094   6.118   1.611   5.673
 9399SOL     OW29095   0.762   3.051   3.934
 9399SOL    HW129096   0.837   3.055   4.000
 9399SOL    HW229097   0.675   3.064   3.982
 9400SOL     OW29098   4.484   0.325   0.546
 9400SOL    HW129099   4.451   0.236   0.576
 9400SOL    HW229100   4.548   0.361   0.614
 9401SOL     OW29101   0.202   2.268   2.265
 9401SOL    HW129102   0.162   2.351   2.303
 9401SOL    HW229103   0.238   2.211   2.340
 9402SOL     OW29104   1.432   4.268   3.156
 9402SOL    HW129105   1.435   4.197   3.085
 9402SOL    HW229106   1.337   4.293   3.174
 9403SOL     OW29107   6.657   1.715   2.174
 9403SOL    HW129108   6.597   1.673   2.105
 9403SOL    HW229109   6.677   1.809   2.147
 9404SOL     OW29110   0.070   2.044   1.187
 9404SOL    HW129111   0.148   2.100   1.216
 9404SOL    HW229112   0.105   1.961   1.142
 9405SOL     OW29113   1.192   3.989   4.563
 9405SOL    HW129114   1.280   3.960   4.602
 9405SOL    HW229115   1.171   3.933   4.483
 9406SOL     OW29116   1.265   3.332   0.453
 9406SOL    HW129117   1.339   3.288   0.505
 9406SOL    HW229118   1.298   3.355   0.362
 9407SOL     OW29119   2.688   4.987   4.154
 9407SOL    HW129120   2.761   5.046   4.190
 9407SOL    HW229121   2.635   5.037   4.086
 9408SOL     OW29122   0.738   2.006   6.331
 9408SOL    HW129123   0.778   2.089   6.369
 9408SOL    HW229124   0.642   2.000   6.360
 9409SOL     OW29125   6.489   5.655   1.937
 9409SOL    HW129126   6.587   5.669   1.923
 9409SOL    HW229127   6.454   5.594   1.866
 9410SOL     OW29128   5.028   1.108   1.725
 9410SOL    HW129129   5.066   1.199   1.708
 9410SOL    HW229130   4.938   1.117   1.767
 9411SOL     OW29131   3.540   3.773   3.230
 9411SOL    HW129132   3.554   3.841   3.302
 9411SOL    HW229133   3.492   3.694   3.268
 9412SOL     OW29134   1.430   0.157   2.125
 9412SOL    HW129135   1.527   0.149   2.150
 9412SOL    HW229136   1.374   0.107   2.192
 9413SOL     OW29137   4.934   5.149   4.651
 9413SOL    HW129138   4.919   5.222   4.718
 9413SOL    HW229139   4.887   5.171   4.566
 9414SOL     OW29140   3.036   1.814   4.393
 9414SOL    HW129141   2.985   1.894   4.362
 9414SOL    HW229142   3.130   1.820   4.359
 9415SOL     OW29143   2.481   0.147   1.436
 9415SOL    HW129144   2.406   0.132   1.371
 9415SOL    HW229145   2.560   0.183   1.388
 9416SOL     OW29146   0.425   0.916   5.493
 9416SOL    HW129147   0.376   0.963   5.567
 9416SOL    HW229148   0.522   0.942   5.496
 9417SOL     OW29149   3.941   6.731   1.673
 9417SOL    HW129150   3.985   6.666   1.735
 9417SOL    HW229151   3.852   6.695   1.644
 9418SOL     OW29152   2.150   1.408   2.490
 9418SOL    HW129153   2.079   1.362   2.544
 9418SOL    HW229154   2.209   1.340   2.447
 9419SOL     OW29155   2.494   3.211   6.663
 9419SOL    HW129156   2.589   3.185   6.642
 9419SOL    HW229157   2.492   3.266   6.745
 9420SOL     OW29158   5.448   4.768   0.218
 9420SOL    HW129159   5.455   4.814   0.306
 9420SOL    HW229160   5.387   4.819   0.157
 9421SOL     OW29161   2.909   5.256   3.971
 9421SOL    HW129162   2.855   5.184   3.926
 9421SOL    HW229163   2.912   5.238   4.070
 9422SOL     OW29164   2.828   6.047   3.876
 9422SOL    HW129165   2.919   6.070   3.841
 9422SOL    HW229166   2.797   6.119   3.938
 9423SOL     OW29167   4.080   6.221   3.156
 9423SOL    HW129168   4.165   6.248   3.111
 9423SOL    HW229169   4.059   6.126   3.134
 9424SOL     OW29170   5.108   1.538   4.437
 9424SOL    HW129171   5.063   1.449   4.423
 9424SOL    HW229172   5.141   1.571   4.349
 9425SOL     OW29173   5.406   5.251   1.149
 9425SOL    HW129174   5.351   5.334   1.159
 9425SOL    HW229175   5.439   5.222   1.239
 9426SOL     OW29176   1.990   1.864   5.851
 9426SOL    HW129177   2.034   1.930   5.913
 9426SOL    HW229178   1.979   1.777   5.899
 9427SOL     OW29179   2.425   6.022   3.183
 9427SOL    HW129180   2.348   6.056   3.130
 9427SOL    HW229181   2.507   6.075   3.160
 9428SOL     OW29182   6.533   0.018   0.226
 9428SOL    HW129183   6.484   0.020   0.139
 9428SOL    HW229184   6.557   0.112   0.252
 9429SOL     OW29185   1.680   2.330   3.886
 9429SOL    HW129186   1.629   2.312   3.802
 9429SOL    HW229187   1.617   2.365   3.955
 9430SOL     OW29188   0.557   2.619   4.187
 9430SOL    HW129189   0.591   2.586   4.098
 9430SOL    HW229190   0.461   2.645   4.178
 9431SOL     OW29191   6.469   4.504   1.247
 9431SOL    HW129192   6.473   4.510   1.147
 9431SOL    HW229193   6.506   4.588   1.287
 9432SOL     OW29194   6.450   1.665   4.620
 9432SOL    HW129195   6.453   1.751   4.671
 9432SOL    HW229196   6.370   1.666   4.559
 9433SOL     OW29197   4.029   5.911   3.510
 9433SOL    HW129198   4.051   5.924   3.607
 9433SOL    HW229199   4.005   5.999   3.468
 9434SOL     OW29200   5.823   5.336   3.491
 9434SOL    HW129201   5.848   5.242   3.467
 9434SOL    HW229202   5.845   5.397   3.415
 9435SOL     OW29203   0.263   1.858   2.696
 9435SOL    HW129204   0.276   1.896   2.788
 9435SOL    HW229205   0.192   1.909   2.648
 9436SOL     OW29206   1.335   1.369   2.789
 9436SOL    HW129207   1.422   1.341   2.749
 9436SOL    HW229208   1.322   1.323   2.877
 9437SOL     OW29209   0.964   5.000   3.771
 9437SOL    HW129210   1.059   5.014   3.799
 9437SOL    HW229211   0.938   5.071   3.705
 9438SOL     OW29212   0.985   0.014   2.179
 9438SOL    HW129213   1.085   0.010   2.184
 9438SOL    HW229214   0.957   0.098   2.132
 9439SOL     OW29215   0.612   3.001   0.895
 9439SOL    HW129216   0.550   3.042   0.829
 9439SOL    HW229217   0.560   2.953   0.965
 9440SOL     OW29218   2.879   4.864   3.231
 9440SOL    HW129219   2.933   4.894   3.309
 9440SOL    HW229220   2.798   4.816   3.264
 9441SOL     OW29221   6.375   5.941   5.864
 9441SOL    HW129222   6.396   5.845   5.847
 9441SOL    HW229223   6.302   5.949   5.932
 9442SOL     OW29224   4.760   3.498   1.854
 9442SOL    HW129225   4.722   3.464   1.939
 9442SOL    HW229226   4.693   3.488   1.781
 9443SOL     OW29227   2.753   5.865   1.588
 9443SOL    HW129228   2.833   5.903   1.635
 9443SOL    HW229229   2.733   5.773   1.623
 9444SOL     OW29230   1.616   4.268   0.610
 9444SOL    HW129231   1.668   4.345   0.573
 9444SOL    HW229232   1.679   4.193   0.632
 9445SOL     OW29233   6.933   2.329   3.388
 9445SOL    HW129234   6.896   2.258   3.328
 9445SOL    HW229235   6.875   2.410   3.384
 9446SOL     OW29236   0.344   5.123   4.346
 9446SOL    HW129237   0.251   5.157   4.328
 9446SOL    HW229238   0.410   5.180   4.298
 9447SOL     OW29239   5.032   4.812   3.133
 9447SOL    HW129240   5.086   4.892   3.106
 9447SOL    HW229241   4.944   4.842   3.170
 9448SOL     OW29242   6.225   6.972   5.624
 9448SOL    HW129243   6.166   6.912   5.678
 9448SOL    HW229244   6.179   0.029   5.608
 9449SOL     OW29245   5.316   6.574   0.403
 9449SOL    HW129246   5.324   6.480   0.438
 9449SOL    HW229247   5.296   6.636   0.480
 9450SOL     OW29248   1.606   5.202   3.872
 9450SOL    HW129249   1.579   5.281   3.817
 9450SOL    HW229250   1.595   5.119   3.818
 9451SOL     OW29251   4.096   5.905   6.289
 9451SOL    HW129252   4.155   5.975   6.329
 9451SOL    HW229253   4.012   5.947   6.257
 9452SOL     OW29254   0.422   3.851   0.132
 9452SOL    HW129255   0.461   3.914   0.199
 9452SOL    HW229256   0.483   3.772   0.122
 9453SOL     OW29257   2.675   4.714   2.551
 9453SOL    HW129258   2.626   4.782   2.498
 9453SOL    HW229259   2.736   4.662   2.491
 9454SOL     OW29260   4.249   3.615   0.136
 9454SOL    HW129261   4.269   3.655   0.047
 9454SOL    HW229262   4.176   3.548   0.127
 9455SOL     OW29263   2.460   2.080   2.759
 9455SOL    HW129264   2.464   2.167   2.711
 9455SOL    HW229265   2.388   2.023   2.719
 9456SOL     OW29266   6.326   4.226   2.024
 9456SOL    HW129267   6.231   4.247   2.044
 9456SOL    HW229268   6.332   4.177   1.936
 9457SOL     OW29269   0.416   4.478   4.323
 9457SOL    HW129270   0.407   4.536   4.242
 9457SOL    HW229271   0.363   4.394   4.310
 9458SOL     OW29272   0.183   3.968   0.416
 9458SOL    HW129273   0.158   3.925   0.329
 9458SOL    HW229274   0.105   4.020   0.451
 9459SOL     OW29275   5.132   4.264   3.880
 9459SOL    HW129276   5.133   4.363   3.894
 9459SOL    HW229277   5.094   4.219   3.961
 9460SOL     OW29278   2.123   2.718   4.501
 9460SOL    HW129279   2.047   2.719   4.436
 9460SOL    HW229280   2.205   2.752   4.457
 9461SOL     OW29281   0.782   1.417   1.381
 9461SOL    HW129282   0.693   1.415   1.428
 9461SOL    HW229283   0.768   1.404   1.283
 9462SOL     OW29284   1.727   2.880   3.492
 9462SOL    HW129285   1.763   2.788   3.509
 9462SOL    HW229286   1.783   2.947   3.540
 9463SOL     OW29287   5.372   0.120   1.144
 9463SOL    HW129288   5.338   0.047   1.204
 9463SOL    HW229289   5.390   0.202   1.199
 9464SOL     OW29290   5.959   0.341   0.934
 9464SOL    HW129291   5.898   0.383   0.866
 9464SOL    HW229292   6.011   0.268   0.890
 9465SOL     OW29293   7.010   3.929   1.792
 9465SOL    HW129294   7.004   3.953   1.889
 9465SOL    HW229295   6.931   3.873   1.767
 9466SOL     OW29296   4.061   4.840   6.363
 9466SOL    HW129297   3.972   4.851   6.318
 9466SOL    HW229298   4.066   4.901   6.442
 9467SOL     OW29299   1.351   2.678   0.836
 9467SOL    HW129300   1.345   2.656   0.934
 9467SOL    HW229301   1.329   2.597   0.782
 9468SOL     OW29302   6.761   3.506   6.586
 9468SOL    HW129303   6.803   3.549   6.666
 9468SOL    HW229304   6.833   3.481   6.521
 9469SOL     OW29305   0.185   5.952   0.911
 9469SOL    HW129306   0.103   5.896   0.901
 9469SOL    HW229307   0.160   6.044   0.940
 9470SOL     OW29308   4.839   3.857   6.659
 9470SOL    HW129309   4.932   3.827   6.681
 9470SOL    HW229310   4.802   3.800   6.586
 9471SOL     OW29311   5.572   2.361   5.481
 9471SOL    HW129312   5.501   2.301   5.518
 9471SOL    HW229313   5.550   2.456   5.501
 9472SOL     OW29314   0.989   4.126   5.982
 9472SOL    HW129315   0.960   4.200   6.043
 9472SOL    HW229316   1.032   4.165   5.900
 9473SOL     OW29317   3.302   3.700   6.754
 9473SOL    HW129318   3.322   3.636   6.828
 9473SOL    HW229319   3.263   3.784   6.792
 9474SOL     OW29320   5.869   3.330   1.819
 9474SOL    HW129321   5.955   3.348   1.771
 9474SOL    HW229322   5.854   3.231   1.824
 9475SOL     OW29323   4.592   3.085   0.147
 9475SOL    HW129324   4.649   3.073   0.228
 9475SOL    HW229325   4.521   3.153   0.166
 9476SOL     OW29326   3.696   3.918   5.666
 9476SOL    HW129327   3.765   3.979   5.629
 9476SOL    HW229328   3.648   3.963   5.741
 9477SOL     OW29329   1.784   3.034   0.808
 9477SOL    HW129330   1.711   2.967   0.820
 9477SOL    HW229331   1.745   3.124   0.791
 9478SOL     OW29332   4.652   2.987   0.913
 9478SOL    HW129333   4.599   2.903   0.904
 9478SOL    HW229334   4.749   2.964   0.917
 9479SOL     OW29335   4.119   0.343   1.060
 9479SOL    HW129336   4.162   0.322   0.972
 9479SOL    HW229337   4.173   0.300   1.134
 9480SOL     OW29338   6.178   5.073   0.081
 9480SOL    HW129339   6.088   5.063   0.123
 9480SOL    HW229340   6.249   5.060   0.151
 9481SOL     OW29341   5.014   2.391   2.948
 9481SOL    HW129342   4.946   2.447   2.900
 9481SOL    HW229343   5.001   2.295   2.924
 9482SOL     OW29344   6.053   6.823   2.482
 9482SOL    HW129345   6.022   6.831   2.388
 9482SOL    HW229346   6.137   6.767   2.485
 9483SOL     OW29347   1.438   1.145   0.218
 9483SOL    HW129348   1.379   1.064   0.219
 9483SOL    HW229349   1.495   1.146   0.301
 9484SOL     OW29350   2.539   0.338   4.327
 9484SOL    HW129351   2.499   0.284   4.401
 9484SOL    HW229352   2.469   0.401   4.291
 9485SOL     OW29353   6.336   1.463   0.893
 9485SOL    HW129354   6.391   1.543   0.870
 9485SOL    HW229355   6.239   1.486   0.887
 9486SOL     OW29356   5.037   6.051   1.389
 9486SOL    HW129357   5.022   6.142   1.351
 9486SOL    HW229358   4.982   6.040   1.472
 9487SOL     OW29359   3.229   3.725   4.410
 9487SOL    HW129360   3.136   3.690   4.403
 9487SOL    HW229361   3.244   3.796   4.341
 9488SOL     OW29362   2.182   7.012   0.907
 9488SOL    HW129363   2.134   6.998   0.820
 9488SOL    HW229364   2.173   0.077   0.935
 9489SOL     OW29365   5.057   4.143   1.265
 9489SOL    HW129366   5.139   4.109   1.310
 9489SOL    HW229367   4.989   4.166   1.334
 9490SOL     OW29368   6.821   6.444   3.455
 9490SOL    HW129369   6.817   6.542   3.478
 9490SOL    HW229370   6.910   6.424   3.413
 9491SOL     OW29371   6.042   5.706   4.547
 9491SOL    HW129372   6.051   5.622   4.600
 9491SOL    HW229373   5.978   5.768   4.593
 9492SOL     OW29374   4.266   3.386   5.834
 9492SOL    HW129375   4.169   3.375   5.854
 9492SOL    HW229376   4.295   3.478   5.862
 9493SOL     OW29377   3.480   5.625   3.925
 9493SOL    HW129378   3.509   5.680   3.847
 9493SOL    HW229379   3.393   5.581   3.905
 9494SOL     OW29380   5.782   2.887   2.287
 9494SOL    HW129381   5.819   2.977   2.267
 9494SOL    HW229382   5.853   2.831   2.330
 9495SOL     OW29383   6.877   1.344   2.400
 9495SOL    HW129384   6.870   1.384   2.309
 9495SOL    HW229385   6.793   1.293   2.421
 9496SOL     OW29386   4.832   2.151   2.045
 9496SOL    HW129387   4.830   2.224   1.978
 9496SOL    HW229388   4.927   2.129   2.068
 9497SOL     OW29389   5.322   6.502   5.555
 9497SOL    HW129390   5.359   6.533   5.467
 9497SOL    HW229391   5.251   6.434   5.538
 9498SOL     OW29392   6.582   4.596   5.253
 9498SOL    HW129393   6.630   4.511   5.273
 9498SOL    HW229394   6.483   4.580   5.254
 9499SOL     OW29395   0.219   6.145   5.078
 9499SOL    HW129396   0.286   6.086   5.032
 9499SOL    HW229397   0.127   6.113   5.056
 9500SOL     OW29398   3.820   6.289   0.865
 9500SOL    HW129399   3.909   6.276   0.820
 9500SOL    HW229400   3.747   6.285   0.796
 9501SOL     OW29401   1.513   1.396   4.388
 9501SOL    HW129402   1.493   1.365   4.295
 9501SOL    HW229403   1.427   1.422   4.433
 9502SOL     OW29404   6.116   4.203   4.171
 9502SOL    HW129405   6.030   4.192   4.123
 9502SOL    HW229406   6.189   4.156   4.121
 9503SOL     OW29407   0.137   2.393   0.707
 9503SOL    HW129408   0.100   2.308   0.744
 9503SOL    HW229409   0.226   2.375   0.664
 9504SOL     OW29410   6.547   4.114   1.542
 9504SOL    HW129411   6.645   4.096   1.536
 9504SOL    HW229412   6.516   4.160   1.459
 9505SOL     OW29413   5.317   4.270   5.452
 9505SOL    HW129414   5.404   4.227   5.429
 9505SOL    HW229415   5.256   4.267   5.373
 9506SOL     OW29416   2.349   2.404   0.548
 9506SOL    HW129417   2.364   2.366   0.456
 9506SOL    HW229418   2.369   2.502   0.547
 9507SOL     OW29419   6.811   0.772   1.133
 9507SOL    HW129420   6.857   0.721   1.061
 9507SOL    HW229421   6.727   0.724   1.159
 9508SOL     OW29422   5.997   2.137   2.915
 9508SOL    HW129423   5.954   2.137   2.824
 9508SOL    HW229424   6.090   2.173   2.908
 9509SOL     OW29425   6.986   0.085   3.588
 9509SOL    HW129426   6.960   0.168   3.539
 9509SOL    HW229427   6.908   0.023   3.593
 9510SOL     OW29428   1.198   3.493   3.050
 9510SOL    HW129429   1.242   3.518   3.136
 9510SOL    HW229430   1.104   3.465   3.067
 9511SOL     OW29431   1.524   1.013   1.515
 9511SOL    HW129432   1.470   0.931   1.493
 9511SOL    HW229433   1.505   1.041   1.609
 9512SOL     OW29434   6.664   2.149   1.634
 9512SOL    HW129435   6.585   2.096   1.601
 9512SOL    HW229436   6.702   2.104   1.714
 9513SOL     OW29437   2.813   4.897   6.195
 9513SOL    HW129438   2.726   4.849   6.203
 9513SOL    HW229439   2.833   4.915   6.099
 9514SOL     OW29440   2.903   4.316   7.028
 9514SOL    HW129441   2.806   4.311   7.004
 9514SOL    HW229442   2.919   4.400   0.050
 9515SOL     OW29443   2.076   5.826   2.940
 9515SOL    HW129444   2.175   5.816   2.935
 9515SOL    HW229445   2.032   5.739   2.918
 9516SOL     OW29446   5.723   4.394   0.292
 9516SOL    HW129447   5.744   4.423   0.198
 9516SOL    HW229448   5.770   4.309   0.312
 9517SOL     OW29449   1.273   3.833   1.135
 9517SOL    HW129450   1.260   3.748   1.186
 9517SOL    HW229451   1.366   3.837   1.100
 9518SOL     OW29452   2.133   1.499   1.050
 9518SOL    HW129453   2.182   1.586   1.060
 9518SOL    HW229454   2.183   1.427   1.097
 9519SOL     OW29455   2.679   2.724   5.543
 9519SOL    HW129456   2.689   2.626   5.529
 9519SOL    HW229457   2.712   2.749   5.634
 9520SOL     OW29458   2.810   0.529   2.688
 9520SOL    HW129459   2.819   0.602   2.620
 9520SOL    HW229460   2.901   0.501   2.719
 9521SOL     OW29461   5.749   5.281   3.073
 9521SOL    HW129462   5.711   5.241   2.990
 9521SOL    HW229463   5.739   5.380   3.070
 9522SOL     OW29464   3.405   5.249   0.873
 9522SOL    HW129465   3.400   5.333   0.818
 9522SOL    HW229466   3.465   5.184   0.827
 9523SOL     OW29467   3.182   5.313   4.336
 9523SOL    HW129468   3.145   5.364   4.414
 9523SOL    HW229469   3.268   5.356   4.307
 9524SOL     OW29470   4.174   2.715   1.607
 9524SOL    HW129471   4.115   2.634   1.605
 9524SOL    HW229472   4.265   2.688   1.638
 9525SOL     OW29473   2.475   2.500   6.388
 9525SOL    HW129474   2.574   2.506   6.388
 9525SOL    HW229475   2.448   2.404   6.396
 9526SOL     OW29476   5.789   5.297   2.624
 9526SOL    HW129477   5.737   5.280   2.708
 9526SOL    HW229478   5.816   5.393   2.621
 9527SOL     OW29479   1.141   0.881   1.551
 9527SOL    HW129480   1.205   0.825   1.500
 9527SOL    HW229481   1.118   0.963   1.498
 9528SOL     OW29482   0.098   0.669   6.859
 9528SOL    HW129483   0.053   0.708   6.778
 9528SOL    HW229484   0.030   0.656   6.931
 9529SOL     OW29485   0.157   3.436   5.404
 9529SOL    HW129486   0.100   3.516   5.391
 9529SOL    HW229487   0.211   3.446   5.488
 9530SOL     OW29488   1.975   2.714   3.156
 9530SOL    HW129489   1.987   2.619   3.128
 9530SOL    HW229490   2.057   2.744   3.205
 9531SOL     OW29491   4.155   5.468   3.301
 9531SOL    HW129492   4.184   5.518   3.382
 9531SOL    HW229493   4.080   5.517   3.257
 9532SOL     OW29494   1.236   5.456   1.750
 9532SOL    HW129495   1.323   5.411   1.729
 9532SOL    HW229496   1.163   5.417   1.694
 9533SOL     OW29497   0.303   0.875   5.247
 9533SOL    HW129498   0.376   0.910   5.188
 9533SOL    HW229499   0.326   0.892   5.343
 9534SOL     OW29500   5.611   3.086   5.340
 9534SOL    HW129501   5.562   3.040   5.414
 9534SOL    HW229502   5.615   3.184   5.359
 9535SOL     OW29503   2.471   1.188   6.163
 9535SOL    HW129504   2.390   1.242   6.141
 9535SOL    HW229505   2.445   1.091   6.170
 9536SOL     OW29506   1.976   5.456   5.334
 9536SOL    HW129507   2.042   5.523   5.300
 9536SOL    HW229508   2.025   5.380   5.376
 9537SOL     OW29509   3.138   0.818   2.393
 9537SOL    HW129510   3.233   0.790   2.407
 9537SOL    HW229511   3.126   0.913   2.422
 9538SOL     OW29512   6.869   1.398   4.420
 9538SOL    HW129513   6.810   1.317   4.423
 9538SOL    HW229514   6.817   1.479   4.447
 9539SOL     OW29515   2.240   4.797   6.604
 9539SOL    HW129516   2.334   4.811   6.574
 9539SOL    HW229517   2.180   4.792   6.524
 9540SOL     OW29518   4.667   4.465   5.187
 9540SOL    HW129519   4.740   4.501   5.245
 9540SOL    HW229520   4.641   4.374   5.220
 9541SOL     OW29521   1.858   2.112   5.793
 9541SOL    HW129522   1.919   2.034   5.803
 9541SOL    HW229523   1.861   2.146   5.699
 9542SOL     OW29524   4.767   3.595   5.406
 9542SOL    HW129525   4.784   3.600   5.308
 9542SOL    HW229526   4.706   3.519   5.426
 9543SOL     OW29527   4.612   0.367   4.745
 9543SOL    HW129528   4.584   0.298   4.678
 9543SOL    HW229529   4.548   0.444   4.743
 9544SOL     OW29530   5.485   0.521   1.685
 9544SOL    HW129531   5.419   0.462   1.732
 9544SOL    HW229532   5.566   0.467   1.661
 9545SOL     OW29533   6.599   5.950   2.968
 9545SOL    HW129534   6.511   5.985   2.939
 9545SOL    HW229535   6.638   6.010   3.038
 9546SOL     OW29536   2.744   4.119   6.793
 9546SOL    HW129537   2.706   4.035   6.754
 9546SOL    HW229538   2.728   4.119   6.892
 9547SOL     OW29539   2.267   6.435   4.160
 9547SOL    HW129540   2.284   6.519   4.108
 9547SOL    HW229541   2.178   6.398   4.133
 9548SOL     OW29542   6.490   5.388   4.931
 9548SOL    HW129543   6.476   5.331   5.012
 9548SOL    HW229544   6.582   5.373   4.895
 9549SOL     OW29545   3.136   5.200   1.007
 9549SOL    HW129546   3.115   5.277   1.066
 9549SOL    HW229547   3.223   5.216   0.960
 9550SOL     OW29548   6.797   1.169   6.683
 9550SOL    HW129549   6.827   1.129   6.770
 9550SOL    HW229550   6.839   1.120   6.607
 9551SOL     OW29551   0.398   6.892   4.442
 9551SOL    HW129552   0.411   6.887   4.541
 9551SOL    HW229553   0.395   6.799   4.405
 9552SOL     OW29554   2.281   6.442   2.910
 9552SOL    HW129555   2.265   6.412   2.816
 9552SOL    HW229556   2.266   6.540   2.918
 9553SOL     OW29557   6.033   5.056   6.458
 9553SOL    HW129558   5.948   5.027   6.501
 9553SOL    HW229559   6.080   4.976   6.420
 9554SOL     OW29560   3.151   1.122   1.433
 9554SOL    HW129561   3.250   1.130   1.420
 9554SOL    HW229562   3.127   1.026   1.444
 9555SOL     OW29563   6.402   2.793   1.639
 9555SOL    HW129564   6.440   2.795   1.547
 9555SOL    HW229565   6.428   2.876   1.688
 9556SOL     OW29566   2.517   1.566   1.965
 9556SOL    HW129567   2.545   1.623   1.888
 9556SOL    HW229568   2.578   1.487   1.972
 9557SOL     OW29569   6.045   0.185   2.612
 9557SOL    HW129570   6.081   0.120   2.545
 9557SOL    HW229571   6.100   0.181   2.696
 9558SOL     OW29572   7.012   5.238   2.918
 9558SOL    HW129573   6.988   5.167   2.984
 9558SOL    HW229574   0.080   5.253   2.918
 9559SOL     OW29575   0.311   3.960   2.300
 9559SOL    HW129576   0.337   4.017   2.222
 9559SOL    HW229577   0.372   3.880   2.304
 9560SOL     OW29578   2.345   1.242   2.383
 9560SOL    HW129579   2.423   1.279   2.331
 9560SOL    HW229580   2.357   1.144   2.396
 9561SOL     OW29581   2.722   6.598   0.637
 9561SOL    HW129582   2.653   6.666   0.662
 9561SOL    HW229583   2.755   6.551   0.720
 9562SOL     OW29584   3.477   5.374   4.342
 9562SOL    HW129585   3.466   5.471   4.364
 9562SOL    HW229586   3.480   5.320   4.426
 9563SOL     OW29587   6.400   6.473   0.127
 9563SOL    HW129588   6.437   6.507   0.040
 9563SOL    HW229589   6.474   6.439   0.184
 9564SOL     OW29590   2.788   6.890   6.709
 9564SOL    HW129591   2.745   6.915   6.622
 9564SOL    HW229592   2.886   6.904   6.703
 9565SOL     OW29593   4.409   5.807   4.910
 9565SOL    HW129594   4.309   5.814   4.911
 9565SOL    HW229595   4.439   5.779   4.818
 9566SOL     OW29596   3.760   4.357   6.746
 9566SOL    HW129597   3.787   4.317   6.659
 9566SOL    HW229598   3.767   4.288   6.818
 9567SOL     OW29599   6.477   5.798   6.352
 9567SOL    HW129600   6.453   5.836   6.441
 9567SOL    HW229601   6.528   5.713   6.364
 9568SOL     OW29602   5.073   3.742   6.368
 9568SOL    HW129603   5.082   3.646   6.394
 9568SOL    HW229604   5.162   3.788   6.376
 9569SOL     OW29605   6.524   1.190   0.107
 9569SOL    HW129606   6.563   1.219   0.020
 9569SOL    HW229607   6.531   1.091   0.116
 9570SOL     OW29608   0.562   1.509   0.947
 9570SOL    HW129609   0.469   1.508   0.910
 9570SOL    HW229610   0.559   1.495   1.046
 9571SOL     OW29611   2.859   3.872   6.947
 9571SOL    HW129612   2.766   3.898   6.974
 9571SOL    HW229613   2.885   3.788   6.995
 9572SOL     OW29614   1.197   4.319   1.195
 9572SOL    HW129615   1.164   4.225   1.185
 9572SOL    HW229616   1.236   4.350   1.109
 9573SOL     OW29617   0.768   0.690   6.552
 9573SOL    HW129618   0.704   0.619   6.581
 9573SOL    HW229619   0.748   0.775   6.600
 9574SOL     OW29620   3.311   3.917   5.892
 9574SOL    HW129621   3.389   3.959   5.938
 9574SOL    HW229622   3.320   3.817   5.897
 9575SOL     OW29623   6.159   0.627   1.284
 9575SOL    HW129624   6.162   0.594   1.189
 9575SOL    HW229625   6.244   0.604   1.330
 9576SOL     OW29626   3.696   1.634   4.071
 9576SOL    HW129627   3.731   1.542   4.051
 9576SOL    HW229628   3.772   1.699   4.074
 9577SOL     OW29629   0.831   0.085   2.504
 9577SOL    HW129630   0.814   0.157   2.572
 9577SOL    HW229631   0.780   0.105   2.420
 9578SOL     OW29632   6.134   2.747   2.112
 9578SOL    HW129633   6.092   2.835   2.090
 9578SOL    HW229634   6.203   2.725   2.044
 9579SOL     OW29635   1.308   7.020   1.932
 9579SOL    HW129636   1.258   0.061   1.882
 9579SOL    HW229637   1.372   0.032   1.996
 9580SOL     OW29638   5.210   3.779   0.038
 9580SOL    HW129639   5.258   3.723   7.002
 9580SOL    HW229640   5.232   3.876   0.022
 9581SOL     OW29641   1.652   5.567   6.136
 9581SOL    HW129642   1.606   5.537   6.052
 9581SOL    HW229643   1.711   5.645   6.115
 9582SOL     OW29644   4.336   4.650   4.271
 9582SOL    HW129645   4.259   4.708   4.296
 9582SOL    HW229646   4.368   4.600   4.351
 9583SOL     OW29647   2.115   3.443   1.724
 9583SOL    HW129648   2.159   3.444   1.814
 9583SOL    HW229649   2.178   3.477   1.655
 9584SOL     OW29650   6.614   5.014   6.954
 9584SOL    HW129651   6.521   5.029   6.922
 9584SOL    HW229652   6.641   4.920   6.933
 9585SOL     OW29653   5.521   6.773   2.812
 9585SOL    HW129654   5.561   6.806   2.726
 9585SOL    HW229655   5.443   6.831   2.836
 9586SOL     OW29656   5.349   3.360   3.892
 9586SOL    HW129657   5.443   3.328   3.902
 9586SOL    HW229658   5.310   3.376   3.983
 9587SOL     OW29659   5.984   0.258   1.211
 9587SOL    HW129660   5.922   0.330   1.242
 9587SOL    HW229661   6.006   0.273   1.114
 9588SOL     OW29662   0.230   0.778   0.990
 9588SOL    HW129663   0.286   0.798   0.909
 9588SOL    HW229664   0.203   0.682   0.988
 9589SOL     OW29665   2.227   6.704   5.789
 9589SOL    HW129666   2.138   6.741   5.763
 9589SOL    HW229667   2.297   6.776   5.779
 9590SOL     OW29668   0.807   3.716   2.651
 9590SOL    HW129669   0.864   3.676   2.723
 9590SOL    HW229670   0.712   3.716   2.681
 9591SOL     OW29671   2.287   6.375   0.629
 9591SOL    HW129672   2.226   6.364   0.707
 9591SOL    HW229673   2.241   6.343   0.546
 9592SOL     OW29674   4.374   5.314   2.799
 9592SOL    HW129675   4.294   5.339   2.853
 9592SOL    HW229676   4.353   5.235   2.741
 9593SOL     OW29677   5.606   2.264   4.655
 9593SOL    HW129678   5.570   2.357   4.660
 9593SOL    HW229679   5.547   2.203   4.708
 9594SOL     OW29680   6.431   6.265   2.674
 9594SOL    HW129681   6.412   6.345   2.730
 9594SOL    HW229682   6.392   6.184   2.716
 9595SOL     OW29683   1.636   5.709   4.222
 9595SOL    HW129684   1.614   5.678   4.315
 9595SOL    HW229685   1.628   5.633   4.158
 9596SOL     OW29686   6.932   5.975   5.219
 9596SOL    HW129687   6.996   5.901   5.240
 9596SOL    HW229688   6.850   5.965   5.275
 9597SOL     OW29689   0.336   4.147   1.817
 9597SOL    HW129690   0.336   4.057   1.859
 9597SOL    HW229691   0.360   4.139   1.720
 9598SOL     OW29692   0.327   4.375   5.882
 9598SOL    HW129693   0.296   4.320   5.959
 9598SOL    HW229694   0.294   4.335   5.796
 9599SOL     OW29695   3.458   0.180   5.668
 9599SOL    HW129696   3.362   0.149   5.670
 9599SOL    HW229697   3.517   0.103   5.693
 9600SOL     OW29698   1.422   0.634   5.902
 9600SOL    HW129699   1.394   0.561   5.840
 9600SOL    HW229700   1.516   0.662   5.882
 9601SOL     OW29701   0.339   4.691   6.253
 9601SOL    HW129702   0.287   4.616   6.213
 9601SOL    HW229703   0.329   4.773   6.196
 9602SOL     OW29704   7.014   4.758   6.223
 9602SOL    HW129705   7.002   4.725   6.317
 9602SOL    HW229706   0.054   4.704   6.177
 9603SOL     OW29707   2.481   6.181   4.539
 9603SOL    HW129708   2.474   6.236   4.456
 9603SOL    HW229709   2.513   6.090   4.516
 9604SOL     OW29710   5.019   0.884   6.983
 9604SOL    HW129711   4.932   0.911   6.942
 9604SOL    HW229712   5.068   0.965   7.015
 9605SOL     OW29713   1.841   5.627   5.561
 9605SOL    HW129714   1.877   5.698   5.622
 9605SOL    HW229715   1.903   5.613   5.484
 9606SOL     OW29716   0.398   6.464   3.170
 9606SOL    HW129717   0.346   6.378   3.174
 9606SOL    HW229718   0.491   6.448   3.201
 9607SOL     OW29719   0.748   0.619   1.878
 9607SOL    HW129720   0.713   0.574   1.796
 9607SOL    HW229721   0.692   0.699   1.898
 9608SOL     OW29722   6.645   0.148   2.106
 9608SOL    HW129723   6.614   0.149   2.011
 9608SOL    HW229724   6.639   0.240   2.145
 9609SOL     OW29725   2.062   4.346   4.736
 9609SOL    HW129726   2.108   4.392   4.661
 9609SOL    HW229727   2.127   4.289   4.786
 9610SOL     OW29728   1.665   2.116   6.007
 9610SOL    HW129729   1.740   2.106   5.941
 9610SOL    HW229730   1.700   2.156   6.092
 9611SOL     OW29731   6.897   0.274   0.928
 9611SOL    HW129732   6.850   0.301   1.012
 9611SOL    HW229733   6.844   0.305   0.849
 9612SOL     OW29734   6.136   3.082   0.409
 9612SOL    HW129735   6.053   3.045   0.367
 9612SOL    HW229736   6.125   3.084   0.508
 9613SOL     OW29737   5.752   6.680   4.651
 9613SOL    HW129738   5.685   6.742   4.691
 9613SOL    HW229739   5.774   6.607   4.716
 9614SOL     OW29740   3.665   4.120   2.416
 9614SOL    HW129741   3.671   4.180   2.495
 9614SOL    HW229742   3.582   4.141   2.365
 9615SOL     OW29743   1.734   5.694   2.684
 9615SOL    HW129744   1.705   5.780   2.727
 9615SOL    HW229745   1.684   5.681   2.599
 9616SOL     OW29746   3.556   2.464   0.972
 9616SOL    HW129747   3.584   2.556   0.998
 9616SOL    HW229748   3.555   2.405   1.053
 9617SOL     OW29749   1.025   2.842   3.463
 9617SOL    HW129750   1.025   2.826   3.562
 9617SOL    HW229751   0.932   2.864   3.432
 9618SOL     OW29752   3.925   6.627   6.656
 9618SOL    HW129753   3.936   6.717   6.613
 9618SOL    HW229754   3.989   6.562   6.613
 9619SOL     OW29755   1.907   6.139   0.254
 9619SOL    HW129756   1.984   6.163   0.313
 9619SOL    HW229757   1.909   6.197   0.172
 9620SOL     OW29758   3.173   0.413   6.691
 9620SOL    HW129759   3.218   0.326   6.710
 9620SOL    HW229760   3.172   0.429   6.593
 9621SOL     OW29761   0.317   0.359   2.545
 9621SOL    HW129762   0.258   0.373   2.465
 9621SOL    HW229763   0.267   0.306   2.614
 9622SOL     OW29764   6.505   0.717   6.973
 9622SOL    HW129765   6.452   0.784   7.024
 9622SOL    HW229766   6.499   0.628   7.018
 9623SOL     OW29767   5.062   5.337   6.595
 9623SOL    HW129768   5.059   5.427   6.553
 9623SOL    HW229769   4.998   5.276   6.547
 9624SOL     OW29770   5.084   5.269   5.378
 9624SOL    HW129771   5.124   5.196   5.322
 9624SOL    HW229772   4.993   5.242   5.409
 9625SOL     OW29773   5.513   4.974   6.717
 9625SOL    HW129774   5.425   5.020   6.720
 9625SOL    HW229775   5.509   4.896   6.654
 9626SOL     OW29776   1.782   4.731   5.461
 9626SOL    HW129777   1.808   4.708   5.368
 9626SOL    HW229778   1.703   4.677   5.488
 9627SOL     OW29779   1.850   4.853   5.809
 9627SOL    HW129780   1.948   4.848   5.831
 9627SOL    HW229781   1.839   4.881   5.714
 9628SOL     OW29782   5.847   4.240   6.738
 9628SOL    HW129783   5.817   4.329   6.704
 9628SOL    HW229784   5.873   4.248   6.834
 9629SOL     OW29785   6.647   5.841   2.716
 9629SOL    HW129786   6.646   5.865   2.813
 9629SOL    HW229787   6.689   5.916   2.664
 9630SOL     OW29788   6.145   6.515   5.739
 9630SOL    HW129789   6.075   6.459   5.694
 9630SOL    HW229790   6.222   6.529   5.677
 9631SOL     OW29791   4.609   1.233   1.099
 9631SOL    HW129792   4.534   1.224   1.034
 9631SOL    HW229793   4.575   1.271   1.185
 9632SOL     OW29794   2.350   5.562   1.826
 9632SOL    HW129795   2.406   5.487   1.793
 9632SOL    HW229796   2.285   5.590   1.755
 9633SOL     OW29797   3.800   3.264   2.224
 9633SOL    HW129798   3.757   3.283   2.136
 9633SOL    HW229799   3.768   3.176   2.258
 9634SOL     OW29800   4.864   4.613   2.458
 9634SOL    HW129801   4.954   4.646   2.430
 9634SOL    HW229802   4.802   4.690   2.470
 9635SOL     OW29803   1.061   3.926   4.141
 9635SOL    HW129804   1.041   4.001   4.078
 9635SOL    HW229805   1.096   3.848   4.089
 9636SOL     OW29806   4.409   1.776   5.723
 9636SOL    HW129807   4.354   1.724   5.789
 9636SOL    HW229808   4.502   1.739   5.721
 9637SOL     OW29809   2.267   3.321   1.421
 9637SOL    HW129810   2.317   3.393   1.372
 9637SOL    HW229811   2.306   3.309   1.512
 9638SOL     OW29812   0.237   4.032   6.087
 9638SOL    HW129813   0.263   4.117   6.132
 9638SOL    HW229814   0.215   3.963   6.156
 9639SOL     OW29815   4.483   2.236   1.901
 9639SOL    HW129816   4.557   2.197   1.846
 9639SOL    HW229817   4.492   2.207   1.996
 9640SOL     OW29818   3.970   1.399   2.840
 9640SOL    HW129819   4.042   1.394   2.771
 9640SOL    HW229820   3.881   1.401   2.795
 9641SOL     OW29821   5.698   4.813   2.370
 9641SOL    HW129822   5.639   4.772   2.439
 9641SOL    HW229823   5.784   4.762   2.365
 9642SOL     OW29824   1.637   6.936   3.733
 9642SOL    HW129825   1.595   6.998   3.799
 9642SOL    HW229826   1.575   6.924   3.655
 9643SOL     OW29827   4.811   3.929   4.034
 9643SOL    HW129828   4.765   3.995   3.975
 9643SOL    HW229829   4.909   3.933   4.017
 9644SOL     OW29830   2.486   6.505   5.006
 9644SOL    HW129831   2.521   6.493   4.913
 9644SOL    HW229832   2.386   6.510   5.003
 9645SOL     OW29833   1.006   4.936   5.322
 9645SOL    HW129834   0.939   4.877   5.278
 9645SOL    HW229835   1.014   5.021   5.270
 9646SOL     OW29836   3.014   6.993   4.606
 9646SOL    HW129837   2.952   0.040   4.608
 9646SOL    HW229838   3.042   6.970   4.700
 9647SOL     OW29839   6.362   6.035   2.876
 9647SOL    HW129840   6.327   5.959   2.821
 9647SOL    HW229841   6.310   6.040   2.961
 9648SOL     OW29842   5.393   2.494   1.657
 9648SOL    HW129843   5.432   2.405   1.636
 9648SOL    HW229844   5.355   2.535   1.574
 9649SOL     OW29845   2.209   3.503   6.565
 9649SOL    HW129846   2.135   3.529   6.626
 9649SOL    HW229847   2.272   3.581   6.554
 9650SOL     OW29848   6.068   4.656   3.814
 9650SOL    HW129849   6.158   4.693   3.834
 9650SOL    HW229850   6.038   4.688   3.724
 9651SOL     OW29851   2.714   1.459   0.019
 9651SOL    HW129852   2.684   1.495   6.961
 9651SOL    HW229853   2.647   1.392   0.052
 9652SOL     OW29854   0.573   4.058   1.039
 9652SOL    HW129855   0.603   4.059   0.943
 9652SOL    HW229856   0.500   4.125   1.051
 9653SOL     OW29857   4.629   4.222   5.527
 9653SOL    HW129858   4.542   4.269   5.541
 9653SOL    HW229859   4.628   4.136   5.579
 9654SOL     OW29860   3.926   3.089   3.345
 9654SOL    HW129861   3.934   3.054   3.252
 9654SOL    HW229862   3.847   3.149   3.352
 9655SOL     OW29863   6.651   1.088   1.124
 9655SOL    HW129864   6.654   1.090   1.224
 9655SOL    HW229865   6.723   1.028   1.089
 9656SOL     OW29866   5.077   3.327   0.783
 9656SOL    HW129867   5.059   3.335   0.685
 9656SOL    HW229868   5.134   3.403   0.813
 9657SOL     OW29869   5.152   4.001   3.788
 9657SOL    HW129870   5.198   3.982   3.701
 9657SOL    HW229871   5.166   4.096   3.813
 9658SOL     OW29872   4.877   1.743   2.702
 9658SOL    HW129873   4.843   1.779   2.789
 9658SOL    HW229874   4.977   1.748   2.701
 9659SOL     OW29875   3.125   2.094   0.463
 9659SOL    HW129876   3.180   2.025   0.510
 9659SOL    HW229877   3.068   2.143   0.529
 9660SOL     OW29878   0.432   6.228   0.737
 9660SOL    HW129879   0.357   6.198   0.677
 9660SOL    HW229880   0.396   6.245   0.829
 9661SOL     OW29881   4.419   5.628   1.174
 9661SOL    HW129882   4.430   5.654   1.270
 9661SOL    HW229883   4.495   5.666   1.121
 9662SOL     OW29884   5.920   4.770   6.715
 9662SOL    HW129885   5.838   4.723   6.748
 9662SOL    HW229886   5.971   4.806   6.792
 9663SOL     OW29887   0.795   4.772   3.073
 9663SOL    HW129888   0.885   4.806   3.045
 9663SOL    HW229889   0.741   4.751   2.991
 9664SOL     OW29890   5.250   3.960   3.519
 9664SOL    HW129891   5.201   3.883   3.478
 9664SOL    HW229892   5.232   4.043   3.466
 9665SOL     OW29893   6.593   6.469   5.410
 9665SOL    HW129894   6.626   6.541   5.470
 9665SOL    HW229895   6.557   6.394   5.465
 9666SOL     OW29896   6.385   4.572   1.641
 9666SOL    HW129897   6.479   4.554   1.613
 9666SOL    HW229898   6.384   4.603   1.737
 9667SOL     OW29899   4.462   4.766   1.023
 9667SOL    HW129900   4.499   4.711   1.097
 9667SOL    HW229901   4.380   4.722   0.986
 9668SOL     OW29902   1.351   0.390   5.766
 9668SOL    HW129903   1.261   0.351   5.787
 9668SOL    HW229904   1.421   0.343   5.820
 9669SOL     OW29905   2.569   6.783   0.736
 9669SOL    HW129906   2.520   6.772   0.822
 9669SOL    HW229907   2.629   6.863   0.742
 9670SOL     OW29908   0.652   6.895   5.585
 9670SOL    HW129909   0.568   6.904   5.532
 9670SOL    HW229910   0.655   6.804   5.627
 9671SOL     OW29911   0.551   4.520   0.391
 9671SOL    HW129912   0.491   4.571   0.329
 9671SOL    HW229913   0.619   4.470   0.338
 9672SOL     OW29914   1.222   4.509   2.924
 9672SOL    HW129915   1.268   4.527   2.838
 9672SOL    HW229916   1.151   4.578   2.940
 9673SOL     OW29917   3.267   4.342   1.671
 9673SOL    HW129918   3.321   4.289   1.736
 9673SOL    HW229919   3.178   4.299   1.658
 9674SOL     OW29920   3.922   6.770   2.851
 9674SOL    HW129921   3.854   6.709   2.810
 9674SOL    HW229922   3.916   6.763   2.951
 9675SOL     OW29923   4.953   3.988   0.888
 9675SOL    HW129924   4.872   4.046   0.889
 9675SOL    HW229925   4.950   3.925   0.966
 9676SOL     OW29926   1.563   3.162   6.562
 9676SOL    HW129927   1.492   3.215   6.515
 9676SOL    HW229928   1.521   3.108   6.635
 9677SOL     OW29929   6.210   4.843   6.386
 9677SOL    HW129930   6.305   4.843   6.418
 9677SOL    HW229931   6.207   4.867   6.289
 9678SOL     OW29932   3.217   3.923   5.196
 9678SOL    HW129933   3.157   3.990   5.237
 9678SOL    HW229934   3.245   3.954   5.105
 9679SOL     OW29935   2.797   1.915   4.700
 9679SOL    HW129936   2.831   2.007   4.680
 9679SOL    HW229937   2.700   1.920   4.724
 9680SOL     OW29938   4.706   6.430   4.655
 9680SOL    HW129939   4.682   6.434   4.752
 9680SOL    HW229940   4.734   6.338   4.630
 9681SOL     OW29941   3.142   1.372   1.676
 9681SOL    HW129942   3.072   1.300   1.668
 9681SOL    HW229943   3.099   1.458   1.700
 9682SOL     OW29944   5.364   4.911   3.766
 9682SOL    HW129945   5.279   4.874   3.729
 9682SOL    HW229946   5.419   4.949   3.692
 9683SOL     OW29947   1.936   6.511   0.554
 9683SOL    HW129948   1.984   6.571   0.618
 9683SOL    HW229949   1.876   6.449   0.605
 9684SOL     OW29950   0.907   3.275   5.222
 9684SOL    HW129951   0.854   3.329   5.156
 9684SOL    HW229952   1.001   3.264   5.188
 9685SOL     OW29953   4.696   3.776   0.558
 9685SOL    HW129954   4.601   3.770   0.528
 9685SOL    HW229955   4.756   3.744   0.484
 9686SOL     OW29956   0.174   2.487   6.498
 9686SOL    HW129957   0.189   2.487   6.399
 9686SOL    HW229958   0.075   2.491   6.516
 9687SOL     OW29959   6.453   7.007   1.903
 9687SOL    HW129960   6.548   6.982   1.887
 9687SOL    HW229961   6.426   6.977   1.995
 9688SOL     OW29962   1.088   3.941   0.969
 9688SOL    HW129963   1.157   4.009   0.944
 9688SOL    HW229964   1.132   3.861   1.009
 9689SOL     OW29965   0.968   5.194   6.017
 9689SOL    HW129966   1.002   5.188   6.111
 9689SOL    HW229967   0.868   5.203   6.019
 9690SOL     OW29968   4.854   5.218   5.556
 9690SOL    HW129969   4.758   5.196   5.540
 9690SOL    HW229970   4.861   5.298   5.616
 9691SOL     OW29971   3.220   4.017   2.822
 9691SOL    HW129972   3.305   3.968   2.803
 9691SOL    HW229973   3.180   3.983   2.908
 9692SOL     OW29974   4.870   5.231   0.305
 9692SOL    HW129975   4.877   5.234   0.404
 9692SOL    HW229976   4.875   5.136   0.274
 9693SOL     OW29977   5.769   4.144   4.294
 9693SOL    HW129978   5.795   4.239   4.305
 9693SOL    HW229979   5.826   4.086   4.352
 9694SOL     OW29980   3.410   0.473   1.183
 9694SOL    HW129981   3.482   0.418   1.225
 9694SOL    HW229982   3.342   0.413   1.141
 9695SOL     OW29983   0.106   3.925   2.867
 9695SOL    HW129984   0.014   3.955   2.891
 9695SOL    HW229985   0.118   3.931   2.768
 9696SOL     OW29986   5.925   1.702   2.708
 9696SOL    HW129987   5.895   1.694   2.803
 9696SOL    HW229988   5.925   1.611   2.666
 9697SOL     OW29989   0.148   6.255   0.180
 9697SOL    HW129990   0.146   6.191   0.256
 9697SOL    HW229991   0.101   6.216   0.101
 9698SOL     OW29992   5.665   3.166   6.214
 9698SOL    HW129993   5.663   3.162   6.114
 9698SOL    HW229994   5.587   3.116   6.251
 9699SOL     OW29995   0.881   5.974   0.154
 9699SOL    HW129996   0.812   6.045   0.165
 9699SOL    HW229997   0.838   5.891   0.117
 9700SOL     OW29998   6.807   6.454   4.072
 9700SOL    HW129999   6.775   6.527   4.132
 9700SOL    HW230000   6.796   6.483   3.977
 9701SOL     OW30001   4.993   3.297   6.669
 9701SOL    HW130002   4.936   3.336   6.596
 9701SOL    HW230003   4.943   3.301   6.756
 9702SOL     OW30004   4.074   2.746   0.527
 9702SOL    HW130005   4.107   2.758   0.621
 9702SOL    HW230006   4.021   2.826   0.500
 9703SOL     OW30007   5.836   3.744   4.049
 9703SOL    HW130008   5.891   3.776   4.126
 9703SOL    HW230009   5.767   3.812   4.026
 9704SOL     OW30010   3.172   4.927   2.904
 9704SOL    HW130011   3.234   4.940   2.981
 9704SOL    HW230012   3.086   4.886   2.936
 9705SOL     OW30013   6.057   4.052   5.827
 9705SOL    HW130014   6.068   4.091   5.918
 9705SOL    HW230015   6.052   3.953   5.833
 9706SOL     OW30016   1.931   1.534   1.217
 9706SOL    HW130017   1.881   1.449   1.234
 9706SOL    HW230018   2.015   1.513   1.167
 9707SOL     OW30019   5.517   4.884   1.733
 9707SOL    HW130020   5.554   4.792   1.745
 9707SOL    HW230021   5.484   4.918   1.821
 9708SOL     OW30022   1.193   1.472   1.845
 9708SOL    HW130023   1.259   1.504   1.913
 9708SOL    HW230024   1.153   1.550   1.798
 9709SOL     OW30025   5.370   4.343   1.718
 9709SOL    HW130026   5.318   4.281   1.777
 9709SOL    HW230027   5.343   4.438   1.737
 9710SOL     OW30028   6.168   0.372   0.002
 9710SOL    HW130029   6.198   0.408   6.944
 9710SOL    HW230030   6.111   0.291   7.018
 9711SOL     OW30031   3.926   6.215   6.117
 9711SOL    HW130032   3.986   6.152   6.066
 9711SOL    HW230033   3.883   6.166   6.193
 9712SOL     OW30034   6.170   3.358   0.402
 9712SOL    HW130035   6.154   3.264   0.373
 9712SOL    HW230036   6.095   3.388   0.461
 9713SOL     OW30037   2.555   6.662   3.133
 9713SOL    HW130038   2.485   6.591   3.135
 9713SOL    HW230039   2.531   6.729   3.062
 9714SOL     OW30040   3.988   5.871   5.176
 9714SOL    HW130041   4.053   5.819   5.122
 9714SOL    HW230042   4.028   5.893   5.265
 9715SOL     OW30043   6.406   4.731   0.171
 9715SOL    HW130044   6.376   4.722   0.076
 9715SOL    HW230045   6.418   4.640   0.211
 9716SOL     OW30046   4.404   3.770   6.989
 9716SOL    HW130047   4.496   3.748   7.023
 9716SOL    HW230048   4.360   3.833   0.023
 9717SOL     OW30049   4.607   6.098   6.956
 9717SOL    HW130050   4.663   6.168   7.000
 9717SOL    HW230051   4.549   6.141   6.886
 9718SOL     OW30052   4.646   2.365   0.413
 9718SOL    HW130053   4.693   2.317   0.487
 9718SOL    HW230054   4.547   2.350   0.421
 9719SOL     OW30055   5.316   6.984   5.877
 9719SOL    HW130056   5.223   6.951   5.859
 9719SOL    HW230057   5.382   6.918   5.842
 9720SOL     OW30058   1.682   3.566   2.808
 9720SOL    HW130059   1.630   3.483   2.831
 9720SOL    HW230060   1.653   3.599   2.718
 9721SOL     OW30061   0.351   1.630   0.118
 9721SOL    HW130062   0.426   1.573   0.084
 9721SOL    HW230063   0.268   1.612   0.063
 9722SOL     OW30064   3.616   1.937   5.038
 9722SOL    HW130065   3.561   1.854   5.046
 9722SOL    HW230066   3.627   1.978   5.129
 9723SOL     OW30067   6.223   4.837   4.610
 9723SOL    HW130068   6.289   4.802   4.543
 9723SOL    HW230069   6.199   4.932   4.587
 9724SOL     OW30070   2.169   5.079   6.549
 9724SOL    HW130071   2.187   4.986   6.579
 9724SOL    HW230072   2.106   5.078   6.471
 9725SOL     OW30073   4.172   5.878   5.392
 9725SOL    HW130074   4.270   5.871   5.373
 9725SOL    HW230075   4.153   5.841   5.483
 9726SOL     OW30076   5.426   1.042   4.217
 9726SOL    HW130077   5.340   0.995   4.197
 9726SOL    HW230078   5.407   1.139   4.235
 9727SOL     OW30079   0.446   2.486   0.148
 9727SOL    HW130080   0.387   2.417   0.106
 9727SOL    HW230081   0.541   2.469   0.121
 9728SOL     OW30082   6.773   1.861   6.107
 9728SOL    HW130083   6.835   1.868   6.029
 9728SOL    HW230084   6.800   1.928   6.176
 9729SOL     OW30085   1.456   3.463   4.045
 9729SOL    HW130086   1.425   3.427   3.956
 9729SOL    HW230087   1.513   3.395   4.090
 9730SOL     OW30088   0.809   4.578   3.502
 9730SOL    HW130089   0.881   4.549   3.565
 9730SOL    HW230090   0.759   4.497   3.469
 9731SOL     OW30091   4.884   5.069   1.829
 9731SOL    HW130092   4.848   5.012   1.756
 9731SOL    HW230093   4.961   5.023   1.873
 9732SOL     OW30094   0.101   2.832   1.962
 9732SOL    HW130095   0.121   2.881   2.047
 9732SOL    HW230096   0.124   2.735   1.974
 9733SOL     OW30097   5.772   5.507   1.436
 9733SOL    HW130098   5.807   5.591   1.396
 9733SOL    HW230099   5.794   5.430   1.377
 9734SOL     OW30100   6.536   6.683   0.576
 9734SOL    HW130101   6.520   6.779   0.601
 9734SOL    HW230102   6.599   6.679   0.499
 9735SOL     OW30103   1.571   2.653   3.230
 9735SOL    HW130104   1.641   2.725   3.236
 9735SOL    HW230105   1.491   2.680   3.284
 9736SOL     OW30106   4.876   2.299   5.963
 9736SOL    HW130107   4.800   2.279   5.901
 9736SOL    HW230108   4.943   2.225   5.959
 9737SOL     OW30109   5.693   1.992   3.351
 9737SOL    HW130110   5.745   2.013   3.268
 9737SOL    HW230111   5.750   2.007   3.431
 9738SOL     OW30112   2.096   6.579   0.331
 9738SOL    HW130113   2.053   6.559   0.419
 9738SOL    HW230114   2.120   6.493   0.285
 9739SOL     OW30115   4.873   5.986   7.021
 9739SOL    HW130116   4.928   5.927   6.962
 9739SOL    HW230117   4.776   5.974   7.000
 9740SOL     OW30118   5.859   0.751   2.723
 9740SOL    HW130119   5.906   0.833   2.757
 9740SOL    HW230120   5.883   0.672   2.779
 9741SOL     OW30121   2.354   0.984   3.863
 9741SOL    HW130122   2.434   0.942   3.905
 9741SOL    HW230123   2.335   1.073   3.907
 9742SOL     OW30124   4.548   1.283   0.258
 9742SOL    HW130125   4.541   1.315   0.353
 9742SOL    HW230126   4.644   1.284   0.230
 9743SOL     OW30127   0.339   3.872   3.252
 9743SOL    HW130128   0.249   3.830   3.238
 9743SOL    HW230129   0.384   3.830   3.330
 9744SOL     OW30130   2.223   6.902   3.085
 9744SOL    HW130131   2.161   6.853   3.145
 9744SOL    HW230132   2.306   6.928   3.135
 9745SOL     OW30133   5.397   2.667   6.131
 9745SOL    HW130134   5.302   2.698   6.122
 9745SOL    HW230135   5.424   2.671   6.227
 9746SOL     OW30136   5.379   6.246   6.513
 9746SOL    HW130137   5.363   6.148   6.507
 9746SOL    HW230138   5.296   6.291   6.547
 9747SOL     OW30139   2.730   2.237   1.536
 9747SOL    HW130140   2.643   2.188   1.539
 9747SOL    HW230141   2.777   2.217   1.450
 9748SOL     OW30142   0.211   6.861   2.611
 9748SOL    HW130143   0.232   6.771   2.573
 9748SOL    HW230144   0.294   6.917   2.612
 9749SOL     OW30145   0.664   1.322   2.358
 9749SOL    HW130146   0.726   1.249   2.328
 9749SOL    HW230147   0.575   1.283   2.379
 9750SOL     OW30148   6.471   5.011   3.923
 9750SOL    HW130149   6.503   5.068   3.848
 9750SOL    HW230150   6.547   4.956   3.958
 9751SOL     OW30151   2.108   0.303   0.644
 9751SOL    HW130152   2.076   0.346   0.560
 9751SOL    HW230153   2.144   0.212   0.624
 9752SOL     OW30154   3.718   2.252   6.194
 9752SOL    HW130155   3.702   2.195   6.113
 9752SOL    HW230156   3.642   2.316   6.205
 9753SOL     OW30157   1.191   5.808   6.046
 9753SOL    HW130158   1.157   5.872   5.977
 9753SOL    HW230159   1.259   5.748   6.005
 9754SOL     OW30160   3.973   6.893   0.487
 9754SOL    HW130161   3.987   6.862   0.580
 9754SOL    HW230162   3.882   6.934   0.479
 9755SOL     OW30163   3.506   4.280   5.520
 9755SOL    HW130164   3.435   4.210   5.509
 9755SOL    HW230165   3.584   4.241   5.569
 9756SOL     OW30166   6.103   1.867   6.039
 9756SOL    HW130167   6.190   1.882   6.085
 9756SOL    HW230168   6.101   1.775   6.000
 9757SOL     OW30169   5.560   4.447   4.595
 9757SOL    HW130170   5.539   4.460   4.692
 9757SOL    HW230171   5.520   4.361   4.564
 9758SOL     OW30172   1.327   1.169   6.984
 9758SOL    HW130173   1.367   1.179   0.045
 9758SOL    HW230174   1.326   1.259   6.938
 9759SOL     OW30175   1.026   1.933   0.329
 9759SOL    HW130176   1.032   1.999   0.403
 9759SOL    HW230177   1.104   1.870   0.333
 9760SOL     OW30178   5.202   2.961   7.026
 9760SOL    HW130179   5.121   2.903   7.018
 9760SOL    HW230180   5.283   2.909   7.000
 9761SOL     OW30181   1.256   1.922   2.483
 9761SOL    HW130182   1.299   1.865   2.553
 9761SOL    HW230183   1.183   1.976   2.524
 9762SOL     OW30184   3.387   1.776   5.078
 9762SOL    HW130185   3.313   1.727   5.034
 9762SOL    HW230186   3.359   1.871   5.096
 9763SOL     OW30187   5.918   1.188   3.040
 9763SOL    HW130188   6.006   1.166   3.000
 9763SOL    HW230189   5.847   1.183   2.970
 9764SOL     OW30190   6.605   1.915   2.957
 9764SOL    HW130191   6.525   1.894   2.901
 9764SOL    HW230192   6.575   1.950   3.046
 9765SOL     OW30193   6.674   0.827   3.142
 9765SOL    HW130194   6.663   0.880   3.226
 9765SOL    HW230195   6.598   0.846   3.080
 9766SOL     OW30196   2.117   0.231   2.473
 9766SOL    HW130197   2.102   0.285   2.390
 9766SOL    HW230198   2.045   0.252   2.540
 9767SOL     OW30199   2.040   2.713   4.907
 9767SOL    HW130200   2.099   2.645   4.863
 9767SOL    HW230201   2.094   2.794   4.928
 9768SOL     OW30202   4.889   1.855   1.146
 9768SOL    HW130203   4.944   1.797   1.086
 9768SOL    HW230204   4.937   1.942   1.160
 9769SOL     OW30205   3.489   0.779   5.182
 9769SOL    HW130206   3.494   0.879   5.192
 9769SOL    HW230207   3.532   0.752   5.097
 9770SOL     OW30208   4.240   1.694   5.301
 9770SOL    HW130209   4.218   1.736   5.389
 9770SOL    HW230210   4.336   1.711   5.279
 9771SOL     OW30211   2.565   6.407   1.330
 9771SOL    HW130212   2.527   6.402   1.238
 9771SOL    HW230213   2.642   6.343   1.338
 9772SOL     OW30214   2.054   6.421   1.503
 9772SOL    HW130215   2.011   6.374   1.425
 9772SOL    HW230216   2.153   6.414   1.495
 9773SOL     OW30217   5.531   5.010   3.576
 9773SOL    HW130218   5.615   4.996   3.627
 9773SOL    HW230219   5.553   5.032   3.480
 9774SOL     OW30220   0.643   4.356   3.409
 9774SOL    HW130221   0.612   4.380   3.317
 9774SOL    HW230222   0.661   4.257   3.413
 9775SOL     OW30223   2.679   0.310   3.076
 9775SOL    HW130224   2.768   0.279   3.109
 9775SOL    HW230225   2.679   0.410   3.071
 9776SOL     OW30226   1.145   4.808   6.106
 9776SOL    HW130227   1.230   4.853   6.132
 9776SOL    HW230228   1.137   4.808   6.006
 9777SOL     OW30229   5.358   6.007   0.356
 9777SOL    HW130230   5.269   6.052   0.343
 9777SOL    HW230231   5.393   6.028   0.448
 9778SOL     OW30232   0.064   2.131   4.824
 9778SOL    HW130233   0.045   2.199   4.753
 9778SOL    HW230234   0.133   2.167   4.886
 9779SOL     OW30235   0.087   2.247   3.592
 9779SOL    HW130236   0.137   2.160   3.590
 9779SOL    HW230237   0.028   2.253   3.512
 9780SOL     OW30238   2.076   1.472   0.783
 9780SOL    HW130239   2.072   1.494   0.881
 9780SOL    HW230240   2.167   1.436   0.762
 9781SOL     OW30241   2.140   3.162   4.779
 9781SOL    HW130242   2.191   3.082   4.811
 9781SOL    HW230243   2.172   3.244   4.828
 9782SOL     OW30244   0.524   2.208   0.251
 9782SOL    HW130245   0.587   2.257   0.311
 9782SOL    HW230246   0.575   2.143   0.195
 9783SOL     OW30247   4.549   1.953   3.645
 9783SOL    HW130248   4.617   1.943   3.573
 9783SOL    HW230249   4.592   1.941   3.734
 9784SOL     OW30250   3.939   0.906   5.818
 9784SOL    HW130251   3.947   0.889   5.720
 9784SOL    HW230252   3.856   0.862   5.853
 9785SOL     OW30253   5.901   2.833   5.430
 9785SOL    HW130254   5.977   2.789   5.479
 9785SOL    HW230255   5.818   2.826   5.484
 9786SOL     OW30256   2.284   3.988   0.285
 9786SOL    HW130257   2.345   4.022   0.357
 9786SOL    HW230258   2.193   4.028   0.297
 9787SOL     OW30259   3.134   3.040   3.697
 9787SOL    HW130260   3.100   3.097   3.622
 9787SOL    HW230261   3.152   3.096   3.777
 9788SOL     OW30262   0.769   6.701   2.051
 9788SOL    HW130263   0.678   6.742   2.056
 9788SOL    HW230264   0.817   6.736   1.970
 9789SOL     OW30265   2.599   6.583   6.818
 9789SOL    HW130266   2.686   6.597   6.770
 9789SOL    HW230267   2.576   6.665   6.870
 9790SOL     OW30268   5.984   4.851   5.874
 9790SOL    HW130269   6.027   4.839   5.784
 9790SOL    HW230270   5.898   4.800   5.877
 9791SOL     OW30271   0.678   0.258   0.287
 9791SOL    HW130272   0.639   0.288   0.200
 9791SOL    HW230273   0.639   0.310   0.362
 9792SOL     OW30274   3.401   4.857   0.708
 9792SOL    HW130275   3.328   4.903   0.658
 9792SOL    HW230276   3.373   4.763   0.728
 9793SOL     OW30277   4.149   0.220   2.638
 9793SOL    HW130278   4.107   0.269   2.715
 9793SOL    HW230279   4.199   0.141   2.673
 9794SOL     OW30280   5.947   4.273   5.114
 9794SOL    HW130281   5.861   4.322   5.129
 9794SOL    HW230282   6.017   4.338   5.084
 9795SOL     OW30283   0.889   2.848   4.555
 9795SOL    HW130284   0.946   2.838   4.637
 9795SOL    HW230285   0.905   2.770   4.494
 9796SOL     OW30286   3.796   3.733   3.732
 9796SOL    HW130287   3.759   3.745   3.824
 9796SOL    HW230288   3.843   3.645   3.726
 9797SOL     OW30289   2.169   5.807   6.884
 9797SOL    HW130290   2.096   5.811   6.816
 9797SOL    HW230291   2.207   5.715   6.888
 9798SOL     OW30292   2.278   1.333   1.179
 9798SOL    HW130293   2.372   1.313   1.154
 9798SOL    HW230294   2.235   1.252   1.217
 9799SOL     OW30295   3.386   4.028   6.528
 9799SOL    HW130296   3.372   3.962   6.454
 9799SOL    HW230297   3.298   4.046   6.574
 9800SOL     OW30298   5.503   4.329   4.081
 9800SOL    HW130299   5.436   4.292   4.145
 9800SOL    HW230300   5.593   4.289   4.100
 9801SOL     OW30301   5.302   5.050   0.292
 9801SOL    HW130302   5.308   5.085   0.198
 9801SOL    HW230303   5.332   5.121   0.356
 9802SOL     OW30304   4.806   4.892   0.441
 9802SOL    HW130305   4.871   4.824   0.475
 9802SOL    HW230306   4.718   4.881   0.487
 9803SOL     OW30307   2.519   3.720   6.205
 9803SOL    HW130308   2.557   3.722   6.112
 9803SOL    HW230309   2.444   3.655   6.208
 9804SOL     OW30310   7.021   5.984   3.192
 9804SOL    HW130311   7.010   5.929   3.110
 9804SOL    HW230312   0.029   5.928   3.265
 9805SOL     OW30313   0.357   6.523   2.924
 9805SOL    HW130314   0.388   6.510   3.019
 9805SOL    HW230315   0.416   6.471   2.863
 9806SOL     OW30316   1.929   1.535   6.757
 9806SOL    HW130317   1.933   1.546   6.657
 9806SOL    HW230318   2.002   1.473   6.786
 9807SOL     OW30319   3.408   3.155   2.219
 9807SOL    HW130320   3.451   3.108   2.142
 9807SOL    HW230321   3.313   3.174   2.197
 9808SOL     OW30322   3.527   5.817   4.135
 9808SOL    HW130323   3.495   5.766   4.056
 9808SOL    HW230324   3.589   5.890   4.105
 9809SOL     OW30325   0.486   3.229   0.422
 9809SOL    HW130326   0.453   3.171   0.348
 9809SOL    HW230327   0.444   3.319   0.416
 9810SOL     OW30328   2.951   2.199   4.932
 9810SOL    HW130329   2.877   2.174   4.994
 9810SOL    HW230330   3.035   2.215   4.984
 9811SOL     OW30331   5.915   4.267   3.505
 9811SOL    HW130332   5.979   4.342   3.524
 9811SOL    HW230333   5.826   4.305   3.479
 9812SOL     OW30334   2.611   1.113   4.582
 9812SOL    HW130335   2.575   1.022   4.602
 9812SOL    HW230336   2.672   1.109   4.503
 9813SOL     OW30337   5.389   1.948   1.008
 9813SOL    HW130338   5.349   1.879   0.948
 9813SOL    HW230339   5.386   1.915   1.102
 9814SOL     OW30340   5.765   1.326   0.246
 9814SOL    HW130341   5.727   1.379   0.322
 9814SOL    HW230342   5.730   1.363   0.159
 9815SOL     OW30343   4.611   2.622   4.298
 9815SOL    HW130344   4.574   2.683   4.368
 9815SOL    HW230345   4.648   2.676   4.223
 9816SOL     OW30346   0.794   0.796   6.234
 9816SOL    HW130347   0.848   0.804   6.151
 9816SOL    HW230348   0.854   0.790   6.313
 9817SOL     OW30349   1.138   6.972   3.450
 9817SOL    HW130350   1.148   6.914   3.530
 9817SOL    HW230351   1.137   6.915   3.368
 9818SOL     OW30352   6.437   2.112   4.727
 9818SOL    HW130353   6.366   2.044   4.709
 9818SOL    HW230354   6.421   2.154   4.816
 9819SOL     OW30355   4.833   3.129   3.429
 9819SOL    HW130356   4.896   3.204   3.449
 9819SOL    HW230357   4.837   3.061   3.502
 9820SOL     OW30358   3.554   3.251   6.425
 9820SOL    HW130359   3.591   3.159   6.410
 9820SOL    HW230360   3.462   3.243   6.464
 9821SOL     OW30361   5.750   0.920   6.689
 9821SOL    HW130362   5.715   0.854   6.622
 9821SOL    HW230363   5.713   0.900   6.779
 9822SOL     OW30364   1.241   6.800   3.243
 9822SOL    HW130365   1.326   6.750   3.254
 9822SOL    HW230366   1.253   6.872   3.174
 9823SOL     OW30367   3.778   0.098   1.222
 9823SOL    HW130368   3.819   0.096   1.131
 9823SOL    HW230369   3.789   0.009   1.266
 9824SOL     OW30370   1.850   4.552   5.870
 9824SOL    HW130371   1.758   4.515   5.886
 9824SOL    HW230372   1.845   4.652   5.864
 9825SOL     OW30373   3.154   5.093   5.260
 9825SOL    HW130374   3.254   5.092   5.270
 9825SOL    HW230375   3.130   5.062   5.168
 9826SOL     OW30376   5.413   5.315   6.401
 9826SOL    HW130377   5.409   5.388   6.333
 9826SOL    HW230378   5.339   5.250   6.385
 9827SOL     OW30379   2.119   3.308   4.033
 9827SOL    HW130380   2.182   3.303   3.955
 9827SOL    HW230381   2.152   3.376   4.098
 9828SOL     OW30382   2.616   2.916   6.329
 9828SOL    HW130383   2.562   2.855   6.271
 9828SOL    HW230384   2.574   2.923   6.419
 9829SOL     OW30385   3.331   6.332   0.294
 9829SOL    HW130386   3.246   6.283   0.274
 9829SOL    HW230387   3.407   6.267   0.297
 9830SOL     OW30388   5.277   2.567   1.433
 9830SOL    HW130389   5.309   2.653   1.393
 9830SOL    HW230390   5.297   2.492   1.370
 9831SOL     OW30391   1.664   6.400   1.118
 9831SOL    HW130392   1.620   6.318   1.081
 9831SOL    HW230393   1.600   6.446   1.180
 9832SOL     OW30394   4.972   4.997   2.663
 9832SOL    HW130395   4.968   5.063   2.588
 9832SOL    HW230396   4.880   4.961   2.681
 9833SOL     OW30397   3.507   2.843   4.789
 9833SOL    HW130398   3.596   2.863   4.829
 9833SOL    HW230399   3.450   2.795   4.856
 9834SOL     OW30400   3.622   4.591   5.661
 9834SOL    HW130401   3.684   4.596   5.583
 9834SOL    HW230402   3.541   4.647   5.643
 9835SOL     OW30403   3.242   2.668   5.755
 9835SOL    HW130404   3.251   2.692   5.851
 9835SOL    HW230405   3.290   2.582   5.737
 9836SOL     OW30406   6.076   4.734   3.555
 9836SOL    HW130407   6.154   4.776   3.509
 9836SOL    HW230408   5.991   4.772   3.517
 9837SOL     OW30409   3.408   0.137   2.767
 9837SOL    HW130410   3.475   0.191   2.818
 9837SOL    HW230411   3.342   0.198   2.724
 9838SOL     OW30412   0.773   6.937   5.817
 9838SOL    HW130413   0.739   6.939   5.723
 9838SOL    HW230414   0.752   7.024   5.862
 9839SOL     OW30415   5.592   1.422   3.206
 9839SOL    HW130416   5.554   1.352   3.147
 9839SOL    HW230417   5.548   1.510   3.187
 9840SOL     OW30418   0.841   0.954   1.408
 9840SOL    HW130419   0.914   1.013   1.373
 9840SOL    HW230420   0.814   0.985   1.499
 9841SOL     OW30421   1.254   3.674   4.704
 9841SOL    HW130422   1.160   3.701   4.682
 9841SOL    HW230423   1.258   3.574   4.714
 9842SOL     OW30424   3.934   3.971   3.191
 9842SOL    HW130425   3.885   4.025   3.123
 9842SOL    HW230426   3.892   3.987   3.281
 9843SOL     OW30427   6.038   1.568   1.606
 9843SOL    HW130428   6.119   1.579   1.663
 9843SOL    HW230429   5.966   1.525   1.661
 9844SOL     OW30430   5.566   0.455   2.512
 9844SOL    HW130431   5.616   0.376   2.477
 9844SOL    HW230432   5.560   0.525   2.441
 9845SOL     OW30433   2.833   1.203   3.823
 9845SOL    HW130434   2.865   1.275   3.761
 9845SOL    HW230435   2.885   1.208   3.908
 9846SOL     OW30436   4.003   3.638   2.013
 9846SOL    HW130437   4.070   3.688   1.958
 9846SOL    HW230438   4.040   3.549   2.038
 9847SOL     OW30439   3.203   2.889   5.127
 9847SOL    HW130440   3.187   2.828   5.205
 9847SOL    HW230441   3.200   2.984   5.159
 9848SOL     OW30442   3.691   3.182   6.063
 9848SOL    HW130443   3.789   3.175   6.046
 9848SOL    HW230444   3.642   3.128   5.994
 9849SOL     OW30445   6.397   0.311   0.443
 9849SOL    HW130446   6.353   0.249   0.508
 9849SOL    HW230447   6.342   0.394   0.433
 9850SOL     OW30448   6.231   5.973   3.130
 9850SOL    HW130449   6.242   5.938   3.223
 9850SOL    HW230450   6.211   5.897   3.068
 9851SOL     OW30451   4.499   2.440   5.959
 9851SOL    HW130452   4.571   2.492   5.912
 9851SOL    HW230453   4.469   2.490   6.040
 9852SOL     OW30454   4.411   1.999   2.538
 9852SOL    HW130455   4.371   2.048   2.616
 9852SOL    HW230456   4.405   2.055   2.456
 9853SOL     OW30457   4.871   4.113   3.587
 9853SOL    HW130458   4.931   4.192   3.604
 9853SOL    HW230459   4.866   4.095   3.489
 9854SOL     OW30460   0.128   5.115   4.960
 9854SOL    HW130461   0.126   5.092   4.862
 9854SOL    HW230462   0.197   5.059   5.005
 9855SOL     OW30463   2.525   4.185   1.369
 9855SOL    HW130464   2.489   4.265   1.320
 9855SOL    HW230465   2.450   4.126   1.397
 9856SOL     OW30466   5.112   3.795   6.753
 9856SOL    HW130467   5.199   3.798   6.705
 9856SOL    HW230468   5.123   3.743   6.839
 9857SOL     OW30469   4.030   1.658   4.777
 9857SOL    HW130470   4.035   1.680   4.874
 9857SOL    HW230471   3.983   1.732   4.728
 9858SOL     OW30472   0.438   0.456   1.117
 9858SOL    HW130473   0.467   0.362   1.099
 9858SOL    HW230474   0.464   0.481   1.210
 9859SOL     OW30475   6.105   6.888   2.099
 9859SOL    HW130476   6.104   6.920   2.005
 9859SOL    HW230477   6.132   6.963   2.160
 9860SOL     OW30478   0.113   1.333   2.936
 9860SOL    HW130479   0.034   1.364   2.988
 9860SOL    HW230480   0.087   1.323   2.840
 9861SOL     OW30481   3.783   7.008   2.906
 9861SOL    HW130482   3.840   6.992   2.825
 9861SOL    HW230483   3.698   6.957   2.897
 9862SOL     OW30484   2.651   5.018   0.523
 9862SOL    HW130485   2.742   5.024   0.481
 9862SOL    HW230486   2.628   5.106   0.564
 9863SOL     OW30487   3.366   0.453   3.647
 9863SOL    HW130488   3.424   0.533   3.637
 9863SOL    HW230489   3.279   0.469   3.600
 9864SOL     OW30490   3.800   6.052   3.778
 9864SOL    HW130491   3.831   6.004   3.860
 9864SOL    HW230492   3.778   6.147   3.801
 9865SOL     OW30493   1.829   0.859   4.140
 9865SOL    HW130494   1.899   0.904   4.195
 9865SOL    HW230495   1.858   0.854   4.045
 9866SOL     OW30496   5.608   4.686   5.221
 9866SOL    HW130497   5.703   4.717   5.214
 9866SOL    HW230498   5.575   4.659   5.131
 9867SOL     OW30499   5.965   0.455   0.519
 9867SOL    HW130500   5.922   0.510   0.591
 9867SOL    HW230501   6.030   0.391   0.561
 9868SOL     OW30502   0.785   3.796   5.463
 9868SOL    HW130503   0.825   3.871   5.410
 9868SOL    HW230504   0.833   3.789   5.551
 9869SOL     OW30505   1.528   3.296   2.404
 9869SOL    HW130506   1.561   3.318   2.312
 9869SOL    HW230507   1.428   3.298   2.404
 9870SOL     OW30508   4.446   5.867   2.765
 9870SOL    HW130509   4.483   5.935   2.701
 9870SOL    HW230510   4.353   5.892   2.791
 9871SOL     OW30511   0.866   6.467   6.305
 9871SOL    HW130512   0.768   6.464   6.285
 9871SOL    HW230513   0.885   6.414   6.388
 9872SOL     OW30514   2.496   4.594   4.252
 9872SOL    HW130515   2.458   4.524   4.191
 9872SOL    HW230516   2.551   4.550   4.322
 9873SOL     OW30517   2.952   2.672   1.313
 9873SOL    HW130518   2.896   2.703   1.390
 9873SOL    HW230519   2.969   2.573   1.322
 9874SOL     OW30520   0.994   3.352   4.152
 9874SOL    HW130521   1.046   3.365   4.237
 9874SOL    HW230522   0.962   3.440   4.119
 9875SOL     OW30523   6.758   6.752   1.965
 9875SOL    HW130524   6.734   6.690   1.890
 9875SOL    HW230525   6.821   6.706   2.027
 9876SOL     OW30526   6.257   0.688   2.743
 9876SOL    HW130527   6.336   0.744   2.717
 9876SOL    HW230528   6.189   0.747   2.788
 9877SOL     OW30529   0.193   6.422   3.779
 9877SOL    HW130530   0.166   6.354   3.711
 9877SOL    HW230531   0.182   6.514   3.741
 9878SOL     OW30532   2.644   4.905   5.023
 9878SOL    HW130533   2.690   4.981   4.978
 9878SOL    HW230534   2.697   4.821   5.010
 9879SOL     OW30535   5.418   5.491   4.151
 9879SOL    HW130536   5.500   5.462   4.200
 9879SOL    HW230537   5.407   5.590   4.158
 9880SOL     OW30538   3.117   1.377   5.849
 9880SOL    HW130539   3.112   1.437   5.928
 9880SOL    HW230540   3.135   1.431   5.767
 9881SOL     OW30541   1.153   1.502   5.143
 9881SOL    HW130542   1.136   1.442   5.221
 9881SOL    HW230543   1.079   1.492   5.076
 9882SOL     OW30544   0.667   2.637   3.678
 9882SOL    HW130545   0.735   2.593   3.619
 9882SOL    HW230546   0.587   2.664   3.623
 9883SOL     OW30547   1.297   5.471   0.254
 9883SOL    HW130548   1.303   5.562   0.297
 9883SOL    HW230549   1.361   5.467   0.177
 9884SOL     OW30550   4.469   1.820   2.732
 9884SOL    HW130551   4.557   1.834   2.777
 9884SOL    HW230552   4.458   1.887   2.658
 9885SOL     OW30553   6.734   2.642   5.322
 9885SOL    HW130554   6.661   2.650   5.255
 9885SOL    HW230555   6.695   2.628   5.413
 9886SOL     OW30556   1.237   3.868   2.230
 9886SOL    HW130557   1.137   3.865   2.227
 9886SOL    HW230558   1.274   3.775   2.237
 9887SOL     OW30559   4.052   0.540   5.773
 9887SOL    HW130560   4.137   0.523   5.823
 9887SOL    HW230561   4.073   0.581   5.684
 9888SOL     OW30562   5.334   4.505   2.383
 9888SOL    HW130563   5.403   4.547   2.443
 9888SOL    HW230564   5.263   4.462   2.438
 9889SOL     OW30565   0.232   5.528   1.588
 9889SOL    HW130566   0.139   5.494   1.595
 9889SOL    HW230567   0.288   5.462   1.537
 9890SOL     OW30568   1.660   1.934   0.545
 9890SOL    HW130569   1.743   1.953   0.494
 9890SOL    HW230570   1.651   1.998   0.621
 9891SOL     OW30571   5.596   3.239   2.183
 9891SOL    HW130572   5.583   3.146   2.216
 9891SOL    HW230573   5.581   3.304   2.257
 9892SOL     OW30574   7.000   4.801   1.022
 9892SOL    HW130575   0.007   4.708   1.025
 9892SOL    HW230576   6.902   4.797   1.004
 9893SOL     OW30577   0.881   0.271   1.032
 9893SOL    HW130578   0.941   0.332   1.083
 9893SOL    HW230579   0.933   0.224   0.961
 9894SOL     OW30580   2.636   2.628   1.735
 9894SOL    HW130581   2.687   2.705   1.696
 9894SOL    HW230582   2.550   2.618   1.685
 9895SOL     OW30583   6.301   4.641   4.783
 9895SOL    HW130584   6.279   4.700   4.705
 9895SOL    HW230585   6.400   4.629   4.789
 9896SOL     OW30586   6.611   0.960   6.537
 9896SOL    HW130587   6.660   0.877   6.560
 9896SOL    HW230588   6.523   0.937   6.495
 9897SOL     OW30589   6.032   5.848   2.765
 9897SOL    HW130590   6.101   5.786   2.802
 9897SOL    HW230591   6.053   5.868   2.670
 9898SOL     OW30592   1.229   6.184   3.984
 9898SOL    HW130593   1.290   6.245   4.034
 9898SOL    HW230594   1.237   6.091   4.021
 9899SOL     OW30595   0.848   6.179   0.690
 9899SOL    HW130596   0.809   6.116   0.757
 9899SOL    HW230597   0.859   6.269   0.732
 9900SOL     OW30598   2.031   3.685   3.255
 9900SOL    HW130599   1.940   3.667   3.292
 9900SOL    HW230600   2.023   3.711   3.159
 9901SOL     OW30601   2.903   0.558   0.082
 9901SOL    HW130602   2.932   0.587   0.173
 9901SOL    HW230603   2.876   0.639   0.029
 9902SOL     OW30604   3.180   4.986   0.589
 9902SOL    HW130605   3.144   5.070   0.630
 9902SOL    HW230606   3.121   4.909   0.614
 9903SOL     OW30607   4.980   1.951   2.342
 9903SOL    HW130608   5.056   1.932   2.280
 9903SOL    HW230609   4.983   2.047   2.370
 9904SOL     OW30610   0.996   3.974   6.973
 9904SOL    HW130611   1.083   4.021   6.958
 9904SOL    HW230612   1.011   3.875   6.972
 9905SOL     OW30613   2.113   7.018   6.040
 9905SOL    HW130614   2.183   6.984   6.102
 9905SOL    HW230615   2.026   6.972   6.059
 9906SOL     OW30616   2.368   3.668   1.628
 9906SOL    HW130617   2.398   3.597   1.692
 9906SOL    HW230618   2.311   3.735   1.677
 9907SOL     OW30619   6.799   0.377   1.186
 9907SOL    HW130620   6.750   0.322   1.254
 9907SOL    HW230621   6.890   0.400   1.221
 9908SOL     OW30622   5.897   1.783   4.877
 9908SOL    HW130623   5.934   1.789   4.970
 9908SOL    HW230624   5.947   1.714   4.825
 9909SOL     OW30625   4.826   0.768   3.461
 9909SOL    HW130626   4.889   0.719   3.521
 9909SOL    HW230627   4.872   0.848   3.423
 9910SOL     OW30628   1.399   4.459   2.275
 9910SOL    HW130629   1.328   4.527   2.258
 9910SOL    HW230630   1.395   4.429   2.370
 9911SOL     OW30631   2.785   5.693   2.091
 9911SOL    HW130632   2.732   5.629   2.036
 9911SOL    HW230633   2.841   5.750   2.031
 9912SOL     OW30634   3.530   0.352   1.517
 9912SOL    HW130635   3.594   0.323   1.589
 9912SOL    HW230636   3.505   0.448   1.532
 9913SOL     OW30637   6.006   3.595   0.998
 9913SOL    HW130638   6.069   3.642   0.935
 9913SOL    HW230639   6.058   3.535   1.058
 9914SOL     OW30640   5.874   1.123   5.033
 9914SOL    HW130641   5.811   1.162   5.100
 9914SOL    HW230642   5.964   1.110   5.075
 9915SOL     OW30643   5.235   0.183   3.570
 9915SOL    HW130644   5.308   0.234   3.615
 9915SOL    HW230645   5.197   0.237   3.495
 9916SOL     OW30646   1.940   2.191   2.665
 9916SOL    HW130647   1.888   2.259   2.718
 9916SOL    HW230648   2.038   2.206   2.679
 9917SOL     OW30649   5.272   4.356   6.755
 9917SOL    HW130650   5.223   4.281   6.800
 9917SOL    HW230651   5.207   4.426   6.726
 9918SOL     OW30652   3.391   1.236   2.818
 9918SOL    HW130653   3.461   1.265   2.884
 9918SOL    HW230654   3.416   1.145   2.783
 9919SOL     OW30655   0.601   5.060   1.273
 9919SOL    HW130656   0.579   5.047   1.176
 9919SOL    HW230657   0.558   4.988   1.327
 9920SOL     OW30658   4.946   1.336   2.387
 9920SOL    HW130659   4.965   1.432   2.365
 9920SOL    HW230660   4.859   1.309   2.345
 9921SOL     OW30661   3.612   0.025   5.235
 9921SOL    HW130662   3.617   7.009   5.323
 9921SOL    HW230663   3.668   0.108   5.237
 9922SOL     OW30664   2.434   4.181   0.854
 9922SOL    HW130665   2.393   4.237   0.782
 9922SOL    HW230666   2.423   4.227   0.943
 9923SOL     OW30667   5.103   4.955   6.818
 9923SOL    HW130668   5.064   5.015   6.888
 9923SOL    HW230669   5.201   4.972   6.809
 9924SOL     OW30670   6.641   1.597   4.444
 9924SOL    HW130671   6.637   1.569   4.348
 9924SOL    HW230672   6.549   1.601   4.482
 9925SOL     OW30673   0.638   4.031   4.205
 9925SOL    HW130674   0.636   3.944   4.253
 9925SOL    HW230675   0.550   4.047   4.160
 9926SOL     OW30676   4.341   2.794   1.118
 9926SOL    HW130677   4.436   2.767   1.134
 9926SOL    HW230678   4.282   2.748   1.184
 9927SOL     OW30679   6.791   0.033   0.625
 9927SOL    HW130680   6.889   0.029   0.640
 9927SOL    HW230681   6.772   0.083   0.540
 9928SOL     OW30682   4.788   3.966   2.556
 9928SOL    HW130683   4.739   3.940   2.639
 9928SOL    HW230684   4.854   3.895   2.533
 9929SOL     OW30685   3.843   4.436   5.764
 9929SOL    HW130686   3.823   4.509   5.699
 9929SOL    HW230687   3.796   4.455   5.850
 9930SOL     OW30688   6.318   6.547   4.869
 9930SOL    HW130689   6.248   6.565   4.800
 9930SOL    HW230690   6.386   6.485   4.832
 9931SOL     OW30691   0.907   5.614   4.440
 9931SOL    HW130692   0.945   5.648   4.354
 9931SOL    HW230693   0.853   5.686   4.483
 9932SOL     OW30694   3.742   3.239   6.885
 9932SOL    HW130695   3.797   3.192   6.816
 9932SOL    HW230696   3.692   3.171   6.939
 9933SOL     OW30697   0.080   5.820   3.396
 9933SOL    HW130698   0.026   5.776   3.468
 9933SOL    HW230699   0.166   5.770   3.383
 9934SOL     OW30700   6.570   2.528   5.528
 9934SOL    HW130701   6.571   2.469   5.609
 9934SOL    HW230702   6.503   2.494   5.462
 9935SOL     OW30703   2.648   6.249   6.835
 9935SOL    HW130704   2.568   6.305   6.856
 9935SOL    HW230705   2.725   6.279   6.891
 9936SOL     OW30706   6.864   5.286   0.043
 9936SOL    HW130707   6.845   5.384   0.045
 9936SOL    HW230708   6.802   5.239   0.106
 9937SOL     OW30709   6.484   1.678   1.120
 9937SOL    HW130710   6.542   1.626   1.057
 9937SOL    HW230711   6.539   1.711   1.197
 9938SOL     OW30712   6.512   4.992   3.176
 9938SOL    HW130713   6.490   4.932   3.100
 9938SOL    HW230714   6.544   4.937   3.254
 9939SOL     OW30715   4.547   2.102   1.204
 9939SOL    HW130716   4.582   2.080   1.113
 9939SOL    HW230717   4.506   2.193   1.203
 9940SOL     OW30718   1.358   0.219   1.089
 9940SOL    HW130719   1.285   0.261   1.036
 9940SOL    HW230720   1.405   0.150   1.033
 9941SOL     OW30721   3.588   3.528   5.450
 9941SOL    HW130722   3.518   3.487   5.393
 9941SOL    HW230723   3.578   3.627   5.450
 9942SOL     OW30724   2.209   5.352   2.860
 9942SOL    HW130725   2.148   5.421   2.821
 9942SOL    HW230726   2.173   5.322   2.949
 9943SOL     OW30727   0.339   4.816   5.628
 9943SOL    HW130728   0.358   4.785   5.535
 9943SOL    HW230729   0.302   4.909   5.626
 9944SOL     OW30730   0.865   4.390   6.507
 9944SOL    HW130731   0.940   4.326   6.492
 9944SOL    HW230732   0.896   4.483   6.488
 9945SOL     OW30733   5.253   5.213   6.755
 9945SOL    HW130734   5.336   5.247   6.712
 9945SOL    HW230735   5.173   5.242   6.701
 9946SOL     OW30736   5.860   0.696   3.820
 9946SOL    HW130737   5.819   0.647   3.743
 9946SOL    HW230738   5.903   0.780   3.786
 9947SOL     OW30739   2.388   2.094   4.919
 9947SOL    HW130740   2.320   2.140   4.862
 9947SOL    HW230741   2.415   2.155   4.994
 9948SOL     OW30742   5.810   4.029   4.943
 9948SOL    HW130743   5.861   4.108   4.977
 9948SOL    HW230744   5.868   3.975   4.882
 9949SOL     OW30745   6.146   5.086   4.591
 9949SOL    HW130746   6.112   5.124   4.505
 9949SOL    HW230747   6.208   5.151   4.635
 9950SOL     OW30748   5.518   6.201   5.223
 9950SOL    HW130749   5.488   6.197   5.319
 9950SOL    HW230750   5.594   6.265   5.215
 9951SOL     OW30751   7.029   1.288   4.019
 9951SOL    HW130752   7.001   1.344   4.097
 9951SOL    HW230753   0.093   1.309   3.995
 9952SOL     OW30754   1.368   4.129   0.648
 9952SOL    HW130755   1.324   4.119   0.559
 9952SOL    HW230756   1.444   4.194   0.640
 9953SOL     OW30757   5.374   2.782   4.859
 9953SOL    HW130758   5.279   2.810   4.876
 9953SOL    HW230759   5.421   2.854   4.808
 9954SOL     OW30760   6.855   0.759   6.216
 9954SOL    HW130761   6.828   0.721   6.305
 9954SOL    HW230762   6.923   0.700   6.174
 9955SOL     OW30763   6.241   3.691   5.743
 9955SOL    HW130764   6.299   3.625   5.791
 9955SOL    HW230765   6.197   3.647   5.665
 9956SOL     OW30766   1.559   6.825   1.946
 9956SOL    HW130767   1.577   6.913   1.902
 9956SOL    HW230768   1.624   6.811   2.020
 9957SOL     OW30769   4.877   5.998   2.598
 9957SOL    HW130770   4.888   6.013   2.499
 9957SOL    HW230771   4.906   5.905   2.620
 9958SOL     OW30772   3.273   5.341   0.089
 9958SOL    HW130773   3.359   5.297   0.063
 9958SOL    HW230774   3.276   5.364   0.186
 9959SOL     OW30775   4.156   3.583   5.095
 9959SOL    HW130776   4.190   3.598   5.002
 9959SOL    HW230777   4.211   3.637   5.159
 9960SOL     OW30778   0.098   0.575   1.939
 9960SOL    HW130779   0.093   0.476   1.922
 9960SOL    HW230780   0.183   0.610   1.898
 9961SOL     OW30781   1.440   4.737   4.687
 9961SOL    HW130782   1.363   4.792   4.719
 9961SOL    HW230783   1.481   4.688   4.764
 9962SOL     OW30784   6.003   5.729   1.846
 9962SOL    HW130785   5.953   5.738   1.760
 9962SOL    HW230786   5.940   5.702   1.918
 9963SOL     OW30787   3.129   3.217   6.698
 9963SOL    HW130788   3.089   3.236   6.608
 9963SOL    HW230789   3.070   3.153   6.748
 9964SOL     OW30790   5.832   4.430   5.536
 9964SOL    HW130791   5.884   4.348   5.558
 9964SOL    HW230792   5.793   4.468   5.620
 9965SOL     OW30793   3.599   6.539   6.252
 9965SOL    HW130794   3.570   6.462   6.309
 9965SOL    HW230795   3.519   6.595   6.229
 9966SOL     OW30796   1.737   6.006   2.320
 9966SOL    HW130797   1.717   6.091   2.368
 9966SOL    HW230798   1.663   5.985   2.257
 9967SOL     OW30799   6.846   0.027   2.228
 9967SOL    HW130800   6.821   0.015   2.324
 9967SOL    HW230801   6.769   0.068   2.179
 9968SOL     OW30802   3.521   3.821   0.436
 9968SOL    HW130803   3.533   3.863   0.526
 9968SOL    HW230804   3.453   3.873   0.384
 9969SOL     OW30805   1.898   2.814   2.797
 9969SOL    HW130806   1.927   2.889   2.856
 9969SOL    HW230807   1.814   2.775   2.833
 9970SOL     OW30808   5.247   3.535   2.621
 9970SOL    HW130809   5.153   3.512   2.596
 9970SOL    HW230810   5.252   3.629   2.653
 9971SOL     OW30811   1.949   5.629   1.160
 9971SOL    HW130812   1.932   5.720   1.122
 9971SOL    HW230813   2.003   5.637   1.244
 9972SOL     OW30814   4.113   4.687   1.527
 9972SOL    HW130815   4.064   4.724   1.448
 9972SOL    HW230816   4.048   4.640   1.587
 9973SOL     OW30817   4.681   2.102   4.310
 9973SOL    HW130818   4.595   2.084   4.263
 9973SOL    HW230819   4.730   2.016   4.324
 9974SOL     OW30820   0.112   2.984   3.407
 9974SOL    HW130821   0.045   2.936   3.351
 9974SOL    HW230822   0.070   3.064   3.449
 9975SOL     OW30823   5.966   4.309   6.992
 9975SOL    HW130824   6.001   4.308   0.056
 9975SOL    HW230825   6.035   4.349   6.932
 9976SOL     OW30826   0.310   6.467   5.478
 9976SOL    HW130827   0.322   6.536   5.549
 9976SOL    HW230828   0.222   6.422   5.490
 9977SOL     OW30829   6.854   5.627   5.284
 9977SOL    HW130830   6.761   5.590   5.287
 9977SOL    HW230831   6.917   5.556   5.252
 9978SOL     OW30832   6.769   2.578   3.566
 9978SOL    HW130833   6.731   2.577   3.474
 9978SOL    HW230834   6.833   2.655   3.575
 9979SOL     OW30835   6.296   5.500   5.203
 9979SOL    HW130836   6.236   5.561   5.152
 9979SOL    HW230837   6.386   5.498   5.159
 9980SOL     OW30838   1.865   1.580   5.600
 9980SOL    HW130839   1.866   1.568   5.501
 9980SOL    HW230840   1.860   1.490   5.645
 9981SOL     OW30841   2.110   1.934   1.852
 9981SOL    HW130842   2.069   2.021   1.826
 9981SOL    HW230843   2.116   1.929   1.952
 9982SOL     OW30844   6.822   0.050   3.829
 9982SOL    HW130845   6.892   7.022   3.871
 9982SOL    HW230846   6.795   0.012   3.741
 9983SOL     OW30847   0.142   2.527   2.943
 9983SOL    HW130848   0.144   2.443   2.997
 9983SOL    HW230849   0.184   2.511   2.854
 9984SOL     OW30850   1.967   0.670   0.192
 9984SOL    HW130851   1.955   0.651   0.094
 9984SOL    HW230852   2.016   0.757   0.203
 9985SOL     OW30853   1.398   1.196   1.153
 9985SOL    HW130854   1.355   1.268   1.099
 9985SOL    HW230855   1.382   1.214   1.250
 9986SOL     OW30856   5.850   4.474   5.847
 9986SOL    HW130857   5.887   4.466   5.940
 9986SOL    HW230858   5.785   4.399   5.831
 9987SOL     OW30859   6.705   3.001   3.901
 9987SOL    HW130860   6.641   2.942   3.851
 9987SOL    HW230861   6.667   3.024   3.990
 9988SOL     OW30862   6.666   5.799   4.548
 9988SOL    HW130863   6.752   5.757   4.518
 9988SOL    HW230864   6.653   5.782   4.645
 9989SOL     OW30865   6.343   3.770   3.512
 9989SOL    HW130866   6.293   3.847   3.473
 9989SOL    HW230867   6.423   3.749   3.455
 9990SOL     OW30868   2.700   5.652   1.758
 9990SOL    HW130869   2.700   5.576   1.823
 9990SOL    HW230870   2.660   5.732   1.801
 9991SOL     OW30871   2.048   2.535   3.435
 9991SOL    HW130872   2.090   2.555   3.346
 9991SOL    HW230873   1.967   2.591   3.447
 9992SOL     OW30874   5.767   4.855   0.159
 9992SOL    HW130875   5.706   4.903   0.096
 9992SOL    HW230876   5.747   4.757   0.157
 9993SOL     OW30877   3.113   0.138   0.646
 9993SOL    HW130878   3.144   0.095   0.731
 9993SOL    HW230879   3.016   0.161   0.655
 9994SOL     OW30880   6.759   4.448   3.437
 9994SOL    HW130881   6.812   4.364   3.420
 9994SOL    HW230882   6.819   4.528   3.426
 9995SOL     OW30883   4.570   1.077   3.047
 9995SOL    HW130884   4.564   0.980   3.071
 9995SOL    HW230885   4.482   1.121   3.064
 9996SOL     OW30886   2.708   3.206   1.253
 9996SOL    HW130887   2.779   3.264   1.290
 9996SOL    HW230888   2.625   3.215   1.308
 9997SOL     OW30889   3.362   1.535   0.397
 9997SOL    HW130890   3.431   1.492   0.340
 9997SOL    HW230891   3.334   1.622   0.355
 9998SOL     OW30892   5.318   4.443   6.401
 9998SOL    HW130893   5.251   4.370   6.414
 9998SOL    HW230894   5.279   4.530   6.431
 9999SOL     OW30895   6.661   3.191   5.103
 9999SOL    HW130896   6.725   3.232   5.038
 9999SOL    HW230897   6.570   3.230   5.090
10000SOL     OW30898   0.297   4.435   6.658
10000SOL    HW130899   0.331   4.483   6.577
10000SOL    HW230900   0.239   4.497   6.711
10001SOL     OW30901   4.573   0.140   2.374
10001SOL    HW130902   4.521   0.219   2.406
10001SOL    HW230903   4.625   0.101   2.450
10002SOL     OW30904   1.864   6.918   2.725
10002SOL    HW130905   1.938   6.964   2.773
10002SOL    HW230906   1.837   6.836   2.774
10003SOL     OW30907   3.670   1.242   3.221
10003SOL    HW130908   3.584   1.252   3.271
10003SOL    HW230909   3.690   1.145   3.208
10004SOL     OW30910   6.454   2.391   4.760
10004SOL    HW130911   6.493   2.310   4.717
10004SOL    HW230912   6.451   2.466   4.694
10005SOL     OW30913   4.448   0.179   4.577
10005SOL    HW130914   4.451   0.199   4.479
10005SOL    HW230915   4.360   0.207   4.615
10006SOL     OW30916   5.162   6.118   3.915
10006SOL    HW130917   5.160   6.025   3.877
10006SOL    HW230918   5.156   6.185   3.841
10007SOL     OW30919   6.794   5.173   5.767
10007SOL    HW130920   6.712   5.137   5.811
10007SOL    HW230921   6.820   5.114   5.691
10008SOL     OW30922   4.245   1.272   4.429
10008SOL    HW130923   4.227   1.346   4.495
10008SOL    HW230924   4.302   1.307   4.355
10009SOL     OW30925   1.972   3.639   1.855
10009SOL    HW130926   1.941   3.720   1.805
10009SOL    HW230927   2.005   3.571   1.789
10010SOL     OW30928   2.439   0.711   6.003
10010SOL    HW130929   2.462   0.723   5.906
10010SOL    HW230930   2.442   0.614   6.026
10011SOL     OW30931   5.383   1.042   5.603
10011SOL    HW130932   5.420   1.104   5.673
10011SOL    HW230933   5.283   1.038   5.613
10012SOL     OW30934   6.036   1.517   3.620
10012SOL    HW130935   6.013   1.434   3.672
10012SOL    HW230936   6.112   1.496   3.558
10013SOL     OW30937   0.323   1.181   3.054
10013SOL    HW130938   0.269   1.261   3.026
10013SOL    HW230939   0.290   1.148   3.143
10014SOL     OW30940   6.827   4.090   0.677
10014SOL    HW130941   6.877   4.035   0.744
10014SOL    HW230942   6.863   4.071   0.585
10015SOL     OW30943   1.958   4.746   0.598
10015SOL    HW130944   2.052   4.778   0.611
10015SOL    HW230945   1.957   4.646   0.599
10016SOL     OW30946   1.041   0.820   6.700
10016SOL    HW130947   1.013   0.726   6.719
10016SOL    HW230948   1.123   0.843   6.753
10017SOL     OW30949   2.544   1.516   2.859
10017SOL    HW130950   2.493   1.505   2.774
10017SOL    HW230951   2.577   1.427   2.890
10018SOL     OW30952   4.389   0.353   6.129
10018SOL    HW130953   4.439   0.288   6.187
10018SOL    HW230954   4.452   0.422   6.095
10019SOL     OW30955   0.585   1.392   3.024
10019SOL    HW130956   0.646   1.359   3.097
10019SOL    HW230957   0.556   1.315   2.967
10020SOL     OW30958   1.678   2.355   0.847
10020SOL    HW130959   1.688   2.388   0.753
10020SOL    HW230960   1.752   2.393   0.904
10021SOL     OW30961   0.308   2.220   1.171
10021SOL    HW130962   0.353   2.160   1.105
10021SOL    HW230963   0.371   2.239   1.246
10022SOL     OW30964   2.678   1.041   6.016
10022SOL    HW130965   2.612   1.103   6.057
10022SOL    HW230966   2.641   1.002   5.932
10023SOL     OW30967   0.721   5.001   0.946
10023SOL    HW130968   0.653   5.073   0.958
10023SOL    HW230969   0.805   5.026   0.994
10024SOL     OW30970   2.503   5.766   2.572
10024SOL    HW130971   2.596   5.736   2.593
10024SOL    HW230972   2.502   5.864   2.556
10025SOL     OW30973   1.248   1.590   0.608
10025SOL    HW130974   1.313   1.660   0.579
10025SOL    HW230975   1.297   1.510   0.642
10026SOL     OW30976   5.405   6.294   3.634
10026SOL    HW130977   5.415   6.341   3.546
10026SOL    HW230978   5.308   6.279   3.652
10027SOL     OW30979   6.818   4.287   4.583
10027SOL    HW130980   6.743   4.254   4.526
10027SOL    HW230981   6.803   4.384   4.605
10028SOL     OW30982   1.303   0.775   2.449
10028SOL    HW130983   1.295   0.787   2.350
10028SOL    HW230984   1.276   0.859   2.495
10029SOL     OW30985   4.817   1.528   4.683
10029SOL    HW130986   4.866   1.613   4.664
10029SOL    HW230987   4.747   1.546   4.753
10030SOL     OW30988   1.996   0.621   3.668
10030SOL    HW130989   1.970   0.578   3.754
10030SOL    HW230990   1.925   0.686   3.640
10031SOL     OW30991   5.227   4.805   4.788
10031SOL    HW130992   5.191   4.790   4.880
10031SOL    HW230993   5.321   4.771   4.782
10032SOL     OW30994   2.864   1.420   5.218
10032SOL    HW130995   2.919   1.411   5.301
10032SOL    HW230996   2.837   1.329   5.186
10033SOL     OW30997   6.504   3.190   4.550
10033SOL    HW130998   6.581   3.153   4.601
10033SOL    HW230999   6.501   3.289   4.560
10034SOL     OW31000   3.676   0.556   4.316
10034SOL    HW131001   3.765   0.588   4.284
10034SOL    HW231002   3.611   0.555   4.240
10035SOL     OW31003   6.816   5.227   1.598
10035SOL    HW131004   6.741   5.287   1.569
10035SOL    HW231005   6.813   5.142   1.544
10036SOL     OW31006   6.269   2.094   0.847
10036SOL    HW131007   6.269   2.026   0.920
10036SOL    HW231008   6.363   2.120   0.824
10037SOL     OW31009   0.268   1.437   0.287
10037SOL    HW131010   0.303   1.518   0.242
10037SOL    HW231011   0.168   1.439   0.288
10038SOL     OW31012   5.454   0.373   6.873
10038SOL    HW131013   5.526   0.320   6.916
10038SOL    HW231014   5.370   0.366   6.927
10039SOL     OW31015   3.458   0.541   4.131
10039SOL    HW131016   3.454   0.485   4.048
10039SOL    HW231017   3.371   0.589   4.143
10040SOL     OW31018   5.853   5.461   6.557
10040SOL    HW131019   5.943   5.425   6.530
10040SOL    HW231020   5.812   5.399   6.625
10041SOL     OW31021   4.052   5.897   6.841
10041SOL    HW131022   4.001   5.812   6.857
10041SOL    HW231023   4.111   5.915   6.919
10042SOL     OW31024   0.799   1.762   3.570
10042SOL    HW131025   0.768   1.789   3.661
10042SOL    HW231026   0.798   1.662   3.564
10043SOL     OW31027   6.007   1.784   5.136
10043SOL    HW131028   6.073   1.712   5.157
10043SOL    HW231029   5.925   1.772   5.191
10044SOL     OW31030   2.538   2.558   5.225
10044SOL    HW131031   2.453   2.520   5.261
10044SOL    HW231032   2.557   2.645   5.270
10045SOL     OW31033   3.937   0.666   1.700
10045SOL    HW131034   3.995   0.742   1.728
10045SOL    HW231035   3.885   0.692   1.618
10046SOL     OW31036   2.115   3.321   1.048
10046SOL    HW131037   2.060   3.241   1.026
10046SOL    HW231038   2.210   3.305   1.019
10047SOL     OW31039   0.638   3.022   5.616
10047SOL    HW131040   0.624   3.115   5.581
10047SOL    HW231041   0.608   3.018   5.711
10048SOL     OW31042   6.682   6.709   2.633
10048SOL    HW131043   6.629   6.701   2.717
10048SOL    HW231044   6.779   6.695   2.653
10049SOL     OW31045   1.592   1.479   5.733
10049SOL    HW131046   1.616   1.560   5.787
10049SOL    HW231047   1.672   1.420   5.724
10050SOL     OW31048   5.609   3.149   4.595
10050SOL    HW131049   5.565   3.229   4.554
10050SOL    HW231050   5.701   3.175   4.624
10051SOL     OW31051   1.219   4.053   4.994
10051SOL    HW131052   1.157   4.089   5.064
10051SOL    HW231053   1.167   4.024   4.915
10052SOL     OW31054   1.737   1.001   3.441
10052SOL    HW131055   1.658   0.943   3.423
10052SOL    HW231056   1.816   0.967   3.390
10053SOL     OW31057   4.410   5.297   4.034
10053SOL    HW131058   4.389   5.306   3.937
10053SOL    HW231059   4.452   5.381   4.068
10054SOL     OW31060   5.555   4.163   5.315
10054SOL    HW131061   5.611   4.081   5.330
10054SOL    HW231062   5.615   4.241   5.300
10055SOL     OW31063   6.755   2.922   6.370
10055SOL    HW131064   6.664   2.886   6.350
10055SOL    HW231065   6.795   2.959   6.286
10056SOL     OW31066   5.208   4.153   2.991
10056SOL    HW131067   5.275   4.102   3.045
10056SOL    HW231068   5.185   4.100   2.909
10057SOL     OW31069   5.788   3.756   5.611
10057SOL    HW131070   5.790   3.854   5.633
10057SOL    HW231071   5.881   3.720   5.614
10058SOL     OW31072   6.879   3.890   3.919
10058SOL    HW131073   6.851   3.794   3.921
10058SOL    HW231074   6.798   3.948   3.928
10059SOL     OW31075   6.496   1.665   0.794
10059SOL    HW131076   6.554   1.608   0.736
10059SOL    HW231077   6.540   1.753   0.810
10060SOL     OW31078   2.513   1.768   2.483
10060SOL    HW131079   2.434   1.805   2.532
10060SOL    HW231080   2.507   1.791   2.386
10061SOL     OW31081   4.410   1.158   3.552
10061SOL    HW131082   4.390   1.244   3.506
10061SOL    HW231083   4.337   1.092   3.533
10062SOL     OW31084   6.747   6.649   4.325
10062SOL    HW131085   6.701   6.689   4.405
10062SOL    HW231086   6.812   6.580   4.356
10063SOL     OW31087   2.209   1.977   4.568
10063SOL    HW131088   2.259   1.895   4.596
10063SOL    HW231089   2.198   1.977   4.469
10064SOL     OW31090   4.176   6.025   6.656
10064SOL    HW131091   4.137   5.959   6.720
10064SOL    HW231092   4.114   6.037   6.579
10065SOL     OW31093   1.536   1.054   1.788
10065SOL    HW131094   1.524   1.088   1.881
10065SOL    HW231095   1.629   1.017   1.778
10066SOL     OW31096   0.239   3.585   5.180
10066SOL    HW131097   0.259   3.538   5.093
10066SOL    HW231098   0.206   3.518   5.246
10067SOL     OW31099   0.876   3.216   6.615
10067SOL    HW131100   0.940   3.164   6.671
10067SOL    HW231101   0.880   3.184   6.521
10068SOL     OW31102   1.898   3.744   2.786
10068SOL    HW131103   1.822   3.685   2.813
10068SOL    HW231104   1.864   3.814   2.723
10069SOL     OW31105   3.553   5.117   1.984
10069SOL    HW131106   3.493   5.193   2.010
10069SOL    HW231107   3.638   5.153   1.946
10070SOL     OW31108   1.709   5.795   4.611
10070SOL    HW131109   1.661   5.854   4.547
10070SOL    HW231110   1.662   5.796   4.699
10071SOL     OW31111   0.651   6.855   4.047
10071SOL    HW131112   0.615   6.930   3.992
10071SOL    HW231113   0.750   6.850   4.035
10072SOL     OW31114   0.289   1.459   2.396
10072SOL    HW131115   0.265   1.497   2.485
10072SOL    HW231116   0.351   1.381   2.409
10073SOL     OW31117   6.317   2.804   3.898
10073SOL    HW131118   6.296   2.731   3.963
10073SOL    HW231119   6.286   2.892   3.936
10074SOL     OW31120   1.107   5.306   0.383
10074SOL    HW131121   1.142   5.388   0.338
10074SOL    HW231122   1.094   5.233   0.315
10075SOL     OW31123   2.679   0.884   2.367
10075SOL    HW131124   2.696   0.982   2.368
10075SOL    HW231125   2.733   0.842   2.294
10076SOL     OW31126   5.177   5.432   3.131
10076SOL    HW131127   5.122   5.355   3.099
10076SOL    HW231128   5.124   5.516   3.124
10077SOL     OW31129   5.934   3.320   0.077
10077SOL    HW131130   6.027   3.289   0.099
10077SOL    HW231131   5.873   3.298   0.153
10078SOL     OW31132   6.717   6.398   4.903
10078SOL    HW131133   6.814   6.385   4.927
10078SOL    HW231134   6.661   6.386   4.985
10079SOL     OW31135   5.951   2.541   3.869
10079SOL    HW131136   5.874   2.489   3.831
10079SOL    HW231137   5.917   2.617   3.923
10080SOL     OW31138   5.461   1.175   5.817
10080SOL    HW131139   5.553   1.135   5.823
10080SOL    HW231140   5.455   1.252   5.880
10081SOL     OW31141   1.233   1.413   6.584
10081SOL    HW131142   1.209   1.382   6.677
10081SOL    HW231143   1.298   1.488   6.590
10082SOL     OW31144   1.172   5.280   2.910
10082SOL    HW131145   1.148   5.240   2.822
10082SOL    HW231146   1.187   5.378   2.899
10083SOL     OW31147   3.427   5.767   3.292
10083SOL    HW131148   3.383   5.680   3.272
10083SOL    HW231149   3.404   5.796   3.385
10084SOL     OW31150   0.796   0.131   5.551
10084SOL    HW131151   0.729   0.059   5.565
10084SOL    HW231152   0.754   0.220   5.568
10085SOL     OW31153   3.930   6.596   0.179
10085SOL    HW131154   3.838   6.569   0.149
10085SOL    HW231155   3.926   6.689   0.216
10086SOL     OW31156   5.909   6.171   2.175
10086SOL    HW131157   5.946   6.261   2.198
10086SOL    HW231158   5.941   6.145   2.084
10087SOL     OW31159   0.667   6.698   4.566
10087SOL    HW131160   0.569   6.685   4.584
10087SOL    HW231161   0.714   6.716   4.652
10088SOL     OW31162   6.926   2.195   6.916
10088SOL    HW131163   6.972   2.144   6.989
10088SOL    HW231164   6.992   2.214   6.843
10089SOL     OW31165   3.921   1.573   2.423
10089SOL    HW131166   3.987   1.647   2.438
10089SOL    HW231167   3.831   1.611   2.405
10090SOL     OW31168   1.096   5.252   1.643
10090SOL    HW131169   1.035   5.172   1.648
10090SOL    HW231170   1.182   5.225   1.601
10091SOL     OW31171   6.796   5.714   6.612
10091SOL    HW131172   6.767   5.710   6.708
10091SOL    HW231173   6.742   5.650   6.558
10092SOL     OW31174   1.024   3.249   5.476
10092SOL    HW131175   0.983   3.238   5.385
10092SOL    HW231176   1.109   3.197   5.480
10093SOL     OW31177   5.203   3.910   5.591
10093SOL    HW131178   5.143   3.876   5.520
10093SOL    HW231179   5.294   3.870   5.580
10094SOL     OW31180   3.422   6.439   0.562
10094SOL    HW131181   3.396   6.525   0.606
10094SOL    HW231182   3.361   6.421   0.485
10095SOL     OW31183   5.105   2.518   5.072
10095SOL    HW131184   5.205   2.511   5.064
10095SOL    HW231185   5.069   2.436   5.116
10096SOL     OW31186   4.811   0.736   2.469
10096SOL    HW131187   4.802   0.734   2.569
10096SOL    HW231188   4.901   0.702   2.444
10097SOL     OW31189   2.175   2.183   6.486
10097SOL    HW131190   2.108   2.128   6.437
10097SOL    HW231191   2.137   2.273   6.508
10098SOL     OW31192   3.199   5.766   4.292
10098SOL    HW131193   3.163   5.828   4.362
10098SOL    HW231194   3.131   5.753   4.220
10099SOL     OW31195   6.357   4.157   1.752
10099SOL    HW131196   6.282   4.188   1.694
10099SOL    HW231197   6.412   4.090   1.703
10100SOL     OW31198   5.095   5.740   5.435
10100SOL    HW131199   5.030   5.816   5.436
10100SOL    HW231200   5.082   5.686   5.519
10101SOL     OW31201   6.381   2.727   1.991
10101SOL    HW131202   6.438   2.807   1.972
10101SOL    HW231203   6.372   2.672   1.907
10102SOL     OW31204   5.710   0.030   0.626
10102SOL    HW131205   5.639   6.990   0.625
10102SOL    HW231206   5.696   0.091   0.548
10103SOL     OW31207   0.700   0.174   5.892
10103SOL    HW131208   0.745   0.225   5.820
10103SOL    HW231209   0.724   0.212   5.981
10104SOL     OW31210   2.107   0.683   6.136
10104SOL    HW131211   2.111   0.768   6.189
10104SOL    HW231212   2.089   0.704   6.040
10105SOL     OW31213   3.144   1.547   6.088
10105SOL    HW131214   3.140   1.641   6.053
10105SOL    HW231215   3.093   1.542   6.174
10106SOL     OW31216   5.044   6.426   1.997
10106SOL    HW131217   4.983   6.346   1.996
10106SOL    HW231218   5.095   6.430   1.911
10107SOL     OW31219   5.093   4.689   6.740
10107SOL    HW131220   4.996   4.668   6.726
10107SOL    HW231221   5.106   4.788   6.739
10108SOL     OW31222   1.699   3.050   0.497
10108SOL    HW131223   1.771   3.055   0.428
10108SOL    HW231224   1.740   3.047   0.588
10109SOL     OW31225   0.396   0.974   6.882
10109SOL    HW131226   0.436   1.060   6.915
10109SOL    HW231227   0.307   0.993   6.840
10110SOL     OW31228   4.966   5.174   2.462
10110SOL    HW131229   4.877   5.161   2.418
10110SOL    HW231230   4.978   5.271   2.484
10111SOL     OW31231   1.036   2.325   2.099
10111SOL    HW131232   1.048   2.422   2.119
10111SOL    HW231233   1.063   2.271   2.178
10112SOL     OW31234   6.492   3.026   3.473
10112SOL    HW131235   6.434   3.082   3.415
10112SOL    HW231236   6.532   2.951   3.419
10113SOL     OW31237   5.265   1.119   6.797
10113SOL    HW131238   5.240   1.109   6.894
10113SOL    HW231239   5.204   1.185   6.753
10114SOL     OW31240   4.133   2.182   3.215
10114SOL    HW131241   4.041   2.206   3.245
10114SOL    HW231242   4.161   2.096   3.259
10115SOL     OW31243   3.329   1.091   4.751
10115SOL    HW131244   3.337   1.183   4.712
10115SOL    HW231245   3.241   1.051   4.724
10116SOL     OW31246   6.112   0.661   5.390
10116SOL    HW131247   6.105   0.716   5.473
10116SOL    HW231248   6.188   0.695   5.334
10117SOL     OW31249   6.591   5.260   5.223
10117SOL    HW131250   6.580   5.205   5.140
10117SOL    HW231251   6.561   5.207   5.303
10118SOL     OW31252   2.644   5.140   4.438
10118SOL    HW131253   2.637   5.098   4.529
10118SOL    HW231254   2.685   5.230   4.446
10119SOL     OW31255   0.526   5.293   4.203
10119SOL    HW131256   0.560   5.298   4.109
10119SOL    HW231257   0.548   5.377   4.251
10120SOL     OW31258   1.240   3.106   2.569
10120SOL    HW131259   1.238   3.049   2.487
10120SOL    HW231260   1.281   3.055   2.644
10121SOL     OW31261   6.458   4.650   0.749
10121SOL    HW131262   6.512   4.646   0.833
10121SOL    HW231263   6.389   4.578   0.751
10122SOL     OW31264   7.015   1.732   3.858
10122SOL    HW131265   6.932   1.781   3.884
10122SOL    HW231266   6.995   1.670   3.782
10123SOL     OW31267   5.889   6.345   1.346
10123SOL    HW131268   5.815   6.284   1.376
10123SOL    HW231269   5.942   6.375   1.425
10124SOL     OW31270   1.198   4.935   2.369
10124SOL    HW131271   1.243   4.896   2.450
10124SOL    HW231272   1.112   4.977   2.397
10125SOL     OW31273   1.622   1.383   0.570
10125SOL    HW131274   1.718   1.378   0.597
10125SOL    HW231275   1.606   1.469   0.521
10126SOL     OW31276   6.029   0.959   6.666
10126SOL    HW131277   5.932   0.939   6.677
10126SOL    HW231278   6.057   0.940   6.572
10127SOL     OW31279   1.536   4.785   5.888
10127SOL    HW131280   1.609   4.834   5.841
10127SOL    HW231281   1.450   4.834   5.877
10128SOL     OW31282   3.327   0.833   0.337
10128SOL    HW131283   3.258   0.879   0.394
10128SOL    HW231284   3.407   0.811   0.393
10129SOL     OW31285   5.906   1.748   3.599
10129SOL    HW131286   5.951   1.659   3.593
10129SOL    HW231287   5.825   1.739   3.657
10130SOL     OW31288   1.092   2.188   2.342
10130SOL    HW131289   1.158   2.144   2.281
10130SOL    HW231290   1.012   2.130   2.352
10131SOL     OW31291   2.033   0.761   4.516
10131SOL    HW131292   1.998   0.824   4.586
10131SOL    HW231293   1.956   0.721   4.466
10132SOL     OW31294   6.603   0.397   2.243
10132SOL    HW131295   6.635   0.405   2.337
10132SOL    HW231296   6.506   0.421   2.238
10133SOL     OW31297   4.794   5.614   0.836
10133SOL    HW131298   4.871   5.556   0.862
10133SOL    HW231299   4.750   5.577   0.754
10134SOL     OW31300   5.545   0.732   1.888
10134SOL    HW131301   5.527   0.655   1.827
10134SOL    HW231302   5.640   0.763   1.876
10135SOL     OW31303   5.794   0.149   4.003
10135SOL    HW131304   5.775   0.246   3.986
10135SOL    HW231305   5.787   0.131   4.101
10136SOL     OW31306   5.096   2.042   2.748
10136SOL    HW131307   5.078   1.959   2.696
10136SOL    HW231308   5.054   2.120   2.702
10137SOL     OW31309   0.015   5.833   5.648
10137SOL    HW131310   6.985   5.873   5.717
10137SOL    HW231311   6.997   5.760   5.600
10138SOL     OW31312   5.738   1.348   6.964
10138SOL    HW131313   5.777   1.337   6.872
10138SOL    HW231314   5.650   1.300   6.968
10139SOL     OW31315   3.316   3.677   6.094
10139SOL    HW131316   3.297   3.604   6.029
10139SOL    HW231317   3.384   3.645   6.160
10140SOL     OW31318   6.982   5.711   6.273
10140SOL    HW131319   0.038   5.747   6.238
10140SOL    HW231320   6.939   5.778   6.334
10141SOL     OW31321   3.050   1.414   3.851
10141SOL    HW131322   3.061   1.511   3.872
10141SOL    HW231323   3.139   1.371   3.844
10142SOL     OW31324   6.015   6.447   4.363
10142SOL    HW131325   6.042   6.472   4.456
10142SOL    HW231326   6.088   6.394   4.320
10143SOL     OW31327   5.655   3.340   0.638
10143SOL    HW131328   5.641   3.433   0.671
10143SOL    HW231329   5.752   3.327   0.616
10144SOL     OW31330   3.689   6.176   5.323
10144SOL    HW131331   3.773   6.128   5.350
10144SOL    HW231332   3.610   6.129   5.362
10145SOL     OW31333   5.214   6.203   1.530
10145SOL    HW131334   5.309   6.224   1.505
10145SOL    HW231335   5.153   6.242   1.461
10146SOL     OW31336   0.613   3.517   4.147
10146SOL    HW131337   0.659   3.541   4.233
10146SOL    HW231338   0.515   3.531   4.157
10147SOL     OW31339   4.730   5.552   6.443
10147SOL    HW131340   4.644   5.570   6.490
10147SOL    HW231341   4.806   5.570   6.506
10148SOL     OW31342   0.944   4.788   6.901
10148SOL    HW131343   0.916   4.815   6.994
10148SOL    HW231344   1.005   4.858   6.864
10149SOL     OW31345   4.693   4.652   1.335
10149SOL    HW131346   4.635   4.723   1.297
10149SOL    HW231347   4.639   4.595   1.397
10150SOL     OW31348   4.720   4.029   0.716
10150SOL    HW131349   4.656   4.015   0.792
10150SOL    HW231350   4.731   3.943   0.666
10151SOL     OW31351   6.874   0.235   5.609
10151SOL    HW131352   6.915   0.201   5.694
10151SOL    HW231353   6.901   0.330   5.596
10152SOL     OW31354   5.704   6.144   2.560
10152SOL    HW131355   5.679   6.241   2.559
10152SOL    HW231356   5.752   6.124   2.646
10153SOL     OW31357   5.006   4.971   3.898
10153SOL    HW131358   5.067   5.012   3.965
10153SOL    HW231359   5.060   4.933   3.822
10154SOL     OW31360   4.148   4.814   5.492
10154SOL    HW131361   4.181   4.877   5.563
10154SOL    HW231362   4.095   4.865   5.425
10155SOL     OW31363   4.382   2.072   5.566
10155SOL    HW131364   4.475   2.104   5.549
10155SOL    HW231365   4.375   2.039   5.660
10156SOL     OW31366   5.063   0.648   1.110
10156SOL    HW131367   5.002   0.667   1.187
10156SOL    HW231368   5.013   0.662   1.025
10157SOL     OW31369   7.020   2.885   1.535
10157SOL    HW131370   0.014   2.861   1.441
10157SOL    HW231371   0.021   2.814   1.597
10158SOL     OW31372   5.599   6.444   1.890
10158SOL    HW131373   5.600   6.542   1.872
10158SOL    HW231374   5.572   6.428   1.985
10159SOL     OW31375   3.851   3.519   3.442
10159SOL    HW131376   3.869   3.524   3.344
10159SOL    HW231377   3.921   3.570   3.492
10160SOL     OW31378   1.957   4.291   2.991
10160SOL    HW131379   1.998   4.359   2.930
10160SOL    HW231380   1.868   4.323   3.022
10161SOL     OW31381   3.403   5.221   6.555
10161SOL    HW131382   3.491   5.176   6.542
10161SOL    HW231383   3.360   5.236   6.466
10162SOL     OW31384   2.270   4.547   1.963
10162SOL    HW131385   2.205   4.622   1.954
10162SOL    HW231386   2.267   4.513   2.057
10163SOL     OW31387   1.304   6.643   5.175
10163SOL    HW131388   1.231   6.649   5.244
10163SOL    HW231389   1.383   6.696   5.206
10164SOL     OW31390   6.719   3.130   3.633
10164SOL    HW131391   6.740   3.091   3.723
10164SOL    HW231392   6.630   3.099   3.603
10165SOL     OW31393   6.259   2.967   4.238
10165SOL    HW131394   6.194   2.985   4.311
10165SOL    HW231395   6.241   3.028   4.161
10166SOL     OW31396   0.673   2.464   1.012
10166SOL    HW131397   0.652   2.560   0.995
10166SOL    HW231398   0.601   2.406   0.972
10167SOL     OW31399   0.638   6.170   6.057
10167SOL    HW131400   0.590   6.098   6.107
10167SOL    HW231401   0.712   6.130   6.003
10168SOL     OW31402   6.052   1.338   6.764
10168SOL    HW131403   6.139   1.287   6.764
10168SOL    HW231404   5.976   1.274   6.753
10169SOL     OW31405   6.644   3.517   3.209
10169SOL    HW131406   6.732   3.473   3.231
10169SOL    HW231407   6.604   3.473   3.129
10170SOL     OW31408   6.477   5.654   0.302
10170SOL    HW131409   6.391   5.637   0.254
10170SOL    HW231410   6.524   5.731   0.260
10171SOL     OW31411   1.916   2.983   5.051
10171SOL    HW131412   2.016   2.982   5.058
10171SOL    HW231413   1.884   3.077   5.045
10172SOL     OW31414   6.534   0.339   3.268
10172SOL    HW131415   6.467   0.306   3.334
10172SOL    HW231416   6.498   0.331   3.176
10173SOL     OW31417   3.667   5.039   0.158
10173SOL    HW131418   3.590   5.020   0.098
10173SOL    HW231419   3.746   4.984   0.131
10174SOL     OW31420   4.960   6.977   2.942
10174SOL    HW131421   5.025   6.977   3.017
10174SOL    HW231422   4.869   7.003   2.975
10175SOL     OW31423   6.783   1.915   3.768
10175SOL    HW131424   6.781   1.982   3.694
10175SOL    HW231425   6.715   1.939   3.837
10176SOL     OW31426   6.296   3.081   5.732
10176SOL    HW131427   6.213   3.123   5.767
10176SOL    HW231428   6.333   3.019   5.801
10177SOL     OW31429   2.363   0.390   1.530
10177SOL    HW131430   2.443   0.429   1.575
10177SOL    HW231431   2.390   0.306   1.483
10178SOL     OW31432   1.961   1.668   0.320
10178SOL    HW131433   1.909   1.639   0.401
10178SOL    HW231434   1.900   1.713   0.256
10179SOL     OW31435   6.777   4.302   0.837
10179SOL    HW131436   6.774   4.225   0.774
10179SOL    HW231437   6.834   4.279   0.916
10180SOL     OW31438   4.361   6.941   6.125
10180SOL    HW131439   4.452   6.921   6.161
10180SOL    HW231440   4.359   6.921   6.027
10181SOL     OW31441   6.670   4.070   1.283
10181SOL    HW131442   6.741   4.024   1.335
10181SOL    HW231443   6.677   4.043   1.187
10182SOL     OW31444   5.354   1.457   6.922
10182SOL    HW131445   5.254   1.459   6.922
10182SOL    HW231446   5.385   1.367   6.953
10183SOL     OW31447   6.511   2.149   6.081
10183SOL    HW131448   6.566   2.229   6.103
10183SOL    HW231449   6.439   2.138   6.149
10184SOL     OW31450   5.949   3.661   6.454
10184SOL    HW131451   5.879   3.713   6.503
10184SOL    HW231452   5.918   3.566   6.443
10185SOL     OW31453   4.106   5.833   2.473
10185SOL    HW131454   4.184   5.773   2.456
10185SOL    HW231455   4.132   5.903   2.540
10186SOL     OW31456   4.946   4.034   5.335
10186SOL    HW131457   4.933   3.950   5.388
10186SOL    HW231458   4.943   4.113   5.397
10187SOL     OW31459   2.374   4.484   6.018
10187SOL    HW131460   2.374   4.384   6.018
10187SOL    HW231461   2.299   4.518   6.074
10188SOL     OW31462   2.734   6.827   0.140
10188SOL    HW131463   2.647   6.809   0.093
10188SOL    HW231464   2.803   6.854   0.074
10189SOL     OW31465   1.115   1.463   6.242
10189SOL    HW131466   1.108   1.379   6.187
10189SOL    HW231467   1.210   1.493   6.244
10190SOL     OW31468   3.031   4.464   1.252
10190SOL    HW131469   3.114   4.486   1.302
10190SOL    HW231470   2.966   4.539   1.261
10191SOL     OW31471   5.981   5.612   0.006
10191SOL    HW131472   6.001   5.514   0.001
10191SOL    HW231473   6.042   5.655   0.073
10192SOL     OW31474   2.070   2.031   5.344
10192SOL    HW131475   1.979   2.013   5.381
10192SOL    HW231476   2.129   1.952   5.360
10193SOL     OW31477   4.084   3.455   2.652
10193SOL    HW131478   4.135   3.477   2.736
10193SOL    HW231479   4.079   3.536   2.594
10194SOL     OW31480   3.636   0.379   4.511
10194SOL    HW131481   3.658   0.460   4.457
10194SOL    HW231482   3.719   0.345   4.556
10195SOL     OW31483   5.291   0.047   2.105
10195SOL    HW131484   5.382   0.082   2.083
10195SOL    HW231485   5.290   0.015   2.200
10196SOL     OW31486   5.719   1.665   2.989
10196SOL    HW131487   5.788   1.686   3.059
10196SOL    HW231488   5.697   1.749   2.939
10197SOL     OW31489   5.837   6.908   3.020
10197SOL    HW131490   5.775   6.968   2.969
10197SOL    HW231491   5.888   6.851   2.956
10198SOL     OW31492   3.106   6.301   1.797
10198SOL    HW131493   3.093   6.392   1.758
10198SOL    HW231494   3.175   6.251   1.745
10199SOL     OW31495   1.249   1.939   6.945
10199SOL    HW131496   1.244   1.856   7.001
10199SOL    HW231497   1.257   2.019   7.004
10200SOL     OW31498   5.804   4.031   5.679
10200SOL    HW131499   5.754   4.113   5.709
10200SOL    HW231500   5.893   4.029   5.724
10201SOL     OW31501   0.957   5.102   2.385
10201SOL    HW131502   1.032   5.169   2.392
10201SOL    HW231503   0.891   5.133   2.317
10202SOL     OW31504   0.180   3.878   1.624
10202SOL    HW131505   0.217   3.786   1.641
10202SOL    HW231506   0.107   3.896   1.689
10203SOL     OW31507   2.164   2.961   2.358
10203SOL    HW131508   2.202   3.048   2.390
10203SOL    HW231509   2.226   2.886   2.382
10204SOL     OW31510   3.101   4.682   5.587
10204SOL    HW131511   3.179   4.624   5.564
10204SOL    HW231512   3.109   4.770   5.539
10205SOL     OW31513   5.537   1.391   3.985
10205SOL    HW131514   5.492   1.333   3.916
10205SOL    HW231515   5.636   1.389   3.970
10206SOL     OW31516   5.875   6.764   5.959
10206SOL    HW131517   5.897   6.768   6.057
10206SOL    HW231518   5.807   6.693   5.944
10207SOL     OW31519   2.242   0.804   2.560
10207SOL    HW131520   2.309   0.851   2.618
10207SOL    HW231521   2.286   0.724   2.518
10208SOL     OW31522   5.645   5.496   5.295
10208SOL    HW131523   5.581   5.472   5.221
10208SOL    HW231524   5.614   5.579   5.339
10209SOL     OW31525   0.046   1.260   6.010
10209SOL    HW131526   7.001   1.325   6.008
10209SOL    HW231527   0.015   1.174   6.052
10210SOL     OW31528   5.587   0.107   2.067
10210SOL    HW131529   5.610   0.196   2.027
10210SOL    HW231530   5.651   0.086   2.141
10211SOL     OW31531   4.187   6.629   5.493
10211SOL    HW131532   4.106   6.639   5.436
10211SOL    HW231533   4.245   6.710   5.484
10212SOL     OW31534   0.809   1.265   4.046
10212SOL    HW131535   0.828   1.172   4.077
10212SOL    HW231536   0.770   1.318   4.121
10213SOL     OW31537   5.932   1.722   3.128
10213SOL    HW131538   5.965   1.747   3.219
10213SOL    HW231539   5.985   1.644   3.094
10214SOL     OW31540   6.325   0.599   2.251
10214SOL    HW131541   6.252   0.627   2.313
10214SOL    HW231542   6.407   0.653   2.272
10215SOL     OW31543   3.465   3.611   6.319
10215SOL    HW131544   3.479   3.683   6.387
10215SOL    HW231545   3.554   3.579   6.287
10216SOL     OW31546   6.507   6.856   0.948
10216SOL    HW131547   6.515   6.908   0.863
10216SOL    HW231548   6.588   6.799   0.959
10217SOL     OW31549   2.653   1.753   4.214
10217SOL    HW131550   2.560   1.722   4.195
10217SOL    HW231551   2.676   1.733   4.310
10218SOL     OW31552   1.088   1.342   1.256
10218SOL    HW131553   1.061   1.405   1.329
10218SOL    HW231554   1.111   1.395   1.174
10219SOL     OW31555   0.780   2.049   2.122
10219SOL    HW131556   0.704   1.984   2.124
10219SOL    HW231557   0.866   2.000   2.139
10220SOL     OW31558   4.414   1.853   1.235
10220SOL    HW131559   4.345   1.881   1.301
10220SOL    HW231560   4.471   1.932   1.212
10221SOL     OW31561   2.593   1.008   5.063
10221SOL    HW131562   2.581   0.977   5.157
10221SOL    HW231563   2.516   1.066   5.037
10222SOL     OW31564   0.957   4.005   5.444
10222SOL    HW131565   1.003   3.929   5.490
10222SOL    HW231566   1.012   4.035   5.366
10223SOL     OW31567   1.216   4.981   6.935
10223SOL    HW131568   1.139   5.030   6.896
10223SOL    HW231569   1.300   5.034   6.922
10224SOL     OW31570   1.360   0.751   4.498
10224SOL    HW131571   1.446   0.722   4.456
10224SOL    HW231572   1.376   0.779   4.592
10225SOL     OW31573   0.731   6.065   4.476
10225SOL    HW131574   0.687   6.087   4.389
10225SOL    HW231575   0.727   5.967   4.492
10226SOL     OW31576   2.862   0.957   6.606
10226SOL    HW131577   2.949   0.998   6.634
10226SOL    HW231578   2.828   1.004   6.524
10227SOL     OW31579   4.640   4.454   0.386
10227SOL    HW131580   4.646   4.549   0.354
10227SOL    HW231581   4.728   4.409   0.372
10228SOL     OW31582   0.408   5.429   2.639
10228SOL    HW131583   0.374   5.483   2.716
10228SOL    HW231584   0.335   5.371   2.604
10229SOL     OW31585   0.667   0.817   3.437
10229SOL    HW131586   0.725   0.742   3.404
10229SOL    HW231587   0.692   0.901   3.388
10230SOL     OW31588   6.730   7.016   3.570
10230SOL    HW131589   6.702   6.922   3.550
10230SOL    HW231590   6.650   0.038   3.603
10231SOL     OW31591   6.374   6.818   4.899
10231SOL    HW131592   6.391   6.720   4.903
10231SOL    HW231593   6.326   6.841   4.814
10232SOL     OW31594   3.650   1.050   4.098
10232SOL    HW131595   3.585   0.975   4.087
10232SOL    HW231596   3.715   1.027   4.169
10233SOL     OW31597   4.309   3.203   6.260
10233SOL    HW131598   4.250   3.161   6.192
10233SOL    HW231599   4.253   3.260   6.321
10234SOL     OW31600   4.935   0.574   0.863
10234SOL    HW131601   4.902   0.485   0.895
10234SOL    HW231602   4.858   0.636   0.850
10235SOL     OW31603   4.430   0.918   0.155
10235SOL    HW131604   4.523   0.938   0.123
10235SOL    HW231605   4.423   0.942   0.252
10236SOL     OW31606   1.981   6.411   1.767
10236SOL    HW131607   2.053   6.472   1.798
10236SOL    HW231608   1.994   6.390   1.670
10237SOL     OW31609   6.572   4.337   1.768
10237SOL    HW131610   6.612   4.384   1.689
10237SOL    HW231611   6.512   4.264   1.737
10238SOL     OW31612   3.869   4.301   5.421
10238SOL    HW131613   3.876   4.205   5.445
10238SOL    HW231614   3.961   4.337   5.401
10239SOL     OW31615   0.678   4.101   5.421
10239SOL    HW131616   0.758   4.092   5.480
10239SOL    HW231617   0.661   4.198   5.402
10240SOL     OW31618   1.109   4.357   2.524
10240SOL    HW131619   1.054   4.403   2.594
10240SOL    HW231620   1.189   4.315   2.568
10241SOL     OW31621   7.028   1.155   1.827
10241SOL    HW131622   0.046   1.219   1.767
10241SOL    HW231623   0.039   1.064   1.818
10242SOL     OW31624   0.344   1.510   5.730
10242SOL    HW131625   0.369   1.449   5.655
10242SOL    HW231626   0.375   1.469   5.817
10243SOL     OW31627   0.069   5.580   1.299
10243SOL    HW131628   0.124   5.498   1.315
10243SOL    HW231629   0.129   5.661   1.301
10244SOL     OW31630   2.196   5.181   0.191
10244SOL    HW131631   2.268   5.129   0.236
10244SOL    HW231632   2.143   5.232   0.259
10245SOL     OW31633   2.210   3.408   7.022
10245SOL    HW131634   2.233   3.312   0.007
10245SOL    HW231635   2.192   3.453   0.080
10246SOL     OW31636   3.069   4.014   4.777
10246SOL    HW131637   2.981   4.033   4.820
10246SOL    HW231638   3.139   4.001   4.847
10247SOL     OW31639   0.441   5.460   5.318
10247SOL    HW131640   0.425   5.381   5.377
10247SOL    HW231641   0.419   5.437   5.223
10248SOL     OW31642   3.386   0.657   2.394
10248SOL    HW131643   3.461   0.712   2.358
10248SOL    HW231644   3.389   0.566   2.355
10249SOL     OW31645   3.618   0.538   5.301
10249SOL    HW131646   3.545   0.589   5.255
10249SOL    HW231647   3.616   0.559   5.399
10250SOL     OW31648   6.587   1.374   1.402
10250SOL    HW131649   6.503   1.422   1.427
10250SOL    HW231650   6.647   1.437   1.351
10251SOL     OW31651   2.481   2.719   5.870
10251SOL    HW131652   2.459   2.662   5.949
10251SOL    HW231653   2.398   2.763   5.836
10252SOL     OW31654   5.948   6.939   0.967
10252SOL    HW131655   5.987   6.874   1.032
10252SOL    HW231656   5.864   6.978   1.005
10253SOL     OW31657   4.633   5.290   0.130
10253SOL    HW131658   4.579   5.344   0.194
10253SOL    HW231659   4.718   5.262   0.173
10254SOL     OW31660   3.148   2.025   4.578
10254SOL    HW131661   3.110   1.949   4.525
10254SOL    HW231662   3.149   2.000   4.675
10255SOL     OW31663   1.926   6.463   2.327
10255SOL    HW131664   1.869   6.465   2.244
10255SOL    HW231665   1.934   6.369   2.359
10256SOL     OW31666   5.081   0.221   0.950
10256SOL    HW131667   5.149   0.150   0.932
10256SOL    HW231668   5.122   0.292   1.008
10257SOL     OW31669   1.151   4.642   5.444
10257SOL    HW131670   1.154   4.741   5.459
10257SOL    HW231671   1.128   4.597   5.530
10258SOL     OW31672   5.101   6.214   3.388
10258SOL    HW131673   5.089   6.311   3.404
10258SOL    HW231674   5.057   6.188   3.302
10259SOL     OW31675   0.633   5.552   3.851
10259SOL    HW131676   0.642   5.465   3.900
10259SOL    HW231677   0.625   5.627   3.917
10260SOL     OW31678   0.086   6.439   3.048
10260SOL    HW131679   0.181   6.464   3.031
10260SOL    HW231680   0.043   6.409   2.963
10261SOL     OW31681   6.796   6.289   2.179
10261SOL    HW131682   6.751   6.240   2.254
10261SOL    HW231683   6.727   6.332   2.120
10262SOL     OW31684   3.303   4.921   4.512
10262SOL    HW131685   3.258   4.934   4.423
10262SOL    HW231686   3.402   4.919   4.500
10263SOL     OW31687   4.786   1.893   6.777
10263SOL    HW131688   4.877   1.854   6.764
10263SOL    HW231689   4.729   1.828   6.827
10264SOL     OW31690   6.141   1.698   6.500
10264SOL    HW131691   6.076   1.774   6.492
10264SOL    HW231692   6.101   1.617   6.458
10265SOL     OW31693   3.066   1.614   2.894
10265SOL    HW131694   3.151   1.563   2.879
10265SOL    HW231695   3.069   1.700   2.844
10266SOL     OW31696   3.790   4.196   6.231
10266SOL    HW131697   3.849   4.257   6.178
10266SOL    HW231698   3.804   4.102   6.202
10267SOL     OW31699   6.508   1.915   0.104
10267SOL    HW131700   6.590   1.901   0.049
10267SOL    HW231701   6.432   1.941   0.045
10268SOL     OW31702   5.697   6.510   1.405
10268SOL    HW131703   5.714   6.608   1.400
10268SOL    HW231704   5.781   6.461   1.383
10269SOL     OW31705   2.231   1.840   5.437
10269SOL    HW131706   2.315   1.885   5.407
10269SOL    HW231707   2.231   1.833   5.537
10270SOL     OW31708   2.121   5.745   1.346
10270SOL    HW131709   2.201   5.712   1.295
10270SOL    HW231710   2.133   5.841   1.371
10271SOL     OW31711   3.103   3.713   0.267
10271SOL    HW131712   3.040   3.702   0.344
10271SOL    HW231713   3.159   3.794   0.282
10272SOL     OW31714   1.295   0.927   4.234
10272SOL    HW131715   1.244   0.891   4.312
10272SOL    HW231716   1.314   1.024   4.248
10273SOL     OW31717   3.866   5.630   4.171
10273SOL    HW131718   3.841   5.593   4.261
10273SOL    HW231719   3.828   5.571   4.099
10274SOL     OW31720   1.214   4.912   5.528
10274SOL    HW131721   1.124   4.950   5.504
10274SOL    HW231722   1.285   4.969   5.488
10275SOL     OW31723   0.440   7.019   2.664
10275SOL    HW131724   0.473   0.080   2.640
10275SOL    HW231725   0.495   6.950   2.617
10276SOL     OW31726   6.933   5.435   6.192
10276SOL    HW131727   6.909   5.382   6.273
10276SOL    HW231728   6.977   5.520   6.219
10277SOL     OW31729   2.940   6.506   4.046
10277SOL    HW131730   2.941   6.589   3.990
10277SOL    HW231731   3.028   6.460   4.038
10278SOL     OW31732   6.865   1.555   5.985
10278SOL    HW131733   6.791   1.511   5.934
10278SOL    HW231734   6.828   1.594   6.069
10279SOL     OW31735   3.202   0.334   4.337
10279SOL    HW131736   3.192   0.314   4.434
10279SOL    HW231737   3.294   0.308   4.306
10280SOL     OW31738   2.227   4.929   1.350
10280SOL    HW131739   2.193   4.895   1.437
10280SOL    HW231740   2.281   5.012   1.364
10281SOL     OW31741   5.146   1.777   2.666
10281SOL    HW131742   5.226   1.836   2.672
10281SOL    HW231743   5.173   1.687   2.634
10282SOL     OW31744   6.969   3.161   3.508
10282SOL    HW131745   6.884   3.130   3.551
10282SOL    HW231746   7.010   3.234   3.564
10283SOL     OW31747   1.278   3.291   0.967
10283SOL    HW131748   1.263   3.387   0.941
10283SOL    HW231749   1.269   3.282   1.066
10284SOL     OW31750   5.585   4.195   4.915
10284SOL    HW131751   5.499   4.199   4.966
10284SOL    HW231752   5.630   4.108   4.934
10285SOL     OW31753   4.687   0.450   1.372
10285SOL    HW131754   4.596   0.432   1.409
10285SOL    HW231755   4.749   0.477   1.446
10286SOL     OW31756   3.783   1.712   2.674
10286SOL    HW131757   3.780   1.614   2.653
10286SOL    HW231758   3.689   1.747   2.679
10287SOL     OW31759   1.953   6.997   1.937
10287SOL    HW131760   1.953   6.929   1.865
10287SOL    HW231761   1.874   6.984   1.997
10288SOL     OW31762   5.158   6.043   2.658
10288SOL    HW131763   5.088   6.019   2.590
10288SOL    HW231764   5.223   6.107   2.618
10289SOL     OW31765   3.318   1.385   1.482
10289SOL    HW131766   3.388   1.450   1.510
10289SOL    HW231767   3.255   1.370   1.558
10290SOL     OW31768   3.812   4.099   2.982
10290SOL    HW131769   3.740   4.081   2.916
10290SOL    HW231770   3.870   4.174   2.950
10291SOL     OW31771   3.969   0.679   3.970
10291SOL    HW131772   3.925   0.599   3.928
10291SOL    HW231773   3.922   0.762   3.941
10292SOL     OW31774   0.467   2.265   4.682
10292SOL    HW131775   0.413   2.261   4.766
10292SOL    HW231776   0.409   2.297   4.606
10293SOL     OW31777   1.494   6.608   2.963
10293SOL    HW131778   1.484   6.510   2.981
10293SOL    HW231779   1.453   6.630   2.875
10294SOL     OW31780   4.758   2.920   2.840
10294SOL    HW131781   4.745   2.878   2.931
10294SOL    HW231782   4.789   3.014   2.851
10295SOL     OW31783   6.093   4.502   5.404
10295SOL    HW131784   6.137   4.500   5.494
10295SOL    HW231785   5.996   4.482   5.413
10296SOL     OW31786   5.773   4.144   6.125
10296SOL    HW131787   5.697   4.173   6.066
10296SOL    HW231788   5.782   4.044   6.121
10297SOL     OW31789   2.721   0.168   4.198
10297SOL    HW131790   2.798   0.224   4.170
10297SOL    HW231791   2.653   0.225   4.244
10298SOL     OW31792   4.712   4.141   3.192
10298SOL    HW131793   4.655   4.170   3.115
10298SOL    HW231794   4.729   4.219   3.252
10299SOL     OW31795   4.532   4.665   3.536
10299SOL    HW131796   4.608   4.606   3.563
10299SOL    HW231797   4.455   4.650   3.598
10300SOL     OW31798   1.756   3.574   2.017
10300SOL    HW131799   1.852   3.576   1.990
10300SOL    HW231800   1.726   3.665   2.043
10301SOL     OW31801   5.803   1.507   3.892
10301SOL    HW131802   5.725   1.553   3.851
10301SOL    HW231803   5.886   1.560   3.875
10302SOL     OW31804   1.174   6.192   2.473
10302SOL    HW131805   1.123   6.230   2.397
10302SOL    HW231806   1.113   6.179   2.551
10303SOL     OW31807   4.062   3.363   1.596
10303SOL    HW131808   4.092   3.407   1.511
10303SOL    HW231809   4.116   3.397   1.672
10304SOL     OW31810   6.100   7.011   4.003
10304SOL    HW131811   6.166   0.038   3.955
10304SOL    HW231812   6.097   0.006   4.100
10305SOL     OW31813   1.487   5.823   0.284
10305SOL    HW131814   1.536   5.904   0.318
10305SOL    HW231815   1.543   5.741   0.300
10306SOL     OW31816   4.368   5.652   6.867
10306SOL    HW131817   4.305   5.575   6.856
10306SOL    HW231818   4.321   5.737   6.840
10307SOL     OW31819   1.836   0.839   5.361
10307SOL    HW131820   1.790   0.752   5.375
10307SOL    HW231821   1.851   0.883   5.450
10308SOL     OW31822   3.197   5.258   3.741
10308SOL    HW131823   3.136   5.184   3.715
10308SOL    HW231824   3.292   5.225   3.739
10309SOL     OW31825   5.886   6.314   3.438
10309SOL    HW131826   5.969   6.275   3.398
10309SOL    HW231827   5.809   6.253   3.419
10310SOL     OW31828   3.020   3.690   2.003
10310SOL    HW131829   2.957   3.638   2.061
10310SOL    HW231830   3.046   3.775   2.050
10311SOL     OW31831   0.604   6.021   0.844
10311SOL    HW131832   0.559   5.934   0.826
10311SOL    HW231833   0.554   6.095   0.800
10312SOL     OW31834   3.367   4.622   0.466
10312SOL    HW131835   3.389   4.712   0.428
10312SOL    HW231836   3.425   4.552   0.424
10313SOL     OW31837   4.046   0.107   2.377
10313SOL    HW131838   4.089   0.135   2.463
10313SOL    HW231839   3.947   0.097   2.390
10314SOL     OW31840   6.462   6.959   0.483
10314SOL    HW131841   6.487   6.998   0.395
10314SOL    HW231842   6.364   6.941   0.486
10315SOL     OW31843   5.887   6.148   5.347
10315SOL    HW131844   5.844   6.238   5.357
10315SOL    HW231845   5.816   6.077   5.349
10316SOL     OW31846   0.407   3.656   4.588
10316SOL    HW131847   0.404   3.709   4.503
10316SOL    HW231848   0.418   3.718   4.665
10317SOL     OW31849   3.916   5.203   6.407
10317SOL    HW131850   3.965   5.119   6.433
10317SOL    HW231851   3.920   5.214   6.308
10318SOL     OW31852   6.340   5.226   1.479
10318SOL    HW131853   6.266   5.286   1.451
10318SOL    HW231854   6.304   5.152   1.537
10319SOL     OW31855   0.090   4.864   3.838
10319SOL    HW131856   0.066   4.768   3.820
10319SOL    HW231857   0.051   4.921   3.766
10320SOL     OW31858   0.646   0.278   1.203
10320SOL    HW131859   0.658   0.278   1.303
10320SOL    HW231860   0.734   0.293   1.159
10321SOL     OW31861   4.220   6.180   4.828
10321SOL    HW131862   4.176   6.246   4.768
10321SOL    HW231863   4.219   6.089   4.786
10322SOL     OW31864   6.387   5.646   0.652
10322SOL    HW131865   6.477   5.682   0.627
10322SOL    HW231866   6.371   5.661   0.749
10323SOL     OW31867   6.705   3.206   6.558
10323SOL    HW131868   6.667   3.295   6.585
10323SOL    HW231869   6.679   3.137   6.626
10324SOL     OW31870   3.271   3.161   3.401
10324SOL    HW131871   3.188   3.195   3.444
10324SOL    HW231872   3.251   3.077   3.351
10325SOL     OW31873   6.660   3.921   3.534
10325SOL    HW131874   6.678   3.923   3.436
10325SOL    HW231875   6.602   3.842   3.556
10326SOL     OW31876   5.379   2.555   0.393
10326SOL    HW131877   5.463   2.501   0.394
10326SOL    HW231878   5.381   2.618   0.316
10327SOL     OW31879   1.466   0.960   3.224
10327SOL    HW131880   1.516   0.877   3.200
10327SOL    HW231881   1.474   1.026   3.149
10328SOL     OW31882   5.956   3.688   2.570
10328SOL    HW131883   6.006   3.604   2.553
10328SOL    HW231884   5.946   3.702   2.669
10329SOL     OW31885   3.050   0.372   2.760
10329SOL    HW131886   3.117   0.343   2.691
10329SOL    HW231887   3.027   0.294   2.818
10330SOL     OW31888   3.512   5.139   2.757
10330SOL    HW131889   3.557   5.060   2.715
10330SOL    HW231890   3.552   5.156   2.847
10331SOL     OW31891   5.453   0.873   3.613
10331SOL    HW131892   5.521   0.894   3.683
10331SOL    HW231893   5.498   0.837   3.531
10332SOL     OW31894   6.788   1.874   0.576
10332SOL    HW131895   6.858   1.806   0.599
10332SOL    HW231896   6.791   1.949   0.642
10333SOL     OW31897   5.847   5.037   4.004
10333SOL    HW131898   5.819   5.068   4.095
10333SOL    HW231899   5.946   5.040   3.996
10334SOL     OW31900   2.037   4.881   4.204
10334SOL    HW131901   1.965   4.919   4.263
10334SOL    HW231902   2.088   4.811   4.255
10335SOL     OW31903   2.136   5.534   6.704
10335SOL    HW131904   2.155   5.492   6.793
10335SOL    HW231905   2.140   5.464   6.633
10336SOL     OW31906   4.209   7.012   2.176
10336SOL    HW131907   4.190   0.044   2.252
10336SOL    HW231908   4.294   6.963   2.194
10337SOL     OW31909   0.277   5.137   4.652
10337SOL    HW131910   0.302   5.046   4.686
10337SOL    HW231911   0.247   5.130   4.557
10338SOL     OW31912   3.287   6.981   1.655
10338SOL    HW131913   3.356   6.974   1.727
10338SOL    HW231914   3.285   0.045   1.621
10339SOL     OW31915   3.343   5.632   1.009
10339SOL    HW131916   3.262   5.684   1.036
10339SOL    HW231917   3.424   5.690   1.014
10340SOL     OW31918   2.297   5.758   6.571
10340SOL    HW131919   2.258   5.669   6.595
10340SOL    HW231920   2.305   5.765   6.472
10341SOL     OW31921   2.579   2.129   2.439
10341SOL    HW131922   2.650   2.193   2.408
10341SOL    HW231923   2.609   2.085   2.524
10342SOL     OW31924   2.647   0.032   5.616
10342SOL    HW131925   2.581   0.107   5.615
10342SOL    HW231926   2.674   0.009   5.522
10343SOL     OW31927   2.443   4.226   5.950
10343SOL    HW131928   2.518   4.160   5.939
10343SOL    HW231929   2.413   4.257   5.860
10344SOL     OW31930   3.983   3.435   4.665
10344SOL    HW131931   4.017   3.420   4.758
10344SOL    HW231932   3.987   3.350   4.613
10345SOL     OW31933   2.558   1.079   0.209
10345SOL    HW131934   2.541   1.158   0.150
10345SOL    HW231935   2.596   1.004   0.155
10346SOL     OW31936   5.293   6.746   6.699
10346SOL    HW131937   5.391   6.724   6.702
10346SOL    HW231938   5.241   6.677   6.749
10347SOL     OW31939   5.625   1.854   1.160
10347SOL    HW131940   5.602   1.930   1.099
10347SOL    HW231941   5.668   1.781   1.107
10348SOL     OW31942   6.279   1.290   6.230
10348SOL    HW131943   6.244   1.197   6.215
10348SOL    HW231944   6.330   1.320   6.148
10349SOL     OW31945   6.378   1.189   1.134
10349SOL    HW131946   6.343   1.188   1.228
10349SOL    HW231947   6.460   1.133   1.128
10350SOL     OW31948   3.818   6.024   4.268
10350SOL    HW131949   3.846   6.022   4.172
10350SOL    HW231950   3.775   5.937   4.291
10351SOL     OW31951   6.154   5.680   5.055
10351SOL    HW131952   6.222   5.722   4.995
10351SOL    HW231953   6.066   5.726   5.044
10352SOL     OW31954   5.487   1.522   6.657
10352SOL    HW131955   5.496   1.430   6.618
10352SOL    HW231956   5.430   1.518   6.739
10353SOL     OW31957   0.311   3.221   3.653
10353SOL    HW131958   0.376   3.215   3.578
10353SOL    HW231959   0.333   3.300   3.711
10354SOL     OW31960   0.396   3.775   0.505
10354SOL    HW131961   0.309   3.814   0.475
10354SOL    HW231962   0.448   3.745   0.425
10355SOL     OW31963   0.944   1.456   0.693
10355SOL    HW131964   0.848   1.483   0.702
10355SOL    HW231965   0.977   1.481   0.602
10356SOL     OW31966   0.167   3.276   6.603
10356SOL    HW131967   0.235   3.204   6.588
10356SOL    HW231968   0.211   3.365   6.599
10357SOL     OW31969   1.465   2.394   6.677
10357SOL    HW131970   1.436   2.483   6.640
10357SOL    HW231971   1.513   2.343   6.606
10358SOL     OW31972   1.494   2.696   2.546
10358SOL    HW131973   1.408   2.716   2.500
10358SOL    HW231974   1.476   2.649   2.632
10359SOL     OW31975   5.567   2.328   3.033
10359SOL    HW131976   5.659   2.354   3.062
10359SOL    HW231977   5.508   2.409   3.032
10360SOL     OW31978   5.234   5.046   3.193
10360SOL    HW131979   5.277   4.973   3.140
10360SOL    HW231980   5.282   5.132   3.177
10361SOL     OW31981   1.817   1.301   1.316
10361SOL    HW131982   1.740   1.237   1.328
10361SOL    HW231983   1.891   1.274   1.377
10362SOL     OW31984   0.452   5.350   1.815
10362SOL    HW131985   0.394   5.432   1.814
10362SOL    HW231986   0.501   5.345   1.902
10363SOL     OW31987   4.337   3.497   0.820
10363SOL    HW131988   4.373   3.438   0.747
10363SOL    HW231989   4.365   3.461   0.909
10364SOL     OW31990   5.011   5.092   0.883
10364SOL    HW131991   5.064   5.067   0.964
10364SOL    HW231992   4.986   5.188   0.888
10365SOL     OW31993   6.085   4.605   0.123
10365SOL    HW131994   6.073   4.673   0.195
10365SOL    HW231995   6.167   4.550   0.143
10366SOL     OW31996   4.201   6.530   2.944
10366SOL    HW131997   4.104   6.513   2.963
10366SOL    HW231998   4.235   6.461   2.880
10367SOL     OW31999   6.559   1.813   1.697
10367SOL    HW132000   6.542   1.718   1.723
10367SOL    HW232001   6.648   1.842   1.732
10368SOL     OW32002   2.626   0.311   2.415
10368SOL    HW132003   2.628   0.346   2.509
10368SOL    HW232004   2.606   0.213   2.417
10369SOL     OW32005   3.074   6.375   5.297
10369SOL    HW132006   3.042   6.280   5.286
10369SOL    HW232007   3.023   6.434   5.234
10370SOL     OW32008   6.755   1.676   4.711
10370SOL    HW132009   6.694   1.667   4.632
10370SOL    HW232010   6.850   1.674   4.680
10371SOL     OW32011   3.583   6.462   3.448
10371SOL    HW132012   3.531   6.406   3.513
10371SOL    HW232013   3.679   6.464   3.474
10372SOL     OW32014   3.038   0.562   1.455
10372SOL    HW132015   3.083   0.589   1.541
10372SOL    HW232016   3.073   0.472   1.428
10373SOL     OW32017   0.284   0.548   5.266
10373SOL    HW132018   0.265   0.639   5.231
10373SOL    HW232019   0.247   0.480   5.203
10374SOL     OW32020   3.312   6.951   4.508
10374SOL    HW132021   3.226   6.965   4.460
10374SOL    HW232022   3.376   7.024   4.484
10375SOL     OW32023   3.117   2.710   6.441
10375SOL    HW132024   3.181   2.787   6.437
10375SOL    HW232025   3.135   2.648   6.364
10376SOL     OW32026   1.134   6.380   3.589
10376SOL    HW132027   1.203   6.450   3.603
10376SOL    HW232028   1.150   6.335   3.501
10377SOL     OW32029   0.375   1.658   2.034
10377SOL    HW132030   0.295   1.648   2.093
10377SOL    HW232031   0.383   1.753   2.004
10378SOL     OW32032   0.229   5.609   4.915
10378SOL    HW132033   0.230   5.612   5.015
10378SOL    HW232034   0.322   5.596   4.881
10379SOL     OW32035   2.654   6.595   3.965
10379SOL    HW132036   2.691   6.652   3.892
10379SOL    HW232037   2.708   6.512   3.974
10380SOL     OW32038   1.289   2.390   4.594
10380SOL    HW132039   1.206   2.441   4.615
10380SOL    HW232040   1.351   2.393   4.673
10381SOL     OW32041   4.041   4.129   1.624
10381SOL    HW132042   4.076   4.097   1.536
10381SOL    HW232043   3.987   4.212   1.611
10382SOL     OW32044   2.534   5.136   2.278
10382SOL    HW132045   2.521   5.080   2.360
10382SOL    HW232046   2.593   5.087   2.214
10383SOL     OW32047   1.737   4.745   0.135
10383SOL    HW132048   1.823   4.746   0.185
10383SOL    HW232049   1.755   4.755   0.037
10384SOL     OW32050   6.323   6.160   1.340
10384SOL    HW132051   6.404   6.210   1.369
10384SOL    HW232052   6.259   6.223   1.296
10385SOL     OW32053   3.181   5.124   6.032
10385SOL    HW132054   3.143   5.213   6.007
10385SOL    HW232055   3.126   5.051   5.991
10386SOL     OW32056   6.984   1.555   6.278
10386SOL    HW132057   6.936   1.468   6.289
10386SOL    HW232058   6.938   1.626   6.331
10387SOL     OW32059   5.492   2.622   3.544
10387SOL    HW132060   5.537   2.674   3.471
10387SOL    HW232061   5.402   2.591   3.512
10388SOL     OW32062   2.895   0.363   6.377
10388SOL    HW132063   2.857   0.447   6.338
10388SOL    HW232064   2.864   0.284   6.324
10389SOL     OW32065   6.452   4.077   0.052
10389SOL    HW132066   6.415   4.168   0.037
10389SOL    HW232067   6.551   4.079   0.039
10390SOL     OW32068   2.090   2.213   0.809
10390SOL    HW132069   2.182   2.194   0.775
10390SOL    HW232070   2.070   2.310   0.798
10391SOL     OW32071   1.183   6.230   3.372
10391SOL    HW132072   1.121   6.158   3.401
10391SOL    HW232073   1.277   6.196   3.374
10392SOL     OW32074   6.164   5.249   5.206
10392SOL    HW132075   6.070   5.282   5.191
10392SOL    HW232076   6.227   5.327   5.208
10393SOL     OW32077   2.206   3.308   3.767
10393SOL    HW132078   2.125   3.251   3.776
10393SOL    HW232079   2.184   3.390   3.714
10394SOL     OW32080   2.637   5.781   4.078
10394SOL    HW132081   2.711   5.736   4.128
10394SOL    HW232082   2.557   5.722   4.076
10395SOL     OW32083   0.473   6.462   1.421
10395SOL    HW132084   0.517   6.520   1.353
10395SOL    HW232085   0.461   6.512   1.506
10396SOL     OW32086   4.073   1.599   4.119
10396SOL    HW132087   4.040   1.521   4.172
10396SOL    HW232088   4.125   1.566   4.040
10397SOL     OW32089   3.505   1.710   2.664
10397SOL    HW132090   3.493   1.720   2.762
10397SOL    HW232091   3.469   1.791   2.617
10398SOL     OW32092   6.118   2.622   1.355
10398SOL    HW132093   6.059   2.691   1.314
10398SOL    HW232094   6.108   2.623   1.455
10399SOL     OW32095   5.180   2.280   3.453
10399SOL    HW132096   5.116   2.301   3.379
10399SOL    HW232097   5.256   2.226   3.417
10400SOL     OW32098   4.486   6.774   0.414
10400SOL    HW132099   4.400   6.822   0.431
10400SOL    HW232100   4.511   6.783   0.317
10401SOL     OW32101   6.651   0.575   3.715
10401SOL    HW132102   6.648   0.581   3.615
10401SOL    HW232103   6.621   0.485   3.743
10402SOL     OW32104   6.631   3.464   5.602
10402SOL    HW132105   6.584   3.376   5.594
10402SOL    HW232106   6.567   3.539   5.587
10403SOL     OW32107   4.589   0.980   3.866
10403SOL    HW132108   4.647   0.956   3.944
10403SOL    HW232109   4.590   1.079   3.854
10404SOL     OW32110   6.281   6.721   5.311
10404SOL    HW132111   6.230   6.635   5.311
10404SOL    HW232112   6.276   6.762   5.403
10405SOL     OW32113   0.252   1.592   5.266
10405SOL    HW132114   0.190   1.666   5.238
10405SOL    HW232115   0.347   1.620   5.247
10406SOL     OW32116   2.753   5.121   3.182
10406SOL    HW132117   2.675   5.095   3.125
10406SOL    HW232118   2.802   5.040   3.212
10407SOL     OW32119   3.213   6.747   6.447
10407SOL    HW132120   3.156   6.670   6.475
10407SOL    HW232121   3.276   6.771   6.521
10408SOL     OW32122   4.475   0.157   1.080
10408SOL    HW132123   4.558   0.210   1.096
10408SOL    HW232124   4.406   0.182   1.147
10409SOL     OW32125   0.101   4.544   0.990
10409SOL    HW132126   0.082   4.458   0.942
10409SOL    HW232127   0.109   4.526   1.088
10410SOL     OW32128   5.589   1.920   0.642
10410SOL    HW132129   5.571   1.822   0.636
10410SOL    HW232130   5.654   1.946   0.571
10411SOL     OW32131   3.859   6.498   3.437
10411SOL    HW132132   3.922   6.564   3.397
10411SOL    HW232133   3.902   6.455   3.517
10412SOL     OW32134   0.080   1.071   0.012
10412SOL    HW132135   0.119   0.979   0.014
10412SOL    HW232136   0.067   1.104   0.106
10413SOL     OW32137   6.580   2.956   0.581
10413SOL    HW132138   6.560   2.935   0.485
10413SOL    HW232139   6.595   3.054   0.591
10414SOL     OW32140   4.056   4.240   5.766
10414SOL    HW132141   3.971   4.292   5.754
10414SOL    HW232142   4.134   4.300   5.751
10415SOL     OW32143   0.994   3.735   4.596
10415SOL    HW132144   0.951   3.767   4.512
10415SOL    HW232145   0.965   3.641   4.614
10416SOL     OW32146   6.214   0.075   4.648
10416SOL    HW132147   6.256   7.017   4.673
10416SOL    HW232148   6.116   0.061   4.633
10417SOL     OW32149   3.025   5.422   4.510
10417SOL    HW132150   2.997   5.503   4.561
10417SOL    HW232151   2.992   5.340   4.557
10418SOL     OW32152   0.100   4.817   6.819
10418SOL    HW132153   0.132   4.831   6.725
10418SOL    HW232154   0.082   4.906   6.861
10419SOL     OW32155   1.618   0.113   6.381
10419SOL    HW132156   1.554   0.115   6.458
10419SOL    HW232157   1.704   0.157   6.407
10420SOL     OW32158   6.862   3.998   2.898
10420SOL    HW132159   6.797   3.924   2.916
10420SOL    HW232160   6.818   4.068   2.842
10421SOL     OW32161   0.360   1.488   3.534
10421SOL    HW132162   0.368   1.527   3.626
10421SOL    HW232163   0.448   1.450   3.506
10422SOL     OW32164   6.458   3.233   5.535
10422SOL    HW132165   6.419   3.298   5.470
10422SOL    HW232166   6.396   3.224   5.614
10423SOL     OW32167   5.797   5.351   4.878
10423SOL    HW132168   5.801   5.270   4.936
10423SOL    HW232169   5.729   5.338   4.806
10424SOL     OW32170   5.774   2.638   0.502
10424SOL    HW132171   5.730   2.725   0.525
10424SOL    HW232172   5.821   2.603   0.583
10425SOL     OW32173   0.843   6.795   1.817
10425SOL    HW132174   0.819   6.737   1.739
10425SOL    HW232175   0.939   6.822   1.810
10426SOL     OW32176   0.054   4.987   0.420
10426SOL    HW132177   0.105   5.051   0.478
10426SOL    HW232178   7.009   4.947   0.472
10427SOL     OW32179   3.564   0.873   6.931
10427SOL    HW132180   3.491   0.816   6.968
10427SOL    HW232181   3.541   0.970   6.944
10428SOL     OW32182   2.928   1.236   4.411
10428SOL    HW132183   2.919   1.287   4.326
10428SOL    HW232184   2.971   1.294   4.480
10429SOL     OW32185   0.085   4.988   0.847
10429SOL    HW132186   0.069   4.927   0.925
10429SOL    HW232187   7.029   5.029   0.818
10430SOL     OW32188   4.734   6.395   3.798
10430SOL    HW132189   4.758   6.421   3.704
10430SOL    HW232190   4.817   6.394   3.854
10431SOL     OW32191   3.469   6.068   3.935
10431SOL    HW132192   3.482   6.164   3.959
10431SOL    HW232193   3.444   6.016   4.017
10432SOL     OW32194   6.107   6.786   4.312
10432SOL    HW132195   6.083   6.883   4.312
10432SOL    HW232196   6.024   6.731   4.320
10433SOL     OW32197   1.675   6.655   1.462
10433SOL    HW132198   1.668   6.608   1.551
10433SOL    HW232199   1.682   6.753   1.478
10434SOL     OW32200   4.109   0.181   3.370
10434SOL    HW132201   4.147   0.239   3.298
10434SOL    HW232202   4.158   0.198   3.456
10435SOL     OW32203   0.248   0.255   4.811
10435SOL    HW132204   0.247   0.277   4.714
10435SOL    HW232205   0.263   0.338   4.865
10436SOL     OW32206   0.744   5.463   6.320
10436SOL    HW132207   0.753   5.446   6.222
10436SOL    HW232208   0.718   5.558   6.336
10437SOL     OW32209   6.492   4.902   6.117
10437SOL    HW132210   6.573   4.843   6.118
10437SOL    HW232211   6.414   4.849   6.082
10438SOL     OW32212   5.893   6.401   0.636
10438SOL    HW132213   5.832   6.327   0.609
10438SOL    HW232214   5.988   6.375   0.619
10439SOL     OW32215   4.042   1.287   6.417
10439SOL    HW132216   4.013   1.193   6.401
10439SOL    HW232217   4.012   1.317   6.508
10440SOL     OW32218   1.407   6.116   0.295
10440SOL    HW132219   1.411   6.208   0.256
10440SOL    HW232220   1.450   6.116   0.385
10441SOL     OW32221   4.087   0.889   0.104
10441SOL    HW132222   4.159   0.864   0.039
10441SOL    HW232223   3.998   0.867   0.065
10442SOL     OW32224   3.825   6.322   5.894
10442SOL    HW132225   3.875   6.306   5.979
10442SOL    HW232226   3.889   6.326   5.817
10443SOL     OW32227   4.910   4.011   4.862
10443SOL    HW132228   4.852   4.051   4.933
10443SOL    HW232229   4.894   4.059   4.775
10444SOL     OW32230   3.589   6.724   4.496
10444SOL    HW132231   3.548   6.635   4.512
10444SOL    HW232232   3.675   6.731   4.547
10445SOL     OW32233   1.323   5.724   4.318
10445SOL    HW132234   1.287   5.806   4.362
10445SOL    HW232235   1.415   5.705   4.352
10446SOL     OW32236   0.771   2.874   5.962
10446SOL    HW132237   0.741   2.784   5.931
10446SOL    HW232238   0.705   2.944   5.935
10447SOL     OW32239   0.368   0.929   2.088
10447SOL    HW132240   0.334   1.023   2.099
10447SOL    HW232241   0.292   0.865   2.100
10448SOL     OW32242   3.856   2.139   1.576
10448SOL    HW132243   3.934   2.177   1.626
10448SOL    HW232244   3.788   2.104   1.641
10449SOL     OW32245   2.719   5.411   4.431
10449SOL    HW132246   2.625   5.430   4.405
10449SOL    HW232247   2.723   5.384   4.527
10450SOL     OW32248   0.899   2.451   0.495
10450SOL    HW132249   0.874   2.527   0.555
10450SOL    HW232250   0.973   2.398   0.537
10451SOL     OW32251   2.022   5.141   3.349
10451SOL    HW132252   2.046   5.061   3.405
10451SOL    HW232253   2.006   5.220   3.408
10452SOL     OW32254   5.956   3.562   3.448
10452SOL    HW132255   5.940   3.631   3.378
10452SOL    HW232256   6.017   3.600   3.518
10453SOL     OW32257   4.923   6.082   1.649
10453SOL    HW132258   5.016   6.062   1.682
10453SOL    HW232259   4.857   6.063   1.721
10454SOL     OW32260   4.371   3.054   0.988
10454SOL    HW132261   4.462   3.076   0.955
10454SOL    HW232262   4.373   2.966   1.036
10455SOL     OW32263   6.834   5.578   2.389
10455SOL    HW132264   6.805   5.670   2.364
10455SOL    HW232265   6.901   5.584   2.464
10456SOL     OW32266   3.121   6.269   1.468
10456SOL    HW132267   3.090   6.362   1.445
10456SOL    HW232268   3.041   6.213   1.492
10457SOL     OW32269   3.667   2.935   3.063
10457SOL    HW132270   3.635   2.885   2.983
10457SOL    HW232271   3.672   3.033   3.041
10458SOL     OW32272   7.013   0.684   6.513
10458SOL    HW132273   0.039   0.690   6.431
10458SOL    HW232274   0.001   0.763   6.572
10459SOL     OW32275   5.668   5.078   2.400
10459SOL    HW132276   5.705   4.987   2.381
10459SOL    HW232277   5.571   5.071   2.422
10460SOL     OW32278   1.690   5.569   1.229
10460SOL    HW132279   1.642   5.653   1.203
10460SOL    HW232280   1.788   5.578   1.210
10461SOL     OW32281   1.351   6.197   4.987
10461SOL    HW132282   1.267   6.154   5.019
10461SOL    HW232283   1.364   6.284   5.036
10462SOL     OW32284   5.498   2.051   2.644
10462SOL    HW132285   5.534   2.101   2.722
10462SOL    HW232286   5.548   1.965   2.634
10463SOL     OW32287   3.905   2.676   5.576
10463SOL    HW132288   3.830   2.613   5.596
10463SOL    HW232289   3.950   2.702   5.661
10464SOL     OW32290   5.365   0.057   0.905
10464SOL    HW132291   5.376   0.087   1.000
10464SOL    HW232292   5.434   7.018   0.883
10465SOL     OW32293   6.313   6.723   1.099
10465SOL    HW132294   6.377   6.748   1.026
10465SOL    HW232295   6.327   6.784   1.177
10466SOL     OW32296   4.369   5.204   5.028
10466SOL    HW132297   4.467   5.205   5.046
10466SOL    HW232298   4.351   5.235   4.935
10467SOL     OW32299   0.834   2.138   5.017
10467SOL    HW132300   0.777   2.209   5.058
10467SOL    HW232301   0.844   2.062   5.081
10468SOL     OW32302   3.388   5.231   3.103
10468SOL    HW132303   3.311   5.235   3.040
10468SOL    HW232304   3.358   5.253   3.196
10469SOL     OW32305   3.544   2.947   6.775
10469SOL    HW132306   3.548   2.980   6.869
10469SOL    HW232307   3.451   2.918   6.753
10470SOL     OW32308   2.359   1.493   3.101
10470SOL    HW132309   2.329   1.562   3.035
10470SOL    HW232310   2.443   1.450   3.067
10471SOL     OW32311   2.172   3.648   1.292
10471SOL    HW132312   2.097   3.601   1.338
10471SOL    HW232313   2.239   3.581   1.259
10472SOL     OW32314   3.320   6.285   0.856
10472SOL    HW132315   3.386   6.244   0.793
10472SOL    HW232316   3.365   6.358   0.908
10473SOL     OW32317   5.699   0.029   1.056
10473SOL    HW132318   5.655   6.985   1.005
10473SOL    HW232319   5.712   0.108   0.996
10474SOL     OW32320   4.927   0.822   4.978
10474SOL    HW132321   4.947   0.729   4.948
10474SOL    HW232322   4.944   0.885   4.902
10475SOL     OW32323   4.467   6.260   1.822
10475SOL    HW132324   4.478   6.166   1.852
10475SOL    HW232325   4.496   6.269   1.727
10476SOL     OW32326   0.404   5.657   6.336
10476SOL    HW132327   0.352   5.722   6.391
10476SOL    HW232328   0.343   5.585   6.303
10477SOL     OW32329   5.793   2.554   4.867
10477SOL    HW132330   5.889   2.569   4.891
10477SOL    HW232331   5.755   2.483   4.927
10478SOL     OW32332   0.397   0.507   0.426
10478SOL    HW132333   0.359   0.436   0.366
10478SOL    HW232334   0.495   0.515   0.411
10479SOL     OW32335   0.691   2.704   1.659
10479SOL    HW132336   0.740   2.621   1.634
10479SOL    HW232337   0.628   2.729   1.586
10480SOL     OW32338   6.174   0.516   1.038
10480SOL    HW132339   6.123   0.509   0.952
10480SOL    HW232340   6.266   0.478   1.025
10481SOL     OW32341   2.630   1.359   5.458
10481SOL    HW132342   2.579   1.407   5.529
10481SOL    HW232343   2.726   1.354   5.483
10482SOL     OW32344   0.643   6.027   4.782
10482SOL    HW132345   0.731   5.990   4.811
10482SOL    HW232346   0.620   5.991   4.692
10483SOL     OW32347   7.020   5.267   0.350
10483SOL    HW132348   6.929   5.247   0.314
10483SOL    HW232349   0.042   5.319   0.283
10484SOL     OW32350   6.764   0.480   0.361
10484SOL    HW132351   6.679   0.521   0.394
10484SOL    HW232352   6.836   0.549   0.358
10485SOL     OW32353   3.871   3.536   3.109
10485SOL    HW132354   3.958   3.584   3.102
10485SOL    HW232355   3.796   3.598   3.088
10486SOL     OW32356   6.292   0.944   5.807
10486SOL    HW132357   6.381   0.923   5.846
10486SOL    HW232358   6.229   0.972   5.880
10487SOL     OW32359   4.659   2.119   1.466
10487SOL    HW132360   4.675   2.028   1.427
10487SOL    HW232361   4.628   2.181   1.394
10488SOL     OW32362   1.703   2.401   5.912
10488SOL    HW132363   1.615   2.388   5.959
10488SOL    HW232364   1.689   2.394   5.814
10489SOL     OW32365   5.710   5.984   3.940
10489SOL    HW132366   5.615   6.012   3.924
10489SOL    HW232367   5.755   5.964   3.853
10490SOL     OW32368   5.719   0.735   0.318
10490SOL    HW132369   5.694   0.831   0.331
10490SOL    HW232370   5.803   0.729   0.264
10491SOL     OW32371   2.329   2.796   6.218
10491SOL    HW132372   2.237   2.762   6.198
10491SOL    HW232373   2.329   2.838   6.309
10492SOL     OW32374   3.890   5.977   0.715
10492SOL    HW132375   3.863   6.035   0.638
10492SOL    HW232376   3.847   5.888   0.706
10493SOL     OW32377   3.102   5.620   1.485
10493SOL    HW132378   3.094   5.606   1.583
10493SOL    HW232379   3.047   5.699   1.458
10494SOL     OW32380   0.245   4.623   5.859
10494SOL    HW132381   0.303   4.696   5.821
10494SOL    HW232382   0.300   4.540   5.871
10495SOL     OW32383   6.462   5.892   0.136
10495SOL    HW132384   6.453   5.960   0.063
10495SOL    HW232385   6.392   5.821   0.125
10496SOL     OW32386   6.307   4.225   5.169
10496SOL    HW132387   6.274   4.296   5.107
10496SOL    HW232388   6.321   4.264   5.260
10497SOL     OW32389   1.071   0.022   1.620
10497SOL    HW132390   1.055   0.102   1.563
10497SOL    HW232391   1.003   6.982   1.600
10498SOL     OW32392   5.239   5.891   1.311
10498SOL    HW132393   5.160   5.937   1.352
10498SOL    HW232394   5.223   5.879   1.213
10499SOL     OW32395   5.074   6.291   1.291
10499SOL    HW132396   5.162   6.338   1.283
10499SOL    HW232397   5.002   6.350   1.255
10500SOL     OW32398   5.357   2.905   5.328
10500SOL    HW132399   5.371   2.999   5.298
10500SOL    HW232400   5.406   2.843   5.266
10501SOL     OW32401   2.151   5.781   2.602
10501SOL    HW132402   2.241   5.745   2.578
10501SOL    HW232403   2.152   5.881   2.595
10502SOL     OW32404   3.094   3.430   1.122
10502SOL    HW132405   3.037   3.508   1.148
10502SOL    HW232406   3.063   3.348   1.168
10503SOL     OW32407   6.520   4.057   6.597
10503SOL    HW132408   6.471   3.984   6.644
10503SOL    HW232409   6.466   4.087   6.517
10504SOL     OW32410   0.654   2.644   5.887
10504SOL    HW132411   0.650   2.621   5.790
10504SOL    HW232412   0.561   2.657   5.922
10505SOL     OW32413   5.679   5.942   1.861
10505SOL    HW132414   5.726   5.964   1.946
10505SOL    HW232415   5.617   5.865   1.876
10506SOL     OW32416   0.539   3.601   0.071
10506SOL    HW132417   0.544   3.502   0.060
10506SOL    HW232418   0.630   3.640   0.058
10507SOL     OW32419   2.094   5.142   6.973
10507SOL    HW132420   2.156   5.093   6.912
10507SOL    HW232421   2.135   5.147   0.034
10508SOL     OW32422   1.251   5.617   3.704
10508SOL    HW132423   1.261   5.565   3.619
10508SOL    HW232424   1.256   5.555   3.782
10509SOL     OW32425   5.641   3.879   4.409
10509SOL    HW132426   5.710   3.897   4.338
10509SOL    HW232427   5.628   3.962   4.464
10510SOL     OW32428   4.556   6.717   6.450
10510SOL    HW132429   4.460   6.735   6.469
10510SOL    HW232430   4.594   6.659   6.521
10511SOL     OW32431   2.797   1.491   2.215
10511SOL    HW132432   2.786   1.495   2.116
10511SOL    HW232433   2.894   1.493   2.238
10512SOL     OW32434   4.138   6.961   5.663
10512SOL    HW132435   4.127   0.026   5.693
10512SOL    HW232436   4.222   6.923   5.703
10513SOL     OW32437   6.673   2.527   2.875
10513SOL    HW132438   6.634   2.575   2.796
10513SOL    HW232439   6.620   2.444   2.893
10514SOL     OW32440   1.556   1.817   1.291
10514SOL    HW132441   1.636   1.828   1.349
10514SOL    HW232442   1.582   1.770   1.207
10515SOL     OW32443   2.439   2.143   3.787
10515SOL    HW132444   2.423   2.072   3.719
10515SOL    HW232445   2.366   2.140   3.856
10516SOL     OW32446   2.778   1.988   0.013
10516SOL    HW132447   2.812   2.028   6.958
10516SOL    HW232448   2.854   1.976   0.076
10517SOL     OW32449   1.805   4.493   1.874
10517SOL    HW132450   1.895   4.470   1.838
10517SOL    HW232451   1.734   4.452   1.816
10518SOL     OW32452   0.063   5.162   1.846
10518SOL    HW132453   0.072   5.156   1.945
10518SOL    HW232454   0.092   5.076   1.804
10519SOL     OW32455   2.891   4.800   1.122
10519SOL    HW132456   2.883   4.754   1.210
10519SOL    HW232457   2.818   4.769   1.061
10520SOL     OW32458   6.913   2.038   6.281
10520SOL    HW132459   6.983   1.972   6.307
10520SOL    HW232460   6.949   2.131   6.293
10521SOL     OW32461   6.299   4.752   1.836
10521SOL    HW132462   6.366   4.809   1.789
10521SOL    HW232463   6.330   4.735   1.929
10522SOL     OW32464   0.330   2.260   2.995
10522SOL    HW132465   0.405   2.305   3.043
10522SOL    HW232466   0.243   2.288   3.036
10523SOL     OW32467   0.176   4.257   3.382
10523SOL    HW132468   0.258   4.212   3.419
10523SOL    HW232469   0.185   4.265   3.283
10524SOL     OW32470   0.140   5.861   3.789
10524SOL    HW132471   0.055   5.862   3.736
10524SOL    HW232472   0.120   5.844   3.885
10525SOL     OW32473   4.048   0.042   5.039
10525SOL    HW132474   4.101   0.035   4.955
10525SOL    HW232475   4.062   0.133   5.079
10526SOL     OW32476   0.385   6.338   1.021
10526SOL    HW132477   0.479   6.367   1.007
10526SOL    HW232478   0.323   6.405   0.979
10527SOL     OW32479   0.429   0.218   5.878
10527SOL    HW132480   0.378   0.186   5.798
10527SOL    HW232481   0.527   0.207   5.863
10528SOL     OW32482   0.986   3.946   6.633
10528SOL    HW132483   0.922   4.003   6.684
10528SOL    HW232484   0.945   3.856   6.617
10529SOL     OW32485   1.586   6.063   4.967
10529SOL    HW132486   1.582   6.004   4.886
10529SOL    HW232487   1.494   6.096   4.988
10530SOL     OW32488   1.229   6.451   5.979
10530SOL    HW132489   1.290   6.372   5.981
10530SOL    HW232490   1.137   6.423   6.006
10531SOL     OW32491   2.412   2.297   4.304
10531SOL    HW132492   2.451   2.252   4.223
10531SOL    HW232493   2.437   2.244   4.385
10532SOL     OW32494   5.854   6.772   6.857
10532SOL    HW132495   5.794   6.694   6.842
10532SOL    HW232496   5.934   6.744   6.909
10533SOL     OW32497   3.429   6.013   4.287
10533SOL    HW132498   3.481   6.006   4.372
10533SOL    HW232499   3.441   5.930   4.233
10534SOL     OW32500   7.029   5.885   2.303
10534SOL    HW132501   0.016   5.983   2.294
10534SOL    HW232502   0.066   5.844   2.363
10535SOL     OW32503   2.276   1.395   1.452
10535SOL    HW132504   2.290   1.377   1.354
10535SOL    HW232505   2.198   1.457   1.463
10536SOL     OW32506   4.294   6.910   3.873
10536SOL    HW132507   4.311   7.008   3.883
10536SOL    HW232508   4.381   6.863   3.859
10537SOL     OW32509   4.944   6.418   3.625
10537SOL    HW132510   4.999   6.472   3.689
10537SOL    HW232511   4.954   6.455   3.533
10538SOL     OW32512   5.634   3.932   2.655
10538SOL    HW132513   5.709   3.996   2.674
10538SOL    HW232514   5.662   3.870   2.581
10539SOL     OW32515   6.150   5.493   1.683
10539SOL    HW132516   6.103   5.574   1.716
10539SOL    HW232517   6.229   5.474   1.742
10540SOL     OW32518   2.411   4.252   6.225
10540SOL    HW132519   2.500   4.246   6.272
10540SOL    HW232520   2.423   4.233   6.128
10541SOL     OW32521   3.458   3.112   3.987
10541SOL    HW132522   3.463   3.105   3.888
10541SOL    HW232523   3.424   3.202   4.014
10542SOL     OW32524   6.770   0.203   4.475
10542SOL    HW132525   6.781   0.116   4.521
10542SOL    HW232526   6.804   0.197   4.382
10543SOL     OW32527   0.234   2.499   5.358
10543SOL    HW132528   0.167   2.563   5.319
10543SOL    HW232529   0.186   2.425   5.405
10544SOL     OW32530   1.947   0.011   3.666
10544SOL    HW132531   2.029   0.066   3.683
10544SOL    HW232532   1.912   7.006   3.752
10545SOL     OW32533   1.143   2.969   2.133
10545SOL    HW132534   1.197   3.052   2.140
10545SOL    HW232535   1.071   2.970   2.203
10546SOL     OW32536   3.383   6.195   1.387
10546SOL    HW132537   3.384   6.185   1.288
10546SOL    HW232538   3.291   6.223   1.417
10547SOL     OW32539   4.827   0.913   4.430
10547SOL    HW132540   4.906   0.938   4.486
10547SOL    HW232541   4.857   0.862   4.349
10548SOL     OW32542   0.784   4.590   4.733
10548SOL    HW132543   0.843   4.510   4.722
10548SOL    HW232544   0.711   4.587   4.664
10549SOL     OW32545   0.175   1.566   0.604
10549SOL    HW132546   0.223   1.618   0.533
10549SOL    HW232547   0.080   1.551   0.576
10550SOL     OW32548   3.847   6.676   3.104
10550SOL    HW132549   3.910   6.719   3.169
10550SOL    HW232550   3.819   6.587   3.138
10551SOL     OW32551   2.439   1.561   6.165
10551SOL    HW132552   2.512   1.510   6.210
10551SOL    HW232553   2.480   1.631   6.106
10552SOL     OW32554   2.327   0.672   5.065
10552SOL    HW132555   2.346   0.726   4.983
10552SOL    HW232556   2.272   0.593   5.041
10553SOL     OW32557   6.638   4.538   0.975
10553SOL    HW132558   6.710   4.486   0.930
10553SOL    HW232559   6.671   4.630   0.996
10554SOL     OW32560   5.797   5.041   2.118
10554SOL    HW132561   5.743   4.967   2.078
10554SOL    HW232562   5.758   5.067   2.206
10555SOL     OW32563   3.104   2.536   0.752
10555SOL    HW132564   3.032   2.520   0.820
10555SOL    HW232565   3.064   2.579   0.671
10556SOL     OW32566   2.487   1.486   3.512
10556SOL    HW132567   2.513   1.554   3.580
10556SOL    HW232568   2.544   1.405   3.523
10557SOL     OW32569   1.597   3.161   4.576
10557SOL    HW132570   1.511   3.129   4.615
10557SOL    HW232571   1.671   3.146   4.642
10558SOL     OW32572   2.958   5.043   5.669
10558SOL    HW132573   2.902   5.015   5.747
10558SOL    HW232574   2.907   5.030   5.584
10559SOL     OW32575   3.428   1.169   0.686
10559SOL    HW132576   3.508   1.136   0.636
10559SOL    HW232577   3.442   1.156   0.784
10560SOL     OW32578   4.202   6.294   1.866
10560SOL    HW132579   4.173   6.320   1.958
10560SOL    HW232580   4.302   6.295   1.861
10561SOL     OW32581   3.749   5.014   1.778
10561SOL    HW132582   3.716   4.946   1.712
10561SOL    HW232583   3.776   5.097   1.729
10562SOL     OW32584   3.344   6.040   0.676
10562SOL    HW132585   3.292   6.034   0.591
10562SOL    HW232586   3.282   6.031   0.754
10563SOL     OW32587   0.968   0.625   1.114
10563SOL    HW132588   1.025   0.694   1.159
10563SOL    HW232589   1.017   0.589   1.034
10564SOL     OW32590   6.469   5.910   3.930
10564SOL    HW132591   6.468   5.973   4.008
10564SOL    HW232592   6.433   5.957   3.849
10565SOL     OW32593   6.610   6.686   5.614
10565SOL    HW132594   6.664   6.707   5.696
10565SOL    HW232595   6.618   6.761   5.549
10566SOL     OW32596   3.077   2.860   0.396
10566SOL    HW132597   3.078   2.776   0.451
10566SOL    HW232598   3.004   2.920   0.429
10567SOL     OW32599   1.882   2.513   5.669
10567SOL    HW132600   1.818   2.577   5.711
10567SOL    HW232601   1.833   2.431   5.639
10568SOL     OW32602   6.083   2.560   6.830
10568SOL    HW132603   6.044   2.468   6.823
10568SOL    HW232604   6.023   2.626   6.786
10569SOL     OW32605   5.242   1.022   1.902
10569SOL    HW132606   5.290   1.099   1.943
10569SOL    HW232607   5.169   1.055   1.843
10570SOL     OW32608   1.817   4.957   3.977
10570SOL    HW132609   1.891   4.914   3.925
10570SOL    HW232610   1.856   5.002   4.058
10571SOL     OW32611   0.620   4.365   6.121
10571SOL    HW132612   0.576   4.300   6.060
10571SOL    HW232613   0.612   4.457   6.083
10572SOL     OW32614   7.005   4.800   1.985
10572SOL    HW132615   0.054   4.758   1.941
10572SOL    HW232616   7.010   4.784   2.084
10573SOL     OW32617   4.792   0.410   5.189
10573SOL    HW132618   4.768   0.326   5.237
10573SOL    HW232619   4.788   0.395   5.090
10574SOL     OW32620   6.888   1.072   3.964
10574SOL    HW132621   6.812   1.052   4.026
10574SOL    HW232622   6.927   1.161   3.986
10575SOL     OW32623   5.749   0.512   3.622
10575SOL    HW132624   5.654   0.532   3.647
10575SOL    HW232625   5.753   0.424   3.575
10576SOL     OW32626   1.162   5.162   2.653
10576SOL    HW132627   1.239   5.149   2.590
10576SOL    HW232628   1.144   5.077   2.702
10577SOL     OW32629   2.444   5.397   0.391
10577SOL    HW132630   2.356   5.393   0.342
10577SOL    HW232631   2.509   5.335   0.348
10578SOL     OW32632   5.482   1.592   3.528
10578SOL    HW132633   5.525   1.507   3.497
10578SOL    HW232634   5.463   1.651   3.449
10579SOL     OW32635   2.909   3.631   1.456
10579SOL    HW132636   2.941   3.536   1.453
10579SOL    HW232637   2.963   3.682   1.523
10580SOL     OW32638   6.445   6.536   6.050
10580SOL    HW132639   6.409   6.628   6.065
10580SOL    HW232640   6.478   6.499   6.137
10581SOL     OW32641   4.931   0.121   2.732
10581SOL    HW132642   4.931   0.212   2.773
10581SOL    HW232643   4.947   0.053   2.803
10582SOL     OW32644   5.547   5.005   7.005
10582SOL    HW132645   5.529   5.094   0.017
10582SOL    HW232646   5.555   5.015   6.906
10583SOL     OW32647   3.814   0.095   4.089
10583SOL    HW132648   3.791   0.012   4.140
10583SOL    HW232649   3.806   0.175   4.148
10584SOL     OW32650   6.264   0.391   6.756
10584SOL    HW132651   6.270   0.291   6.754
10584SOL    HW232652   6.182   0.420   6.706
10585SOL     OW32653   1.616   1.856   6.098
10585SOL    HW132654   1.620   1.949   6.063
10585SOL    HW232655   1.619   1.792   6.022
10586SOL     OW32656   4.894   4.574   5.756
10586SOL    HW132657   4.967   4.585   5.689
10586SOL    HW232658   4.888   4.478   5.784
10587SOL     OW32659   0.513   5.895   6.005
10587SOL    HW132660   0.466   5.966   6.057
10587SOL    HW232661   0.594   5.865   6.056
10588SOL     OW32662   2.077   2.279   5.232
10588SOL    HW132663   2.088   2.186   5.266
10588SOL    HW232664   1.984   2.311   5.251
10589SOL     OW32665   5.201   6.188   4.184
10589SOL    HW132666   5.207   6.145   4.094
10589SOL    HW232667   5.180   6.285   4.174
10590SOL     OW32668   0.401   5.635   1.797
10590SOL    HW132669   0.346   5.619   1.715
10590SOL    HW232670   0.498   5.641   1.772
10591SOL     OW32671   2.080   1.600   1.436
10591SOL    HW132672   2.029   1.594   1.522
10591SOL    HW232673   2.020   1.576   1.360
10592SOL     OW32674   5.663   2.507   4.363
10592SOL    HW132675   5.702   2.417   4.345
10592SOL    HW232676   5.598   2.530   4.291
10593SOL     OW32677   1.264   6.297   0.818
10593SOL    HW132678   1.283   6.203   0.790
10593SOL    HW232679   1.341   6.355   0.794
10594SOL     OW32680   3.932   1.318   3.305
10594SOL    HW132681   3.848   1.270   3.280
10594SOL    HW232682   3.912   1.381   3.380
10595SOL     OW32683   6.143   0.811   0.240
10595SOL    HW132684   6.179   0.728   0.198
10595SOL    HW232685   6.052   0.830   0.205
10596SOL     OW32686   5.072   1.661   7.011
10596SOL    HW132687   4.990   1.658   0.037
10596SOL    HW232688   5.129   1.738   0.007
10597SOL     OW32689   2.675   0.771   6.126
10597SOL    HW132690   2.730   0.841   6.080
10597SOL    HW232691   2.594   0.751   6.070
10598SOL     OW32692   2.823   2.306   6.937
10598SOL    HW132693   2.863   2.287   7.027
10598SOL    HW232694   2.740   2.361   6.949
10599SOL     OW32695   6.475   4.273   6.229
10599SOL    HW132696   6.388   4.303   6.268
10599SOL    HW232697   6.544   4.267   6.301
10600SOL     OW32698   3.768   0.990   1.376
10600SOL    HW132699   3.754   1.014   1.280
10600SOL    HW232700   3.839   1.050   1.415
10601SOL     OW32701   0.496   5.807   5.150
10601SOL    HW132702   0.432   5.781   5.222
10601SOL    HW232703   0.532   5.724   5.107
10602SOL     OW32704   0.891   0.975   0.798
10602SOL    HW132705   0.842   0.936   0.876
10602SOL    HW232706   0.894   1.074   0.807
10603SOL     OW32707   4.658   6.795   2.719
10603SOL    HW132708   4.726   6.752   2.660
10603SOL    HW232709   4.600   6.855   2.664
10604SOL     OW32710   0.381   6.336   4.983
10604SOL    HW132711   0.298   6.288   5.013
10604SOL    HW232712   0.404   6.407   5.049
10605SOL     OW32713   1.584   0.010   6.873
10605SOL    HW132714   1.645   0.065   6.929
10605SOL    HW232715   1.616   6.946   6.871
10606SOL     OW32716   6.939   0.476   1.605
10606SOL    HW132717   6.936   0.486   1.704
10606SOL    HW232718   6.921   0.565   1.562
10607SOL     OW32719   4.182   4.408   0.467
10607SOL    HW132720   4.242   4.346   0.415
10607SOL    HW232721   4.146   4.360   0.547
10608SOL     OW32722   6.548   3.475   3.463
10608SOL    HW132723   6.604   3.476   3.380
10608SOL    HW232724   6.487   3.396   3.461
10609SOL     OW32725   3.009   6.420   0.443
10609SOL    HW132726   2.978   6.503   0.397
10609SOL    HW232727   3.081   6.442   0.508
10610SOL     OW32728   6.755   2.487   4.787
10610SOL    HW132729   6.714   2.428   4.718
10610SOL    HW232730   6.825   2.545   4.744
10611SOL     OW32731   2.818   5.529   5.466
10611SOL    HW132732   2.843   5.613   5.513
10611SOL    HW232733   2.896   5.496   5.412
10612SOL     OW32734   5.096   1.219   4.326
10612SOL    HW132735   5.194   1.206   4.341
10612SOL    HW232736   5.082   1.265   4.238
10613SOL     OW32737   5.701   6.009   4.352
10613SOL    HW132738   5.770   5.987   4.283
10613SOL    HW232739   5.622   6.050   4.308
10614SOL     OW32740   5.459   1.011   4.786
10614SOL    HW132741   5.545   1.062   4.780
10614SOL    HW232742   5.399   1.054   4.853
10615SOL     OW32743   3.917   1.205   5.601
10615SOL    HW132744   3.841   1.144   5.580
10615SOL    HW232745   3.998   1.175   5.550
10616SOL     OW32746   2.625   6.129   6.434
10616SOL    HW132747   2.540   6.097   6.477
10616SOL    HW232748   2.636   6.227   6.452
10617SOL     OW32749   2.274   4.675   1.569
10617SOL    HW132750   2.318   4.609   1.630
10617SOL    HW232751   2.337   4.698   1.494
10618SOL     OW32752   0.784   5.221   5.104
10618SOL    HW132753   0.871   5.187   5.139
10618SOL    HW232754   0.793   5.238   5.005
10619SOL     OW32755   0.484   2.392   3.208
10619SOL    HW132756   0.440   2.335   3.278
10619SOL    HW232757   0.465   2.489   3.228
10620SOL     OW32758   1.526   0.034   5.216
10620SOL    HW132759   1.506   0.088   5.135
10620SOL    HW232760   1.443   0.026   5.272
10621SOL     OW32761   0.718   4.450   2.120
10621SOL    HW132762   0.787   4.481   2.054
10621SOL    HW232763   0.764   4.421   2.204
10622SOL     OW32764   4.492   2.390   1.170
10622SOL    HW132765   4.550   2.469   1.149
10622SOL    HW232766   4.458   2.399   1.264
10623SOL     OW32767   5.937   6.154   5.085
10623SOL    HW132768   5.909   6.147   5.181
10623SOL    HW232769   6.003   6.228   5.075
10624SOL     OW32770   0.292   3.148   4.551
10624SOL    HW132771   0.322   3.234   4.510
10624SOL    HW232772   0.196   3.132   4.530
10625SOL     OW32773   0.448   3.726   1.415
10625SOL    HW132774   0.505   3.658   1.461
10625SOL    HW232775   0.483   3.818   1.435
10626SOL     OW32776   3.348   2.935   1.730
10626SOL    HW132777   3.290   2.918   1.650
10626SOL    HW232778   3.357   2.851   1.783
10627SOL     OW32779   6.127   0.965   6.409
10627SOL    HW132780   6.150   1.050   6.456
10627SOL    HW232781   6.061   0.983   6.336
10628SOL     OW32782   4.410   0.116   0.700
10628SOL    HW132783   4.469   0.052   0.750
10628SOL    HW232784   4.328   0.067   0.668
10629SOL     OW32785   3.312   4.979   4.891
10629SOL    HW132786   3.314   5.076   4.916
10629SOL    HW232787   3.234   4.962   4.831
10630SOL     OW32788   5.631   1.054   2.515
10630SOL    HW132789   5.611   0.968   2.561
10630SOL    HW232790   5.547   1.090   2.474
10631SOL     OW32791   4.327   4.419   5.778
10631SOL    HW132792   4.401   4.483   5.800
10631SOL    HW232793   4.357   4.357   5.705
10632SOL     OW32794   5.031   5.858   3.096
10632SOL    HW132795   5.067   5.868   3.189
10632SOL    HW232796   5.104   5.878   3.030
10633SOL     OW32797   2.649   2.384   1.881
10633SOL    HW132798   2.720   2.367   1.949
10633SOL    HW232799   2.676   2.461   1.823
10634SOL     OW32800   1.513   5.550   0.633
10634SOL    HW132801   1.526   5.454   0.607
10634SOL    HW232802   1.561   5.567   0.720
10635SOL     OW32803   2.142   3.202   0.280
10635SOL    HW132804   2.181   3.158   0.199
10635SOL    HW232805   2.096   3.287   0.253
10636SOL     OW32806   6.873   1.830   1.116
10636SOL    HW132807   6.798   1.872   1.064
10636SOL    HW232808   6.946   1.805   1.053
10637SOL     OW32809   1.613   5.891   6.140
10637SOL    HW132810   1.560   5.835   6.204
10637SOL    HW232811   1.689   5.838   6.104
10638SOL     OW32812   5.657   6.268   2.192
10638SOL    HW132813   5.751   6.234   2.195
10638SOL    HW232814   5.600   6.215   2.256
10639SOL     OW32815   1.845   3.513   2.386
10639SOL    HW132816   1.887   3.500   2.296
10639SOL    HW232817   1.894   3.458   2.454
10640SOL     OW32818   4.885   0.527   3.195
10640SOL    HW132819   4.827   0.605   3.220
10640SOL    HW232820   4.945   0.504   3.271
10641SOL     OW32821   1.982   1.475   3.889
10641SOL    HW132822   1.982   1.492   3.988
10641SOL    HW232823   2.074   1.446   3.860
10642SOL     OW32824   6.067   2.046   0.238
10642SOL    HW132825   5.971   2.024   0.253
10642SOL    HW232826   6.124   1.994   0.303
10643SOL     OW32827   2.176   6.298   4.539
10643SOL    HW132828   2.254   6.358   4.527
10643SOL    HW232829   2.095   6.352   4.563
10644SOL     OW32830   5.747   3.446   1.072
10644SOL    HW132831   5.814   3.505   1.027
10644SOL    HW232832   5.770   3.439   1.170
10645SOL     OW32833   2.474   2.479   3.526
10645SOL    HW132834   2.455   2.577   3.526
10645SOL    HW232835   2.387   2.429   3.522
10646SOL     OW32836   5.971   0.753   5.640
10646SOL    HW132837   5.877   0.735   5.613
10646SOL    HW232838   5.972   0.793   5.732
10647SOL     OW32839   3.105   5.368   4.836
10647SOL    HW132840   3.085   5.292   4.774
10647SOL    HW232841   3.172   5.429   4.794
10648SOL     OW32842   6.067   5.607   6.760
10648SOL    HW132843   6.108   5.663   6.832
10648SOL    HW232844   5.968   5.603   6.774
10649SOL     OW32845   0.975   3.531   3.451
10649SOL    HW132846   1.009   3.579   3.532
10649SOL    HW232847   1.044   3.535   3.378
10650SOL     OW32848   0.577   0.040   4.350
10650SOL    HW132849   0.507   7.004   4.378
10650SOL    HW232850   0.668   7.030   4.361
10651SOL     OW32851   6.262   5.951   6.510
10651SOL    HW132852   6.274   6.021   6.440
10651SOL    HW232853   6.175   5.903   6.495
10652SOL     OW32854   2.106   6.970   5.666
10652SOL    HW132855   2.082   6.925   5.580
10652SOL    HW232856   2.041   6.943   5.738
10653SOL     OW32857   3.866   5.983   4.962
10653SOL    HW132858   3.768   5.989   4.985
10653SOL    HW232859   3.917   5.954   5.043
10654SOL     OW32860   4.947   1.031   5.552
10654SOL    HW132861   4.987   0.963   5.490
10654SOL    HW232862   4.906   0.984   5.630
10655SOL     OW32863   1.526   4.660   0.462
10655SOL    HW132864   1.495   4.677   0.555
10655SOL    HW232865   1.595   4.588   0.463
10656SOL     OW32866   6.608   1.184   2.478
10656SOL    HW132867   6.631   1.130   2.397
10656SOL    HW232868   6.510   1.203   2.479
10657SOL     OW32869   6.400   0.630   4.721
10657SOL    HW132870   6.301   0.629   4.707
10657SOL    HW232871   6.443   0.569   4.655
10658SOL     OW32872   6.293   4.342   4.721
10658SOL    HW132873   6.272   4.440   4.716
10658SOL    HW232874   6.389   4.328   4.697
10659SOL     OW32875   1.065   4.428   0.778
10659SOL    HW132876   1.092   4.460   0.686
10659SOL    HW232877   1.000   4.353   0.769
10660SOL     OW32878   6.045   4.148   5.362
10660SOL    HW132879   5.986   4.068   5.352
10660SOL    HW232880   6.020   4.218   5.296
10661SOL     OW32881   1.760   5.841   0.738
10661SOL    HW132882   1.797   5.933   0.749
10661SOL    HW232883   1.771   5.812   0.643
10662SOL     OW32884   4.235   0.805   2.330
10662SOL    HW132885   4.318   0.768   2.372
10662SOL    HW232886   4.209   0.890   2.376
10663SOL     OW32887   0.770   1.204   2.712
10663SOL    HW132888   0.687   1.159   2.681
10663SOL    HW232889   0.776   1.295   2.673
10664SOL     OW32890   6.766   4.790   5.406
10664SOL    HW132891   6.708   4.744   5.339
10664SOL    HW232892   6.782   4.885   5.378
10665SOL     OW32893   1.952   2.517   6.973
10665SOL    HW132894   1.947   2.535   0.041
10665SOL    HW232895   1.872   2.464   6.945
10666SOL     OW32896   3.201   4.070   2.514
10666SOL    HW132897   3.208   4.068   2.614
10666SOL    HW232898   3.126   4.010   2.485
10667SOL     OW32899   4.810   1.751   4.160
10667SOL    HW132900   4.800   1.805   4.243
10667SOL    HW232901   4.806   1.653   4.183
10668SOL     OW32902   3.116   1.185   4.945
10668SOL    HW132903   3.113   1.124   4.866
10668SOL    HW232904   3.062   1.146   5.020
10669SOL     OW32905   6.489   0.470   0.998
10669SOL    HW132906   6.527   0.515   1.078
10669SOL    HW232907   6.533   0.381   0.985
10670SOL     OW32908   5.771   4.817   4.760
10670SOL    HW132909   5.807   4.812   4.853
10670SOL    HW232910   5.812   4.745   4.705
10671SOL     OW32911   1.736   1.856   4.342
10671SOL    HW132912   1.691   1.790   4.282
10671SOL    HW232913   1.673   1.883   4.414
10672SOL     OW32914   6.666   4.131   2.276
10672SOL    HW132915   6.746   4.091   2.231
10672SOL    HW232916   6.683   4.228   2.295
10673SOL     OW32917   1.008   0.134   0.834
10673SOL    HW132918   1.001   0.091   0.743
10673SOL    HW232919   1.031   0.064   0.901
10674SOL     OW32920   3.777   3.744   4.404
10674SOL    HW132921   3.706   3.814   4.412
10674SOL    HW232922   3.828   3.758   4.319
10675SOL     OW32923   2.498   0.260   6.516
10675SOL    HW132924   2.541   0.350   6.505
10675SOL    HW232925   2.431   0.246   6.443
10676SOL     OW32926   0.479   6.602   4.783
10676SOL    HW132927   0.401   6.540   4.794
10676SOL    HW232928   0.446   6.697   4.780
10677SOL     OW32929   1.957   0.653   1.333
10677SOL    HW132930   1.935   0.691   1.243
10677SOL    HW232931   2.055   0.638   1.340
10678SOL     OW32932   4.160   5.008   4.087
10678SOL    HW132933   4.247   4.965   4.112
10678SOL    HW232934   4.105   4.943   4.034
10679SOL     OW32935   3.414   5.611   6.186
10679SOL    HW132936   3.329   5.606   6.238
10679SOL    HW232937   3.491   5.613   6.250
10680SOL     OW32938   3.819   2.143   3.702
10680SOL    HW132939   3.819   2.113   3.797
10680SOL    HW232940   3.748   2.093   3.651
10681SOL     OW32941   6.574   3.742   0.382
10681SOL    HW132942   6.605   3.783   0.297
10681SOL    HW232943   6.501   3.676   0.362
10682SOL     OW32944   0.044   2.677   5.293
10682SOL    HW132945   0.047   2.732   5.376
10682SOL    HW232946   6.980   2.653   5.272
10683SOL     OW32947   4.592   0.536   3.911
10683SOL    HW132948   4.506   0.587   3.905
10683SOL    HW232949   4.591   0.463   3.843
10684SOL     OW32950   4.296   5.062   2.444
10684SOL    HW132951   4.324   5.022   2.531
10684SOL    HW232952   4.282   5.160   2.455
10685SOL     OW32953   0.345   5.626   1.220
10685SOL    HW132954   0.389   5.715   1.228
10685SOL    HW232955   0.392   5.559   1.278
10686SOL     OW32956   1.442   4.057   5.792
10686SOL    HW132957   1.460   4.152   5.764
10686SOL    HW232958   1.351   4.030   5.761
10687SOL     OW32959   6.330   5.192   4.096
10687SOL    HW132960   6.394   5.219   4.168
10687SOL    HW232961   6.367   5.113   4.047
10688SOL     OW32962   6.016   3.132   2.993
10688SOL    HW132963   6.038   3.112   2.898
10688SOL    HW232964   5.917   3.139   3.004
10689SOL     OW32965   6.257   0.149   2.224
10689SOL    HW132966   6.300   0.090   2.293
10689SOL    HW232967   6.324   0.171   2.153
10690SOL     OW32968   0.388   5.455   3.575
10690SOL    HW132969   0.308   5.417   3.529
10690SOL    HW232970   0.432   5.522   3.515
10691SOL     OW32971   1.642   2.020   2.043
10691SOL    HW132972   1.736   2.025   2.077
10691SOL    HW232973   1.643   2.030   1.944
10692SOL     OW32974   2.475   0.520   3.496
10692SOL    HW132975   2.441   0.429   3.473
10692SOL    HW232976   2.495   0.525   3.594
10693SOL     OW32977   1.728   6.042   1.321
10693SOL    HW132978   1.728   6.033   1.421
10693SOL    HW232979   1.820   6.065   1.290
10694SOL     OW32980   5.284   5.948   6.860
10694SOL    HW132981   5.242   5.901   6.938
10694SOL    HW232982   5.378   5.915   6.849
10695SOL     OW32983   1.412   2.333   2.596
10695SOL    HW132984   1.367   2.355   2.510
10695SOL    HW232985   1.391   2.404   2.664
10696SOL     OW32986   6.394   4.194   3.880
10696SOL    HW132987   6.480   4.159   3.844
10696SOL    HW232988   6.378   4.157   3.972
10697SOL     OW32989   0.424   0.210   5.413
10697SOL    HW132990   0.407   0.123   5.367
10697SOL    HW232991   0.341   0.240   5.460
10698SOL     OW32992   4.854   4.754   0.085
10698SOL    HW132993   4.872   4.748   0.184
10698SOL    HW232994   4.939   4.735   0.035
10699SOL     OW32995   3.646   4.817   1.646
10699SOL    HW132996   3.626   4.760   1.725
10699SOL    HW232997   3.635   4.763   1.562
10700SOL     OW32998   5.484   6.047   0.629
10700SOL    HW132999   5.511   5.955   0.656
10700SOL    HW233000   5.457   6.099   0.710
10701SOL     OW33001   2.170   6.533   5.484
10701SOL    HW133002   2.157   6.438   5.513
10701SOL    HW233003   2.267   6.554   5.483
10702SOL     OW33004   5.861   3.154   2.189
10702SOL    HW133005   5.768   3.184   2.166
10702SOL    HW233006   5.905   3.223   2.247
10703SOL     OW33007   2.723   3.085   5.422
10703SOL    HW133008   2.679   3.084   5.333
10703SOL    HW233009   2.795   3.015   5.425
10704SOL     OW33010   6.148   5.059   2.020
10704SOL    HW133011   6.101   4.975   2.048
10704SOL    HW233012   6.244   5.039   2.002
10705SOL     OW33013   6.551   4.947   1.521
10705SOL    HW133014   6.539   4.916   1.615
10705SOL    HW233015   6.648   4.962   1.503
10706SOL     OW33016   4.693   0.452   2.972
10706SOL    HW133017   4.599   0.459   3.006
10706SOL    HW233018   4.756   0.454   3.050
10707SOL     OW33019   0.363   6.622   4.406
10707SOL    HW133020   0.444   6.612   4.347
10707SOL    HW233021   0.283   6.582   4.361
10708SOL     OW33022   3.680   1.268   1.165
10708SOL    HW133023   3.651   1.363   1.159
10708SOL    HW233024   3.755   1.252   1.101
10709SOL     OW33025   5.565   5.742   5.418
10709SOL    HW133026   5.593   5.816   5.357
10709SOL    HW233027   5.587   5.767   5.513
10710SOL     OW33028   6.550   0.991   4.246
10710SOL    HW133029   6.452   1.004   4.231
10710SOL    HW233030   6.566   0.963   4.341
10711SOL     OW33031   2.022   6.440   3.823
10711SOL    HW133032   1.932   6.416   3.859
10711SOL    HW233033   2.093   6.396   3.879
10712SOL     OW33034   2.804   0.530   1.849
10712SOL    HW133035   2.749   0.607   1.815
10712SOL    HW233036   2.775   0.506   1.941
10713SOL     OW33037   0.849   3.461   1.095
10713SOL    HW133038   0.843   3.361   1.094
10713SOL    HW233039   0.769   3.500   1.049
10714SOL     OW33040   5.442   3.780   5.182
10714SOL    HW133041   5.378   3.703   5.169
10714SOL    HW233042   5.493   3.767   5.267
10715SOL     OW33043   4.437   0.466   2.235
10715SOL    HW133044   4.374   0.408   2.288
10715SOL    HW233045   4.386   0.519   2.168
10716SOL     OW33046   5.830   1.862   3.922
10716SOL    HW133047   5.752   1.818   3.966
10716SOL    HW233048   5.815   1.960   3.918
10717SOL     OW33049   0.989   2.425   1.225
10717SOL    HW133050   0.916   2.424   1.293
10717SOL    HW233051   0.981   2.507   1.169
10718SOL     OW33052   0.806   3.689   0.032
10718SOL    HW133053   0.877   3.648   0.087
10718SOL    HW233054   0.789   3.783   0.063
10719SOL     OW33055   6.989   5.648   2.617
10719SOL    HW133056   7.005   5.553   2.644
10719SOL    HW233057   6.968   5.702   2.698
10720SOL     OW33058   0.397   4.747   5.348
10720SOL    HW133059   0.386   4.649   5.331
10720SOL    HW233060   0.349   4.799   5.278
10721SOL     OW33061   5.255   3.992   4.865
10721SOL    HW133062   5.281   4.021   4.957
10721SOL    HW233063   5.336   3.956   4.818
10722SOL     OW33064   1.279   5.235   6.633
10722SOL    HW133065   1.237   5.206   6.547
10722SOL    HW233066   1.255   5.330   6.652
10723SOL     OW33067   0.736   3.161   6.238
10723SOL    HW133068   0.795   3.185   6.162
10723SOL    HW233069   0.750   3.065   6.262
10724SOL     OW33070   6.568   1.588   0.039
10724SOL    HW133071   6.640   1.527   0.007
10724SOL    HW233072   6.595   1.628   0.126
10725SOL     OW33073   1.512   5.570   4.441
10725SOL    HW133074   1.566   5.530   4.515
10725SOL    HW233075   1.417   5.540   4.450
10726SOL     OW33076   5.339   0.393   4.764
10726SOL    HW133077   5.303   0.372   4.855
10726SOL    HW233078   5.432   0.427   4.773
10727SOL     OW33079   0.539   5.134   5.407
10727SOL    HW133080   0.540   5.066   5.481
10727SOL    HW233081   0.587   5.216   5.438
10728SOL     OW33082   0.495   5.910   6.489
10728SOL    HW133083   0.467   5.846   6.418
10728SOL    HW233084   0.578   5.875   6.534
10729SOL     OW33085   5.293   1.655   2.128
10729SOL    HW133086   5.202   1.614   2.116
10729SOL    HW233087   5.283   1.753   2.146
10730SOL     OW33088   1.991   1.060   1.066
10730SOL    HW133089   1.923   0.992   1.094
10730SOL    HW233090   2.034   1.099   1.147
10731SOL     OW33091   3.432   6.696   0.831
10731SOL    HW133092   3.353   6.656   0.785
10731SOL    HW233093   3.450   6.787   0.793
10732SOL     OW33094   6.402   4.741   4.390
10732SOL    HW133095   6.484   4.796   4.402
10732SOL    HW233096   6.417   4.649   4.426
10733SOL     OW33097   6.281   1.861   1.017
10733SOL    HW133098   6.206   1.804   0.984
10733SOL    HW233099   6.361   1.805   1.035
10734SOL     OW33100   0.461   0.525   0.014
10734SOL    HW133101   0.506   0.435   0.016
10734SOL    HW233102   0.469   0.565   6.953
10735SOL     OW33103   0.681   2.719   3.283
10735SOL    HW133104   0.615   2.667   3.337
10735SOL    HW233105   0.689   2.811   3.321
10736SOL     OW33106   0.774   0.528   3.387
10736SOL    HW133107   0.751   0.431   3.388
10736SOL    HW233108   0.803   0.555   3.295
10737SOL     OW33109   1.652   1.874   0.855
10737SOL    HW133110   1.668   1.912   0.946
10737SOL    HW233111   1.719   1.802   0.837
10738SOL     OW33112   2.714   0.594   3.159
10738SOL    HW133113   2.663   0.654   3.097
10738SOL    HW233114   2.703   0.626   3.253
10739SOL     OW33115   1.350   1.762   0.931
10739SOL    HW133116   1.431   1.736   0.984
10739SOL    HW233117   1.290   1.683   0.921
10740SOL     OW33118   0.068   4.606   4.853
10740SOL    HW133119   0.015   4.672   4.799
10740SOL    HW233120   0.039   4.610   4.948
10741SOL     OW33121   5.860   0.661   1.119
10741SOL    HW133122   5.816   0.708   1.196
10741SOL    HW233123   5.819   0.570   1.108
10742SOL     OW33124   5.623   0.467   0.785
10742SOL    HW133125   5.558   0.477   0.860
10742SOL    HW233126   5.574   0.466   0.698
10743SOL     OW33127   2.824   1.514   5.734
10743SOL    HW133128   2.734   1.558   5.734
10743SOL    HW233129   2.813   1.416   5.752
10744SOL     OW33130   3.683   1.576   1.221
10744SOL    HW133131   3.715   1.567   1.315
10744SOL    HW233132   3.653   1.671   1.206
10745SOL     OW33133   0.301   6.016   6.677
10745SOL    HW133134   0.214   6.030   6.631
10745SOL    HW233135   0.357   5.951   6.625
10746SOL     OW33136   2.238   4.712   1.203
10746SOL    HW133137   2.231   4.794   1.259
10746SOL    HW233138   2.157   4.655   1.218
10747SOL     OW33139   3.658   1.305   4.313
10747SOL    HW133140   3.618   1.216   4.333
10747SOL    HW233141   3.728   1.295   4.243
10748SOL     OW33142   5.252   0.846   1.186
10748SOL    HW133143   5.188   0.923   1.188
10748SOL    HW233144   5.205   0.764   1.154
10749SOL     OW33145   0.800   5.101   3.044
10749SOL    HW133146   0.703   5.096   3.022
10749SOL    HW233147   0.821   5.191   3.081
10750SOL     OW33148   4.226   5.924   4.652
10750SOL    HW133149   4.162   5.890   4.583
10750SOL    HW233150   4.299   5.857   4.665
10751SOL     OW33151   1.641   3.995   4.819
10751SOL    HW133152   1.724   4.051   4.811
10751SOL    HW233153   1.577   4.038   4.882
10752SOL     OW33154   6.238   3.968   6.499
10752SOL    HW133155   6.223   3.894   6.565
10752SOL    HW233156   6.312   3.943   6.437
10753SOL     OW33157   4.877   5.642   4.420
10753SOL    HW133158   4.840   5.609   4.333
10753SOL    HW233159   4.923   5.566   4.467
10754SOL     OW33160   0.943   1.097   3.002
10754SOL    HW133161   0.963   1.193   3.019
10754SOL    HW233162   0.972   1.073   2.909
10755SOL     OW33163   6.463   0.936   6.763
10755SOL    HW133164   6.523   0.961   6.687
10755SOL    HW233165   6.505   0.862   6.816
10756SOL     OW33166   6.847   4.931   0.108
10756SOL    HW133167   6.812   4.881   0.030
10756SOL    HW233168   6.779   4.931   0.182
10757SOL     OW33169   2.366   2.826   0.814
10757SOL    HW133170   2.268   2.843   0.821
10757SOL    HW233171   2.416   2.912   0.828
10758SOL     OW33172   0.615   6.646   4.242
10758SOL    HW133173   0.699   6.591   4.243
10758SOL    HW233174   0.632   6.731   4.193
10759SOL     OW33175   2.009   2.943   1.333
10759SOL    HW133176   1.988   3.041   1.328
10759SOL    HW233177   1.932   2.891   1.295
10760SOL     OW33178   5.639   1.585   2.529
10760SOL    HW133179   5.734   1.558   2.516
10760SOL    HW233180   5.602   1.619   2.443
10761SOL     OW33181   1.100   6.658   6.261
10761SOL    HW133182   1.021   6.601   6.282
10761SOL    HW233183   1.070   6.751   6.241
10762SOL     OW33184   3.600   2.102   4.408
10762SOL    HW133185   3.529   2.130   4.344
10762SOL    HW233186   3.561   2.090   4.499
10763SOL     OW33187   5.238   6.470   2.478
10763SOL    HW133188   5.204   6.450   2.386
10763SOL    HW233189   5.176   6.534   2.523
10764SOL     OW33190   4.999   2.554   5.973
10764SOL    HW133191   5.046   2.514   6.051
10764SOL    HW233192   4.937   2.487   5.933
10765SOL     OW33193   5.288   2.202   0.222
10765SOL    HW133194   5.349   2.167   0.150
10765SOL    HW233195   5.334   2.197   0.310
10766SOL     OW33196   4.936   3.939   0.412
10766SOL    HW133197   4.971   3.916   0.503
10766SOL    HW233198   4.977   3.878   0.344
10767SOL     OW33199   1.214   0.932   0.185
10767SOL    HW133200   1.154   0.988   0.128
10767SOL    HW233201   1.248   0.854   0.132
10768SOL     OW33202   4.556   4.689   1.655
10768SOL    HW133203   4.579   4.616   1.719
10768SOL    HW233204   4.477   4.662   1.600
10769SOL     OW33205   2.561   4.082   5.355
10769SOL    HW133206   2.508   4.026   5.291
10769SOL    HW233207   2.573   4.174   5.318
10770SOL     OW33208   5.648   0.420   4.792
10770SOL    HW133209   5.687   0.511   4.809
10770SOL    HW233210   5.603   0.388   4.875
10771SOL     OW33211   5.806   7.013   3.782
10771SOL    HW133212   5.868   0.008   3.707
10771SOL    HW233213   5.818   0.046   3.858
10772SOL     OW33214   5.746   6.865   4.226
10772SOL    HW133215   5.797   6.858   4.140
10772SOL    HW233216   5.790   6.808   4.296
10773SOL     OW33217   6.490   6.087   6.959
10773SOL    HW133218   6.587   6.077   6.977
10773SOL    HW233219   6.470   6.054   6.867
10774SOL     OW33220   3.316   1.488   6.715
10774SOL    HW133221   3.315   1.478   6.616
10774SOL    HW233222   3.223   1.481   6.750
10775SOL     OW33223   0.369   4.594   1.606
10775SOL    HW133224   0.423   4.676   1.620
10775SOL    HW233225   0.423   4.514   1.632
10776SOL     OW33226   7.029   0.876   6.696
10776SOL    HW133227   6.958   0.897   6.764
10776SOL    HW233228   0.064   0.951   6.691
10777SOL     OW33229   3.869   5.475   3.009
10777SOL    HW133230   3.884   5.534   2.931
10777SOL    HW233231   3.948   5.416   3.023
10778SOL     OW33232   5.777   0.124   4.260
10778SOL    HW133233   5.738   0.194   4.319
10778SOL    HW233234   5.733   0.036   4.279
10779SOL     OW33235   6.442   3.478   3.735
10779SOL    HW133236   6.528   3.529   3.726
10779SOL    HW233237   6.371   3.522   3.680
10780SOL     OW33238   2.332   1.054   3.582
10780SOL    HW133239   2.291   1.144   3.571
10780SOL    HW233240   2.323   1.026   3.678
10781SOL     OW33241   4.641   1.128   4.423
10781SOL    HW133242   4.713   1.060   4.438
10781SOL    HW233243   4.573   1.120   4.496
10782SOL     OW33244   6.352   1.973   1.769
10782SOL    HW133245   6.430   1.910   1.761
10782SOL    HW233246   6.380   2.054   1.820
10783SOL     OW33247   0.358   2.879   3.041
10783SOL    HW133248   0.408   2.965   3.026
10783SOL    HW233249   0.281   2.874   2.977
10784SOL     OW33250   3.688   6.782   4.169
10784SOL    HW133251   3.590   6.799   4.160
10784SOL    HW233252   3.727   6.846   4.235
10785SOL     OW33253   0.165   4.546   0.703
10785SOL    HW133254   0.250   4.598   0.703
10785SOL    HW233255   0.133   4.534   0.797
10786SOL     OW33256   5.582   4.661   3.207
10786SOL    HW133257   5.502   4.638   3.263
10786SOL    HW233258   5.552   4.713   3.126
10787SOL     OW33259   2.601   1.752   5.732
10787SOL    HW133260   2.511   1.795   5.733
10787SOL    HW233261   2.626   1.728   5.638
10788SOL     OW33262   1.814   4.691   6.268
10788SOL    HW133263   1.790   4.595   6.256
10788SOL    HW233264   1.913   4.702   6.261
10789SOL     OW33265   6.697   2.914   6.639
10789SOL    HW133266   6.611   2.919   6.589
10789SOL    HW233267   6.773   2.926   6.576
10790SOL     OW33268   1.187   0.218   1.843
10790SOL    HW133269   1.175   0.227   1.941
10790SOL    HW233270   1.100   0.196   1.800
10791SOL     OW33271   6.768   6.828   1.642
10791SOL    HW133272   6.777   6.868   1.550
10791SOL    HW233273   6.689   6.869   1.688
10792SOL     OW33274   2.963   3.784   4.668
10792SOL    HW133275   3.008   3.867   4.635
10792SOL    HW233276   3.018   3.741   4.739
10793SOL     OW33277   5.487   3.182   4.875
10793SOL    HW133278   5.427   3.259   4.853
10793SOL    HW233279   5.579   3.202   4.842
10794SOL     OW33280   3.322   3.207   4.341
10794SOL    HW133281   3.363   3.137   4.281
10794SOL    HW233282   3.222   3.200   4.336
10795SOL     OW33283   6.882   5.046   1.959
10795SOL    HW133284   6.944   5.119   1.928
10795SOL    HW233285   6.931   4.959   1.959
10796SOL     OW33286   5.920   0.463   5.983
10796SOL    HW133287   6.019   0.454   5.971
10796SOL    HW233288   5.875   0.455   5.894
10797SOL     OW33289   3.004   2.396   1.367
10797SOL    HW133290   3.089   2.346   1.383
10797SOL    HW233291   2.968   2.429   1.454
10798SOL     OW33292   2.622   0.226   0.182
10798SOL    HW133293   2.630   0.210   0.281
10798SOL    HW233294   2.713   0.240   0.144
10799SOL     OW33295   3.923   1.281   1.944
10799SOL    HW133296   3.945   1.352   2.011
10799SOL    HW233297   3.903   1.325   1.856
10800SOL     OW33298   6.835   6.651   6.180
10800SOL    HW133299   6.770   6.719   6.214
10800SOL    HW233300   6.787   6.566   6.160
10801SOL     OW33301   1.305   6.432   6.322
10801SOL    HW133302   1.236   6.407   6.390
10801SOL    HW233303   1.259   6.466   6.239
10802SOL     OW33304   1.080   0.259   2.810
10802SOL    HW133305   1.102   0.163   2.795
10802SOL    HW233306   0.984   0.276   2.788
10803SOL     OW33307   2.386   5.315   6.326
10803SOL    HW133308   2.429   5.225   6.336
10803SOL    HW233309   2.388   5.363   6.414
10804SOL     OW33310   5.592   3.177   2.524
10804SOL    HW133311   5.557   3.085   2.537
10804SOL    HW233312   5.518   3.243   2.534
10805SOL     OW33313   4.779   6.267   6.284
10805SOL    HW133314   4.830   6.349   6.306
10805SOL    HW233315   4.794   6.198   6.354
10806SOL     OW33316   4.514   4.327   6.443
10806SOL    HW133317   4.610   4.344   6.420
10806SOL    HW233318   4.504   4.235   6.479
10807SOL     OW33319   1.565   6.883   2.348
10807SOL    HW133320   1.499   6.862   2.276
10807SOL    HW233321   1.657   6.861   2.316
10808SOL     OW33322   7.000   2.648   5.980
10808SOL    HW133323   6.903   2.648   5.957
10808SOL    HW233324   0.020   2.698   5.909
10809SOL     OW33325   2.905   4.837   3.551
10809SOL    HW133326   2.806   4.827   3.559
10809SOL    HW233327   2.947   4.825   3.641
10810SOL     OW33328   1.484   0.242   3.663
10810SOL    HW133329   1.409   0.209   3.605
10810SOL    HW233330   1.534   0.314   3.616
10811SOL     OW33331   4.206   4.682   6.189
10811SOL    HW133332   4.144   4.732   6.250
10811SOL    HW233333   4.218   4.589   6.223
10812SOL     OW33334   0.512   3.907   0.728
10812SOL    HW133335   0.478   3.861   0.645
10812SOL    HW233336   0.596   3.863   0.758
10813SOL     OW33337   1.801   4.116   6.513
10813SOL    HW133338   1.878   4.159   6.465
10813SOL    HW233339   1.783   4.027   6.471
10814SOL     OW33340   1.612   6.863   6.327
10814SOL    HW133341   1.566   6.876   6.238
10814SOL    HW233342   1.638   6.952   6.363
10815SOL     OW33343   5.143   3.726   3.416
10815SOL    HW133344   5.073   3.691   3.479
10815SOL    HW233345   5.213   3.657   3.403
10816SOL     OW33346   3.396   3.682   2.991
10816SOL    HW133347   3.450   3.600   2.973
10816SOL    HW233348   3.427   3.724   3.077
10817SOL     OW33349   4.493   0.383   3.314
10817SOL    HW133350   4.496   0.290   3.349
10817SOL    HW233351   4.474   0.446   3.389
10818SOL     OW33352   4.903   4.501   5.339
10818SOL    HW133353   4.892   4.409   5.376
10818SOL    HW233354   4.983   4.503   5.279
10819SOL     OW33355   6.270   5.514   6.254
10819SOL    HW133356   6.362   5.528   6.291
10819SOL    HW233357   6.277   5.473   6.163
10820SOL     OW33358   6.946   4.836   4.272
10820SOL    HW133359   6.968   4.911   4.210
10820SOL    HW233360   0.000   4.802   4.314
10821SOL     OW33361   4.692   6.761   4.013
10821SOL    HW133362   4.626   6.766   3.938
10821SOL    HW233363   4.692   6.668   4.050
10822SOL     OW33364   6.254   2.163   2.873
10822SOL    HW133365   6.328   2.169   2.939
10822SOL    HW233366   6.250   2.070   2.835
10823SOL     OW33367   1.027   0.885   1.855
10823SOL    HW133368   1.065   0.877   1.763
10823SOL    HW233369   1.026   0.795   1.900
10824SOL     OW33370   7.021   1.289   2.689
10824SOL    HW133371   6.992   1.339   2.607
10824SOL    HW233372   6.988   1.195   2.684
10825SOL     OW33373   2.090   1.799   6.318
10825SOL    HW133374   2.049   1.887   6.342
10825SOL    HW233375   2.185   1.813   6.289
10826SOL     OW33376   0.473   2.137   3.343
10826SOL    HW133377   0.415   2.064   3.307
10826SOL    HW233378   0.566   2.104   3.353
10827SOL     OW33379   0.222   3.479   4.665
10827SOL    HW133380   0.162   3.449   4.591
10827SOL    HW233381   0.297   3.533   4.628
10828SOL     OW33382   1.317   4.118   0.927
10828SOL    HW133383   1.409   4.079   0.918
10828SOL    HW233384   1.293   4.167   0.844
10829SOL     OW33385   4.800   2.799   0.659
10829SOL    HW133386   4.713   2.846   0.648
10829SOL    HW233387   4.783   2.703   0.683
10830SOL     OW33388   4.339   1.845   3.000
10830SOL    HW133389   4.365   1.861   2.905
10830SOL    HW233390   4.377   1.758   3.031
10831SOL     OW33391   3.237   6.348   2.727
10831SOL    HW133392   3.173   6.413   2.686
10831SOL    HW233393   3.317   6.338   2.668
10832SOL     OW33394   0.557   3.542   5.975
10832SOL    HW133395   0.480   3.602   5.995
10832SOL    HW233396   0.643   3.592   5.988
10833SOL     OW33397   0.492   1.195   1.883
10833SOL    HW133398   0.450   1.104   1.876
10833SOL    HW233399   0.592   1.186   1.883
10834SOL     OW33400   6.599   1.450   0.613
10834SOL    HW133401   6.642   1.486   0.530
10834SOL    HW233402   6.624   1.354   0.624
10835SOL     OW33403   6.029   2.688   0.403
10835SOL    HW133404   5.951   2.630   0.426
10835SOL    HW233405   6.068   2.726   0.486
10836SOL     OW33406   6.504   1.508   4.857
10836SOL    HW133407   6.504   1.577   4.784
10836SOL    HW233408   6.548   1.546   4.939
10837SOL     OW33409   6.606   5.106   1.034
10837SOL    HW133410   6.558   5.059   1.108
10837SOL    HW233411   6.612   5.046   0.954
10838SOL     OW33412   6.873   6.084   3.808
10838SOL    HW133413   6.942   6.153   3.786
10838SOL    HW233414   6.840   6.099   3.901
10839SOL     OW33415   4.325   3.130   1.731
10839SOL    HW133416   4.257   3.060   1.710
10839SOL    HW233417   4.404   3.088   1.775
10840SOL     OW33418   3.269   6.251   2.463
10840SOL    HW133419   3.298   6.188   2.535
10840SOL    HW233420   3.315   6.227   2.377
10841SOL     OW33421   6.538   4.915   5.629
10841SOL    HW133422   6.584   4.835   5.669
10841SOL    HW233423   6.455   4.886   5.582
10842SOL     OW33424   4.937   2.240   1.235
10842SOL    HW133425   4.981   2.220   1.323
10842SOL    HW233426   4.848   2.284   1.252
10843SOL     OW33427   1.314   1.386   0.984
10843SOL    HW133428   1.240   1.443   0.950
10843SOL    HW233429   1.401   1.416   0.944
10844SOL     OW33430   0.651   5.991   3.192
10844SOL    HW133431   0.611   6.028   3.276
10844SOL    HW233432   0.730   6.046   3.166
10845SOL     OW33433   3.602   6.492   5.485
10845SOL    HW133434   3.569   6.533   5.570
10845SOL    HW233435   3.676   6.428   5.506
10846SOL     OW33436   5.695   0.812   6.942
10846SOL    HW133437   5.674   0.717   6.918
10846SOL    HW233438   5.771   0.814   7.007
10847SOL     OW33439   3.705   2.844   0.169
10847SOL    HW133440   3.800   2.871   0.183
10847SOL    HW233441   3.680   2.775   0.237
10848SOL     OW33442   2.270   3.822   0.708
10848SOL    HW133443   2.293   3.729   0.681
10848SOL    HW233444   2.324   3.848   0.788
10849SOL     OW33445   2.383   4.392   4.110
10849SOL    HW133446   2.383   4.297   4.140
10849SOL    HW233447   2.372   4.397   4.011
10850SOL     OW33448   2.475   6.350   5.972
10850SOL    HW133449   2.538   6.416   5.932
10850SOL    HW233450   2.522   6.297   6.043
10851SOL     OW33451   2.553   3.435   0.537
10851SOL    HW133452   2.545   3.503   0.464
10851SOL    HW233453   2.484   3.454   0.608
10852SOL     OW33454   0.983   0.257   0.018
10852SOL    HW133455   1.083   0.250   0.015
10852SOL    HW233456   0.949   0.285   6.959
10853SOL     OW33457   1.719   2.886   5.254
10853SOL    HW133458   1.768   2.972   5.241
10853SOL    HW233459   1.750   2.820   5.186
10854SOL     OW33460   4.643   4.640   5.649
10854SOL    HW133461   4.563   4.633   5.709
10854SOL    HW233462   4.726   4.626   5.702
10855SOL     OW33463   3.973   1.242   1.051
10855SOL    HW133464   3.971   1.336   1.018
10855SOL    HW233465   4.057   1.226   1.103
10856SOL     OW33466   5.165   0.912   0.621
10856SOL    HW133467   5.103   0.968   0.675
10856SOL    HW233468   5.158   0.816   0.649
10857SOL     OW33469   0.485   2.091   2.806
10857SOL    HW133470   0.408   2.134   2.854
10857SOL    HW233471   0.539   2.037   2.871
10858SOL     OW33472   0.814   1.572   0.045
10858SOL    HW133473   0.882   1.527   0.104
10858SOL    HW233474   0.858   1.646   7.026
10859SOL     OW33475   1.180   4.458   4.646
10859SOL    HW133476   1.265   4.460   4.593
10859SOL    HW233477   1.173   4.542   4.701
10860SOL     OW33478   0.097   3.340   5.087
10860SOL    HW133479   0.124   3.291   5.170
10860SOL    HW233480   0.179   3.373   5.041
10861SOL     OW33481   3.366   3.976   3.518
10861SOL    HW133482   3.308   3.898   3.541
10861SOL    HW233483   3.407   4.012   3.602
10862SOL     OW33484   2.104   1.348   6.351
10862SOL    HW133485   2.083   1.438   6.390
10862SOL    HW233486   2.181   1.308   6.401
10863SOL     OW33487   2.856   0.889   3.703
10863SOL    HW133488   2.843   0.818   3.773
10863SOL    HW233489   2.808   0.973   3.732
10864SOL     OW33490   2.366   6.507   0.293
10864SOL    HW133491   2.352   6.455   0.209
10864SOL    HW233492   2.440   6.467   0.346
10865SOL     OW33493   0.156   1.565   1.368
10865SOL    HW133494   0.181   1.472   1.392
10865SOL    HW233495   0.056   1.574   1.366
10866SOL     OW33496   5.459   3.977   0.466
10866SOL    HW133497   5.471   3.879   0.446
10866SOL    HW233498   5.375   4.010   0.422
10867SOL     OW33499   3.707   3.881   0.190
10867SOL    HW133500   3.645   3.851   0.263
10867SOL    HW233501   3.793   3.913   0.231
10868SOL     OW33502   5.249   1.127   3.919
10868SOL    HW133503   5.328   1.129   3.858
10868SOL    HW233504   5.280   1.133   4.014
10869NA      NA33505   6.462   2.863   5.387
10870NA      NA33506   4.451   4.603   5.200
10871NA      NA33507   1.912   2.937   2.324
10872NA      NA33508   5.079   3.866   4.932
10873NA      NA33509   4.138   2.349   5.282
10874NA      NA33510   3.479   4.912   1.845
10875NA      NA33511   0.040   4.827   0.222
10876NA      NA33512   3.548   3.430   4.505
10877NA      NA33513   4.933   6.100   0.180
10878NA      NA33514   3.527   6.522   5.268
10879NA      NA33515   5.923   5.303   1.751
10880NA      NA33516   2.177   0.131   3.954
10881NA      NA33517   3.883   5.352   2.602
10882NA      NA33518   3.697   3.874   2.382
   7.03030   7.03030   7.03030
